<event>
 5    1  0.5525569E-010  0.3838204E+03  0.7957747E-01  0.3434690E+00
         13   -1    0    0    0    0  0.00000000000E+00  0.00000000000E+00  0.14999999963E+04  0.15000000000E+04  0.10566000000E+00 0. -1.
        994   -1    0    0    0    0 -0.00000000000E+00 -0.00000000000E+00  0.11368683772E-12  0.17120000000E+03  0.17120000000E+03 0.  0.
         13    1    1    2    0    0  0.22858460978E+02 -0.18771262709E+02  0.76119547678E+02  0.81664351126E+02  0.10566000000E+00 0. -1.
        994    1    1    2    0    0 -0.73085296812E+02  0.22068395663E+03  0.20772904323E+03  0.35567353672E+03  0.17120000000E+03 0.  0.
        998    1    1    2    0    0  0.50226835834E+02 -0.20191269393E+03  0.12161514054E+04  0.12338621122E+04  0.10000000000E+02 0. -1.
</event>
<event>
 5    1  0.5525569E-010  0.3842533E+03  0.7957747E-01  0.3432845E+00
         13   -1    0    0    0    0  0.00000000000E+00  0.00000000000E+00  0.14999999963E+04  0.15000000000E+04  0.10566000000E+00 0.  1.
        994   -1    0    0    0    0 -0.00000000000E+00 -0.00000000000E+00  0.11368683772E-12  0.17120000000E+03  0.17120000000E+03 0.  0.
         13    1    1    2    0    0  0.68245780828E+02  0.45186086358E+02  0.47415064897E+03  0.48116329669E+03  0.10566000000E+00 0.  1.
        994    1    1    2    0    0 -0.16036559123E+03 -0.35037123952E+02  0.96556868294E+02  0.25608083044E+03  0.17120000000E+03 0.  0.
        998    1    1    2    0    0  0.92119810402E+02 -0.10148962406E+02  0.92929247902E+03  0.93395587287E+03  0.10000000000E+02 0.  1.
</event>
<event>
 5    1  0.5525569E-010  0.3698706E+03  0.7957747E-01  0.3496486E+00
         13   -1    0    0    0    0  0.00000000000E+00  0.00000000000E+00  0.14999999963E+04  0.15000000000E+04  0.10566000000E+00 0. -1.
        994   -1    0    0    0    0 -0.00000000000E+00 -0.00000000000E+00  0.11368683772E-12  0.17120000000E+03  0.17120000000E+03 0.  0.
         13    1    1    2    0    0 -0.25165335859E+02 -0.10447188622E+03  0.19379621587E+03  0.22159569849E+03  0.10566000000E+00 0. -1.
        994    1    1    2    0    0 -0.63808969576E+02  0.26708762500E+03  0.35458869435E+03  0.48005204529E+03  0.17120000000E+03 0.  0.
        998    1    1    2    0    0  0.88974305436E+02 -0.16261573879E+03  0.95161508606E+03  0.96955225622E+03  0.10000000000E+02 0.  1.
</event>
<event>
 5    1  0.8357399E-010  0.3867753E+03  0.7957747E-01  0.3422177E+00
         13   -1    0    0    0    0  0.00000000000E+00  0.00000000000E+00  0.14999999963E+04  0.15000000000E+04  0.10566000000E+00 0. -1.
        994   -1    0    0    0    0 -0.00000000000E+00 -0.00000000000E+00  0.11368683772E-12  0.17120000000E+03  0.17120000000E+03 0.  0.
         13    1    1    2    0    0  0.28090595795E+02 -0.23567580445E+03  0.11828192509E+04  0.12063969321E+04  0.10566000000E+00 0. -1.
        994    1    1    2    0    0 -0.24882256929E+02  0.24721397269E+03  0.23855708194E+03  0.38464632632E+03  0.17120000000E+03 0.  0.
        998    1    1    2    0    0 -0.32083388661E+01 -0.11538168247E+02  0.78623663420E+02  0.80156741540E+02  0.10000000000E+02 0.  1.
</event>
<event>
 5    1  0.5525569E-010  0.3852704E+03  0.7957747E-01  0.3428526E+00
         13   -1    0    0    0    0  0.00000000000E+00  0.00000000000E+00  0.14999999963E+04  0.15000000000E+04  0.10566000000E+00 0.  1.
        994   -1    0    0    0    0 -0.00000000000E+00 -0.00000000000E+00  0.11368683772E-12  0.17120000000E+03  0.17120000000E+03 0.  0.
         13    1    1    2    0    0  0.25843758833E+03  0.76992462602E+02  0.11634913649E+04  0.11943324469E+04  0.10566000000E+00 0.  1.
        994    1    1    2    0    0 -0.26218273746E+03 -0.76338068988E+02  0.30555695097E+03  0.44411910439E+03  0.17120000000E+03 0.  0.
        998    1    1    2    0    0  0.37451491293E+01 -0.65439361385E+00  0.30951680452E+02  0.32748448754E+02  0.10000000000E+02 0.  1.
</event>
<event>
 5    1  0.5525569E-010  0.3844463E+03  0.7957747E-01  0.3432024E+00
         13   -1    0    0    0    0  0.00000000000E+00  0.00000000000E+00  0.14999999963E+04  0.15000000000E+04  0.10566000000E+00 0. -1.
        994   -1    0    0    0    0 -0.00000000000E+00 -0.00000000000E+00  0.11368683772E-12  0.17120000000E+03  0.17120000000E+03 0.  0.
         13    1    1    2    0    0 -0.11224490021E+03 -0.18549208602E+03  0.11888391401E+04  0.12084472450E+04  0.10566000000E+00 0. -1.
        994    1    1    2    0    0  0.13407191536E+03  0.18568399761E+03  0.19979574353E+03  0.34882890447E+03  0.17120000000E+03 0.  0.
        998    1    1    2    0    0 -0.21827015148E+02 -0.19191159388E+00  0.11136511263E+03  0.11392385058E+03  0.10000000000E+02 0.  1.
</event>
<event>
 5    1  0.5525569E-010  0.3880257E+03  0.7957747E-01  0.3416941E+00
         13   -1    0    0    0    0  0.00000000000E+00  0.00000000000E+00  0.14999999963E+04  0.15000000000E+04  0.10566000000E+00 0.  1.
        994   -1    0    0    0    0 -0.00000000000E+00 -0.00000000000E+00  0.11368683772E-12  0.17120000000E+03  0.17120000000E+03 0.  0.
         13    1    1    2    0    0  0.14364418955E+02  0.29881189483E+02  0.14973440459E+03  0.15336109382E+03  0.10566000000E+00 0.  1.
        994    1    1    2    0    0 -0.10319539107E+03 -0.21355293255E+03  0.21166976601E+03  0.36106463906E+03  0.17120000000E+03 0.  0.
        998    1    1    2    0    0  0.88830972120E+02  0.18367174306E+03  0.11385958257E+04  0.11567742671E+04  0.10000000000E+02 0.  1.
</event>
<event>
 5    1  0.5525569E-010  0.2818918E+03  0.7957747E-01  0.4034426E+00
         13   -1    0    0    0    0  0.00000000000E+00  0.00000000000E+00  0.14999999963E+04  0.15000000000E+04  0.10566000000E+00 0.  1.
        994   -1    0    0    0    0 -0.00000000000E+00 -0.00000000000E+00  0.11368683772E-12  0.17120000000E+03  0.17120000000E+03 0.  0.
         13    1    1    2    0    0  0.61666309200E+02 -0.18888374275E+03  0.71362907546E+03  0.74077410219E+03  0.10566000000E+00 0.  1.
        994    1    1    2    0    0  0.13163963660E+03  0.20695989112E+03  0.41935809435E+03  0.51510391354E+03  0.17120000000E+03 0.  0.
        998    1    1    2    0    0 -0.19330594580E+03 -0.18076148363E+02  0.36701282647E+03  0.41532198427E+03  0.10000000000E+02 0.  1.
</event>
<event>
 5    1  0.5525569E-010  0.3858039E+03  0.7957747E-01  0.3426270E+00
         13   -1    0    0    0    0  0.00000000000E+00  0.00000000000E+00  0.14999999963E+04  0.15000000000E+04  0.10566000000E+00 0. -1.
        994   -1    0    0    0    0 -0.00000000000E+00 -0.00000000000E+00  0.11368683772E-12  0.17120000000E+03  0.17120000000E+03 0.  0.
         13    1    1    2    0    0  0.91210134879E+02  0.47066673871E+02  0.25647421233E+03  0.27624915068E+03  0.10566000000E+00 0. -1.
        994    1    1    2    0    0 -0.32862392069E+03 -0.70910319022E+02  0.60235885837E+03  0.71075142550E+03  0.17120000000E+03 0.  0.
        998    1    1    2    0    0  0.23741378581E+03  0.23843645151E+02  0.64116692557E+03  0.68419942382E+03  0.10000000000E+02 0. -1.
</event>
<event>
 5    1  0.5525569E-010  0.3849042E+03  0.7957747E-01  0.3430079E+00
         13   -1    0    0    0    0  0.00000000000E+00  0.00000000000E+00  0.14999999963E+04  0.15000000000E+04  0.10566000000E+00 0. -1.
        994   -1    0    0    0    0 -0.00000000000E+00 -0.00000000000E+00  0.11368683772E-12  0.17120000000E+03  0.17120000000E+03 0.  0.
         13    1    1    2    0    0 -0.49077166167E+02 -0.19284849916E+03  0.96981602020E+03  0.99002133112E+03  0.10566000000E+00 0. -1.
        994    1    1    2    0    0  0.73266865730E+02  0.21894124017E+03  0.20292633758E+03  0.35184064396E+03  0.17120000000E+03 0.  0.
        998    1    1    2    0    0 -0.24189699563E+02 -0.26092741016E+02  0.32725763850E+03  0.32933802492E+03  0.10000000000E+02 0. -1.
</event>
<event>
 5    1  0.5525569E-010  0.3854391E+03  0.7957747E-01  0.3427812E+00
         13   -1    0    0    0    0  0.00000000000E+00  0.00000000000E+00  0.14999999963E+04  0.15000000000E+04  0.10566000000E+00 0.  1.
        994   -1    0    0    0    0 -0.00000000000E+00 -0.00000000000E+00  0.11368683772E-12  0.17120000000E+03  0.17120000000E+03 0.  0.
         13    1    1    2    0    0 -0.17575410733E+03 -0.42141165469E+02  0.99052680571E+03  0.10068807020E+04  0.10566000000E+00 0.  1.
        994    1    1    2    0    0  0.21218219584E+03  0.29079067584E+02  0.17023072106E+03  0.32273025082E+03  0.17120000000E+03 0.  0.
        998    1    1    2    0    0 -0.36428088509E+02  0.13062097885E+02  0.33924246951E+03  0.34158904718E+03  0.10000000000E+02 0. -1.
</event>
<event>
 5    1  0.5525569E-010  0.3706246E+03  0.7957747E-01  0.3493025E+00
         13   -1    0    0    0    0  0.00000000000E+00  0.00000000000E+00  0.14999999963E+04  0.15000000000E+04  0.10566000000E+00 0.  1.
        994   -1    0    0    0    0 -0.00000000000E+00 -0.00000000000E+00  0.11368683772E-12  0.17120000000E+03  0.17120000000E+03 0.  0.
         13    1    1    2    0    0  0.57618872207E+02  0.32077449879E+02  0.34466434846E+03  0.35091654491E+03  0.10566000000E+00 0.  1.
        994    1    1    2    0    0  0.79335180569E+02 -0.10304786932E+03  0.73125048159E+02  0.22708951300E+03  0.17120000000E+03 0.  0.
        998    1    1    2    0    0 -0.13695405278E+03  0.70970419444E+02  0.10822105997E+04  0.10931939421E+04  0.10000000000E+02 0.  1.
</event>
<event>
 5    1  0.5525569E-010  0.3780235E+03  0.7957747E-01  0.3459810E+00
         13   -1    0    0    0    0  0.00000000000E+00  0.00000000000E+00  0.14999999963E+04  0.15000000000E+04  0.10566000000E+00 0. -1.
        994   -1    0    0    0    0 -0.00000000000E+00 -0.00000000000E+00  0.11368683772E-12  0.17120000000E+03  0.17120000000E+03 0.  0.
         13    1    1    2    0    0  0.96076678611E+01 -0.19286152478E+02  0.35623246570E+02  0.41632797400E+02  0.10566000000E+00 0. -1.
        994    1    1    2    0    0 -0.60860599183E+02  0.54286704049E+02  0.27851274523E+02  0.19166687836E+03  0.17120000000E+03 0.  0.
        998    1    1    2    0    0  0.51252931322E+02 -0.35000551571E+02  0.14365254752E+04  0.14379003242E+04  0.10000000000E+02 0. -1.
</event>
<event>
 5    1  0.5525569E-010  0.3875871E+03  0.7957747E-01  0.3418774E+00
         13   -1    0    0    0    0  0.00000000000E+00  0.00000000000E+00  0.14999999963E+04  0.15000000000E+04  0.10566000000E+00 0.  1.
        994   -1    0    0    0    0 -0.00000000000E+00 -0.00000000000E+00  0.11368683772E-12  0.17120000000E+03  0.17120000000E+03 0.  0.
         13    1    1    2    0    0  0.10183229997E+03  0.18005630327E+03  0.11695528215E+04  0.11877053099E+04  0.10566000000E+00 0.  1.
        994    1    1    2    0    0 -0.11515553848E+03 -0.20119312169E+03  0.20118400260E+03  0.35145968924E+03  0.17120000000E+03 0.  0.
        998    1    1    2    0    0  0.13323238504E+02  0.21136818423E+02  0.12926317217E+03  0.13203500088E+03  0.10000000000E+02 0.  0.
</event>
<event>
 5    1  0.5525569E-010  0.3833079E+03  0.7957747E-01  0.3436880E+00
         13   -1    0    0    0    0  0.00000000000E+00  0.00000000000E+00  0.14999999963E+04  0.15000000000E+04  0.10566000000E+00 0.  1.
        994   -1    0    0    0    0 -0.00000000000E+00 -0.00000000000E+00  0.11368683772E-12  0.17120000000E+03  0.17120000000E+03 0.  0.
         13    1    1    2    0    0  0.36508152604E+02  0.17052206087E+02  0.14571029905E+03  0.15117911678E+03  0.10566000000E+00 0.  1.
        994    1    1    2    0    0 -0.14105191442E+03 -0.29534956332E+02  0.74480111085E+02  0.23584885659E+03  0.17120000000E+03 0.  0.
        998    1    1    2    0    0  0.10454376181E+03  0.12482750244E+02  0.12798095861E+04  0.12841720266E+04  0.10000000000E+02 0.  1.
</event>
<event>
 5    1  0.5525569E-010  0.3829667E+03  0.7957747E-01  0.3438342E+00
         13   -1    0    0    0    0  0.00000000000E+00  0.00000000000E+00  0.14999999963E+04  0.15000000000E+04  0.10566000000E+00 0.  1.
        994   -1    0    0    0    0 -0.00000000000E+00 -0.00000000000E+00  0.11368683772E-12  0.17120000000E+03  0.17120000000E+03 0.  0.
         13    1    1    2    0    0  0.81947685387E+02  0.10015845582E+03  0.75495185071E+03  0.76596308493E+03  0.10566000000E+00 0.  1.
        994    1    1    2    0    0 -0.70728389799E+02 -0.17076191140E+03  0.12543795855E+03  0.28143606193E+03  0.17120000000E+03 0.  0.
        998    1    1    2    0    0 -0.11219295588E+02  0.70603455578E+02  0.61961018701E+03  0.62380085314E+03  0.10000000000E+02 0.  1.
</event>
<event>
 5    1  0.5525569E-010  0.3865055E+03  0.7957747E-01  0.3423312E+00
         13   -1    0    0    0    0  0.00000000000E+00  0.00000000000E+00  0.14999999963E+04  0.15000000000E+04  0.10566000000E+00 0. -1.
        994   -1    0    0    0    0 -0.00000000000E+00 -0.00000000000E+00  0.11368683772E-12  0.17120000000E+03  0.17120000000E+03 0.  0.
         13    1    1    2    0    0  0.58864492808E+02  0.75561084937E+02  0.56208987049E+03  0.57019254620E+03  0.10566000000E+00 0. -1.
        994    1    1    2    0    0 -0.15865056661E+03 -0.12516704907E+03  0.14836830326E+03  0.30357764389E+03  0.17120000000E+03 0.  0.
        998    1    1    2    0    0  0.99786073806E+02  0.49605964134E+02  0.78954182253E+03  0.79742980991E+03  0.10000000000E+02 0.  1.
</event>
<event>
 5    1  0.5525569E-010  0.3868932E+03  0.7957747E-01  0.3421683E+00
         13   -1    0    0    0    0  0.00000000000E+00  0.00000000000E+00  0.14999999963E+04  0.15000000000E+04  0.10566000000E+00 0. -1.
        994   -1    0    0    0    0 -0.00000000000E+00 -0.00000000000E+00  0.11368683772E-12  0.17120000000E+03  0.17120000000E+03 0.  0.
         13    1    1    2    0    0  0.10809991873E+03 -0.22151436448E+03  0.96841975640E+03  0.99929527261E+03  0.10566000000E+00 0. -1.
        994    1    1    2    0    0 -0.13103046816E+03  0.26802669686E+03  0.38590741150E+03  0.51695383166E+03  0.17120000000E+03 0.  0.
        998    1    1    2    0    0  0.22930549425E+02 -0.46512332384E+02  0.14567282838E+03  0.15495089573E+03  0.10000000000E+02 0.  0.
</event>
<event>
 5    1  0.5525569E-010  0.3793755E+03  0.7957747E-01  0.3453882E+00
         13   -1    0    0    0    0  0.00000000000E+00  0.00000000000E+00  0.14999999963E+04  0.15000000000E+04  0.10566000000E+00 0.  1.
        994   -1    0    0    0    0 -0.00000000000E+00 -0.00000000000E+00  0.11368683772E-12  0.17120000000E+03  0.17120000000E+03 0.  0.
         13    1    1    2    0    0  0.76774779257E+02 -0.73051960141E+02  0.35119547961E+03  0.36683679160E+03  0.10566000000E+00 0.  1.
        994    1    1    2    0    0 -0.18215630988E+03 -0.62653939922E+02  0.16587749118E+03  0.30648200518E+03  0.17120000000E+03 0.  0.
        998    1    1    2    0    0  0.10538153063E+03  0.13570590006E+03  0.98292702548E+03  0.99788120322E+03  0.10000000000E+02 0. -1.
</event>
<event>
 5    1  0.5525569E-010  0.3874616E+03  0.7957747E-01  0.3419299E+00
         13   -1    0    0    0    0  0.00000000000E+00  0.00000000000E+00  0.14999999963E+04  0.15000000000E+04  0.10566000000E+00 0.  1.
        994   -1    0    0    0    0 -0.00000000000E+00 -0.00000000000E+00  0.11368683772E-12  0.17120000000E+03  0.17120000000E+03 0.  0.
         13    1    1    2    0    0  0.15352764494E+03  0.82561785704E+02  0.98824573086E+03  0.10035022780E+04  0.10566000000E+00 0.  1.
        994    1    1    2    0    0 -0.21433721915E+03 -0.10942495586E+03  0.21992811955E+03  0.36822830180E+03  0.17120000000E+03 0.  0.
        998    1    1    2    0    0  0.60809574201E+02  0.26863170156E+02  0.29182614586E+03  0.29946942020E+03  0.10000000000E+02 0.  1.
</event>
<event>
 5    1  0.5525569E-010  0.3706637E+03  0.7957747E-01  0.3492846E+00
         13   -1    0    0    0    0  0.00000000000E+00  0.00000000000E+00  0.14999999963E+04  0.15000000000E+04  0.10566000000E+00 0. -1.
        994   -1    0    0    0    0 -0.00000000000E+00 -0.00000000000E+00  0.11368683772E-12  0.17120000000E+03  0.17120000000E+03 0.  0.
         13    1    1    2    0    0  0.50511421375E+02  0.79740716946E+02  0.38951156295E+03  0.40078579624E+03  0.10566000000E+00 0. -1.
        994    1    1    2    0    0 -0.20847901018E+03 -0.24228924934E+02  0.18065015840E+03  0.32556790109E+03  0.17120000000E+03 0.  0.
        998    1    1    2    0    0  0.15796758880E+03 -0.55511792012E+02  0.92983827492E+03  0.94484630267E+03  0.10000000000E+02 0. -1.
</event>
<event>
 5    1  0.5525569E-010  0.3868371E+03  0.7957747E-01  0.3421918E+00
         13   -1    0    0    0    0  0.00000000000E+00  0.00000000000E+00  0.14999999963E+04  0.15000000000E+04  0.10566000000E+00 0. -1.
        994   -1    0    0    0    0 -0.00000000000E+00 -0.00000000000E+00  0.11368683772E-12  0.17120000000E+03  0.17120000000E+03 0.  0.
         13    1    1    2    0    0  0.21330202136E+01 -0.11578775481E+02  0.61245509145E+02  0.62366989436E+02  0.10566000000E+00 0. -1.
        994    1    1    2    0    0  0.60651899239E+02  0.89158815020E+02  0.39700418332E+02  0.20618804619E+03  0.17120000000E+03 0.  0.
        998    1    1    2    0    0 -0.62784919453E+02 -0.77580039539E+02  0.13990540688E+04  0.14026449644E+04  0.10000000000E+02 0. -1.
</event>
<event>
 5    1  0.5525569E-010  0.3859315E+03  0.7957747E-01  0.3425731E+00
         13   -1    0    0    0    0  0.00000000000E+00  0.00000000000E+00  0.14999999963E+04  0.15000000000E+04  0.10566000000E+00 0.  1.
        994   -1    0    0    0    0 -0.00000000000E+00 -0.00000000000E+00  0.11368683772E-12  0.17120000000E+03  0.17120000000E+03 0.  0.
         13    1    1    2    0    0 -0.23507033869E+02  0.18880013250E+03  0.96124050843E+03  0.97988846145E+03  0.10566000000E+00 0.  1.
        994    1    1    2    0    0  0.71120585951E+01 -0.26029921349E+03  0.26931518615E+03  0.41188150166E+03  0.17120000000E+03 0.  0.
        998    1    1    2    0    0  0.16394975274E+02  0.71499080988E+02  0.26944430170E+03  0.27943003688E+03  0.10000000000E+02 0.  1.
</event>
<event>
 5    1  0.5525569E-010  0.3860269E+03  0.7957747E-01  0.3425329E+00
         13   -1    0    0    0    0  0.00000000000E+00  0.00000000000E+00  0.14999999963E+04  0.15000000000E+04  0.10566000000E+00 0. -1.
        994   -1    0    0    0    0 -0.00000000000E+00 -0.00000000000E+00  0.11368683772E-12  0.17120000000E+03  0.17120000000E+03 0.  0.
         13    1    1    2    0    0 -0.18106410139E+03  0.87661361186E+02  0.11250635685E+04  0.11429071561E+04  0.10566000000E+00 0. -1.
        994    1    1    2    0    0  0.19821736946E+03 -0.87356991422E+02  0.17394856335E+03  0.32632638906E+03  0.17120000000E+03 0.  0.
        998    1    1    2    0    0 -0.17153268067E+02 -0.30436976428E+00  0.20098786440E+03  0.20196645484E+03  0.10000000000E+02 0. -1.
</event>
<event>
 5    1  0.5525569E-010  0.3833915E+03  0.7957747E-01  0.3436523E+00
         13   -1    0    0    0    0  0.00000000000E+00  0.00000000000E+00  0.14999999963E+04  0.15000000000E+04  0.10566000000E+00 0.  1.
        994   -1    0    0    0    0 -0.00000000000E+00 -0.00000000000E+00  0.11368683772E-12  0.17120000000E+03  0.17120000000E+03 0.  0.
         13    1    1    2    0    0  0.22467488842E+03  0.16733025708E+02  0.10456341008E+04  0.10696305360E+04  0.10566000000E+00 0.  1.
        994    1    1    2    0    0 -0.27548495549E+03 -0.37037819972E+02  0.32452026984E+03  0.46031142322E+03  0.17120000000E+03 0.  0.
        998    1    1    2    0    0  0.50810067069E+02  0.20304794264E+02  0.12984562567E+03  0.14125804081E+03  0.10000000000E+02 0. -1.
</event>
<event>
 5    1  0.5525569E-010  0.3814078E+03  0.7957747E-01  0.3445051E+00
         13   -1    0    0    0    0  0.00000000000E+00  0.00000000000E+00  0.14999999963E+04  0.15000000000E+04  0.10566000000E+00 0.  1.
        994   -1    0    0    0    0 -0.00000000000E+00 -0.00000000000E+00  0.11368683772E-12  0.17120000000E+03  0.17120000000E+03 0.  0.
         13    1    1    2    0    0 -0.21760099769E+02 -0.23482419567E+03  0.70082210381E+03  0.73943731118E+03  0.10566000000E+00 0.  1.
        994    1    1    2    0    0  0.33854998810E+02  0.29355151942E+03  0.39125220740E+03  0.51933263453E+03  0.17120000000E+03 0.  0.
        998    1    1    2    0    0 -0.12094899041E+02 -0.58727323753E+02  0.40792568508E+03  0.41243005429E+03  0.10000000000E+02 0.  1.
</event>
<event>
 5    1  0.5525569E-010  0.3859221E+03  0.7957747E-01  0.3425771E+00
         13   -1    0    0    0    0  0.00000000000E+00  0.00000000000E+00  0.14999999963E+04  0.15000000000E+04  0.10566000000E+00 0. -1.
        994   -1    0    0    0    0 -0.00000000000E+00 -0.00000000000E+00  0.11368683772E-12  0.17120000000E+03  0.17120000000E+03 0.  0.
         13    1    1    2    0    0 -0.14413247890E+03 -0.19478932510E+03  0.11166026335E+04  0.11425928868E+04  0.10566000000E+00 0. -1.
        994    1    1    2    0    0  0.16940696234E+03  0.20885568681E+03  0.29232787614E+03  0.43253259296E+03  0.17120000000E+03 0.  0.
        998    1    1    2    0    0 -0.25274483441E+02 -0.14066361706E+02  0.91069486671E+02  0.96074520281E+02  0.10000000000E+02 0.  1.
</event>
<event>
 5    1  0.5525569E-010  0.3739508E+03  0.7957747E-01  0.3477929E+00
         13   -1    0    0    0    0  0.00000000000E+00  0.00000000000E+00  0.14999999963E+04  0.15000000000E+04  0.10566000000E+00 0.  1.
        994   -1    0    0    0    0 -0.00000000000E+00 -0.00000000000E+00  0.11368683772E-12  0.17120000000E+03  0.17120000000E+03 0.  0.
         13    1    1    2    0    0  0.15327835178E+02  0.17608525594E+02  0.31742558681E+02  0.39403095063E+02  0.10566000000E+00 0.  1.
        994    1    1    2    0    0  0.73156152767E+02 -0.11723927510E+03  0.75446666579E+02  0.23259086356E+03  0.17120000000E+03 0.  0.
        998    1    1    2    0    0 -0.88483987945E+02  0.99630749501E+02  0.13928107710E+04  0.13992060414E+04  0.10000000000E+02 0.  1.
</event>
<event>
 5    1  0.5525569E-010  0.3859467E+03  0.7957747E-01  0.3425667E+00
         13   -1    0    0    0    0  0.00000000000E+00  0.00000000000E+00  0.14999999963E+04  0.15000000000E+04  0.10566000000E+00 0.  1.
        994   -1    0    0    0    0 -0.00000000000E+00 -0.00000000000E+00  0.11368683772E-12  0.17120000000E+03  0.17120000000E+03 0.  0.
         13    1    1    2    0    0 -0.12550949049E+02  0.68188296144E+01  0.55699782588E+02  0.57502171296E+02  0.10566000000E+00 0.  1.
        994    1    1    2    0    0  0.11009640313E+03  0.18599005653E+02  0.43159637184E+02  0.20890029984E+03  0.17120000000E+03 0.  0.
        998    1    1    2    0    0 -0.97545454078E+02 -0.25417835268E+02  0.14011405765E+04  0.14047975289E+04  0.10000000000E+02 0.  1.
</event>
<event>
 5    1  0.5525569E-010  0.3859512E+03  0.7957747E-01  0.3425648E+00
         13   -1    0    0    0    0  0.00000000000E+00  0.00000000000E+00  0.14999999963E+04  0.15000000000E+04  0.10566000000E+00 0. -1.
        994   -1    0    0    0    0 -0.00000000000E+00 -0.00000000000E+00  0.11368683772E-12  0.17120000000E+03  0.17120000000E+03 0.  0.
         13    1    1    2    0    0 -0.15602938123E+03  0.11700759182E+03  0.10200181966E+04  0.10384955835E+04  0.10566000000E+00 0. -1.
        994    1    1    2    0    0  0.18667567485E+03 -0.12439923062E+03  0.18851577340E+03  0.33936796104E+03  0.17120000000E+03 0.  0.
        998    1    1    2    0    0 -0.30646293621E+02  0.73916388009E+01  0.29146602628E+03  0.29333645548E+03  0.10000000000E+02 0. -1.
</event>
<event>
 5    1  0.5525569E-010  0.3842225E+03  0.7957747E-01  0.3432976E+00
         13   -1    0    0    0    0  0.00000000000E+00  0.00000000000E+00  0.14999999963E+04  0.15000000000E+04  0.10566000000E+00 0. -1.
        994   -1    0    0    0    0 -0.00000000000E+00 -0.00000000000E+00  0.11368683772E-12  0.17120000000E+03  0.17120000000E+03 0.  0.
         13    1    1    2    0    0  0.21773113758E+02  0.44441279387E-01  0.10899958164E+03  0.11115300455E+03  0.10566000000E+00 0. -1.
        994    1    1    2    0    0 -0.39298045174E+02  0.99573891199E+02  0.40759147547E+02  0.20598554384E+03  0.17120000000E+03 0.  0.
        998    1    1    2    0    0  0.17524931416E+02 -0.99618332478E+02  0.13502412671E+04  0.13540614516E+04  0.10000000000E+02 0. -1.
</event>
<event>
 5    1  0.5525569E-010  0.3880402E+03  0.7957747E-01  0.3416880E+00
         13   -1    0    0    0    0  0.00000000000E+00  0.00000000000E+00  0.14999999963E+04  0.15000000000E+04  0.10566000000E+00 0. -1.
        994   -1    0    0    0    0 -0.00000000000E+00 -0.00000000000E+00  0.11368683772E-12  0.17120000000E+03  0.17120000000E+03 0.  0.
         13    1    1    2    0    0  0.26876206100E+01 -0.93892242262E+02  0.41023305245E+03  0.42084931382E+03  0.10566000000E+00 0. -1.
        994    1    1    2    0    0 -0.27159443369E+02  0.27819937774E+03  0.31890458713E+03  0.45732057119E+03  0.17120000000E+03 0.  0.
        998    1    1    2    0    0  0.24471822759E+02 -0.18430713548E+03  0.77086235670E+03  0.79303011499E+03  0.10000000000E+02 0. -1.
</event>
<event>
 5    1  0.5525569E-010  0.3874278E+03  0.7957747E-01  0.3419441E+00
         13   -1    0    0    0    0  0.00000000000E+00  0.00000000000E+00  0.14999999963E+04  0.15000000000E+04  0.10566000000E+00 0. -1.
        994   -1    0    0    0    0 -0.00000000000E+00 -0.00000000000E+00  0.11368683772E-12  0.17120000000E+03  0.17120000000E+03 0.  0.
         13    1    1    2    0    0 -0.11434676002E+03  0.18807999328E+03  0.43879219393E+03  0.49090514971E+03  0.10566000000E+00 0. -1.
        994    1    1    2    0    0  0.17084117275E+03 -0.30132875396E+03  0.85306779303E+03  0.93649336558E+03  0.17120000000E+03 0.  0.
        998    1    1    2    0    0 -0.56494412738E+02  0.11324876068E+03  0.20814000933E+03  0.24380148471E+03  0.10000000000E+02 0. -1.
</event>
<event>
 5    1  0.5525569E-010  0.3877878E+03  0.7957747E-01  0.3417934E+00
         13   -1    0    0    0    0  0.00000000000E+00  0.00000000000E+00  0.14999999963E+04  0.15000000000E+04  0.10566000000E+00 0. -1.
        994   -1    0    0    0    0 -0.00000000000E+00 -0.00000000000E+00  0.11368683772E-12  0.17120000000E+03  0.17120000000E+03 0.  0.
         13    1    1    2    0    0 -0.64155844015E+02 -0.56581070766E+02  0.49034772955E+03  0.49775324904E+03  0.10566000000E+00 0. -1.
        994    1    1    2    0    0  0.18084881729E+03  0.12186490537E+03  0.17448651122E+03  0.32758561091E+03  0.17120000000E+03 0.  0.
        998    1    1    2    0    0 -0.11669297328E+03 -0.65283834606E+02  0.83516575552E+03  0.84586114006E+03  0.10000000000E+02 0. -1.
</event>
<event>
 5    1  0.5525569E-010  0.3694416E+03  0.7957747E-01  0.3498461E+00
         13   -1    0    0    0    0  0.00000000000E+00  0.00000000000E+00  0.14999999963E+04  0.15000000000E+04  0.10566000000E+00 0.  1.
        994   -1    0    0    0    0 -0.00000000000E+00 -0.00000000000E+00  0.11368683772E-12  0.17120000000E+03  0.17120000000E+03 0.  0.
         13    1    1    2    0    0  0.31154573191E+02 -0.94334999826E+02  0.38436517768E+03  0.39699660024E+03  0.10566000000E+00 0.  1.
        994    1    1    2    0    0 -0.18116262399E+03  0.62225148828E+02  0.15225555710E+03  0.29863532970E+03  0.17120000000E+03 0.  0.
        998    1    1    2    0    0  0.15000805080E+03  0.32109850998E+02  0.96337926150E+03  0.97556807006E+03  0.10000000000E+02 0.  1.
</event>
<event>
 5    1  0.5525569E-010  0.3839942E+03  0.7957747E-01  0.3433949E+00
         13   -1    0    0    0    0  0.00000000000E+00  0.00000000000E+00  0.14999999963E+04  0.15000000000E+04  0.10566000000E+00 0. -1.
        994   -1    0    0    0    0 -0.00000000000E+00 -0.00000000000E+00  0.11368683772E-12  0.17120000000E+03  0.17120000000E+03 0.  0.
         13    1    1    2    0    0  0.87705438282E+01  0.11109643158E+02  0.43621051407E+02  0.45860155909E+02  0.10566000000E+00 0. -1.
        994    1    1    2    0    0 -0.71053427581E+02  0.22498471348E+02  0.20678277033E+02  0.18786112404E+03  0.17120000000E+03 0.  0.
        998    1    1    2    0    0  0.62282883753E+02 -0.33608114506E+02  0.14357006678E+04  0.14374787201E+04  0.10000000000E+02 0. -1.
</event>
<event>
 5    1  0.5525569E-010  0.3848681E+03  0.7957747E-01  0.3430232E+00
         13   -1    0    0    0    0  0.00000000000E+00  0.00000000000E+00  0.14999999963E+04  0.15000000000E+04  0.10566000000E+00 0. -1.
        994   -1    0    0    0    0 -0.00000000000E+00 -0.00000000000E+00  0.11368683772E-12  0.17120000000E+03  0.17120000000E+03 0.  0.
         13    1    1    2    0    0 -0.11249091273E+03  0.15506057873E+03  0.91018805343E+03  0.93012918043E+03  0.10566000000E+00 0. -1.
        994    1    1    2    0    0  0.14469033691E+03 -0.17876495857E+03  0.20115729540E+03  0.35023692195E+03  0.17120000000E+03 0.  0.
        998    1    1    2    0    0 -0.32199424175E+02  0.23704379836E+02  0.38865464746E+03  0.39083389762E+03  0.10000000000E+02 0. -1.
</event>
<event>
 5    1  0.5525569E-010  0.3858372E+03  0.7957747E-01  0.3426129E+00
         13   -1    0    0    0    0  0.00000000000E+00  0.00000000000E+00  0.14999999963E+04  0.15000000000E+04  0.10566000000E+00 0. -1.
        994   -1    0    0    0    0 -0.00000000000E+00 -0.00000000000E+00  0.11368683772E-12  0.17120000000E+03  0.17120000000E+03 0.  0.
         13    1    1    2    0    0  0.21230527539E+02  0.20977825536E+03  0.12118939352E+04  0.12300994159E+04  0.10566000000E+00 0. -1.
        994    1    1    2    0    0 -0.35591889841E+02 -0.22140944260E+03  0.18851601625E+03  0.33931792213E+03  0.17120000000E+03 0.  0.
        998    1    1    2    0    0  0.14361362302E+02  0.11631187244E+02  0.99590044837E+02  0.10178266195E+03  0.10000000000E+02 0.  0.
</event>
<event>
 5    1  0.5525569E-010  0.3865687E+03  0.7957747E-01  0.3423046E+00
         13   -1    0    0    0    0  0.00000000000E+00  0.00000000000E+00  0.14999999963E+04  0.15000000000E+04  0.10566000000E+00 0. -1.
        994   -1    0    0    0    0 -0.00000000000E+00 -0.00000000000E+00  0.11368683772E-12  0.17120000000E+03  0.17120000000E+03 0.  0.
         13    1    1    2    0    0  0.20907371643E+03 -0.42250010171E+02  0.95006938219E+03  0.97371901717E+03  0.10566000000E+00 0. -1.
        994    1    1    2    0    0 -0.25316854891E+03  0.39167792620E+02  0.25747875607E+03  0.40153851617E+03  0.17120000000E+03 0.  0.
        998    1    1    2    0    0  0.44094832482E+02  0.30822175514E+01  0.29245185802E+03  0.29594246666E+03  0.10000000000E+02 0. -1.
</event>
<event>
 5    1  0.5525569E-010  0.3813964E+03  0.7957747E-01  0.3445100E+00
         13   -1    0    0    0    0  0.00000000000E+00  0.00000000000E+00  0.14999999963E+04  0.15000000000E+04  0.10566000000E+00 0. -1.
        994   -1    0    0    0    0 -0.00000000000E+00 -0.00000000000E+00  0.11368683772E-12  0.17120000000E+03  0.17120000000E+03 0.  0.
         13    1    1    2    0    0 -0.15240412352E+02 -0.43086310972E+01  0.81793157410E+02  0.83312461455E+02  0.10566000000E+00 0. -1.
        994    1    1    2    0    0 -0.13743484406E+03  0.19478012741E+02  0.70448469793E+02  0.23138745912E+03  0.17120000000E+03 0.  0.
        998    1    1    2    0    0  0.15267525641E+03 -0.15169381644E+02  0.13477583691E+04  0.13565000794E+04  0.10000000000E+02 0. -1.
</event>
<event>
 5    1  0.5525569E-010  0.3835387E+03  0.7957747E-01  0.3435893E+00
         13   -1    0    0    0    0  0.00000000000E+00  0.00000000000E+00  0.14999999963E+04  0.15000000000E+04  0.10566000000E+00 0. -1.
        994   -1    0    0    0    0 -0.00000000000E+00 -0.00000000000E+00  0.11368683772E-12  0.17120000000E+03  0.17120000000E+03 0.  0.
         13    1    1    2    0    0  0.42208883625E+01  0.10092953522E+02  0.32344992611E+02  0.34145180046E+02  0.10566000000E+00 0. -1.
        994    1    1    2    0    0  0.40731789114E+02  0.48390375248E+02  0.15690986724E+02  0.18318393523E+03  0.17120000000E+03 0.  0.
        998    1    1    2    0    0 -0.44952677476E+02 -0.58483328769E+02  0.14519640169E+04  0.14538708847E+04  0.10000000000E+02 0. -1.
</event>
<event>
 5    1  0.5525569E-010  0.3859505E+03  0.7957747E-01  0.3425651E+00
         13   -1    0    0    0    0  0.00000000000E+00  0.00000000000E+00  0.14999999963E+04  0.15000000000E+04  0.10566000000E+00 0.  1.
        994   -1    0    0    0    0 -0.00000000000E+00 -0.00000000000E+00  0.11368683772E-12  0.17120000000E+03  0.17120000000E+03 0.  0.
         13    1    1    2    0    0  0.13461849649E+03  0.16043136857E+03  0.11789889028E+04  0.11974452838E+04  0.10566000000E+00 0.  1.
        994    1    1    2    0    0 -0.13321473314E+03 -0.17789155926E+03  0.18451838002E+03  0.33577975601E+03  0.17120000000E+03 0.  0.
        998    1    1    2    0    0 -0.14037633430E+01  0.17460190688E+02  0.13649271349E+03  0.13797496022E+03  0.10000000000E+02 0. -1.
</event>
<event>
 5    1  0.5525569E-010  0.3871072E+03  0.7957747E-01  0.3420784E+00
         13   -1    0    0    0    0  0.00000000000E+00  0.00000000000E+00  0.14999999963E+04  0.15000000000E+04  0.10566000000E+00 0.  1.
        994   -1    0    0    0    0 -0.00000000000E+00 -0.00000000000E+00  0.11368683772E-12  0.17120000000E+03  0.17120000000E+03 0.  0.
         13    1    1    2    0    0 -0.10731623246E+03  0.71107904217E+02  0.74064574016E+03  0.75175077744E+03  0.10566000000E+00 0.  1.
        994    1    1    2    0    0  0.16407026842E+03 -0.11419718328E+03  0.14420857214E+03  0.30010931663E+03  0.17120000000E+03 0.  0.
        998    1    1    2    0    0 -0.56754035966E+02  0.43089279066E+02  0.61514568397E+03  0.61933990593E+03  0.10000000000E+02 0.  1.
</event>
<event>
 5    1  0.5525569E-010  0.3867304E+03  0.7957747E-01  0.3422367E+00
         13   -1    0    0    0    0  0.00000000000E+00  0.00000000000E+00  0.14999999963E+04  0.15000000000E+04  0.10566000000E+00 0. -1.
        994   -1    0    0    0    0 -0.00000000000E+00 -0.00000000000E+00  0.11368683772E-12  0.17120000000E+03  0.17120000000E+03 0.  0.
         13    1    1    2    0    0  0.65206280467E+02 -0.76425885407E+01  0.33088010281E+03  0.33733058232E+03  0.10566000000E+00 0. -1.
        994    1    1    2    0    0 -0.23530313793E+03  0.10547857839E+03  0.26141422782E+03  0.40514211793E+03  0.17120000000E+03 0.  0.
        998    1    1    2    0    0  0.17009685746E+03 -0.97835989848E+02  0.90770566566E+03  0.92872729975E+03  0.10000000000E+02 0. -1.
</event>
<event>
 5    1  0.5525569E-010  0.3863930E+03  0.7957747E-01  0.3423786E+00
         13   -1    0    0    0    0  0.00000000000E+00  0.00000000000E+00  0.14999999963E+04  0.15000000000E+04  0.10566000000E+00 0.  1.
        994   -1    0    0    0    0 -0.00000000000E+00 -0.00000000000E+00  0.11368683772E-12  0.17120000000E+03  0.17120000000E+03 0.  0.
         13    1    1    2    0    0  0.12378830725E+03 -0.17572302895E+03  0.81136307783E+03  0.83935224021E+03  0.10566000000E+00 0.  1.
        994    1    1    2    0    0 -0.14758281511E+03  0.24016697020E+03  0.32999142750E+03  0.46654543520E+03  0.17120000000E+03 0.  0.
        998    1    1    2    0    0  0.23794507866E+02 -0.64443941248E+02  0.35864549095E+03  0.36530232459E+03  0.10000000000E+02 0.  1.
</event>
<event>
 5    1  0.5525569E-010  0.3878621E+03  0.7957747E-01  0.3417624E+00
         13   -1    0    0    0    0  0.00000000000E+00  0.00000000000E+00  0.14999999963E+04  0.15000000000E+04  0.10566000000E+00 0. -1.
        994   -1    0    0    0    0 -0.00000000000E+00 -0.00000000000E+00  0.11368683772E-12  0.17120000000E+03  0.17120000000E+03 0.  0.
         13    1    1    2    0    0 -0.17316649053E+02 -0.30624343988E+02  0.19199153920E+03  0.19518831693E+03  0.10566000000E+00 0. -1.
        994    1    1    2    0    0  0.99165380240E+02  0.16569018678E+03  0.13285846998E+03  0.29025475652E+03  0.17120000000E+03 0.  0.
        998    1    1    2    0    0 -0.81848731187E+02 -0.13506584280E+03  0.11751499871E+04  0.11857569265E+04  0.10000000000E+02 0. -1.
</event>
<event>
 5    1  0.8533457E-010  0.3870012E+03  0.7957747E-01  0.3421229E+00
         13   -1    0    0    0    0  0.00000000000E+00  0.00000000000E+00  0.14999999963E+04  0.15000000000E+04  0.10566000000E+00 0.  1.
        994   -1    0    0    0    0 -0.00000000000E+00 -0.00000000000E+00  0.11368683772E-12  0.17120000000E+03  0.17120000000E+03 0.  0.
         13    1    1    2    0    0  0.18139832660E+03 -0.50886372412E+02  0.11391190282E+04  0.11545938452E+04  0.10566000000E+00 0.  1.
        994    1    1    2    0    0 -0.19925135400E+03  0.56605422585E+02  0.15620246296E+03  0.31082780663E+03  0.17120000000E+03 0.  0.
        998    1    1    2    0    0  0.17853027404E+02 -0.57190501730E+01  0.20467850510E+03  0.20577834817E+03  0.10000000000E+02 0. -1.
</event>
<event>
 5    1  0.5525569E-010  0.3875740E+03  0.7957747E-01  0.3418828E+00
         13   -1    0    0    0    0  0.00000000000E+00  0.00000000000E+00  0.14999999963E+04  0.15000000000E+04  0.10566000000E+00 0. -1.
        994   -1    0    0    0    0 -0.00000000000E+00 -0.00000000000E+00  0.11368683772E-12  0.17120000000E+03  0.17120000000E+03 0.  0.
         13    1    1    2    0    0  0.18139342967E+03  0.13188050796E+03  0.10244140992E+04  0.10486754991E+04  0.10566000000E+00 0. -1.
        994    1    1    2    0    0 -0.21924191099E+03 -0.16073962838E+03  0.29729462124E+03  0.43771883154E+03  0.17120000000E+03 0.  0.
        998    1    1    2    0    0  0.37848481326E+02  0.28859120415E+02  0.17829127586E+03  0.18480566933E+03  0.10000000000E+02 0.  0.
</event>
<event>
 5    1  0.5525569E-010  0.3874359E+03  0.7957747E-01  0.3419407E+00
         13   -1    0    0    0    0  0.00000000000E+00  0.00000000000E+00  0.14999999963E+04  0.15000000000E+04  0.10566000000E+00 0.  1.
        994   -1    0    0    0    0 -0.00000000000E+00 -0.00000000000E+00  0.11368683772E-12  0.17120000000E+03  0.17120000000E+03 0.  0.
         13    1    1    2    0    0  0.11728215182E+03 -0.73776768276E+02  0.72599981037E+03  0.73910340988E+03  0.10566000000E+00 0.  1.
        994    1    1    2    0    0 -0.18254478487E+03  0.13187320232E+03  0.18828205691E+03  0.33981276157E+03  0.17120000000E+03 0.  0.
        998    1    1    2    0    0  0.65262633049E+02 -0.58096434048E+02  0.58571812900E+03  0.59228382855E+03  0.10000000000E+02 0.  1.
</event>
<event>
 5    1  0.5525569E-010  0.3806467E+03  0.7957747E-01  0.3448348E+00
         13   -1    0    0    0    0  0.00000000000E+00  0.00000000000E+00  0.14999999963E+04  0.15000000000E+04  0.10566000000E+00 0.  1.
        994   -1    0    0    0    0 -0.00000000000E+00 -0.00000000000E+00  0.11368683772E-12  0.17120000000E+03  0.17120000000E+03 0.  0.
         13    1    1    2    0    0 -0.70347385915E+02 -0.20892492675E+03  0.99279385391E+03  0.10169749393E+04  0.10566000000E+00 0.  1.
        994    1    1    2    0    0  0.12517825584E+03  0.22535530654E+03  0.27218422348E+03  0.41212655998E+03  0.17120000000E+03 0.  0.
        998    1    1    2    0    0 -0.54830869927E+02 -0.16430379797E+02  0.23502191889E+03  0.24209850069E+03  0.10000000000E+02 0.  1.
</event>
<event>
 5    1  0.5525569E-010  0.3877531E+03  0.7957747E-01  0.3418079E+00
         13   -1    0    0    0    0  0.00000000000E+00  0.00000000000E+00  0.14999999963E+04  0.15000000000E+04  0.10566000000E+00 0. -1.
        994   -1    0    0    0    0 -0.00000000000E+00 -0.00000000000E+00  0.11368683772E-12  0.17120000000E+03  0.17120000000E+03 0.  0.
         13    1    1    2    0    0 -0.26829340907E+02 -0.37115048699E+01  0.15186078819E+03  0.15425724928E+03  0.10566000000E+00 0. -1.
        994    1    1    2    0    0  0.17049709261E+03  0.28429553205E+02  0.10454829001E+03  0.26479668243E+03  0.17120000000E+03 0.  0.
        998    1    1    2    0    0 -0.14366775170E+03 -0.24718048335E+02  0.12435909181E+04  0.12521460683E+04  0.10000000000E+02 0. -1.
</event>
<event>
 5    1  0.5525569E-010  0.3846914E+03  0.7957747E-01  0.3430982E+00
         13   -1    0    0    0    0  0.00000000000E+00  0.00000000000E+00  0.14999999963E+04  0.15000000000E+04  0.10566000000E+00 0. -1.
        994   -1    0    0    0    0 -0.00000000000E+00 -0.00000000000E+00  0.11368683772E-12  0.17120000000E+03  0.17120000000E+03 0.  0.
         13    1    1    2    0    0  0.13287581578E+03  0.86644109876E+02  0.84196723612E+03  0.85678003131E+03  0.10566000000E+00 0. -1.
        994    1    1    2    0    0 -0.21726923541E+03 -0.82845651383E+02  0.20662661746E+03  0.35506805214E+03  0.17120000000E+03 0.  0.
        998    1    1    2    0    0  0.84393419638E+02 -0.37984584924E+01  0.45140614270E+03  0.45935191655E+03  0.10000000000E+02 0.  1.
</event>
<event>
 5    1  0.5525569E-010  0.3854684E+03  0.7957747E-01  0.3427688E+00
         13   -1    0    0    0    0  0.00000000000E+00  0.00000000000E+00  0.14999999963E+04  0.15000000000E+04  0.10566000000E+00 0. -1.
        994   -1    0    0    0    0 -0.00000000000E+00 -0.00000000000E+00  0.11368683772E-12  0.17120000000E+03  0.17120000000E+03 0.  0.
         13    1    1    2    0    0 -0.23537093820E+01 -0.17442941666E+03  0.82019934333E+03  0.83854524941E+03  0.10566000000E+00 0. -1.
        994    1    1    2    0    0 -0.10170686730E+02  0.23003723558E+03  0.20090565581E+03  0.35027574161E+03  0.17120000000E+03 0.  0.
        998    1    1    2    0    0  0.12524396112E+02 -0.55607818923E+02  0.47889499714E+03  0.48237900898E+03  0.10000000000E+02 0. -1.
</event>
<event>
 5    1  0.5525569E-010  0.3824420E+03  0.7957747E-01  0.3440594E+00
         13   -1    0    0    0    0  0.00000000000E+00  0.00000000000E+00  0.14999999963E+04  0.15000000000E+04  0.10566000000E+00 0.  1.
        994   -1    0    0    0    0 -0.00000000000E+00 -0.00000000000E+00  0.11368683772E-12  0.17120000000E+03  0.17120000000E+03 0.  0.
         13    1    1    2    0    0  0.44993303337E+01  0.21437297480E+03  0.77881429355E+03  0.80779188613E+03  0.10566000000E+00 0.  1.
        994    1    1    2    0    0 -0.63315396400E+02 -0.28827690075E+03  0.38676191855E+03  0.51575830828E+03  0.17120000000E+03 0.  0.
        998    1    1    2    0    0  0.58816066067E+02  0.73903925947E+02  0.33442378418E+03  0.34764980559E+03  0.10000000000E+02 0. -1.
</event>
<event>
 5    1  0.5525569E-010  0.3874300E+03  0.7957747E-01  0.3419431E+00
         13   -1    0    0    0    0  0.00000000000E+00  0.00000000000E+00  0.14999999963E+04  0.15000000000E+04  0.10566000000E+00 0.  1.
        994   -1    0    0    0    0 -0.00000000000E+00 -0.00000000000E+00  0.11368683772E-12  0.17120000000E+03  0.17120000000E+03 0.  0.
         13    1    1    2    0    0 -0.12790323863E+03 -0.15529958595E+03  0.66902320202E+03  0.69861953584E+03  0.10566000000E+00 0.  1.
        994    1    1    2    0    0  0.18433425145E+03  0.24285075613E+03  0.41029508057E+03  0.53907986342E+03  0.17120000000E+03 0.  0.
        998    1    1    2    0    0 -0.56431012818E+02 -0.87551170182E+02  0.42068171369E+03  0.43350060073E+03  0.10000000000E+02 0.  0.
</event>
<event>
 5    1  0.5525569E-010  0.3857424E+03  0.7957747E-01  0.3426530E+00
         13   -1    0    0    0    0  0.00000000000E+00  0.00000000000E+00  0.14999999963E+04  0.15000000000E+04  0.10566000000E+00 0. -1.
        994   -1    0    0    0    0 -0.00000000000E+00 -0.00000000000E+00  0.11368683772E-12  0.17120000000E+03  0.17120000000E+03 0.  0.
         13    1    1    2    0    0  0.18196678372E+02  0.34379375725E+02  0.20363018324E+03  0.20731213971E+03  0.10566000000E+00 0. -1.
        994    1    1    2    0    0 -0.10081277614E+03 -0.94853090849E+02  0.66867055210E+02  0.23008904309E+03  0.17120000000E+03 0.  0.
        998    1    1    2    0    0  0.82616097768E+02  0.60473715124E+02  0.12295027578E+04  0.12337988172E+04  0.10000000000E+02 0. -1.
</event>
<event>
 5    1  0.7630307E-010  0.3867012E+03  0.7957747E-01  0.3422489E+00
         13   -1    0    0    0    0  0.00000000000E+00  0.00000000000E+00  0.14999999963E+04  0.15000000000E+04  0.10566000000E+00 0. -1.
        994   -1    0    0    0    0 -0.00000000000E+00 -0.00000000000E+00  0.11368683772E-12  0.17120000000E+03  0.17120000000E+03 0.  0.
         13    1    1    2    0    0  0.15621747328E+03 -0.12901452241E+03  0.11913590033E+04  0.12084638728E+04  0.10566000000E+00 0. -1.
        994    1    1    2    0    0 -0.17527710945E+03  0.13117387246E+03  0.17736855973E+03  0.32969333614E+03  0.17120000000E+03 0.  0.
        998    1    1    2    0    0  0.19059636173E+02 -0.21593500457E+01  0.13127243320E+03  0.13304279102E+03  0.10000000000E+02 0.  1.
</event>
<event>
 5    1  0.5562107E-010  0.3873317E+03  0.7957747E-01  0.3419843E+00
         13   -1    0    0    0    0  0.00000000000E+00  0.00000000000E+00  0.14999999963E+04  0.15000000000E+04  0.10566000000E+00 0. -1.
        994   -1    0    0    0    0 -0.00000000000E+00 -0.00000000000E+00  0.11368683772E-12  0.17120000000E+03  0.17120000000E+03 0.  0.
         13    1    1    2    0    0 -0.98605356102E+02  0.18854586436E+03  0.11933164252E+04  0.12121372286E+04  0.10566000000E+00 0. -1.
        994    1    1    2    0    0  0.10984630994E+03 -0.20171390523E+03  0.19723120083E+03  0.34779922075E+03  0.17120000000E+03 0.  0.
        998    1    1    2    0    0 -0.11240953841E+02  0.13168040877E+02  0.10945237027E+03  0.11126355064E+03  0.10000000000E+02 0.  0.
</event>
<event>
 5    1  0.5525569E-010  0.2826212E+03  0.7957747E-01  0.4028471E+00
         13   -1    0    0    0    0  0.00000000000E+00  0.00000000000E+00  0.14999999963E+04  0.15000000000E+04  0.10566000000E+00 0. -1.
        994   -1    0    0    0    0 -0.00000000000E+00 -0.00000000000E+00  0.11368683772E-12  0.17120000000E+03  0.17120000000E+03 0.  0.
         13    1    1    2    0    0  0.12294737589E+03  0.81009356350E+02  0.83121341043E+03  0.84415301806E+03  0.10566000000E+00 0. -1.
        994    1    1    2    0    0  0.70482690823E+01  0.17923506691E+02  0.39399040019E+02  0.17672762813E+03  0.17120000000E+03 0.  0.
        998    1    1    2    0    0 -0.12999564497E+03 -0.98932863041E+02  0.62938754583E+03  0.65031935381E+03  0.10000000000E+02 0. -1.
</event>
<event>
 5    1  0.5525569E-010  0.3783994E+03  0.7957747E-01  0.3458158E+00
         13   -1    0    0    0    0  0.00000000000E+00  0.00000000000E+00  0.14999999963E+04  0.15000000000E+04  0.10566000000E+00 0. -1.
        994   -1    0    0    0    0 -0.00000000000E+00 -0.00000000000E+00  0.11368683772E-12  0.17120000000E+03  0.17120000000E+03 0.  0.
         13    1    1    2    0    0 -0.13395356946E+03  0.12879595874E+03  0.50577558907E+03  0.53883291977E+03  0.10566000000E+00 0. -1.
        994    1    1    2    0    0  0.17226665605E+03 -0.23264391738E+03  0.37697525892E+03  0.50519182388E+03  0.17120000000E+03 0.  0.
        998    1    1    2    0    0 -0.38313086582E+02  0.10384795864E+03  0.61724914828E+03  0.62717525635E+03  0.10000000000E+02 0.  1.
</event>
<event>
 5    1  0.6679913E-010  0.3864994E+03  0.7957747E-01  0.3423338E+00
         13   -1    0    0    0    0  0.00000000000E+00  0.00000000000E+00  0.14999999963E+04  0.15000000000E+04  0.10566000000E+00 0.  1.
        994   -1    0    0    0    0 -0.00000000000E+00 -0.00000000000E+00  0.11368683772E-12  0.17120000000E+03  0.17120000000E+03 0.  0.
         13    1    1    2    0    0  0.89271670811E+01  0.13161053274E+02  0.77597303405E+02  0.79210228476E+02  0.10566000000E+00 0.  1.
        994    1    1    2    0    0 -0.40433438997E+02 -0.76979675652E+02  0.26034252563E+02  0.19377294899E+03  0.17120000000E+03 0.  0.
        998    1    1    2    0    0  0.31506271916E+02  0.63818622377E+02  0.13963684403E+04  0.13982168225E+04  0.10000000000E+02 0.  1.
</event>
<event>
 5    1  0.5525569E-010  0.3868699E+03  0.7957747E-01  0.3421780E+00
         13   -1    0    0    0    0  0.00000000000E+00  0.00000000000E+00  0.14999999963E+04  0.15000000000E+04  0.10566000000E+00 0. -1.
        994   -1    0    0    0    0 -0.00000000000E+00 -0.00000000000E+00  0.11368683772E-12  0.17120000000E+03  0.17120000000E+03 0.  0.
         13    1    1    2    0    0 -0.17608805220E+03  0.40012920616E+02  0.46039473637E+03  0.49454156588E+03  0.10566000000E+00 0. -1.
        994    1    1    2    0    0  0.32092689184E+03 -0.72521477334E+02  0.53802718379E+03  0.65348001123E+03  0.17120000000E+03 0.  0.
        998    1    1    2    0    0 -0.14483883964E+03  0.32508556717E+02  0.50157807612E+03  0.52317842288E+03  0.10000000000E+02 0. -1.
</event>
<event>
 5    1  0.5525569E-010  0.3870152E+03  0.7957747E-01  0.3421170E+00
         13   -1    0    0    0    0  0.00000000000E+00  0.00000000000E+00  0.14999999963E+04  0.15000000000E+04  0.10566000000E+00 0.  1.
        994   -1    0    0    0    0 -0.00000000000E+00 -0.00000000000E+00  0.11368683772E-12  0.17120000000E+03  0.17120000000E+03 0.  0.
         13    1    1    2    0    0 -0.14148822563E+03 -0.54047844045E+02  0.84127644934E+03  0.85480182663E+03  0.10566000000E+00 0.  1.
        994    1    1    2    0    0  0.19532122128E+03  0.76672977937E+02  0.16077971878E+03  0.31494234869E+03  0.17120000000E+03 0.  0.
        998    1    1    2    0    0 -0.53832995645E+02 -0.22625133892E+02  0.49794382816E+03  0.50145582468E+03  0.10000000000E+02 0.  1.
</event>
<event>
 5    1  0.5525569E-010  0.3771450E+03  0.7957747E-01  0.3463685E+00
         13   -1    0    0    0    0  0.00000000000E+00  0.00000000000E+00  0.14999999963E+04  0.15000000000E+04  0.10566000000E+00 0.  1.
        994   -1    0    0    0    0 -0.00000000000E+00 -0.00000000000E+00  0.11368683772E-12  0.17120000000E+03  0.17120000000E+03 0.  0.
         13    1    1    2    0    0  0.65761770995E+02  0.19117091270E+02  0.40745984407E+03  0.41317503482E+03  0.10566000000E+00 0.  1.
        994    1    1    2    0    0 -0.14582036306E+03  0.11693011916E+03  0.13435861621E+03  0.28687612100E+03  0.17120000000E+03 0.  0.
        998    1    1    2    0    0  0.80058592065E+02 -0.13604721043E+03  0.95818153600E+03  0.97114884419E+03  0.10000000000E+02 0. -1.
</event>
<event>
 5    1  0.5525569E-010  0.3813920E+03  0.7957747E-01  0.3445120E+00
         13   -1    0    0    0    0  0.00000000000E+00  0.00000000000E+00  0.14999999963E+04  0.15000000000E+04  0.10566000000E+00 0. -1.
        994   -1    0    0    0    0 -0.00000000000E+00 -0.00000000000E+00  0.11368683772E-12  0.17120000000E+03  0.17120000000E+03 0.  0.
         13    1    1    2    0    0  0.28367641622E+02  0.63807242299E+02  0.30040909701E+03  0.30841809933E+03  0.10566000000E+00 0. -1.
        994    1    1    2    0    0  0.27150836888E+01 -0.15988095282E+03  0.93797151196E+02  0.25234229991E+03  0.17120000000E+03 0.  0.
        998    1    1    2    0    0 -0.31082725311E+02  0.96073710516E+02  0.11057937481E+04  0.11104396008E+04  0.10000000000E+02 0. -1.
</event>
<event>
 5    1  0.5525569E-010  0.3840122E+03  0.7957747E-01  0.3433872E+00
         13   -1    0    0    0    0  0.00000000000E+00  0.00000000000E+00  0.14999999963E+04  0.15000000000E+04  0.10566000000E+00 0. -1.
        994   -1    0    0    0    0 -0.00000000000E+00 -0.00000000000E+00  0.11368683772E-12  0.17120000000E+03  0.17120000000E+03 0.  0.
         13    1    1    2    0    0 -0.36568122979E+02  0.87308113257E+01  0.16447981022E+03  0.16872188304E+03  0.10566000000E+00 0. -1.
        994    1    1    2    0    0  0.10925467932E+03 -0.16509310800E+02  0.43499663285E+02  0.20835259298E+03  0.17120000000E+03 0.  0.
        998    1    1    2    0    0 -0.72686556341E+02  0.77784994747E+01  0.12920205228E+04  0.12941255240E+04  0.10000000000E+02 0. -1.
</event>
<event>
 5    1  0.5525569E-010  0.3875810E+03  0.7957747E-01  0.3418799E+00
         13   -1    0    0    0    0  0.00000000000E+00  0.00000000000E+00  0.14999999963E+04  0.15000000000E+04  0.10566000000E+00 0.  1.
        994   -1    0    0    0    0 -0.00000000000E+00 -0.00000000000E+00  0.11368683772E-12  0.17120000000E+03  0.17120000000E+03 0.  0.
         13    1    1    2    0    0 -0.43139145598E+02 -0.86425801312E+02  0.47097743737E+03  0.48078078445E+03  0.10566000000E+00 0.  1.
        994    1    1    2    0    0  0.10757018597E+03  0.20093093346E+03  0.19339011329E+03  0.34446155206E+03  0.17120000000E+03 0.  0.
        998    1    1    2    0    0 -0.64431040374E+02 -0.11450513215E+03  0.83563244562E+03  0.84595766349E+03  0.10000000000E+02 0.  1.
</event>
<event>
 5    1  0.5525569E-010  0.3199704E+03  0.7957747E-01  0.3763017E+00
         13   -1    0    0    0    0  0.00000000000E+00  0.00000000000E+00  0.14999999963E+04  0.15000000000E+04  0.10566000000E+00 0. -1.
        994   -1    0    0    0    0 -0.00000000000E+00 -0.00000000000E+00  0.11368683772E-12  0.17120000000E+03  0.17120000000E+03 0.  0.
         13    1    1    2    0    0  0.70080326929E+01  0.17029388917E+03  0.90254918562E+03  0.91850104237E+03  0.10566000000E+00 0. -1.
        994    1    1    2    0    0 -0.82195061335E+02 -0.12761185031E+03  0.10347091706E+03  0.25111049983E+03  0.17120000000E+03 0.  0.
        998    1    1    2    0    0  0.75187028642E+02 -0.42682038859E+02  0.49397989360E+03  0.50158845780E+03  0.10000000000E+02 0. -1.
</event>
<event>
 5    1  0.5525569E-010  0.3845938E+03  0.7957747E-01  0.3431397E+00
         13   -1    0    0    0    0  0.00000000000E+00  0.00000000000E+00  0.14999999963E+04  0.15000000000E+04  0.10566000000E+00 0.  1.
        994   -1    0    0    0    0 -0.00000000000E+00 -0.00000000000E+00  0.11368683772E-12  0.17120000000E+03  0.17120000000E+03 0.  0.
         13    1    1    2    0    0 -0.13715539688E+03  0.78999155632E+00  0.64611755202E+03  0.66051504840E+03  0.10566000000E+00 0.  1.
        994    1    1    2    0    0  0.21264309358E+03  0.27792744446E+02  0.17175669772E+03  0.32372723874E+03  0.17120000000E+03 0.  0.
        998    1    1    2    0    0 -0.75487696708E+02 -0.28582736003E+02  0.68212574655E+03  0.68695771286E+03  0.10000000000E+02 0.  1.
</event>
<event>
 5    1  0.5525569E-010  0.3849430E+03  0.7957747E-01  0.3429914E+00
         13   -1    0    0    0    0  0.00000000000E+00  0.00000000000E+00  0.14999999963E+04  0.15000000000E+04  0.10566000000E+00 0.  1.
        994   -1    0    0    0    0 -0.00000000000E+00 -0.00000000000E+00  0.11368683772E-12  0.17120000000E+03  0.17120000000E+03 0.  0.
         13    1    1    2    0    0 -0.39084928345E+02 -0.68002982400E+02  0.41329797672E+03  0.42067477457E+03  0.10566000000E+00 0.  1.
        994    1    1    2    0    0  0.28065080974E+02  0.19297583179E+03  0.13875751465E+03  0.29426248197E+03  0.17120000000E+03 0.  0.
        998    1    1    2    0    0  0.11019847371E+02 -0.12497284939E+03  0.94794450491E+03  0.95626274345E+03  0.10000000000E+02 0.  1.
</event>
<event>
 5    1  0.5525569E-010  0.3875513E+03  0.7957747E-01  0.3418923E+00
         13   -1    0    0    0    0  0.00000000000E+00  0.00000000000E+00  0.14999999963E+04  0.15000000000E+04  0.10566000000E+00 0.  1.
        994   -1    0    0    0    0 -0.00000000000E+00 -0.00000000000E+00  0.11368683772E-12  0.17120000000E+03  0.17120000000E+03 0.  0.
         13    1    1    2    0    0  0.19996853319E+03  0.24099720693E+01  0.11240863171E+04  0.11417369582E+04  0.10566000000E+00 0.  1.
        994    1    1    2    0    0 -0.22679215304E+03  0.25926393603E+01  0.19125980649E+03  0.34253635726E+03  0.17120000000E+03 0.  0.
        998    1    1    2    0    0  0.26823619857E+02 -0.50026114297E+01  0.18465387264E+03  0.18692668452E+03  0.10000000000E+02 0. -1.
</event>
<event>
 5    1  0.5525569E-010  0.3873403E+03  0.7957747E-01  0.3419807E+00
         13   -1    0    0    0    0  0.00000000000E+00  0.00000000000E+00  0.14999999963E+04  0.15000000000E+04  0.10566000000E+00 0.  1.
        994   -1    0    0    0    0 -0.00000000000E+00 -0.00000000000E+00  0.11368683772E-12  0.17120000000E+03  0.17120000000E+03 0.  0.
         13    1    1    2    0    0  0.85235828752E+02 -0.27986062502E+02  0.50050474460E+03  0.50848144187E+03  0.10566000000E+00 0.  1.
        994    1    1    2    0    0 -0.18425854079E+03  0.75854785876E+02  0.14294598173E+03  0.29907883925E+03  0.17120000000E+03 0.  0.
        998    1    1    2    0    0  0.99022712037E+02 -0.47868723374E+02  0.85654926995E+03  0.86363971888E+03  0.10000000000E+02 0.  1.
</event>
<event>
 5    1  0.5525569E-010  0.3831834E+03  0.7957747E-01  0.3437413E+00
         13   -1    0    0    0    0  0.00000000000E+00  0.00000000000E+00  0.14999999963E+04  0.15000000000E+04  0.10566000000E+00 0. -1.
        994   -1    0    0    0    0 -0.00000000000E+00 -0.00000000000E+00  0.11368683772E-12  0.17120000000E+03  0.17120000000E+03 0.  0.
         13    1    1    2    0    0 -0.14799249210E+03  0.28225903342E+02  0.88710948029E+03  0.89981204733E+03  0.10566000000E+00 0. -1.
        994    1    1    2    0    0  0.25790298678E+03 -0.40877193039E+02  0.27628868546E+03  0.41692897862E+03  0.17120000000E+03 0.  0.
        998    1    1    2    0    0 -0.10991049467E+03  0.12651289697E+02  0.33660183053E+03  0.35445897405E+03  0.10000000000E+02 0.  1.
</event>
<event>
 5    1  0.5525569E-010  0.3858825E+03  0.7957747E-01  0.3425938E+00
         13   -1    0    0    0    0  0.00000000000E+00  0.00000000000E+00  0.14999999963E+04  0.15000000000E+04  0.10566000000E+00 0. -1.
        994   -1    0    0    0    0 -0.00000000000E+00 -0.00000000000E+00  0.11368683772E-12  0.17120000000E+03  0.17120000000E+03 0.  0.
         13    1    1    2    0    0  0.12083054392E+01 -0.15965657353E+02  0.69750490476E+02  0.71564686140E+02  0.10566000000E+00 0. -1.
        994    1    1    2    0    0  0.11831890158E+02  0.74595972344E+02  0.20127898637E+02  0.18819969452E+03  0.17120000000E+03 0.  0.
        998    1    1    2    0    0 -0.13040195597E+02 -0.58630314991E+02  0.14101216072E+04  0.14114356193E+04  0.10000000000E+02 0. -1.
</event>
<event>
 5    1  0.5525569E-010  0.3873364E+03  0.7957747E-01  0.3419823E+00
         13   -1    0    0    0    0  0.00000000000E+00  0.00000000000E+00  0.14999999963E+04  0.15000000000E+04  0.10566000000E+00 0.  1.
        994   -1    0    0    0    0 -0.00000000000E+00 -0.00000000000E+00  0.11368683772E-12  0.17120000000E+03  0.17120000000E+03 0.  0.
         13    1    1    2    0    0  0.48925085531E+02 -0.74849573868E+01  0.19896918682E+03  0.20503277067E+03  0.10566000000E+00 0.  1.
        994    1    1    2    0    0 -0.23606424390E+03  0.90589735679E+02  0.24803274642E+03  0.39339866644E+03  0.17120000000E+03 0.  0.
        998    1    1    2    0    0  0.18713915837E+03 -0.83104778292E+02  0.10529980630E+04  0.10727685629E+04  0.10000000000E+02 0.  1.
</event>
<event>
 5    1  0.5525569E-010  0.3852564E+03  0.7957747E-01  0.3428586E+00
         13   -1    0    0    0    0  0.00000000000E+00  0.00000000000E+00  0.14999999963E+04  0.15000000000E+04  0.10566000000E+00 0.  1.
        994   -1    0    0    0    0 -0.00000000000E+00 -0.00000000000E+00  0.11368683772E-12  0.17120000000E+03  0.17120000000E+03 0.  0.
         13    1    1    2    0    0 -0.48798562837E+02  0.99462309008E+02  0.60519658535E+03  0.61525358084E+03  0.10566000000E+00 0.  1.
        994    1    1    2    0    0  0.41689103006E+02 -0.19436566544E+03  0.14438967351E+03  0.29945585823E+03  0.17120000000E+03 0.  0.
        998    1    1    2    0    0  0.71094598310E+01  0.94903356429E+02  0.75041373742E+03  0.75649056093E+03  0.10000000000E+02 0.  1.
</event>
<event>
 5    1  0.5525569E-010  0.3861957E+03  0.7957747E-01  0.3424617E+00
         13   -1    0    0    0    0  0.00000000000E+00  0.00000000000E+00  0.14999999963E+04  0.15000000000E+04  0.10566000000E+00 0. -1.
        994   -1    0    0    0    0 -0.00000000000E+00 -0.00000000000E+00  0.11368683772E-12  0.17120000000E+03  0.17120000000E+03 0.  0.
         13    1    1    2    0    0 -0.29591028828E+03  0.10921377227E+02  0.88408578877E+03  0.93235715703E+03  0.10566000000E+00 0. -1.
        994    1    1    2    0    0  0.32046710474E+03 -0.19708646783E+02  0.49265965844E+03  0.61246271317E+03  0.17120000000E+03 0.  0.
        998    1    1    2    0    0 -0.24556816456E+02  0.87872695564E+01  0.12325454908E+03  0.12638012980E+03  0.10000000000E+02 0.  1.
</event>
<event>
 5    1  0.5525569E-010  0.3753815E+03  0.7957747E-01  0.3471518E+00
         13   -1    0    0    0    0  0.00000000000E+00  0.00000000000E+00  0.14999999963E+04  0.15000000000E+04  0.10566000000E+00 0. -1.
        994   -1    0    0    0    0 -0.00000000000E+00 -0.00000000000E+00  0.11368683772E-12  0.17120000000E+03  0.17120000000E+03 0.  0.
         13    1    1    2    0    0 -0.36780949875E+02  0.52691147669E+01  0.15818951127E+03  0.16249472140E+03  0.10566000000E+00 0. -1.
        994    1    1    2    0    0 -0.48358424762E+02 -0.13944217951E+03  0.84438312956E+02  0.24129220329E+03  0.17120000000E+03 0.  0.
        998    1    1    2    0    0  0.85139374637E+02  0.13417306474E+03  0.12573721721E+04  0.12674130753E+04  0.10000000000E+02 0. -1.
</event>
<event>
 5    1  0.5525569E-010  0.3872241E+03  0.7957747E-01  0.3420294E+00
         13   -1    0    0    0    0  0.00000000000E+00  0.00000000000E+00  0.14999999963E+04  0.15000000000E+04  0.10566000000E+00 0.  1.
        994   -1    0    0    0    0 -0.00000000000E+00 -0.00000000000E+00  0.11368683772E-12  0.17120000000E+03  0.17120000000E+03 0.  0.
         13    1    1    2    0    0 -0.71663854751E+02  0.23391334709E+03  0.10778172998E+04  0.11052335975E+04  0.10566000000E+00 0.  1.
        994    1    1    2    0    0  0.74680508470E+02 -0.25642137051E+03  0.28467395195E+03  0.42623678457E+03  0.17120000000E+03 0.  0.
        998    1    1    2    0    0 -0.30166537188E+01  0.22508023428E+02  0.13750874452E+03  0.13972961797E+03  0.10000000000E+02 0.  1.
</event>
<event>
 5    1  0.5525569E-010  0.3868728E+03  0.7957747E-01  0.3421768E+00
         13   -1    0    0    0    0  0.00000000000E+00  0.00000000000E+00  0.14999999963E+04  0.15000000000E+04  0.10566000000E+00 0.  1.
        994   -1    0    0    0    0 -0.00000000000E+00 -0.00000000000E+00  0.11368683772E-12  0.17120000000E+03  0.17120000000E+03 0.  0.
         13    1    1    2    0    0  0.20921046734E+02 -0.13821932794E+02  0.14506574964E+03  0.14721691107E+03  0.10566000000E+00 0.  1.
        994    1    1    2    0    0 -0.97233684130E+02  0.63653305797E+02  0.46165636807E+02  0.21200669492E+03  0.17120000000E+03 0.  0.
        998    1    1    2    0    0  0.76312637397E+02 -0.49831373003E+02  0.13087686098E+04  0.13119763940E+04  0.10000000000E+02 0.  1.
</event>
<event>
 5    1  0.5525569E-010  0.3878386E+03  0.7957747E-01  0.3417722E+00
         13   -1    0    0    0    0  0.00000000000E+00  0.00000000000E+00  0.14999999963E+04  0.15000000000E+04  0.10566000000E+00 0. -1.
        994   -1    0    0    0    0 -0.00000000000E+00 -0.00000000000E+00  0.11368683772E-12  0.17120000000E+03  0.17120000000E+03 0.  0.
         13    1    1    2    0    0  0.13479119271E+03  0.49072321790E+02  0.81638043042E+03  0.82888707116E+03  0.10566000000E+00 0. -1.
        994    1    1    2    0    0 -0.22418765865E+03 -0.66195752984E+02  0.20479989217E+03  0.35481603661E+03  0.17120000000E+03 0.  0.
        998    1    1    2    0    0  0.89396465939E+02  0.17123431195E+02  0.47881967369E+03  0.48749689223E+03  0.10000000000E+02 0. -1.
</event>
<event>
 5    1  0.5525569E-010  0.3880374E+03  0.7957747E-01  0.3416891E+00
         13   -1    0    0    0    0  0.00000000000E+00  0.00000000000E+00  0.14999999963E+04  0.15000000000E+04  0.10566000000E+00 0.  1.
        994   -1    0    0    0    0 -0.00000000000E+00 -0.00000000000E+00  0.11368683772E-12  0.17120000000E+03  0.17120000000E+03 0.  0.
         13    1    1    2    0    0 -0.74679490594E+02 -0.60136978657E+02  0.34727181095E+03  0.36026546374E+03  0.10566000000E+00 0.  1.
        994    1    1    2    0    0  0.24542937961E+03  0.17053418883E+03  0.38456221308E+03  0.51625093285E+03  0.17120000000E+03 0.  0.
        998    1    1    2    0    0 -0.17074988902E+03 -0.11039721018E+03  0.76816597225E+03  0.79468360342E+03  0.10000000000E+02 0.  1.
</event>
<event>
 5    1  0.5525569E-010  0.3852899E+03  0.7957747E-01  0.3428444E+00
         13   -1    0    0    0    0  0.00000000000E+00  0.00000000000E+00  0.14999999963E+04  0.15000000000E+04  0.10566000000E+00 0.  1.
        994   -1    0    0    0    0 -0.00000000000E+00 -0.00000000000E+00  0.11368683772E-12  0.17120000000E+03  0.17120000000E+03 0.  0.
         13    1    1    2    0    0 -0.35125735958E+01 -0.10500211549E+02  0.64391850265E+02  0.65336928000E+02  0.10566000000E+00 0.  1.
        994    1    1    2    0    0 -0.11724893815E+03  0.22639797087E+01  0.48055704561E+02  0.21300523431E+03  0.17120000000E+03 0.  0.
        998    1    1    2    0    0  0.12076151175E+03  0.82362318405E+01  0.13875524415E+04  0.13928578377E+04  0.10000000000E+02 0.  1.
</event>
<event>
 5    1  0.5525569E-010  0.3822274E+03  0.7957747E-01  0.3441517E+00
         13   -1    0    0    0    0  0.00000000000E+00  0.00000000000E+00  0.14999999963E+04  0.15000000000E+04  0.10566000000E+00 0.  1.
        994   -1    0    0    0    0 -0.00000000000E+00 -0.00000000000E+00  0.11368683772E-12  0.17120000000E+03  0.17120000000E+03 0.  0.
         13    1    1    2    0    0 -0.88831181323E+02 -0.24701538857E+02  0.31234081339E+03  0.32566537990E+03  0.10566000000E+00 0.  1.
        994    1    1    2    0    0  0.23360104916E+03  0.21065873719E+03  0.47516609592E+03  0.59501160697E+03  0.17120000000E+03 0.  0.
        998    1    1    2    0    0 -0.14476986783E+03 -0.18595719833E+03  0.71249308697E+03  0.75052301312E+03  0.10000000000E+02 0.  1.
</event>
<event>
 5    1  0.5525569E-010  0.3804136E+03  0.7957747E-01  0.3449360E+00
         13   -1    0    0    0    0  0.00000000000E+00  0.00000000000E+00  0.14999999963E+04  0.15000000000E+04  0.10566000000E+00 0.  1.
        994   -1    0    0    0    0 -0.00000000000E+00 -0.00000000000E+00  0.11368683772E-12  0.17120000000E+03  0.17120000000E+03 0.  0.
         13    1    1    2    0    0 -0.21099122687E+03 -0.16325473005E+03  0.11810281690E+04  0.12107836106E+04  0.10566000000E+00 0.  1.
        994    1    1    2    0    0  0.20298692508E+03  0.15506063234E+03  0.27026053736E+03  0.40938696793E+03  0.17120000000E+03 0.  0.
        998    1    1    2    0    0  0.80043017880E+01  0.81940977045E+01  0.48711289964E+02  0.51029421457E+02  0.10000000000E+02 0.  1.
</event>
<event>
 5    1  0.5525569E-010  0.3991136E+03  0.7957747E-01  0.3371935E+00
         13   -1    0    0    0    0  0.00000000000E+00  0.00000000000E+00  0.14999999963E+04  0.15000000000E+04  0.10566000000E+00 0.  1.
        994   -1    0    0    0    0 -0.00000000000E+00 -0.00000000000E+00  0.11368683772E-12  0.17120000000E+03  0.17120000000E+03 0.  0.
         13    1    1    2    0    0  0.11777654978E+02 -0.14061996277E+03  0.52771133967E+03  0.54625264875E+03  0.10566000000E+00 0.  1.
        994    1    1    2    0    0  0.18267759573E+03  0.93267470801E+02  0.21898707969E+03  0.34544855791E+03  0.17120000000E+03 0.  0.
        998    1    1    2    0    0 -0.19445525071E+03  0.47352491973E+02  0.75330157693E+03  0.77949879334E+03  0.10000000000E+02 0. -1.
</event>
<event>
 5    1  0.5525569E-010  0.3850484E+03  0.7957747E-01  0.3429467E+00
         13   -1    0    0    0    0  0.00000000000E+00  0.00000000000E+00  0.14999999963E+04  0.15000000000E+04  0.10566000000E+00 0.  1.
        994   -1    0    0    0    0 -0.00000000000E+00 -0.00000000000E+00  0.11368683772E-12  0.17120000000E+03  0.17120000000E+03 0.  0.
         13    1    1    2    0    0  0.87332625770E+01 -0.82736281572E+02  0.43545879172E+03  0.44333501172E+03  0.10566000000E+00 0.  1.
        994    1    1    2    0    0  0.31420589169E+02  0.18018064140E+03  0.12066091873E+03  0.27806620483E+03  0.17120000000E+03 0.  0.
        998    1    1    2    0    0 -0.40153851746E+02 -0.97444359832E+02  0.94388028583E+03  0.94979878345E+03  0.10000000000E+02 0.  1.
</event>
<event>
 5    1  0.5525569E-010  0.3881286E+03  0.7957747E-01  0.3416511E+00
         13   -1    0    0    0    0  0.00000000000E+00  0.00000000000E+00  0.14999999963E+04  0.15000000000E+04  0.10566000000E+00 0. -1.
        994   -1    0    0    0    0 -0.00000000000E+00 -0.00000000000E+00  0.11368683772E-12  0.17120000000E+03  0.17120000000E+03 0.  0.
         13    1    1    2    0    0  0.59931230521E+02 -0.22426054242E+02  0.24886762934E+03  0.25696262062E+03  0.10566000000E+00 0. -1.
        994    1    1    2    0    0 -0.26199117118E+03  0.11821544034E+03  0.34383225326E+03  0.47973359534E+03  0.17120000000E+03 0.  0.
        998    1    1    2    0    0  0.20205994066E+03 -0.95789386103E+02  0.90730011368E+03  0.93450378404E+03  0.10000000000E+02 0.  0.
</event>
<event>
 5    1  0.5525569E-010  0.3863819E+03  0.7957747E-01  0.3423833E+00
         13   -1    0    0    0    0  0.00000000000E+00  0.00000000000E+00  0.14999999963E+04  0.15000000000E+04  0.10566000000E+00 0.  1.
        994   -1    0    0    0    0 -0.00000000000E+00 -0.00000000000E+00  0.11368683772E-12  0.17120000000E+03  0.17120000000E+03 0.  0.
         13    1    1    2    0    0  0.64658267447E+02  0.16955981399E+03  0.10113376733E+04  0.10274897190E+04  0.10566000000E+00 0.  1.
        994    1    1    2    0    0 -0.59062198076E+02 -0.21171108219E+03  0.17937347096E+03  0.33135209015E+03  0.17120000000E+03 0.  0.
        998    1    1    2    0    0 -0.55960693708E+01  0.42151268195E+02  0.30928885198E+03  0.31235819080E+03  0.10000000000E+02 0. -1.
</event>
<event>
 5    1  0.5525569E-010  0.3857527E+03  0.7957747E-01  0.3426486E+00
         13   -1    0    0    0    0  0.00000000000E+00  0.00000000000E+00  0.14999999963E+04  0.15000000000E+04  0.10566000000E+00 0.  1.
        994   -1    0    0    0    0 -0.00000000000E+00 -0.00000000000E+00  0.11368683772E-12  0.17120000000E+03  0.17120000000E+03 0.  0.
         13    1    1    2    0    0 -0.45839290046E+02  0.22363405340E+03  0.65936150183E+03  0.69776144319E+03  0.10566000000E+00 0.  1.
        994    1    1    2    0    0  0.97013423751E+02 -0.30674902625E+03  0.49850279340E+03  0.61751197925E+03  0.17120000000E+03 0.  0.
        998    1    1    2    0    0 -0.51174133704E+02  0.83114972856E+02  0.34213570105E+03  0.35592657755E+03  0.10000000000E+02 0.  1.
</event>
<event>
 5    1  0.5525569E-010  0.3804646E+03  0.7957747E-01  0.3449138E+00
         13   -1    0    0    0    0  0.00000000000E+00  0.00000000000E+00  0.14999999963E+04  0.15000000000E+04  0.10566000000E+00 0. -1.
        994   -1    0    0    0    0 -0.00000000000E+00 -0.00000000000E+00  0.11368683772E-12  0.17120000000E+03  0.17120000000E+03 0.  0.
         13    1    1    2    0    0 -0.11530466443E+03  0.10293382822E+03  0.79546494538E+03  0.81034253815E+03  0.10566000000E+00 0. -1.
        994    1    1    2    0    0  0.11161040036E+03 -0.20343868508E+03  0.21160694140E+03  0.35767459751E+03  0.17120000000E+03 0.  0.
        998    1    1    2    0    0  0.36942640766E+01  0.10050485686E+03  0.49292810949E+03  0.50318286434E+03  0.10000000000E+02 0. -1.
</event>
<event>
 5    1  0.5525569E-010  0.3838142E+03  0.7957747E-01  0.3434717E+00
         13   -1    0    0    0    0  0.00000000000E+00  0.00000000000E+00  0.14999999963E+04  0.15000000000E+04  0.10566000000E+00 0. -1.
        994   -1    0    0    0    0 -0.00000000000E+00 -0.00000000000E+00  0.11368683772E-12  0.17120000000E+03  0.17120000000E+03 0.  0.
         13    1    1    2    0    0  0.16651402357E+03  0.70842282730E+02  0.73658860384E+03  0.75849082495E+03  0.10566000000E+00 0. -1.
        994    1    1    2    0    0 -0.21588076800E+03 -0.13439167567E+03  0.25753273093E+03  0.40037254649E+03  0.17120000000E+03 0.  0.
        998    1    1    2    0    0  0.49366744427E+02  0.63549392935E+02  0.50587866151E+03  0.51233662856E+03  0.10000000000E+02 0. -1.
</event>
<event>
 5    1  0.5525569E-010  0.3843412E+03  0.7957747E-01  0.3432471E+00
         13   -1    0    0    0    0  0.00000000000E+00  0.00000000000E+00  0.14999999963E+04  0.15000000000E+04  0.10566000000E+00 0. -1.
        994   -1    0    0    0    0 -0.00000000000E+00 -0.00000000000E+00  0.11368683772E-12  0.17120000000E+03  0.17120000000E+03 0.  0.
         13    1    1    2    0    0  0.30267348105E+00 -0.14238788683E+02  0.36607659037E+02  0.39280613266E+02  0.10566000000E+00 0. -1.
        994    1    1    2    0    0 -0.20977173741E+02  0.87310207615E+02  0.28999340993E+02  0.19548277661E+03  0.17120000000E+03 0.  0.
        998    1    1    2    0    0  0.20674500259E+02 -0.73071418932E+02  0.14343929962E+04  0.14364366101E+04  0.10000000000E+02 0. -1.
</event>
<event>
 5    1  0.5525569E-010  0.3871982E+03  0.7957747E-01  0.3420402E+00
         13   -1    0    0    0    0  0.00000000000E+00  0.00000000000E+00  0.14999999963E+04  0.15000000000E+04  0.10566000000E+00 0.  1.
        994   -1    0    0    0    0 -0.00000000000E+00 -0.00000000000E+00  0.11368683772E-12  0.17120000000E+03  0.17120000000E+03 0.  0.
         13    1    1    2    0    0  0.21061622171E+03  0.10872295695E+03  0.10953603213E+04  0.11207114342E+04  0.10566000000E+00 0.  1.
        994    1    1    2    0    0 -0.23304393705E+03 -0.11393149251E+03  0.26449603111E+03  0.40811450851E+03  0.17120000000E+03 0.  0.
        998    1    1    2    0    0  0.22427715344E+02  0.52085355672E+01  0.14014364388E+03  0.14237405725E+03  0.10000000000E+02 0.  1.
</event>
<event>
 5    1  0.5525569E-010  0.3839496E+03  0.7957747E-01  0.3434139E+00
         13   -1    0    0    0    0  0.00000000000E+00  0.00000000000E+00  0.14999999963E+04  0.15000000000E+04  0.10566000000E+00 0.  1.
        994   -1    0    0    0    0 -0.00000000000E+00 -0.00000000000E+00  0.11368683772E-12  0.17120000000E+03  0.17120000000E+03 0.  0.
         13    1    1    2    0    0  0.27278901248E+02 -0.44610217033E+02  0.31355648906E+03  0.31788660385E+03  0.10566000000E+00 0.  1.
        994    1    1    2    0    0  0.30115835822E+01  0.12622318096E+03  0.56662764388E+02  0.22013966003E+03  0.17120000000E+03 0.  0.
        998    1    1    2    0    0 -0.30290484830E+02 -0.81612963930E+02  0.11297807428E+04  0.11331737361E+04  0.10000000000E+02 0.  1.
</event>
<event>
 5    1  0.5525569E-010  0.3727047E+03  0.7957747E-01  0.3483552E+00
         13   -1    0    0    0    0  0.00000000000E+00  0.00000000000E+00  0.14999999963E+04  0.15000000000E+04  0.10566000000E+00 0. -1.
        994   -1    0    0    0    0 -0.00000000000E+00 -0.00000000000E+00  0.11368683772E-12  0.17120000000E+03  0.17120000000E+03 0.  0.
         13    1    1    2    0    0  0.20036018078E+03 -0.71411434547E+02  0.50860284393E+03  0.55128999542E+03  0.10566000000E+00 0. -1.
        994    1    1    2    0    0 -0.29400395054E+03  0.47842815552E+02  0.43106068982E+03  0.55122592124E+03  0.17120000000E+03 0.  0.
        998    1    1    2    0    0  0.93643769767E+02  0.23568618995E+02  0.56033646252E+03  0.56868408334E+03  0.10000000000E+02 0. -1.
</event>
<event>
 5    1  0.5525569E-010  0.3862359E+03  0.7957747E-01  0.3424447E+00
         13   -1    0    0    0    0  0.00000000000E+00  0.00000000000E+00  0.14999999963E+04  0.15000000000E+04  0.10566000000E+00 0. -1.
        994   -1    0    0    0    0 -0.00000000000E+00 -0.00000000000E+00  0.11368683772E-12  0.17120000000E+03  0.17120000000E+03 0.  0.
         13    1    1    2    0    0 -0.20202763107E+03 -0.11226025999E+03  0.11854600589E+04  0.12077802333E+04  0.10566000000E+00 0. -1.
        994    1    1    2    0    0  0.20655892862E+03  0.12121579126E+03  0.21921677729E+03  0.36704944420E+03  0.17120000000E+03 0.  0.
        998    1    1    2    0    0 -0.45312975484E+01 -0.89555312624E+01  0.95323160127E+02  0.96370322477E+02  0.10000000000E+02 0. -1.
</event>
<event>
 5    1  0.5525569E-010  0.3797287E+03  0.7957747E-01  0.3452340E+00
         13   -1    0    0    0    0  0.00000000000E+00  0.00000000000E+00  0.14999999963E+04  0.15000000000E+04  0.10566000000E+00 0.  1.
        994   -1    0    0    0    0 -0.00000000000E+00 -0.00000000000E+00  0.11368683772E-12  0.17120000000E+03  0.17120000000E+03 0.  0.
         13    1    1    2    0    0  0.91777766326E+02 -0.33680032813E+02  0.30301525502E+03  0.31839560133E+03  0.10566000000E+00 0.  1.
        994    1    1    2    0    0 -0.18016696600E+03  0.17650409673E+03  0.25946895858E+03  0.40030914587E+03  0.17120000000E+03 0.  0.
        998    1    1    2    0    0  0.88389199671E+02 -0.14282406392E+03  0.93751578267E+03  0.95249525281E+03  0.10000000000E+02 0.  1.
</event>
<event>
 5    1  0.5525569E-010  0.3877682E+03  0.7957747E-01  0.3418016E+00
         13   -1    0    0    0    0  0.00000000000E+00  0.00000000000E+00  0.14999999963E+04  0.15000000000E+04  0.10566000000E+00 0.  1.
        994   -1    0    0    0    0 -0.00000000000E+00 -0.00000000000E+00  0.11368683772E-12  0.17120000000E+03  0.17120000000E+03 0.  0.
         13    1    1    2    0    0 -0.16894149265E+03  0.12412997092E+03  0.80044437192E+03  0.82744225256E+03  0.10566000000E+00 0.  1.
        994    1    1    2    0    0  0.24140158695E+03 -0.16313368908E+03  0.35806111360E+03  0.49234594318E+03  0.17120000000E+03 0.  0.
        998    1    1    2    0    0 -0.72460094297E+02  0.39003718154E+02  0.34149451076E+03  0.35141180426E+03  0.10000000000E+02 0. -1.
</event>
<event>
 5    1  0.5525569E-010  0.3831539E+03  0.7957747E-01  0.3437540E+00
         13   -1    0    0    0    0  0.00000000000E+00  0.00000000000E+00  0.14999999963E+04  0.15000000000E+04  0.10566000000E+00 0.  1.
        994   -1    0    0    0    0 -0.00000000000E+00 -0.00000000000E+00  0.11368683772E-12  0.17120000000E+03  0.17120000000E+03 0.  0.
         13    1    1    2    0    0 -0.16179215070E+03  0.24304875719E+03  0.91110840189E+03  0.95674862401E+03  0.10566000000E+00 0.  1.
        994    1    1    2    0    0  0.15347272773E+03 -0.27717214339E+03  0.48325045685E+03  0.60267629726E+03  0.17120000000E+03 0.  0.
        998    1    1    2    0    0  0.83194229693E+01  0.34123386200E+02  0.10564113754E+03  0.11177507873E+03  0.10000000000E+02 0.  1.
</event>
<event>
 5    1  0.5525569E-010  0.3707650E+03  0.7957747E-01  0.3492382E+00
         13   -1    0    0    0    0  0.00000000000E+00  0.00000000000E+00  0.14999999963E+04  0.15000000000E+04  0.10566000000E+00 0. -1.
        994   -1    0    0    0    0 -0.00000000000E+00 -0.00000000000E+00  0.11368683772E-12  0.17120000000E+03  0.17120000000E+03 0.  0.
         13    1    1    2    0    0  0.24346008966E+02 -0.52319393331E+02  0.19693392661E+03  0.20521459423E+03  0.10566000000E+00 0. -1.
        994    1    1    2    0    0 -0.97113022748E+02 -0.66585330789E+02  0.61663761945E+02  0.21674040925E+03  0.17120000000E+03 0.  0.
        998    1    1    2    0    0  0.72767013782E+02  0.11890472412E+03  0.12414023077E+04  0.12492449965E+04  0.10000000000E+02 0.  1.
</event>
<event>
 5    1  0.5525569E-010  0.3821579E+03  0.7957747E-01  0.3441816E+00
         13   -1    0    0    0    0  0.00000000000E+00  0.00000000000E+00  0.14999999963E+04  0.15000000000E+04  0.10566000000E+00 0.  1.
        994   -1    0    0    0    0 -0.00000000000E+00 -0.00000000000E+00  0.11368683772E-12  0.17120000000E+03  0.17120000000E+03 0.  0.
         13    1    1    2    0    0  0.21724945179E+03 -0.11712706660E+02  0.11294137391E+04  0.11501782110E+04  0.10566000000E+00 0.  1.
        994    1    1    2    0    0 -0.25014976370E+03  0.39490382485E+02  0.25779476157E+03  0.39987744833E+03  0.17120000000E+03 0.  0.
        998    1    1    2    0    0  0.32900311915E+02 -0.27777675825E+02  0.11279149562E+03  0.12114434070E+03  0.10000000000E+02 0.  1.
</event>
<event>
 5    1  0.5525569E-010  0.3879551E+03  0.7957747E-01  0.3417235E+00
         13   -1    0    0    0    0  0.00000000000E+00  0.00000000000E+00  0.14999999963E+04  0.15000000000E+04  0.10566000000E+00 0.  1.
        994   -1    0    0    0    0 -0.00000000000E+00 -0.00000000000E+00  0.11368683772E-12  0.17120000000E+03  0.17120000000E+03 0.  0.
         13    1    1    2    0    0 -0.14671542942E+03  0.11210203630E+03  0.74093386791E+03  0.76359366914E+03  0.10566000000E+00 0.  1.
        994    1    1    2    0    0  0.23227679723E+03 -0.16467931321E+03  0.33543777297E+03  0.47212257547E+03  0.17120000000E+03 0.  0.
        998    1    1    2    0    0 -0.85561367812E+02  0.52577276910E+02  0.42362835540E+03  0.43548375539E+03  0.10000000000E+02 0.  1.
</event>
<event>
 5    1  0.5525569E-010  0.3803265E+03  0.7957747E-01  0.3449738E+00
         13   -1    0    0    0    0  0.00000000000E+00  0.00000000000E+00  0.14999999963E+04  0.15000000000E+04  0.10566000000E+00 0. -1.
        994   -1    0    0    0    0 -0.00000000000E+00 -0.00000000000E+00  0.11368683772E-12  0.17120000000E+03  0.17120000000E+03 0.  0.
         13    1    1    2    0    0 -0.25519793975E+02 -0.21013614811E+02  0.14201940307E+03  0.14581616476E+03  0.10566000000E+00 0. -1.
        994    1    1    2    0    0 -0.46018556836E+02  0.97180269134E+02  0.43594958158E+02  0.20681313464E+03  0.17120000000E+03 0.  0.
        998    1    1    2    0    0  0.71538350811E+02 -0.76166654323E+02  0.13143856350E+04  0.13185707006E+04  0.10000000000E+02 0.  1.
</event>
<event>
 5    1  0.5525569E-010  0.3830441E+03  0.7957747E-01  0.3438010E+00
         13   -1    0    0    0    0  0.00000000000E+00  0.00000000000E+00  0.14999999963E+04  0.15000000000E+04  0.10566000000E+00 0. -1.
        994   -1    0    0    0    0 -0.00000000000E+00 -0.00000000000E+00  0.11368683772E-12  0.17120000000E+03  0.17120000000E+03 0.  0.
         13    1    1    2    0    0  0.79789885197E+02  0.80844953414E+02  0.64101010062E+03  0.65099638443E+03  0.10566000000E+00 0. -1.
        994    1    1    2    0    0 -0.94472248889E+02 -0.12666112237E+03  0.90171931704E+02  0.24981685891E+03  0.17120000000E+03 0.  0.
        998    1    1    2    0    0  0.14682363693E+02  0.45816168956E+02  0.76881796395E+03  0.77038675666E+03  0.10000000000E+02 0.  1.
</event>
<event>
 5    1  0.5525569E-010  0.3868875E+03  0.7957747E-01  0.3421706E+00
         13   -1    0    0    0    0  0.00000000000E+00  0.00000000000E+00  0.14999999963E+04  0.15000000000E+04  0.10566000000E+00 0. -1.
        994   -1    0    0    0    0 -0.00000000000E+00 -0.00000000000E+00  0.11368683772E-12  0.17120000000E+03  0.17120000000E+03 0.  0.
         13    1    1    2    0    0  0.18458667644E+03  0.11310878492E+03  0.11468647952E+04  0.11671181208E+04  0.10566000000E+00 0. -1.
        994    1    1    2    0    0 -0.19575685734E+03 -0.12821672357E+03  0.20663737626E+03  0.35604595303E+03  0.17120000000E+03 0.  0.
        998    1    1    2    0    0  0.11170180897E+02  0.15107938645E+02  0.14649782482E+03  0.14803592614E+03  0.10000000000E+02 0. -1.
</event>
<event>
 5    1  0.5525569E-010  0.3855414E+03  0.7957747E-01  0.3427379E+00
         13   -1    0    0    0    0  0.00000000000E+00  0.00000000000E+00  0.14999999963E+04  0.15000000000E+04  0.10566000000E+00 0. -1.
        994   -1    0    0    0    0 -0.00000000000E+00 -0.00000000000E+00  0.11368683772E-12  0.17120000000E+03  0.17120000000E+03 0.  0.
         13    1    1    2    0    0 -0.19584772909E+03 -0.12732854675E+03  0.10796081787E+04  0.11045916542E+04  0.10566000000E+00 0. -1.
        994    1    1    2    0    0  0.22808519542E+03  0.15369386398E+03  0.31079749349E+03  0.44894229268E+03  0.17120000000E+03 0.  0.
        998    1    1    2    0    0 -0.32237466335E+02 -0.26365317233E+02  0.10959432406E+03  0.11766605311E+03  0.10000000000E+02 0. -1.
</event>
<event>
 5    1  0.5525569E-010  0.3880315E+03  0.7957747E-01  0.3416916E+00
         13   -1    0    0    0    0  0.00000000000E+00  0.00000000000E+00  0.14999999963E+04  0.15000000000E+04  0.10566000000E+00 0. -1.
        994   -1    0    0    0    0 -0.00000000000E+00 -0.00000000000E+00  0.11368683772E-12  0.17120000000E+03  0.17120000000E+03 0.  0.
         13    1    1    2    0    0 -0.34520479616E+01  0.57538132138E+02  0.34764531951E+03  0.35239158989E+03  0.10566000000E+00 0. -1.
        994    1    1    2    0    0  0.25891258397E+02 -0.19937846186E+03  0.14507481865E+03  0.30129432673E+03  0.17120000000E+03 0.  0.
        998    1    1    2    0    0 -0.22439210435E+02  0.14184032972E+03  0.10072798581E+04  0.10175140834E+04  0.10000000000E+02 0. -1.
</event>
<event>
 5    1  0.6358184E-010  0.3876860E+03  0.7957747E-01  0.3418360E+00
         13   -1    0    0    0    0  0.00000000000E+00  0.00000000000E+00  0.14999999963E+04  0.15000000000E+04  0.10566000000E+00 0.  1.
        994   -1    0    0    0    0 -0.00000000000E+00 -0.00000000000E+00  0.11368683772E-12  0.17120000000E+03  0.17120000000E+03 0.  0.
         13    1    1    2    0    0  0.19609620807E+03  0.13583492446E+01  0.11252732495E+04  0.11422326669E+04  0.10566000000E+00 0.  1.
        994    1    1    2    0    0 -0.22323575416E+03 -0.21138694149E+01  0.18423202219E+03  0.33628789508E+03  0.17120000000E+03 0.  0.
        998    1    1    2    0    0  0.27139546090E+02  0.75552017025E+00  0.19049472455E+03  0.19267943807E+03  0.10000000000E+02 0.  1.
</event>
<event>
 5    1  0.5525569E-010  0.3850256E+03  0.7957747E-01  0.3429564E+00
         13   -1    0    0    0    0  0.00000000000E+00  0.00000000000E+00  0.14999999963E+04  0.15000000000E+04  0.10566000000E+00 0. -1.
        994   -1    0    0    0    0 -0.00000000000E+00 -0.00000000000E+00  0.11368683772E-12  0.17120000000E+03  0.17120000000E+03 0.  0.
         13    1    1    2    0    0 -0.11717052269E+03  0.57836535786E+02  0.77794293017E+03  0.78884042114E+03  0.10566000000E+00 0. -1.
        994    1    1    2    0    0  0.15522603539E+03 -0.76846360507E+02  0.10742620058E+03  0.26617722246E+03  0.17120000000E+03 0.  0.
        998    1    1    2    0    0 -0.38055512691E+02  0.19009824721E+02  0.61463086552E+03  0.61618235640E+03  0.10000000000E+02 0. -1.
</event>
<event>
 5    1  0.5525569E-010  0.3877232E+03  0.7957747E-01  0.3418204E+00
         13   -1    0    0    0    0  0.00000000000E+00  0.00000000000E+00  0.14999999963E+04  0.15000000000E+04  0.10566000000E+00 0.  1.
        994   -1    0    0    0    0 -0.00000000000E+00 -0.00000000000E+00  0.11368683772E-12  0.17120000000E+03  0.17120000000E+03 0.  0.
         13    1    1    2    0    0 -0.12195583609E+03 -0.19200202489E+03  0.10932472642E+04  0.11166591223E+04  0.10566000000E+00 0.  1.
        994    1    1    2    0    0  0.13893914842E+03  0.21674686531E+03  0.25866890491E+03  0.40311578107E+03  0.17120000000E+03 0.  0.
        998    1    1    2    0    0 -0.16983312331E+02 -0.24744840417E+02  0.14808382716E+03  0.15142509663E+03  0.10000000000E+02 0.  0.
</event>
<event>
 5    1  0.5525569E-010  0.3843716E+03  0.7957747E-01  0.3432342E+00
         13   -1    0    0    0    0  0.00000000000E+00  0.00000000000E+00  0.14999999963E+04  0.15000000000E+04  0.10566000000E+00 0. -1.
        994   -1    0    0    0    0 -0.00000000000E+00 -0.00000000000E+00  0.11368683772E-12  0.17120000000E+03  0.17120000000E+03 0.  0.
         13    1    1    2    0    0  0.20912445926E+02  0.58966888549E+01  0.11688935802E+03  0.11889169237E+03  0.10566000000E+00 0. -1.
        994    1    1    2    0    0 -0.71597210741E+01 -0.10769437574E+03  0.41324466156E+02  0.20655868821E+03  0.17120000000E+03 0.  0.
        998    1    1    2    0    0 -0.13752724851E+02  0.10179768689E+03  0.13417861721E+04  0.13457496194E+04  0.10000000000E+02 0. -1.
</event>
<event>
 5    1  0.5525569E-010  0.3881830E+03  0.7957747E-01  0.3416284E+00
         13   -1    0    0    0    0  0.00000000000E+00  0.00000000000E+00  0.14999999963E+04  0.15000000000E+04  0.10566000000E+00 0.  1.
        994   -1    0    0    0    0 -0.00000000000E+00 -0.00000000000E+00  0.11368683772E-12  0.17120000000E+03  0.17120000000E+03 0.  0.
         13    1    1    2    0    0  0.10163425684E+03  0.31917741429E+02  0.42252851159E+03  0.43575063815E+03  0.10566000000E+00 0.  1.
        994    1    1    2    0    0 -0.27671999408E+03 -0.81815063144E+02  0.34747925364E+03  0.48303098388E+03  0.17120000000E+03 0.  0.
        998    1    1    2    0    0  0.17508573724E+03  0.49897321715E+02  0.72999223106E+03  0.75241837797E+03  0.10000000000E+02 0.  0.
</event>
<event>
 5    1  0.5525569E-010  0.3865137E+03  0.7957747E-01  0.3423278E+00
         13   -1    0    0    0    0  0.00000000000E+00  0.00000000000E+00  0.14999999963E+04  0.15000000000E+04  0.10566000000E+00 0.  1.
        994   -1    0    0    0    0 -0.00000000000E+00 -0.00000000000E+00  0.11368683772E-12  0.17120000000E+03  0.17120000000E+03 0.  0.
         13    1    1    2    0    0 -0.38237087707E+02 -0.20623158106E+03  0.10621170678E+04  0.10826293072E+04  0.10566000000E+00 0.  1.
        994    1    1    2    0    0  0.59642978782E+02  0.23303568742E+03  0.22109202348E+03  0.36885503843E+03  0.17120000000E+03 0.  0.
        998    1    1    2    0    0 -0.21405891074E+02 -0.26804106356E+02  0.21679090502E+03  0.21971565440E+03  0.10000000000E+02 0. -1.
</event>
<event>
 5    1  0.5525569E-010  0.3857322E+03  0.7957747E-01  0.3426573E+00
         13   -1    0    0    0    0  0.00000000000E+00  0.00000000000E+00  0.14999999963E+04  0.15000000000E+04  0.10566000000E+00 0. -1.
        994   -1    0    0    0    0 -0.00000000000E+00 -0.00000000000E+00  0.11368683772E-12  0.17120000000E+03  0.17120000000E+03 0.  0.
         13    1    1    2    0    0 -0.46734839357E+01 -0.49532083322E+02  0.22155365018E+03  0.22707113380E+03  0.10566000000E+00 0. -1.
        994    1    1    2    0    0  0.78254136235E+02  0.17558615762E+03  0.13369268480E+03  0.29006444552E+03  0.17120000000E+03 0.  0.
        998    1    1    2    0    0 -0.73580652299E+02 -0.12605407430E+03  0.11447536613E+04  0.11540644207E+04  0.10000000000E+02 0. -1.
</event>
<event>
 5    1  0.5525569E-010  0.3788108E+03  0.7957747E-01  0.3456353E+00
         13   -1    0    0    0    0  0.00000000000E+00  0.00000000000E+00  0.14999999963E+04  0.15000000000E+04  0.10566000000E+00 0. -1.
        994   -1    0    0    0    0 -0.00000000000E+00 -0.00000000000E+00  0.11368683772E-12  0.17120000000E+03  0.17120000000E+03 0.  0.
         13    1    1    2    0    0 -0.36993104611E+02 -0.11246495592E+02  0.16830053499E+03  0.17268484211E+03  0.10566000000E+00 0. -1.
        994    1    1    2    0    0 -0.70644469474E+01  0.12398830322E+03  0.58371304522E+02  0.21940750885E+03  0.17120000000E+03 0.  0.
        998    1    1    2    0    0  0.44057551558E+02 -0.11274180763E+03  0.12733281568E+04  0.12791076490E+04  0.10000000000E+02 0. -1.
</event>
<event>
 5    1  0.5525569E-010  0.3855703E+03  0.7957747E-01  0.3427257E+00
         13   -1    0    0    0    0  0.00000000000E+00  0.00000000000E+00  0.14999999963E+04  0.15000000000E+04  0.10566000000E+00 0. -1.
        994   -1    0    0    0    0 -0.00000000000E+00 -0.00000000000E+00  0.11368683772E-12  0.17120000000E+03  0.17120000000E+03 0.  0.
         13    1    1    2    0    0 -0.58481781287E+02 -0.43877946719E+02  0.27719252126E+03  0.28667245762E+03  0.10566000000E+00 0. -1.
        994    1    1    2    0    0  0.17080512011E+03  0.14499576144E+03  0.18846899069E+03  0.33915801677E+03  0.17120000000E+03 0.  0.
        998    1    1    2    0    0 -0.11232333883E+03 -0.10111781472E+03  0.10343384843E+04  0.10453695256E+04  0.10000000000E+02 0. -1.
</event>
<event>
 5    1  0.5525569E-010  0.3849346E+03  0.7957747E-01  0.3429950E+00
         13   -1    0    0    0    0  0.00000000000E+00  0.00000000000E+00  0.14999999963E+04  0.15000000000E+04  0.10566000000E+00 0. -1.
        994   -1    0    0    0    0 -0.00000000000E+00 -0.00000000000E+00  0.11368683772E-12  0.17120000000E+03  0.17120000000E+03 0.  0.
         13    1    1    2    0    0 -0.16451650743E+02  0.66395753762E+01  0.58605668227E+02  0.61232150752E+02  0.10566000000E+00 0. -1.
        994    1    1    2    0    0  0.84499522147E+02 -0.50397585731E+02  0.34179703336E+02  0.20039405683E+03  0.17120000000E+03 0.  0.
        998    1    1    2    0    0 -0.68047871405E+02  0.43758010355E+02  0.14072146247E+04  0.14095737924E+04  0.10000000000E+02 0. -1.
</event>
<event>
 5    1  0.5525569E-010  0.3850246E+03  0.7957747E-01  0.3429568E+00
         13   -1    0    0    0    0  0.00000000000E+00  0.00000000000E+00  0.14999999963E+04  0.15000000000E+04  0.10566000000E+00 0.  1.
        994   -1    0    0    0    0 -0.00000000000E+00 -0.00000000000E+00  0.11368683772E-12  0.17120000000E+03  0.17120000000E+03 0.  0.
         13    1    1    2    0    0 -0.73219111967E+02 -0.21153900388E+02  0.34208522221E+03  0.35047230458E+03  0.10566000000E+00 0.  1.
        994    1    1    2    0    0  0.18513045752E+03  0.32665216173E+02  0.12804757939E+03  0.28468566040E+03  0.17120000000E+03 0.  0.
        998    1    1    2    0    0 -0.11191134555E+03 -0.11511315785E+02  0.10298671947E+04  0.10360420350E+04  0.10000000000E+02 0.  1.
</event>
<event>
 5    1  0.5525569E-010  0.3847493E+03  0.7957747E-01  0.3430736E+00
         13   -1    0    0    0    0  0.00000000000E+00  0.00000000000E+00  0.14999999963E+04  0.15000000000E+04  0.10566000000E+00 0.  1.
        994   -1    0    0    0    0 -0.00000000000E+00 -0.00000000000E+00  0.11368683772E-12  0.17120000000E+03  0.17120000000E+03 0.  0.
         13    1    1    2    0    0 -0.34404122469E+00 -0.29658170470E+02  0.11950992442E+03  0.12313552956E+03  0.10566000000E+00 0.  1.
        994    1    1    2    0    0 -0.12041623707E+02  0.11862414386E+03  0.50037608934E+02  0.21454577721E+03  0.17120000000E+03 0.  0.
        998    1    1    2    0    0  0.12385664932E+02 -0.88965973393E+02  0.13304524629E+04  0.13335186932E+04  0.10000000000E+02 0.  1.
</event>
<event>
 5    1  0.5525569E-010  0.3812762E+03  0.7957747E-01  0.3445620E+00
         13   -1    0    0    0    0  0.00000000000E+00  0.00000000000E+00  0.14999999963E+04  0.15000000000E+04  0.10566000000E+00 0. -1.
        994   -1    0    0    0    0 -0.00000000000E+00 -0.00000000000E+00  0.11368683772E-12  0.17120000000E+03  0.17120000000E+03 0.  0.
         13    1    1    2    0    0 -0.53396739379E+02 -0.55140338567E+02  0.32458130531E+03  0.33353366192E+03  0.10566000000E+00 0. -1.
        994    1    1    2    0    0  0.59902176863E+02 -0.12319712356E+03  0.88987126135E+02  0.23663040943E+03  0.17120000000E+03 0.  0.
        998    1    1    2    0    0 -0.65054374838E+01  0.17833746213E+03  0.10864315648E+04  0.11010359287E+04  0.10000000000E+02 0. -1.
</event>
<event>
 5    1  0.5525569E-010  0.3871859E+03  0.7957747E-01  0.3420454E+00
         13   -1    0    0    0    0  0.00000000000E+00  0.00000000000E+00  0.14999999963E+04  0.15000000000E+04  0.10566000000E+00 0. -1.
        994   -1    0    0    0    0 -0.00000000000E+00 -0.00000000000E+00  0.11368683772E-12  0.17120000000E+03  0.17120000000E+03 0.  0.
         13    1    1    2    0    0  0.16829592248E+02  0.12794286430E+03  0.66412282159E+03  0.67654397124E+03  0.10566000000E+00 0. -1.
        994    1    1    2    0    0 -0.46278909879E+01 -0.22732985511E+03  0.19285284526E+03  0.34380509060E+03  0.17120000000E+03 0.  0.
        998    1    1    2    0    0 -0.12201701260E+02  0.99386990810E+02  0.64302432943E+03  0.65085093816E+03  0.10000000000E+02 0. -1.
</event>
<event>
 5    1  0.5525569E-010  0.3739478E+03  0.7957747E-01  0.3477942E+00
         13   -1    0    0    0    0  0.00000000000E+00  0.00000000000E+00  0.14999999963E+04  0.15000000000E+04  0.10566000000E+00 0. -1.
        994   -1    0    0    0    0 -0.00000000000E+00 -0.00000000000E+00  0.11368683772E-12  0.17120000000E+03  0.17120000000E+03 0.  0.
         13    1    1    2    0    0  0.20856317832E+02  0.11063080006E+03  0.65636440521E+03  0.66594924995E+03  0.10566000000E+00 0. -1.
        994    1    1    2    0    0  0.60118545154E+02 -0.12403543019E+03  0.75082081725E+02  0.23226232241E+03  0.17120000000E+03 0.  0.
        998    1    1    2    0    0 -0.80974862986E+02  0.13404630131E+02  0.76855350934E+03  0.77298842764E+03  0.10000000000E+02 0. -1.
</event>
<event>
 5    1  0.5525569E-010  0.3830298E+03  0.7957747E-01  0.3438071E+00
         13   -1    0    0    0    0  0.00000000000E+00  0.00000000000E+00  0.14999999963E+04  0.15000000000E+04  0.10566000000E+00 0.  1.
        994   -1    0    0    0    0 -0.00000000000E+00 -0.00000000000E+00  0.11368683772E-12  0.17120000000E+03  0.17120000000E+03 0.  0.
         13    1    1    2    0    0  0.29549158574E+02 -0.29475409632E+00  0.56508458013E+02  0.63768774831E+02  0.10566000000E+00 0.  1.
        994    1    1    2    0    0 -0.23602165559E+03 -0.17900888313E+03  0.38919511228E+03  0.51820138707E+03  0.17120000000E+03 0.  0.
        998    1    1    2    0    0  0.20647249701E+03  0.17930363722E+03  0.10542964260E+04  0.10892298381E+04  0.10000000000E+02 0.  1.
</event>
<event>
 5    1  0.5525569E-010  0.3838865E+03  0.7957747E-01  0.3434408E+00
         13   -1    0    0    0    0  0.00000000000E+00  0.00000000000E+00  0.14999999963E+04  0.15000000000E+04  0.10566000000E+00 0. -1.
        994   -1    0    0    0    0 -0.00000000000E+00 -0.00000000000E+00  0.11368683772E-12  0.17120000000E+03  0.17120000000E+03 0.  0.
         13    1    1    2    0    0 -0.12038926484E+02  0.11839280944E+03  0.64126332065E+03  0.65221196758E+03  0.10566000000E+00 0. -1.
        994    1    1    2    0    0 -0.15639775934E+02 -0.17986145935E+03  0.11843463555E+03  0.27555571133E+03  0.17120000000E+03 0.  0.
        998    1    1    2    0    0  0.27678702418E+02  0.61468649909E+02  0.74030204008E+03  0.74343232108E+03  0.10000000000E+02 0. -1.
</event>
<event>
 5    1  0.5525569E-010  0.3863396E+03  0.7957747E-01  0.3424011E+00
         13   -1    0    0    0    0  0.00000000000E+00  0.00000000000E+00  0.14999999963E+04  0.15000000000E+04  0.10566000000E+00 0. -1.
        994   -1    0    0    0    0 -0.00000000000E+00 -0.00000000000E+00  0.11368683772E-12  0.17120000000E+03  0.17120000000E+03 0.  0.
         13    1    1    2    0    0 -0.45366320967E+02  0.24583208754E+02  0.30451739630E+03  0.30885804675E+03  0.10566000000E+00 0. -1.
        994    1    1    2    0    0  0.12187626967E+03 -0.70414647691E+02  0.68765707147E+02  0.23205648062E+03  0.17120000000E+03 0.  0.
        998    1    1    2    0    0 -0.76509948699E+02  0.45831438937E+02  0.11267168928E+04  0.11302854726E+04  0.10000000000E+02 0. -1.
</event>
<event>
 5    1  0.5525569E-010  0.3845537E+03  0.7957747E-01  0.3431567E+00
         13   -1    0    0    0    0  0.00000000000E+00  0.00000000000E+00  0.14999999963E+04  0.15000000000E+04  0.10566000000E+00 0. -1.
        994   -1    0    0    0    0 -0.00000000000E+00 -0.00000000000E+00  0.11368683772E-12  0.17120000000E+03  0.17120000000E+03 0.  0.
         13    1    1    2    0    0  0.54693291628E+02  0.47562638877E+02  0.36738683102E+03  0.37446849739E+03  0.10566000000E+00 0. -1.
        994    1    1    2    0    0 -0.16782246062E+03 -0.62508519051E+02  0.11578710828E+03  0.27347355939E+03  0.17120000000E+03 0.  0.
        998    1    1    2    0    0  0.11312916899E+03  0.14945880174E+02  0.10168260570E+04  0.10232579432E+04  0.10000000000E+02 0. -1.
</event>
<event>
 5    1  0.5525569E-010  0.3850011E+03  0.7957747E-01  0.3429667E+00
         13   -1    0    0    0    0  0.00000000000E+00  0.00000000000E+00  0.14999999963E+04  0.15000000000E+04  0.10566000000E+00 0. -1.
        994   -1    0    0    0    0 -0.00000000000E+00 -0.00000000000E+00  0.11368683772E-12  0.17120000000E+03  0.17120000000E+03 0.  0.
         13    1    1    2    0    0 -0.37270497917E+02 -0.45435178023E+02  0.24894793801E+03  0.25579001626E+03  0.10566000000E+00 0. -1.
        994    1    1    2    0    0  0.10259739295E+03  0.14655470666E+03  0.11511311507E+03  0.27306588279E+03  0.17120000000E+03 0.  0.
        998    1    1    2    0    0 -0.65326895032E+02 -0.10111952864E+03  0.11359389432E+04  0.11423441009E+04  0.10000000000E+02 0. -1.
</event>
<event>
 5    1  0.5525569E-010  0.3843965E+03  0.7957747E-01  0.3432236E+00
         13   -1    0    0    0    0  0.00000000000E+00  0.00000000000E+00  0.14999999963E+04  0.15000000000E+04  0.10566000000E+00 0.  1.
        994   -1    0    0    0    0 -0.00000000000E+00 -0.00000000000E+00  0.11368683772E-12  0.17120000000E+03  0.17120000000E+03 0.  0.
         13    1    1    2    0    0 -0.14925582638E+03 -0.89446112569E+02  0.73913090470E+03  0.75933682527E+03  0.10566000000E+00 0.  1.
        994    1    1    2    0    0  0.23527469958E+03  0.91410484577E+02  0.25187424607E+03  0.39555042255E+03  0.17120000000E+03 0.  0.
        998    1    1    2    0    0 -0.86018873198E+02 -0.19643720083E+01  0.50899484551E+03  0.51631275218E+03  0.10000000000E+02 0.  1.
</event>
<event>
 5    1  0.5525569E-010  0.3869689E+03  0.7957747E-01  0.3421365E+00
         13   -1    0    0    0    0  0.00000000000E+00  0.00000000000E+00  0.14999999963E+04  0.15000000000E+04  0.10566000000E+00 0. -1.
        994   -1    0    0    0    0 -0.00000000000E+00 -0.00000000000E+00  0.11368683772E-12  0.17120000000E+03  0.17120000000E+03 0.  0.
         13    1    1    2    0    0  0.21131092265E+03  0.11362197308E+03  0.11486297468E+04  0.11734191771E+04  0.10566000000E+00 0. -1.
        994    1    1    2    0    0 -0.22550592385E+03 -0.12834856314E+03  0.26508101907E+03  0.40853844620E+03  0.17120000000E+03 0.  0.
        998    1    1    2    0    0  0.14195001202E+02  0.14726590057E+02  0.86289230410E+02  0.89242376697E+02  0.10000000000E+02 0.  0.
</event>
<event>
 5    1  0.5525569E-010  0.3804947E+03  0.7957747E-01  0.3449007E+00
         13   -1    0    0    0    0  0.00000000000E+00  0.00000000000E+00  0.14999999963E+04  0.15000000000E+04  0.10566000000E+00 0.  1.
        994   -1    0    0    0    0 -0.00000000000E+00 -0.00000000000E+00  0.11368683772E-12  0.17120000000E+03  0.17120000000E+03 0.  0.
         13    1    1    2    0    0 -0.19450251410E+02  0.69042333283E+02  0.37339561859E+03  0.38022290200E+03  0.10566000000E+00 0.  1.
        994    1    1    2    0    0 -0.64256859247E+02 -0.14718332559E+03  0.95393700218E+02  0.25337970190E+03  0.17120000000E+03 0.  0.
        998    1    1    2    0    0  0.83707110657E+02  0.78140992308E+02  0.10312106775E+04  0.10375973961E+04  0.10000000000E+02 0. -1.
</event>
<event>
 5    1  0.5525569E-010  0.3848761E+03  0.7957747E-01  0.3430198E+00
         13   -1    0    0    0    0  0.00000000000E+00  0.00000000000E+00  0.14999999963E+04  0.15000000000E+04  0.10566000000E+00 0.  1.
        994   -1    0    0    0    0 -0.00000000000E+00 -0.00000000000E+00  0.11368683772E-12  0.17120000000E+03  0.17120000000E+03 0.  0.
         13    1    1    2    0    0 -0.19877064257E+02 -0.81583537652E+01  0.96527753905E+02  0.98890216188E+02  0.10566000000E+00 0.  1.
        994    1    1    2    0    0  0.36499501186E+02  0.95905882207E+02  0.37138970716E+02  0.20302437040E+03  0.17120000000E+03 0.  0.
        998    1    1    2    0    0 -0.16622436928E+02 -0.87747528442E+02  0.13663332717E+04  0.13692854134E+04  0.10000000000E+02 0.  1.
</event>
<event>
 5    1  0.5525569E-010  0.3874522E+03  0.7957747E-01  0.3419338E+00
         13   -1    0    0    0    0  0.00000000000E+00  0.00000000000E+00  0.14999999963E+04  0.15000000000E+04  0.10566000000E+00 0.  1.
        994   -1    0    0    0    0 -0.00000000000E+00 -0.00000000000E+00  0.11368683772E-12  0.17120000000E+03  0.17120000000E+03 0.  0.
         13    1    1    2    0    0 -0.20050801605E+03 -0.16933506347E+03  0.10599620072E+04  0.10919694575E+04  0.10566000000E+00 0.  1.
        994    1    1    2    0    0  0.21972746437E+03  0.18546735984E+03  0.34586058135E+03  0.48125594219E+03  0.17120000000E+03 0.  0.
        998    1    1    2    0    0 -0.19219448323E+02 -0.16132296372E+02  0.94177407705E+02  0.97974600291E+02  0.10000000000E+02 0.  0.
</event>
<event>
 5    1  0.5525569E-010  0.3856271E+03  0.7957747E-01  0.3427017E+00
         13   -1    0    0    0    0  0.00000000000E+00  0.00000000000E+00  0.14999999963E+04  0.15000000000E+04  0.10566000000E+00 0.  1.
        994   -1    0    0    0    0 -0.00000000000E+00 -0.00000000000E+00  0.11368683772E-12  0.17120000000E+03  0.17120000000E+03 0.  0.
         13    1    1    2    0    0  0.48266667304E+02  0.12737481004E+01  0.20296539913E+03  0.20862947542E+03  0.10566000000E+00 0.  1.
        994    1    1    2    0    0 -0.17816760453E+03 -0.14567741925E+02  0.11434794356E+03  0.27265510559E+03  0.17120000000E+03 0.  0.
        998    1    1    2    0    0  0.12990093722E+03  0.13293993824E+02  0.11826866536E+04  0.11899154190E+04  0.10000000000E+02 0.  1.
</event>
<event>
 5    1  0.5525569E-010  0.3852142E+03  0.7957747E-01  0.3428764E+00
         13   -1    0    0    0    0  0.00000000000E+00  0.00000000000E+00  0.14999999963E+04  0.15000000000E+04  0.10566000000E+00 0.  1.
        994   -1    0    0    0    0 -0.00000000000E+00 -0.00000000000E+00  0.11368683772E-12  0.17120000000E+03  0.17120000000E+03 0.  0.
         13    1    1    2    0    0 -0.16730868926E+03 -0.84379824581E+01  0.73100226161E+03  0.74995180825E+03  0.10566000000E+00 0.  1.
        994    1    1    2    0    0  0.24149093707E+03 -0.12965484953E+02  0.22588752701E+03  0.37258635422E+03  0.17120000000E+03 0.  0.
        998    1    1    2    0    0 -0.74182247812E+02  0.21403467412E+02  0.54311020766E+03  0.54866183753E+03  0.10000000000E+02 0.  1.
</event>
<event>
 5    1  0.5525569E-010  0.3812446E+03  0.7957747E-01  0.3445757E+00
         13   -1    0    0    0    0  0.00000000000E+00  0.00000000000E+00  0.14999999963E+04  0.15000000000E+04  0.10566000000E+00 0.  1.
        994   -1    0    0    0    0 -0.00000000000E+00 -0.00000000000E+00  0.11368683772E-12  0.17120000000E+03  0.17120000000E+03 0.  0.
         13    1    1    2    0    0  0.29092637080E+02  0.26743492556E+02  0.13344683810E+03  0.13917494634E+03  0.10566000000E+00 0.  1.
        994    1    1    2    0    0  0.14347520579E+02 -0.31520597121E+03  0.48497991470E+03  0.60338678581E+03  0.17120000000E+03 0.  0.
        998    1    1    2    0    0 -0.43440157658E+02  0.28846247865E+03  0.88157324349E+03  0.92863826785E+03  0.10000000000E+02 0.  1.
</event>
<event>
 5    1  0.5525569E-010  0.3859903E+03  0.7957747E-01  0.3425483E+00
         13   -1    0    0    0    0  0.00000000000E+00  0.00000000000E+00  0.14999999963E+04  0.15000000000E+04  0.10566000000E+00 0.  1.
        994   -1    0    0    0    0 -0.00000000000E+00 -0.00000000000E+00  0.11368683772E-12  0.17120000000E+03  0.17120000000E+03 0.  0.
         13    1    1    2    0    0 -0.51951139522E+01 -0.12887891793E+02  0.60421358723E+02  0.61998699324E+02  0.10566000000E+00 0.  1.
        994    1    1    2    0    0  0.74577990437E+02  0.39389049224E+02  0.24814976892E+02  0.19245414242E+03  0.17120000000E+03 0.  0.
        998    1    1    2    0    0 -0.69382876485E+02 -0.26501157432E+02  0.14147636607E+04  0.14167471583E+04  0.10000000000E+02 0.  1.
</event>
<event>
 5    1  0.5525569E-010  0.2914316E+03  0.7957747E-01  0.3959154E+00
         13   -1    0    0    0    0  0.00000000000E+00  0.00000000000E+00  0.14999999963E+04  0.15000000000E+04  0.10566000000E+00 0. -1.
        994   -1    0    0    0    0 -0.00000000000E+00 -0.00000000000E+00  0.11368683772E-12  0.17120000000E+03  0.17120000000E+03 0.  0.
         13    1    1    2    0    0  0.54078037564E+02 -0.14094147039E+03  0.83618336005E+03  0.84970086207E+03  0.10566000000E+00 0. -1.
        994    1    1    2    0    0 -0.50257893395E+01  0.14230471676E+02  0.31569509707E+02  0.17473934539E+03  0.17120000000E+03 0.  0.
        998    1    1    2    0    0 -0.49052248225E+02  0.12671099871E+03  0.63224712653E+03  0.64675979254E+03  0.10000000000E+02 0. -1.
</event>
<event>
 5    1  0.5525569E-010  0.3789916E+03  0.7957747E-01  0.3455561E+00
         13   -1    0    0    0    0  0.00000000000E+00  0.00000000000E+00  0.14999999963E+04  0.15000000000E+04  0.10566000000E+00 0. -1.
        994   -1    0    0    0    0 -0.00000000000E+00 -0.00000000000E+00  0.11368683772E-12  0.17120000000E+03  0.17120000000E+03 0.  0.
         13    1    1    2    0    0 -0.83337962155E+01 -0.18997356100E+02  0.69330995830E+02  0.72368154909E+02  0.10566000000E+00 0. -1.
        994    1    1    2    0    0  0.18009652649E+01 -0.95516541525E+02  0.35890496056E+02  0.19930935976E+03  0.17120000000E+03 0.  0.
        998    1    1    2    0    0  0.65328309505E+01  0.11451389763E+03  0.13947785044E+04  0.13995224853E+04  0.10000000000E+02 0. -1.
</event>
<event>
 5    1  0.5525569E-010  0.3871977E+03  0.7957747E-01  0.3420405E+00
         13   -1    0    0    0    0  0.00000000000E+00  0.00000000000E+00  0.14999999963E+04  0.15000000000E+04  0.10566000000E+00 0.  1.
        994   -1    0    0    0    0 -0.00000000000E+00 -0.00000000000E+00  0.11368683772E-12  0.17120000000E+03  0.17120000000E+03 0.  0.
         13    1    1    2    0    0  0.17471236663E+03 -0.41804686060E+02  0.69944626029E+03  0.72214757842E+03  0.10566000000E+00 0.  1.
        994    1    1    2    0    0 -0.26572895076E+03  0.78390262246E+02  0.31326069328E+03  0.45188340359E+03  0.17120000000E+03 0.  0.
        998    1    1    2    0    0  0.91016584130E+02 -0.36585576185E+02  0.48729304271E+03  0.49716901799E+03  0.10000000000E+02 0.  1.
</event>
<event>
 5    1  0.5525569E-010  0.3858637E+03  0.7957747E-01  0.3426017E+00
         13   -1    0    0    0    0  0.00000000000E+00  0.00000000000E+00  0.14999999963E+04  0.15000000000E+04  0.10566000000E+00 0.  1.
        994   -1    0    0    0    0 -0.00000000000E+00 -0.00000000000E+00  0.11368683772E-12  0.17120000000E+03  0.17120000000E+03 0.  0.
         13    1    1    2    0    0 -0.13846848237E+02  0.39606647861E+01  0.68443882437E+02  0.69942821496E+02  0.10566000000E+00 0.  1.
        994    1    1    2    0    0  0.48854830245E+02  0.11357015851E+02  0.94961972739E+01  0.17864880075E+03  0.17120000000E+03 0.  0.
        998    1    1    2    0    0 -0.35007982008E+02 -0.15317680637E+02  0.14220599166E+04  0.14226083778E+04  0.10000000000E+02 0.  1.
</event>
<event>
 5    1  0.5525569E-010  0.3876373E+03  0.7957747E-01  0.3418563E+00
         13   -1    0    0    0    0  0.00000000000E+00  0.00000000000E+00  0.14999999963E+04  0.15000000000E+04  0.10566000000E+00 0. -1.
        994   -1    0    0    0    0 -0.00000000000E+00 -0.00000000000E+00  0.11368683772E-12  0.17120000000E+03  0.17120000000E+03 0.  0.
         13    1    1    2    0    0  0.27782010099E+02 -0.12151667627E+02  0.15734210244E+03  0.16023748462E+03  0.10566000000E+00 0. -1.
        994    1    1    2    0    0 -0.18576843233E+03  0.45346925043E+02  0.13026414595E+03  0.28782710397E+03  0.17120000000E+03 0.  0.
        998    1    1    2    0    0  0.15798642223E+03 -0.33195257416E+02  0.12123937479E+04  0.12231354114E+04  0.10000000000E+02 0. -1.
</event>
<event>
 5    1  0.5525569E-010  0.3871909E+03  0.7957747E-01  0.3420433E+00
         13   -1    0    0    0    0  0.00000000000E+00  0.00000000000E+00  0.14999999963E+04  0.15000000000E+04  0.10566000000E+00 0. -1.
        994   -1    0    0    0    0 -0.00000000000E+00 -0.00000000000E+00  0.11368683772E-12  0.17120000000E+03  0.17120000000E+03 0.  0.
         13    1    1    2    0    0 -0.24562326183E+03  0.34150439579E+02  0.10779616453E+04  0.11061186008E+04  0.10566000000E+00 0. -1.
        994    1    1    2    0    0  0.26693412720E+03 -0.42793522741E+02  0.29378997249E+03  0.43440430683E+03  0.17120000000E+03 0.  0.
        998    1    1    2    0    0 -0.21310865369E+02  0.86430831619E+01  0.12824837852E+03  0.13067709234E+03  0.10000000000E+02 0.  0.
</event>
<event>
 5    1  0.5525569E-010  0.3805328E+03  0.7957747E-01  0.3448842E+00
         13   -1    0    0    0    0  0.00000000000E+00  0.00000000000E+00  0.14999999963E+04  0.15000000000E+04  0.10566000000E+00 0. -1.
        994   -1    0    0    0    0 -0.00000000000E+00 -0.00000000000E+00  0.11368683772E-12  0.17120000000E+03  0.17120000000E+03 0.  0.
         13    1    1    2    0    0 -0.67108666515E+01  0.27451733293E+02  0.60437503385E+02  0.66718336096E+02  0.10566000000E+00 0. -1.
        994    1    1    2    0    0 -0.57274623209E+02 -0.16102273613E+03  0.10842468628E+03  0.26509254348E+03  0.17120000000E+03 0.  0.
        998    1    1    2    0    0  0.63985489860E+02  0.13357100284E+03  0.13311378066E+04  0.13393891204E+04  0.10000000000E+02 0. -1.
</event>
<event>
 5    1  0.5525569E-010  0.3864496E+03  0.7957747E-01  0.3423548E+00
         13   -1    0    0    0    0  0.00000000000E+00  0.00000000000E+00  0.14999999963E+04  0.15000000000E+04  0.10566000000E+00 0.  1.
        994   -1    0    0    0    0 -0.00000000000E+00 -0.00000000000E+00  0.11368683772E-12  0.17120000000E+03  0.17120000000E+03 0.  0.
         13    1    1    2    0    0 -0.12270651157E+03  0.19865549512E+03  0.10676935823E+04  0.10929274864E+04  0.10566000000E+00 0.  1.
        994    1    1    2    0    0  0.14887276406E+03 -0.21335836403E+03  0.26777851179E+03  0.41073064502E+03  0.17120000000E+03 0.  0.
        998    1    1    2    0    0 -0.26166252490E+02  0.14702868907E+02  0.16452790217E+03  0.16754186855E+03  0.10000000000E+02 0.  1.
</event>
<event>
 5    1  0.5525569E-010  0.3850210E+03  0.7957747E-01  0.3429583E+00
         13   -1    0    0    0    0  0.00000000000E+00  0.00000000000E+00  0.14999999963E+04  0.15000000000E+04  0.10566000000E+00 0. -1.
        994   -1    0    0    0    0 -0.00000000000E+00 -0.00000000000E+00  0.11368683772E-12  0.17120000000E+03  0.17120000000E+03 0.  0.
         13    1    1    2    0    0  0.10525636679E+02  0.17939954443E+02  0.11706439834E+03  0.11889792056E+03  0.10566000000E+00 0. -1.
        994    1    1    2    0    0 -0.63792760526E+02 -0.22629966884E+01  0.15135555253E+02  0.18333892790E+03  0.17120000000E+03 0.  0.
        998    1    1    2    0    0  0.53267123847E+02 -0.15676957754E+02  0.13678000427E+04  0.13689631515E+04  0.10000000000E+02 0. -1.
</event>
<event>
 5    1  0.5525569E-010  0.3878835E+03  0.7957747E-01  0.3417534E+00
         13   -1    0    0    0    0  0.00000000000E+00  0.00000000000E+00  0.14999999963E+04  0.15000000000E+04  0.10566000000E+00 0. -1.
        994   -1    0    0    0    0 -0.00000000000E+00 -0.00000000000E+00  0.11368683772E-12  0.17120000000E+03  0.17120000000E+03 0.  0.
         13    1    1    2    0    0 -0.80266343427E+02 -0.17306210999E+03  0.84695258712E+03  0.86817157048E+03  0.10566000000E+00 0. -1.
        994    1    1    2    0    0  0.10435991123E+03  0.24590887380E+03  0.28358074774E+03  0.42554629099E+03  0.17120000000E+03 0.  0.
        998    1    1    2    0    0 -0.24093567806E+02 -0.72846763807E+02  0.36946666142E+03  0.37748213853E+03  0.10000000000E+02 0.  0.
</event>
<event>
 5    1  0.5525569E-010  0.3779677E+03  0.7957747E-01  0.3460056E+00
         13   -1    0    0    0    0  0.00000000000E+00  0.00000000000E+00  0.14999999963E+04  0.15000000000E+04  0.10566000000E+00 0. -1.
        994   -1    0    0    0    0 -0.00000000000E+00 -0.00000000000E+00  0.11368683772E-12  0.17120000000E+03  0.17120000000E+03 0.  0.
         13    1    1    2    0    0  0.78057435484E+02 -0.29089147973E+02  0.36899005084E+03  0.37827610359E+03  0.10566000000E+00 0. -1.
        994    1    1    2    0    0 -0.14209095840E+03 -0.23687628800E+02  0.78518836522E+02  0.23711936215E+03  0.17120000000E+03 0.  0.
        998    1    1    2    0    0  0.64033522911E+02  0.52776776773E+02  0.10524911089E+04  0.10558045343E+04  0.10000000000E+02 0. -1.
</event>
<event>
 5    1  0.5525569E-010  0.3855415E+03  0.7957747E-01  0.3427379E+00
         13   -1    0    0    0    0  0.00000000000E+00  0.00000000000E+00  0.14999999963E+04  0.15000000000E+04  0.10566000000E+00 0. -1.
        994   -1    0    0    0    0 -0.00000000000E+00 -0.00000000000E+00  0.11368683772E-12  0.17120000000E+03  0.17120000000E+03 0.  0.
         13    1    1    2    0    0 -0.22738766468E+02  0.10039937500E+02  0.14564449435E+03  0.14775040353E+03  0.10566000000E+00 0. -1.
        994    1    1    2    0    0  0.43888314755E+02 -0.62553313243E+02  0.20771007655E+02  0.18862655149E+03  0.17120000000E+03 0.  0.
        998    1    1    2    0    0 -0.21149548288E+02  0.52513375743E+02  0.13335844943E+04  0.13348230450E+04  0.10000000000E+02 0. -1.
</event>
<event>
 5    1  0.5525569E-010  0.3860978E+03  0.7957747E-01  0.3425030E+00
         13   -1    0    0    0    0  0.00000000000E+00  0.00000000000E+00  0.14999999963E+04  0.15000000000E+04  0.10566000000E+00 0.  1.
        994   -1    0    0    0    0 -0.00000000000E+00 -0.00000000000E+00  0.11368683772E-12  0.17120000000E+03  0.17120000000E+03 0.  0.
         13    1    1    2    0    0  0.35538529744E+01  0.11400754312E+02  0.45755962423E+02  0.47288754806E+02  0.10566000000E+00 0.  1.
        994    1    1    2    0    0 -0.68594946774E+02 -0.54001593713E+02  0.26471955877E+02  0.19398877105E+03  0.17120000000E+03 0.  0.
        998    1    1    2    0    0  0.65041093799E+02  0.42600839401E+02  0.14277720780E+04  0.14299224741E+04  0.10000000000E+02 0.  1.
</event>
<event>
 5    1  0.5525569E-010  0.3882112E+03  0.7957747E-01  0.3416166E+00
         13   -1    0    0    0    0  0.00000000000E+00  0.00000000000E+00  0.14999999963E+04  0.15000000000E+04  0.10566000000E+00 0. -1.
        994   -1    0    0    0    0 -0.00000000000E+00 -0.00000000000E+00  0.11368683772E-12  0.17120000000E+03  0.17120000000E+03 0.  0.
         13    1    1    2    0    0 -0.13456424425E+02 -0.21066481670E+02  0.12184285502E+03  0.12438072395E+03  0.10566000000E+00 0. -1.
        994    1    1    2    0    0  0.13495198126E+03  0.20584822497E+03  0.23098347372E+03  0.37848161659E+03  0.17120000000E+03 0.  0.
        998    1    1    2    0    0 -0.12149555684E+03 -0.18478174330E+03  0.11471736675E+04  0.11683376595E+04  0.10000000000E+02 0.  0.
</event>
<event>
 5    1  0.5525569E-010  0.3811945E+03  0.7957747E-01  0.3445974E+00
         13   -1    0    0    0    0  0.00000000000E+00  0.00000000000E+00  0.14999999963E+04  0.15000000000E+04  0.10566000000E+00 0.  1.
        994   -1    0    0    0    0 -0.00000000000E+00 -0.00000000000E+00  0.11368683772E-12  0.17120000000E+03  0.17120000000E+03 0.  0.
         13    1    1    2    0    0 -0.35505083276E+02 -0.63653111861E+02  0.32377322694E+03  0.33187564423E+03  0.10566000000E+00 0.  1.
        994    1    1    2    0    0  0.11989749795E+02  0.15536503823E+03  0.89125555140E+02  0.24806219741E+03  0.17120000000E+03 0.  0.
        998    1    1    2    0    0  0.23515333481E+02 -0.91711926372E+02  0.10871012142E+04  0.10912621584E+04  0.10000000000E+02 0.  1.
</event>
<event>
 5    1  0.5525569E-010  0.3816917E+03  0.7957747E-01  0.3443825E+00
         13   -1    0    0    0    0  0.00000000000E+00  0.00000000000E+00  0.14999999963E+04  0.15000000000E+04  0.10566000000E+00 0.  1.
        994   -1    0    0    0    0 -0.00000000000E+00 -0.00000000000E+00  0.11368683772E-12  0.17120000000E+03  0.17120000000E+03 0.  0.
         13    1    1    2    0    0 -0.41033108196E+02 -0.11894497739E+02  0.18953466164E+03  0.19428997445E+03  0.10566000000E+00 0.  1.
        994    1    1    2    0    0  0.59592325158E+02  0.98250324948E+02  0.48497761425E+02  0.21181559063E+03  0.17120000000E+03 0.  0.
        998    1    1    2    0    0 -0.18559216962E+02 -0.86355827209E+02  0.12619675732E+04  0.12650944349E+04  0.10000000000E+02 0.  1.
</event>
<event>
 5    1  0.5525569E-010  0.3873056E+03  0.7957747E-01  0.3419952E+00
         13   -1    0    0    0    0  0.00000000000E+00  0.00000000000E+00  0.14999999963E+04  0.15000000000E+04  0.10566000000E+00 0. -1.
        994   -1    0    0    0    0 -0.00000000000E+00 -0.00000000000E+00  0.11368683772E-12  0.17120000000E+03  0.17120000000E+03 0.  0.
         13    1    1    2    0    0  0.14593748084E+03  0.13277763042E+03  0.11857357037E+04  0.12020386090E+04  0.10566000000E+00 0. -1.
        994    1    1    2    0    0 -0.16308756170E+03 -0.15394125169E+03  0.18666147431E+03  0.33830076521E+03  0.17120000000E+03 0.  0.
        998    1    1    2    0    0  0.17150080856E+02  0.21163621266E+02  0.12760281830E+03  0.13086062577E+03  0.10000000000E+02 0.  0.
</event>
<event>
 5    1  0.5525569E-010  0.3861375E+03  0.7957747E-01  0.3424862E+00
         13   -1    0    0    0    0  0.00000000000E+00  0.00000000000E+00  0.14999999963E+04  0.15000000000E+04  0.10566000000E+00 0.  1.
        994   -1    0    0    0    0 -0.00000000000E+00 -0.00000000000E+00  0.11368683772E-12  0.17120000000E+03  0.17120000000E+03 0.  0.
         13    1    1    2    0    0 -0.18335288445E+01  0.10309837831E+02  0.54507763630E+02  0.55504612819E+02  0.10566000000E+00 0.  1.
        994    1    1    2    0    0  0.15193911958E+03 -0.10281345707E+02  0.81137619919E+02  0.24307191424E+03  0.17120000000E+03 0.  0.
        998    1    1    2    0    0 -0.15010559074E+03 -0.28492124680E-01  0.13643546127E+04  0.13726234729E+04  0.10000000000E+02 0.  1.
</event>
<event>
 5    1  0.5525569E-010  0.3853785E+03  0.7957747E-01  0.3428068E+00
         13   -1    0    0    0    0  0.00000000000E+00  0.00000000000E+00  0.14999999963E+04  0.15000000000E+04  0.10566000000E+00 0.  1.
        994   -1    0    0    0    0 -0.00000000000E+00 -0.00000000000E+00  0.11368683772E-12  0.17120000000E+03  0.17120000000E+03 0.  0.
         13    1    1    2    0    0  0.85653371096E+01  0.11270602806E+02  0.47835390083E+02  0.49886142323E+02  0.10566000000E+00 0.  1.
        994    1    1    2    0    0 -0.28155018006E+02 -0.77105494325E+02  0.23895782942E+02  0.19135937588E+03  0.17120000000E+03 0.  0.
        998    1    1    2    0    0  0.19589680896E+02  0.65834891519E+02  0.14282688233E+04  0.14299544818E+04  0.10000000000E+02 0.  1.
</event>
<event>
 5    1  0.5525569E-010  0.3874155E+03  0.7957747E-01  0.3419492E+00
         13   -1    0    0    0    0  0.00000000000E+00  0.00000000000E+00  0.14999999963E+04  0.15000000000E+04  0.10566000000E+00 0.  1.
        994   -1    0    0    0    0 -0.00000000000E+00 -0.00000000000E+00  0.11368683772E-12  0.17120000000E+03  0.17120000000E+03 0.  0.
         13    1    1    2    0    0  0.16317504384E+03  0.13099577626E+03  0.76401550270E+03  0.79215256602E+03  0.10566000000E+00 0.  1.
        994    1    1    2    0    0 -0.24240121766E+03 -0.17090325715E+03  0.37781966315E+03  0.50992490770E+03  0.17120000000E+03 0.  0.
        998    1    1    2    0    0  0.79226173822E+02  0.39907480886E+02  0.35816483043E+03  0.36912252628E+03  0.10000000000E+02 0. -1.
</event>
<event>
 5    1  0.5525569E-010  0.3833394E+03  0.7957747E-01  0.3436746E+00
         13   -1    0    0    0    0  0.00000000000E+00  0.00000000000E+00  0.14999999963E+04  0.15000000000E+04  0.10566000000E+00 0. -1.
        994   -1    0    0    0    0 -0.00000000000E+00 -0.00000000000E+00  0.11368683772E-12  0.17120000000E+03  0.17120000000E+03 0.  0.
         13    1    1    2    0    0  0.16241004218E+03  0.11320027847E+03  0.82222998706E+03  0.84572660336E+03  0.10566000000E+00 0. -1.
        994    1    1    2    0    0 -0.21251958625E+03 -0.12376003692E+03  0.23813161185E+03  0.38274956021E+03  0.17120000000E+03 0.  0.
        998    1    1    2    0    0  0.50109544073E+02  0.10559758448E+02  0.43963839737E+03  0.44272383643E+03  0.10000000000E+02 0. -1.
</event>
<event>
 5    1  0.5525569E-010  0.3836044E+03  0.7957747E-01  0.3435613E+00
         13   -1    0    0    0    0  0.00000000000E+00  0.00000000000E+00  0.14999999963E+04  0.15000000000E+04  0.10566000000E+00 0. -1.
        994   -1    0    0    0    0 -0.00000000000E+00 -0.00000000000E+00  0.11368683772E-12  0.17120000000E+03  0.17120000000E+03 0.  0.
         13    1    1    2    0    0 -0.60609882245E+02  0.10536509889E+03  0.64595138296E+03  0.65728879665E+03  0.10566000000E+00 0. -1.
        994    1    1    2    0    0  0.50839262253E+02 -0.18319717015E+03  0.13264032084E+03  0.28818176287E+03  0.17120000000E+03 0.  0.
        998    1    1    2    0    0  0.97706199922E+01  0.77832071260E+02  0.72140829248E+03  0.72572944049E+03  0.10000000000E+02 0. -1.
</event>
<event>
 5    1  0.5525569E-010  0.3873316E+03  0.7957747E-01  0.3419843E+00
         13   -1    0    0    0    0  0.00000000000E+00  0.00000000000E+00  0.14999999963E+04  0.15000000000E+04  0.10566000000E+00 0.  1.
        994   -1    0    0    0    0 -0.00000000000E+00 -0.00000000000E+00  0.11368683772E-12  0.17120000000E+03  0.17120000000E+03 0.  0.
         13    1    1    2    0    0  0.19462453137E+03  0.18172050549E+03  0.90926411636E+03  0.94745041812E+03  0.10566000000E+00 0.  1.
        994    1    1    2    0    0 -0.22520941139E+03 -0.21951219848E+03  0.45354512062E+03  0.57785595152E+03  0.17120000000E+03 0.  0.
        998    1    1    2    0    0  0.30584880024E+02  0.37791692994E+02  0.13719075929E+03  0.14589363036E+03  0.10000000000E+02 0.  1.
</event>
<event>
 5    1  0.5525569E-010  0.3855096E+03  0.7957747E-01  0.3427514E+00
         13   -1    0    0    0    0  0.00000000000E+00  0.00000000000E+00  0.14999999963E+04  0.15000000000E+04  0.10566000000E+00 0.  1.
        994   -1    0    0    0    0 -0.00000000000E+00 -0.00000000000E+00  0.11368683772E-12  0.17120000000E+03  0.17120000000E+03 0.  0.
         13    1    1    2    0    0 -0.14670003871E+03 -0.17410846706E+03  0.10473623173E+04  0.10718220443E+04  0.10566000000E+00 0.  1.
        994    1    1    2    0    0  0.15034513627E+03  0.21503717002E+03  0.27529564696E+03  0.41706327784E+03  0.17120000000E+03 0.  0.
        998    1    1    2    0    0 -0.36450975531E+01 -0.40928702966E+02  0.17734203201E+03  0.18231467790E+03  0.10000000000E+02 0. -1.
</event>
<event>
 5    1  0.5525569E-010  0.3864812E+03  0.7957747E-01  0.3423415E+00
         13   -1    0    0    0    0  0.00000000000E+00  0.00000000000E+00  0.14999999963E+04  0.15000000000E+04  0.10566000000E+00 0. -1.
        994   -1    0    0    0    0 -0.00000000000E+00 -0.00000000000E+00  0.11368683772E-12  0.17120000000E+03  0.17120000000E+03 0.  0.
         13    1    1    2    0    0 -0.27313363876E+03 -0.70600786049E+02  0.76388214993E+03  0.81431100064E+03  0.10566000000E+00 0. -1.
        994    1    1    2    0    0  0.33074625673E+03  0.70517310731E+02  0.61565882734E+03  0.72298755807E+03  0.17120000000E+03 0.  0.
        998    1    1    2    0    0 -0.57612617967E+02  0.83475317709E-01  0.12045901901E+03  0.13390144129E+03  0.10000000000E+02 0.  1.
</event>
<event>
 5    1  0.5525569E-010  0.3831287E+03  0.7957747E-01  0.3437648E+00
         13   -1    0    0    0    0  0.00000000000E+00  0.00000000000E+00  0.14999999963E+04  0.15000000000E+04  0.10566000000E+00 0.  1.
        994   -1    0    0    0    0 -0.00000000000E+00 -0.00000000000E+00  0.11368683772E-12  0.17120000000E+03  0.17120000000E+03 0.  0.
         13    1    1    2    0    0 -0.12569385326E+03  0.12640036585E+03  0.30730433303E+03  0.35526322846E+03  0.10566000000E+00 0.  1.
        994    1    1    2    0    0  0.20902365907E+03 -0.27085175743E+03  0.73311514680E+03  0.82693338487E+03  0.17120000000E+03 0.  0.
        998    1    1    2    0    0 -0.83329805815E+02  0.14445139159E+03  0.45958051646E+03  0.48900338667E+03  0.10000000000E+02 0.  1.
</event>
<event>
 5    1  0.5525569E-010  0.3844580E+03  0.7957747E-01  0.3431974E+00
         13   -1    0    0    0    0  0.00000000000E+00  0.00000000000E+00  0.14999999963E+04  0.15000000000E+04  0.10566000000E+00 0. -1.
        994   -1    0    0    0    0 -0.00000000000E+00 -0.00000000000E+00  0.11368683772E-12  0.17120000000E+03  0.17120000000E+03 0.  0.
         13    1    1    2    0    0 -0.28732168126E+02 -0.61250407428E+02  0.33920032330E+03  0.34588151206E+03  0.10566000000E+00 0. -1.
        994    1    1    2    0    0  0.92112329489E+02  0.12475021945E+03  0.85608646209E+02  0.24634443124E+03  0.17120000000E+03 0.  0.
        998    1    1    2    0    0 -0.63380161363E+02 -0.63499812025E+02  0.10751910268E+04  0.10789740567E+04  0.10000000000E+02 0. -1.
</event>
<event>
 5    1  0.5525569E-010  0.3799979E+03  0.7957747E-01  0.3451168E+00
         13   -1    0    0    0    0  0.00000000000E+00  0.00000000000E+00  0.14999999963E+04  0.15000000000E+04  0.10566000000E+00 0. -1.
        994   -1    0    0    0    0 -0.00000000000E+00 -0.00000000000E+00  0.11368683772E-12  0.17120000000E+03  0.17120000000E+03 0.  0.
         13    1    1    2    0    0 -0.45273251063E+02  0.12969700660E+02  0.27329362313E+03  0.27732164720E+03  0.10566000000E+00 0. -1.
        994    1    1    2    0    0  0.29933499713E+03  0.86499241584E+02  0.46924120397E+03  0.58871071572E+03  0.17120000000E+03 0.  0.
        998    1    1    2    0    0 -0.25406174606E+03 -0.99468942244E+02  0.75746516918E+03  0.80516763709E+03  0.10000000000E+02 0. -1.
</event>
<event>
 5    1  0.5525569E-010  0.3881325E+03  0.7957747E-01  0.3416495E+00
         13   -1    0    0    0    0  0.00000000000E+00  0.00000000000E+00  0.14999999963E+04  0.15000000000E+04  0.10566000000E+00 0.  1.
        994   -1    0    0    0    0 -0.00000000000E+00 -0.00000000000E+00  0.11368683772E-12  0.17120000000E+03  0.17120000000E+03 0.  0.
         13    1    1    2    0    0  0.11632605882E+03 -0.33389632086E+02  0.52723896216E+03  0.54095060207E+03  0.10566000000E+00 0.  1.
        994    1    1    2    0    0 -0.26164296856E+03  0.68155223426E+02  0.29201160968E+03  0.43322326538E+03  0.17120000000E+03 0.  0.
        998    1    1    2    0    0  0.14531690974E+03 -0.34765591340E+02  0.68074942443E+03  0.69702613255E+03  0.10000000000E+02 0.  0.
</event>
<event>
 5    1  0.5525569E-010  0.3866350E+03  0.7957747E-01  0.3422768E+00
         13   -1    0    0    0    0  0.00000000000E+00  0.00000000000E+00  0.14999999963E+04  0.15000000000E+04  0.10566000000E+00 0. -1.
        994   -1    0    0    0    0 -0.00000000000E+00 -0.00000000000E+00  0.11368683772E-12  0.17120000000E+03  0.17120000000E+03 0.  0.
         13    1    1    2    0    0  0.14135937075E+01  0.22001418972E+02  0.10374424634E+03  0.10606102251E+03  0.10566000000E+00 0. -1.
        994    1    1    2    0    0  0.72108300825E+02 -0.15076587764E+03  0.98221338231E+02  0.25862487930E+03  0.17120000000E+03 0.  0.
        998    1    1    2    0    0 -0.73521894533E+02  0.12876445866E+03  0.12980344117E+04  0.13065140982E+04  0.10000000000E+02 0. -1.
</event>
<event>
 5    1  0.5525569E-010  0.3873404E+03  0.7957747E-01  0.3419807E+00
         13   -1    0    0    0    0  0.00000000000E+00  0.00000000000E+00  0.14999999963E+04  0.15000000000E+04  0.10566000000E+00 0. -1.
        994   -1    0    0    0    0 -0.00000000000E+00 -0.00000000000E+00  0.11368683772E-12  0.17120000000E+03  0.17120000000E+03 0.  0.
         13    1    1    2    0    0 -0.20077455298E+03  0.13747983510E+03  0.98247512386E+03  0.10121603165E+04  0.10566000000E+00 0. -1.
        994    1    1    2    0    0  0.23338200673E+03 -0.15435751951E+03  0.32133701000E+03  0.45919529494E+03  0.17120000000E+03 0.  0.
        998    1    1    2    0    0 -0.32607453746E+02  0.16877684407E+02  0.19618786242E+03  0.19984438854E+03  0.10000000000E+02 0. -1.
</event>
<event>
 5    1  0.5525569E-010  0.3751541E+03  0.7957747E-01  0.3472534E+00
         13   -1    0    0    0    0  0.00000000000E+00  0.00000000000E+00  0.14999999963E+04  0.15000000000E+04  0.10566000000E+00 0. -1.
        994   -1    0    0    0    0 -0.00000000000E+00 -0.00000000000E+00  0.11368683772E-12  0.17120000000E+03  0.17120000000E+03 0.  0.
         13    1    1    2    0    0 -0.28010388025E+02 -0.12506994338E+02  0.15108525786E+03  0.15416800269E+03  0.10566000000E+00 0. -1.
        994    1    1    2    0    0 -0.64085527995E+02 -0.11593928769E+03  0.68770652816E+02  0.22712929361E+03  0.17120000000E+03 0.  0.
        998    1    1    2    0    0  0.92095916019E+02  0.12844628203E+03  0.12801440856E+04  0.12899027037E+04  0.10000000000E+02 0. -1.
</event>
<event>
 5    1  0.5525569E-010  0.3851880E+03  0.7957747E-01  0.3428875E+00
         13   -1    0    0    0    0  0.00000000000E+00  0.00000000000E+00  0.14999999963E+04  0.15000000000E+04  0.10566000000E+00 0. -1.
        994   -1    0    0    0    0 -0.00000000000E+00 -0.00000000000E+00  0.11368683772E-12  0.17120000000E+03  0.17120000000E+03 0.  0.
         13    1    1    2    0    0  0.19106740614E+03  0.15333611402E+03  0.12273016684E+04  0.12515143283E+04  0.10566000000E+00 0. -1.
        994    1    1    2    0    0 -0.19430435015E+03 -0.15293647206E+03  0.23831089044E+03  0.38372550798E+03  0.17120000000E+03 0.  0.
        998    1    1    2    0    0  0.32369440079E+01 -0.39964195272E+00  0.34387437424E+02  0.35960163693E+02  0.10000000000E+02 0.  1.
</event>
<event>
 5    1  0.5525569E-010  0.3844401E+03  0.7957747E-01  0.3432050E+00
         13   -1    0    0    0    0  0.00000000000E+00  0.00000000000E+00  0.14999999963E+04  0.15000000000E+04  0.10566000000E+00 0. -1.
        994   -1    0    0    0    0 -0.00000000000E+00 -0.00000000000E+00  0.11368683772E-12  0.17120000000E+03  0.17120000000E+03 0.  0.
         13    1    1    2    0    0  0.11815568181E+02 -0.77124193502E+01  0.32037836629E+02  0.35007473539E+02  0.10566000000E+00 0. -1.
        994    1    1    2    0    0 -0.94977318154E+02  0.81856829898E+02  0.55546149317E+02  0.21935370129E+03  0.17120000000E+03 0.  0.
        998    1    1    2    0    0  0.83161749972E+02 -0.74144410548E+02  0.14124160103E+04  0.14168388252E+04  0.10000000000E+02 0. -1.
</event>
<event>
 5    1  0.5525569E-010  0.3876575E+03  0.7957747E-01  0.3418479E+00
         13   -1    0    0    0    0  0.00000000000E+00  0.00000000000E+00  0.14999999963E+04  0.15000000000E+04  0.10566000000E+00 0. -1.
        994   -1    0    0    0    0 -0.00000000000E+00 -0.00000000000E+00  0.11368683772E-12  0.17120000000E+03  0.17120000000E+03 0.  0.
         13    1    1    2    0    0 -0.15648871016E+02  0.19813594349E+03  0.78171114270E+03  0.80658233371E+03  0.10566000000E+00 0. -1.
        994    1    1    2    0    0  0.79751450690E+01 -0.28532154674E+03  0.33841836272E+03  0.47466663691E+03  0.17120000000E+03 0.  0.
        998    1    1    2    0    0  0.76737259466E+01  0.87185603256E+02  0.37987049086E+03  0.38995102938E+03  0.10000000000E+02 0.  1.
</event>
<event>
 5    1  0.5525569E-010  0.3867063E+03  0.7957747E-01  0.3422468E+00
         13   -1    0    0    0    0  0.00000000000E+00  0.00000000000E+00  0.14999999963E+04  0.15000000000E+04  0.10566000000E+00 0. -1.
        994   -1    0    0    0    0 -0.00000000000E+00 -0.00000000000E+00  0.11368683772E-12  0.17120000000E+03  0.17120000000E+03 0.  0.
         13    1    1    2    0    0 -0.27506696540E+01  0.15373374504E+02  0.68402091454E+02  0.70162412348E+02  0.10566000000E+00 0. -1.
        994    1    1    2    0    0  0.66971262909E+02 -0.10991785003E+03  0.56976625396E+02  0.22163677414E+03  0.17120000000E+03 0.  0.
        998    1    1    2    0    0 -0.64220593255E+02  0.94544475527E+02  0.13746212794E+04  0.13794008135E+04  0.10000000000E+02 0. -1.
</event>
<event>
 5    1  0.5525569E-010  0.3782443E+03  0.7957747E-01  0.3458839E+00
         13   -1    0    0    0    0  0.00000000000E+00  0.00000000000E+00  0.14999999963E+04  0.15000000000E+04  0.10566000000E+00 0.  1.
        994   -1    0    0    0    0 -0.00000000000E+00 -0.00000000000E+00  0.11368683772E-12  0.17120000000E+03  0.17120000000E+03 0.  0.
         13    1    1    2    0    0 -0.20789149565E+01  0.25474836036E+02  0.14343064418E+03  0.14569025367E+03  0.10566000000E+00 0.  1.
        994    1    1    2    0    0  0.55580856833E+01  0.10827711505E+03  0.45623156961E+02  0.20771552280E+03  0.17120000000E+03 0.  0.
        998    1    1    2    0    0 -0.34791707268E+01 -0.13375195109E+03  0.13109461951E+04  0.13177942235E+04  0.10000000000E+02 0.  1.
</event>
<event>
 5    1  0.5525569E-010  0.2785584E+03  0.7957747E-01  0.4062078E+00
         13   -1    0    0    0    0  0.00000000000E+00  0.00000000000E+00  0.14999999963E+04  0.15000000000E+04  0.10566000000E+00 0.  1.
        994   -1    0    0    0    0 -0.00000000000E+00 -0.00000000000E+00  0.11368683772E-12  0.17120000000E+03  0.17120000000E+03 0.  0.
         13    1    1    2    0    0 -0.71513853023E+02  0.29290123682E+03  0.59773389166E+03  0.66947082245E+03  0.10566000000E+00 0.  1.
        994    1    1    2    0    0  0.25455645796E+02 -0.39840254298E+02  0.38153682242E+03  0.42085035657E+03  0.17120000000E+03 0.  0.
        998    1    1    2    0    0  0.46058207227E+02 -0.25306098252E+03  0.52072928220E+03  0.58087882098E+03  0.10000000000E+02 0. -1.
</event>
<event>
 5    1  0.5525569E-010  0.3583902E+03  0.7957747E-01  0.3551010E+00
         13   -1    0    0    0    0  0.00000000000E+00  0.00000000000E+00  0.14999999963E+04  0.15000000000E+04  0.10566000000E+00 0.  1.
        994   -1    0    0    0    0 -0.00000000000E+00 -0.00000000000E+00  0.11368683772E-12  0.17120000000E+03  0.17120000000E+03 0.  0.
         13    1    1    2    0    0  0.25952805796E+03  0.53482182620E+02  0.94044794742E+03  0.97706576528E+03  0.10566000000E+00 0.  1.
        994    1    1    2    0    0 -0.30606106039E+03 -0.18257827137E+02  0.46789043486E+03  0.58501078620E+03  0.17120000000E+03 0.  0.
        998    1    1    2    0    0  0.46533002433E+02 -0.35224355483E+02  0.91661614006E+02  0.10912344852E+03  0.10000000000E+02 0. -1.
</event>
<event>
 5    1  0.5525569E-010  0.3844502E+03  0.7957747E-01  0.3432007E+00
         13   -1    0    0    0    0  0.00000000000E+00  0.00000000000E+00  0.14999999963E+04  0.15000000000E+04  0.10566000000E+00 0. -1.
        994   -1    0    0    0    0 -0.00000000000E+00 -0.00000000000E+00  0.11368683772E-12  0.17120000000E+03  0.17120000000E+03 0.  0.
         13    1    1    2    0    0  0.22231973621E+03  0.78791361035E+02  0.10663137590E+04  0.10920893679E+04  0.10566000000E+00 0. -1.
        994    1    1    2    0    0 -0.25779039955E+03 -0.64159914238E+02  0.28614502910E+03  0.42633414404E+03  0.17120000000E+03 0.  0.
        998    1    1    2    0    0  0.35470663341E+02 -0.14631446797E+02  0.14754120818E+03  0.15277648806E+03  0.10000000000E+02 0. -1.
</event>
<event>
 5    1  0.5525569E-010  0.3855116E+03  0.7957747E-01  0.3427506E+00
         13   -1    0    0    0    0  0.00000000000E+00  0.00000000000E+00  0.14999999963E+04  0.15000000000E+04  0.10566000000E+00 0.  1.
        994   -1    0    0    0    0 -0.00000000000E+00 -0.00000000000E+00  0.11368683772E-12  0.17120000000E+03  0.17120000000E+03 0.  0.
         13    1    1    2    0    0  0.34742100195E+02  0.16527980414E+03  0.87543075299E+03  0.89157357611E+03  0.10566000000E+00 0.  1.
        994    1    1    2    0    0 -0.56136439708E+02 -0.20636252358E+03  0.16960025632E+03  0.32219633447E+03  0.17120000000E+03 0.  0.
        998    1    1    2    0    0  0.21394339514E+02  0.41082719439E+02  0.45496898697E+03  0.45743008941E+03  0.10000000000E+02 0. -1.
</event>
<event>
 5    1  0.5525569E-010  0.3733878E+03  0.7957747E-01  0.3480465E+00
         13   -1    0    0    0    0  0.00000000000E+00  0.00000000000E+00  0.14999999963E+04  0.15000000000E+04  0.10566000000E+00 0. -1.
        994   -1    0    0    0    0 -0.00000000000E+00 -0.00000000000E+00  0.11368683772E-12  0.17120000000E+03  0.17120000000E+03 0.  0.
         13    1    1    2    0    0 -0.29749052962E+02  0.61941054567E+02  0.18637851708E+03  0.19864204788E+03  0.10566000000E+00 0. -1.
        994    1    1    2    0    0 -0.88394839221E+02 -0.21233749110E+03  0.21763720468E+03  0.35996701320E+03  0.17120000000E+03 0.  0.
        998    1    1    2    0    0  0.11814389218E+03  0.15039643654E+03  0.10959842745E+04  0.11125909389E+04  0.10000000000E+02 0. -1.
</event>
<event>
 5    1  0.5525569E-010  0.3866763E+03  0.7957747E-01  0.3422594E+00
         13   -1    0    0    0    0  0.00000000000E+00  0.00000000000E+00  0.14999999963E+04  0.15000000000E+04  0.10566000000E+00 0.  1.
        994   -1    0    0    0    0 -0.00000000000E+00 -0.00000000000E+00  0.11368683772E-12  0.17120000000E+03  0.17120000000E+03 0.  0.
         13    1    1    2    0    0  0.22576598209E+03  0.16795683869E+03  0.75970637248E+03  0.81014416117E+03  0.10566000000E+00 0.  1.
        994    1    1    2    0    0 -0.26050412910E+03 -0.21453584729E+03  0.60685537242E+03  0.71517194722E+03  0.17120000000E+03 0.  0.
        998    1    1    2    0    0  0.34738147007E+02  0.46579008600E+02  0.13343825138E+03  0.14588389161E+03  0.10000000000E+02 0.  1.
</event>
<event>
 5    1  0.5525569E-010  0.3854409E+03  0.7957747E-01  0.3427804E+00
         13   -1    0    0    0    0  0.00000000000E+00  0.00000000000E+00  0.14999999963E+04  0.15000000000E+04  0.10566000000E+00 0. -1.
        994   -1    0    0    0    0 -0.00000000000E+00 -0.00000000000E+00  0.11368683772E-12  0.17120000000E+03  0.17120000000E+03 0.  0.
         13    1    1    2    0    0  0.18353779331E+02 -0.46265744604E+02  0.24052113580E+03  0.24561719865E+03  0.10566000000E+00 0. -1.
        994    1    1    2    0    0 -0.43361343712E+02  0.14540348395E+03  0.81065947219E+02  0.24270044720E+03  0.17120000000E+03 0.  0.
        998    1    1    2    0    0  0.25007564381E+02 -0.99137739342E+02  0.11784129133E+04  0.11828823542E+04  0.10000000000E+02 0.  1.
</event>
<event>
 5    1  0.5525569E-010  0.3880693E+03  0.7957747E-01  0.3416759E+00
         13   -1    0    0    0    0  0.00000000000E+00  0.00000000000E+00  0.14999999963E+04  0.15000000000E+04  0.10566000000E+00 0. -1.
        994   -1    0    0    0    0 -0.00000000000E+00 -0.00000000000E+00  0.11368683772E-12  0.17120000000E+03  0.17120000000E+03 0.  0.
         13    1    1    2    0    0  0.63031894757E+02  0.15791435052E+02  0.31810795733E+03  0.32467687454E+03  0.10566000000E+00 0. -1.
        994    1    1    2    0    0 -0.23008808281E+03 -0.58569442966E+02  0.21212749980E+03  0.36149470490E+03  0.17120000000E+03 0.  0.
        998    1    1    2    0    0  0.16705618805E+03  0.42778007914E+02  0.96976453915E+03  0.98502842056E+03  0.10000000000E+02 0. -1.
</event>
<event>
 5    1  0.5525569E-010  0.3863862E+03  0.7957747E-01  0.3423814E+00
         13   -1    0    0    0    0  0.00000000000E+00  0.00000000000E+00  0.14999999963E+04  0.15000000000E+04  0.10566000000E+00 0. -1.
        994   -1    0    0    0    0 -0.00000000000E+00 -0.00000000000E+00  0.11368683772E-12  0.17120000000E+03  0.17120000000E+03 0.  0.
         13    1    1    2    0    0 -0.16974790839E+02 -0.27570468734E+01  0.84609447472E+02  0.86339530906E+02  0.10566000000E+00 0. -1.
        994    1    1    2    0    0  0.82250796874E+02  0.63386748361E+02  0.37077615988E+02  0.20363512237E+03  0.17120000000E+03 0.  0.
        998    1    1    2    0    0 -0.65276006035E+02 -0.60629701488E+02  0.13783129328E+04  0.13812253467E+04  0.10000000000E+02 0. -1.
</event>
<event>
 5    1  0.5525569E-010  0.3881227E+03  0.7957747E-01  0.3416535E+00
         13   -1    0    0    0    0  0.00000000000E+00  0.00000000000E+00  0.14999999963E+04  0.15000000000E+04  0.10566000000E+00 0. -1.
        994   -1    0    0    0    0 -0.00000000000E+00 -0.00000000000E+00  0.11368683772E-12  0.17120000000E+03  0.17120000000E+03 0.  0.
         13    1    1    2    0    0 -0.10027725804E+03  0.29282562505E+02  0.61951637573E+03  0.62826232411E+03  0.10566000000E+00 0. -1.
        994    1    1    2    0    0  0.20616311683E+03 -0.65517764253E+02  0.17091081931E+03  0.32452389177E+03  0.17120000000E+03 0.  0.
        998    1    1    2    0    0 -0.10588585879E+03  0.36235201749E+02  0.70957280125E+03  0.71841378411E+03  0.10000000000E+02 0.  0.
</event>
<event>
 5    1  0.5525569E-010  0.3807763E+03  0.7957747E-01  0.3447785E+00
         13   -1    0    0    0    0  0.00000000000E+00  0.00000000000E+00  0.14999999963E+04  0.15000000000E+04  0.10566000000E+00 0.  1.
        994   -1    0    0    0    0 -0.00000000000E+00 -0.00000000000E+00  0.11368683772E-12  0.17120000000E+03  0.17120000000E+03 0.  0.
         13    1    1    2    0    0  0.16556270099E+02 -0.59313332460E+02  0.33306029247E+03  0.33870540455E+03  0.10566000000E+00 0.  1.
        994    1    1    2    0    0 -0.17364755062E+03  0.91821654988E+02  0.14540096072E+03  0.29838828318E+03  0.17120000000E+03 0.  0.
        998    1    1    2    0    0  0.15709128052E+03 -0.32508322528E+02  0.10215387431E+04  0.10341063123E+04  0.10000000000E+02 0.  1.
</event>
<event>
 5    1  0.5525569E-010  0.3861478E+03  0.7957747E-01  0.3424819E+00
         13   -1    0    0    0    0  0.00000000000E+00  0.00000000000E+00  0.14999999963E+04  0.15000000000E+04  0.10566000000E+00 0.  1.
        994   -1    0    0    0    0 -0.00000000000E+00 -0.00000000000E+00  0.11368683772E-12  0.17120000000E+03  0.17120000000E+03 0.  0.
         13    1    1    2    0    0 -0.48047022851E+02  0.15126121932E+03  0.82859708753E+03  0.84365965739E+03  0.10566000000E+00 0.  1.
        994    1    1    2    0    0  0.34765324227E+02 -0.23248551657E+03  0.20988674942E+03  0.35863634892E+03  0.17120000000E+03 0.  0.
        998    1    1    2    0    0  0.13281698625E+02  0.81224297245E+02  0.46151615933E+03  0.46890399370E+03  0.10000000000E+02 0.  0.
</event>
<event>
 5    1  0.5525569E-010  0.3866194E+03  0.7957747E-01  0.3422833E+00
         13   -1    0    0    0    0  0.00000000000E+00  0.00000000000E+00  0.14999999963E+04  0.15000000000E+04  0.10566000000E+00 0. -1.
        994   -1    0    0    0    0 -0.00000000000E+00 -0.00000000000E+00  0.11368683772E-12  0.17120000000E+03  0.17120000000E+03 0.  0.
         13    1    1    2    0    0 -0.21333537611E+02  0.68210334467E+00  0.11350681773E+03  0.11549629400E+03  0.10566000000E+00 0. -1.
        994    1    1    2    0    0  0.10799339042E+03  0.21270349074E+02  0.41515119002E+02  0.20772083485E+03  0.17120000000E+03 0.  0.
        998    1    1    2    0    0 -0.86659852814E+02 -0.21952452419E+02  0.13449780595E+04  0.13479828712E+04  0.10000000000E+02 0. -1.
</event>
<event>
 5    1  0.5525569E-010  0.3868492E+03  0.7957747E-01  0.3421867E+00
         13   -1    0    0    0    0  0.00000000000E+00  0.00000000000E+00  0.14999999963E+04  0.15000000000E+04  0.10566000000E+00 0. -1.
        994   -1    0    0    0    0 -0.00000000000E+00 -0.00000000000E+00  0.11368683772E-12  0.17120000000E+03  0.17120000000E+03 0.  0.
         13    1    1    2    0    0  0.19578401809E+03  0.75852341321E+02  0.99661282503E+03  0.10184901048E+04  0.10566000000E+00 0. -1.
        994    1    1    2    0    0 -0.23052094488E+03 -0.85365028269E+02  0.23235206585E+03  0.37910950474E+03  0.17120000000E+03 0.  0.
        998    1    1    2    0    0  0.34736926789E+02  0.95126869479E+01  0.27103510540E+03  0.27360039045E+03  0.10000000000E+02 0. -1.
</event>
<event>
 5    1  0.5525569E-010  0.3880974E+03  0.7957747E-01  0.3416641E+00
         13   -1    0    0    0    0  0.00000000000E+00  0.00000000000E+00  0.14999999963E+04  0.15000000000E+04  0.10566000000E+00 0.  1.
        994   -1    0    0    0    0 -0.00000000000E+00 -0.00000000000E+00  0.11368683772E-12  0.17120000000E+03  0.17120000000E+03 0.  0.
         13    1    1    2    0    0  0.51776286430E+02  0.19831512204E+03  0.58479831167E+03  0.61967632516E+03  0.10566000000E+00 0.  1.
        994    1    1    2    0    0 -0.83109903183E+02 -0.31993010138E+03  0.54112276992E+03  0.65679967867E+03  0.17120000000E+03 0.  0.
        998    1    1    2    0    0  0.31333616753E+02  0.12161497934E+03  0.37407891469E+03  0.39472399617E+03  0.10000000000E+02 0.  1.
</event>
<event>
 5    1  0.5525569E-010  0.3860754E+03  0.7957747E-01  0.3425124E+00
         13   -1    0    0    0    0  0.00000000000E+00  0.00000000000E+00  0.14999999963E+04  0.15000000000E+04  0.10566000000E+00 0. -1.
        994   -1    0    0    0    0 -0.00000000000E+00 -0.00000000000E+00  0.11368683772E-12  0.17120000000E+03  0.17120000000E+03 0.  0.
         13    1    1    2    0    0 -0.21985103665E+02 -0.11016519445E+03  0.54761004564E+03  0.55901385323E+03  0.10566000000E+00 0. -1.
        994    1    1    2    0    0  0.87873460909E+02  0.20755626896E+03  0.19041838881E+03  0.34113040427E+03  0.17120000000E+03 0.  0.
        998    1    1    2    0    0 -0.65888357244E+02 -0.97391074512E+02  0.76197156183E+03  0.77105574250E+03  0.10000000000E+02 0. -1.
</event>
<event>
 5    1  0.5525569E-010  0.3849886E+03  0.7957747E-01  0.3429721E+00
         13   -1    0    0    0    0  0.00000000000E+00  0.00000000000E+00  0.14999999963E+04  0.15000000000E+04  0.10566000000E+00 0. -1.
        994   -1    0    0    0    0 -0.00000000000E+00 -0.00000000000E+00  0.11368683772E-12  0.17120000000E+03  0.17120000000E+03 0.  0.
         13    1    1    2    0    0  0.10914030378E+03 -0.15096761119E+02  0.54670638007E+03  0.55769830131E+03  0.10566000000E+00 0. -1.
        994    1    1    2    0    0 -0.18863547619E+03  0.54854014897E+02  0.14096721835E+03  0.29626593202E+03  0.17120000000E+03 0.  0.
        998    1    1    2    0    0  0.79495172418E+02 -0.39757253778E+02  0.81232639786E+03  0.81723576667E+03  0.10000000000E+02 0. -1.
</event>
<event>
 5    1  0.5525569E-010  0.3779582E+03  0.7957747E-01  0.3460097E+00
         13   -1    0    0    0    0  0.00000000000E+00  0.00000000000E+00  0.14999999963E+04  0.15000000000E+04  0.10566000000E+00 0.  1.
        994   -1    0    0    0    0 -0.00000000000E+00 -0.00000000000E+00  0.11368683772E-12  0.17120000000E+03  0.17120000000E+03 0.  0.
         13    1    1    2    0    0  0.60413567942E+01 -0.41857336143E+02  0.77045219909E+02  0.87889201019E+02  0.10566000000E+00 0.  1.
        994    1    1    2    0    0 -0.21428568152E+03  0.17199865454E+03  0.32705841535E+03  0.46019402160E+03  0.17120000000E+03 0.  0.
        998    1    1    2    0    0  0.20824432472E+03 -0.13014131839E+03  0.10958963610E+04  0.11231167774E+04  0.10000000000E+02 0.  1.
</event>
<event>
 5    1  0.5525569E-010  0.3845294E+03  0.7957747E-01  0.3431670E+00
         13   -1    0    0    0    0  0.00000000000E+00  0.00000000000E+00  0.14999999963E+04  0.15000000000E+04  0.10566000000E+00 0. -1.
        994   -1    0    0    0    0 -0.00000000000E+00 -0.00000000000E+00  0.11368683772E-12  0.17120000000E+03  0.17120000000E+03 0.  0.
         13    1    1    2    0    0  0.19838393702E+03  0.10167709655E+03  0.94750531412E+03  0.97337595505E+03  0.10566000000E+00 0. -1.
        994    1    1    2    0    0 -0.24616820751E+03 -0.93618725999E+02  0.27976967481E+03  0.42064683904E+03  0.17120000000E+03 0.  0.
        998    1    1    2    0    0  0.47784270491E+02 -0.80583705513E+01  0.27272500735E+03  0.27717720591E+03  0.10000000000E+02 0.  1.
</event>
<event>
 5    1  0.5525569E-010  0.3862275E+03  0.7957747E-01  0.3424483E+00
         13   -1    0    0    0    0  0.00000000000E+00  0.00000000000E+00  0.14999999963E+04  0.15000000000E+04  0.10566000000E+00 0. -1.
        994   -1    0    0    0    0 -0.00000000000E+00 -0.00000000000E+00  0.11368683772E-12  0.17120000000E+03  0.17120000000E+03 0.  0.
         13    1    1    2    0    0  0.21202607327E+03  0.17500564217E+03  0.10899217324E+04  0.11240602406E+04  0.10566000000E+00 0. -1.
        994    1    1    2    0    0 -0.21672521289E+03 -0.18367932001E+03  0.33746647269E+03  0.47318175228E+03  0.17120000000E+03 0.  0.
        998    1    1    2    0    0  0.46991396232E+01  0.86736778308E+01  0.72611791166E+02  0.73958007116E+02  0.10000000000E+02 0.  1.
</event>
<event>
 5    1  0.5525569E-010  0.3873218E+03  0.7957747E-01  0.3419885E+00
         13   -1    0    0    0    0  0.00000000000E+00  0.00000000000E+00  0.14999999963E+04  0.15000000000E+04  0.10566000000E+00 0. -1.
        994   -1    0    0    0    0 -0.00000000000E+00 -0.00000000000E+00  0.11368683772E-12  0.17120000000E+03  0.17120000000E+03 0.  0.
         13    1    1    2    0    0 -0.34650962628E+02  0.18561734118E+03  0.92291601124E+03  0.94203421463E+03  0.10566000000E+00 0. -1.
        994    1    1    2    0    0  0.44237465744E+02 -0.23687440665E+03  0.22082261690E+03  0.36896951911E+03  0.17120000000E+03 0.  0.
        998    1    1    2    0    0 -0.95865031155E+01  0.51257065470E+02  0.35626136813E+03  0.36019626626E+03  0.10000000000E+02 0. -1.
</event>
<event>
 5    1  0.5525569E-010  0.3840991E+03  0.7957747E-01  0.3433502E+00
         13   -1    0    0    0    0  0.00000000000E+00  0.00000000000E+00  0.14999999963E+04  0.15000000000E+04  0.10566000000E+00 0.  1.
        994   -1    0    0    0    0 -0.00000000000E+00 -0.00000000000E+00  0.11368683772E-12  0.17120000000E+03  0.17120000000E+03 0.  0.
         13    1    1    2    0    0  0.18332620017E+02 -0.46850879800E+01  0.47674120245E+02  0.51291986813E+02  0.10566000000E+00 0.  1.
        994    1    1    2    0    0 -0.14066322546E+03  0.26043865183E+01  0.70348450329E+02  0.23248929070E+03  0.17120000000E+03 0.  0.
        998    1    1    2    0    0  0.12233060545E+03  0.20807014617E+01  0.13819774257E+04  0.13874187225E+04  0.10000000000E+02 0.  1.
</event>
<event>
 5    1  0.5525569E-010  0.3847766E+03  0.7957747E-01  0.3430620E+00
         13   -1    0    0    0    0  0.00000000000E+00  0.00000000000E+00  0.14999999963E+04  0.15000000000E+04  0.10566000000E+00 0.  1.
        994   -1    0    0    0    0 -0.00000000000E+00 -0.00000000000E+00  0.11368683772E-12  0.17120000000E+03  0.17120000000E+03 0.  0.
         13    1    1    2    0    0  0.65416799900E+02  0.48510679328E+02  0.39866451740E+03  0.40689808591E+03  0.10566000000E+00 0.  1.
        994    1    1    2    0    0 -0.13280665132E+03 -0.10899148350E+03  0.10580964436E+03  0.26461646009E+03  0.17120000000E+03 0.  0.
        998    1    1    2    0    0  0.67389851421E+02  0.60480804176E+02  0.99552583452E+03  0.99968545400E+03  0.10000000000E+02 0.  1.
</event>
<event>
 5    1  0.5525569E-010  0.3877036E+03  0.7957747E-01  0.3418286E+00
         13   -1    0    0    0    0  0.00000000000E+00  0.00000000000E+00  0.14999999963E+04  0.15000000000E+04  0.10566000000E+00 0. -1.
        994   -1    0    0    0    0 -0.00000000000E+00 -0.00000000000E+00  0.11368683772E-12  0.17120000000E+03  0.17120000000E+03 0.  0.
         13    1    1    2    0    0 -0.13524724107E+03  0.78465636307E+02  0.94370153342E+03  0.95656744020E+03  0.10566000000E+00 0. -1.
        994    1    1    2    0    0  0.18371221016E+03 -0.98988807780E+02  0.15803781801E+03  0.31278483363E+03  0.17120000000E+03 0.  0.
        998    1    1    2    0    0 -0.48464969090E+02  0.20523171473E+02  0.39826064485E+03  0.40184772617E+03  0.10000000000E+02 0.  1.
</event>
<event>
 5    1  0.5525569E-010  0.3873221E+03  0.7957747E-01  0.3419883E+00
         13   -1    0    0    0    0  0.00000000000E+00  0.00000000000E+00  0.14999999963E+04  0.15000000000E+04  0.10566000000E+00 0. -1.
        994   -1    0    0    0    0 -0.00000000000E+00 -0.00000000000E+00  0.11368683772E-12  0.17120000000E+03  0.17120000000E+03 0.  0.
         13    1    1    2    0    0  0.17027373965E+03  0.91279818246E+02  0.10020774786E+04  0.10205314478E+04  0.10566000000E+00 0. -1.
        994    1    1    2    0    0 -0.20970239017E+03 -0.10396393425E+03  0.20613733072E+03  0.35578874516E+03  0.17120000000E+03 0.  0.
        998    1    1    2    0    0  0.39428650514E+02  0.12684116002E+02  0.29178518695E+03  0.29487980705E+03  0.10000000000E+02 0.  1.
</event>
<event>
 5    1  0.5525569E-010  0.3811519E+03  0.7957747E-01  0.3446158E+00
         13   -1    0    0    0    0  0.00000000000E+00  0.00000000000E+00  0.14999999963E+04  0.15000000000E+04  0.10566000000E+00 0.  1.
        994   -1    0    0    0    0 -0.00000000000E+00 -0.00000000000E+00  0.11368683772E-12  0.17120000000E+03  0.17120000000E+03 0.  0.
         13    1    1    2    0    0 -0.18754374827E+03 -0.16576264846E+03  0.12127977839E+04  0.12383571331E+04  0.10566000000E+00 0.  1.
        994    1    1    2    0    0  0.19496984437E+03  0.17036449222E+03  0.27261560622E+03  0.41311742783E+03  0.17120000000E+03 0.  0.
        998    1    1    2    0    0 -0.74260961045E+01 -0.46018437619E+01  0.14586606130E+02  0.19725439101E+02  0.10000000000E+02 0. -1.
</event>
<event>
 5    1  0.5525569E-010  0.3828728E+03  0.7957747E-01  0.3438744E+00
         13   -1    0    0    0    0  0.00000000000E+00  0.00000000000E+00  0.14999999963E+04  0.15000000000E+04  0.10566000000E+00 0. -1.
        994   -1    0    0    0    0 -0.00000000000E+00 -0.00000000000E+00  0.11368683772E-12  0.17120000000E+03  0.17120000000E+03 0.  0.
         13    1    1    2    0    0 -0.23066774882E+02  0.68199889589E+02  0.33858224985E+03  0.34615206502E+03  0.10566000000E+00 0. -1.
        994    1    1    2    0    0  0.82930947968E+01 -0.15223736727E+03  0.83911134276E+02  0.24412191599E+03  0.17120000000E+03 0.  0.
        998    1    1    2    0    0  0.14773680085E+02  0.84037477676E+02  0.10775066122E+04  0.10809260190E+04  0.10000000000E+02 0. -1.
</event>
<event>
 5    1  0.5525569E-010  0.3864105E+03  0.7957747E-01  0.3423712E+00
         13   -1    0    0    0    0  0.00000000000E+00  0.00000000000E+00  0.14999999963E+04  0.15000000000E+04  0.10566000000E+00 0.  1.
        994   -1    0    0    0    0 -0.00000000000E+00 -0.00000000000E+00  0.11368683772E-12  0.17120000000E+03  0.17120000000E+03 0.  0.
         13    1    1    2    0    0 -0.12096364778E+02  0.70410245803E+01  0.80542649334E+02  0.81749786506E+02  0.10566000000E+00 0.  1.
        994    1    1    2    0    0  0.10101656316E+03  0.52180519111E+02  0.44456491611E+02  0.21026880951E+03  0.17120000000E+03 0.  0.
        998    1    1    2    0    0 -0.88920198385E+02 -0.59221543691E+02  0.13750008553E+04  0.13791814040E+04  0.10000000000E+02 0.  1.
</event>
<event>
 5    1  0.5525569E-010  0.3834177E+03  0.7957747E-01  0.3436411E+00
         13   -1    0    0    0    0  0.00000000000E+00  0.00000000000E+00  0.14999999963E+04  0.15000000000E+04  0.10566000000E+00 0. -1.
        994   -1    0    0    0    0 -0.00000000000E+00 -0.00000000000E+00  0.11368683772E-12  0.17120000000E+03  0.17120000000E+03 0.  0.
         13    1    1    2    0    0 -0.10367952622E+03  0.16358451629E+03  0.10679727891E+04  0.10853917392E+04  0.10566000000E+00 0. -1.
        994    1    1    2    0    0  0.88446647678E+02 -0.20346650757E+03  0.18702029714E+03  0.33690868307E+03  0.17120000000E+03 0.  0.
        998    1    1    2    0    0  0.15232878540E+02  0.39881991288E+02  0.24500691007E+03  0.24889957775E+03  0.10000000000E+02 0.  1.
</event>
<event>
 5    1  0.5525569E-010  0.3865711E+03  0.7957747E-01  0.3423036E+00
         13   -1    0    0    0    0  0.00000000000E+00  0.00000000000E+00  0.14999999963E+04  0.15000000000E+04  0.10566000000E+00 0.  1.
        994   -1    0    0    0    0 -0.00000000000E+00 -0.00000000000E+00  0.11368683772E-12  0.17120000000E+03  0.17120000000E+03 0.  0.
         13    1    1    2    0    0  0.12133883708E+02  0.37499627701E+02  0.16313738292E+03  0.16783107604E+03  0.10566000000E+00 0.  1.
        994    1    1    2    0    0  0.11751042625E+02 -0.22644900638E+03  0.19243419774E+03  0.34315827245E+03  0.17120000000E+03 0.  0.
        998    1    1    2    0    0 -0.23884926333E+02  0.18894937868E+03  0.11444284156E+04  0.11602106515E+04  0.10000000000E+02 0.  1.
</event>
<event>
 5    1  0.5525569E-010  0.3825405E+03  0.7957747E-01  0.3440171E+00
         13   -1    0    0    0    0  0.00000000000E+00  0.00000000000E+00  0.14999999963E+04  0.15000000000E+04  0.10566000000E+00 0. -1.
        994   -1    0    0    0    0 -0.00000000000E+00 -0.00000000000E+00  0.11368683772E-12  0.17120000000E+03  0.17120000000E+03 0.  0.
         13    1    1    2    0    0 -0.39304113098E+02 -0.21908339903E+03  0.99951808940E+03  0.10240013531E+04  0.10566000000E+00 0. -1.
        994    1    1    2    0    0  0.68577621631E+02  0.27773968764E+03  0.35331384881E+03  0.48578013549E+03  0.17120000000E+03 0.  0.
        998    1    1    2    0    0 -0.29273508533E+02 -0.58656288606E+02  0.14716805807E+03  0.16141851137E+03  0.10000000000E+02 0.  1.
</event>
<event>
 5    1  0.5525569E-010  0.3823997E+03  0.7957747E-01  0.3440776E+00
         13   -1    0    0    0    0  0.00000000000E+00  0.00000000000E+00  0.14999999963E+04  0.15000000000E+04  0.10566000000E+00 0.  1.
        994   -1    0    0    0    0 -0.00000000000E+00 -0.00000000000E+00  0.11368683772E-12  0.17120000000E+03  0.17120000000E+03 0.  0.
         13    1    1    2    0    0  0.13927514928E+03 -0.94492257572E+02  0.91068724028E+03  0.92610885684E+03  0.10566000000E+00 0.  1.
        994    1    1    2    0    0 -0.22439804703E+03  0.82306765106E+02  0.22387135134E+03  0.36953580211E+03  0.17120000000E+03 0.  0.
        998    1    1    2    0    0  0.85122897747E+02  0.12185492466E+02  0.36544140467E+03  0.37555534105E+03  0.10000000000E+02 0. -1.
</event>
<event>
 5    1  0.8790932E-010  0.3868340E+03  0.7957747E-01  0.3421931E+00
         13   -1    0    0    0    0  0.00000000000E+00  0.00000000000E+00  0.14999999963E+04  0.15000000000E+04  0.10566000000E+00 0. -1.
        994   -1    0    0    0    0 -0.00000000000E+00 -0.00000000000E+00  0.11368683772E-12  0.17120000000E+03  0.17120000000E+03 0.  0.
         13    1    1    2    0    0  0.57838752958E+02  0.20398339321E+03  0.12127129768E+04  0.12311081680E+04  0.10566000000E+00 0. -1.
        994    1    1    2    0    0 -0.65238068441E+02 -0.21299010058E+03  0.18437970584E+03  0.33604479530E+03  0.17120000000E+03 0.  0.
        998    1    1    2    0    0  0.73993154830E+01  0.90067073742E+01  0.10290731362E+03  0.10404703669E+03  0.10000000000E+02 0. -1.
</event>
<event>
 5    1  0.5525569E-010  0.3868779E+03  0.7957747E-01  0.3421747E+00
         13   -1    0    0    0    0  0.00000000000E+00  0.00000000000E+00  0.14999999963E+04  0.15000000000E+04  0.10566000000E+00 0.  1.
        994   -1    0    0    0    0 -0.00000000000E+00 -0.00000000000E+00  0.11368683772E-12  0.17120000000E+03  0.17120000000E+03 0.  0.
         13    1    1    2    0    0 -0.10261783262E+03 -0.34584125406E+02  0.44523494164E+03  0.45821462845E+03  0.10566000000E+00 0.  1.
        994    1    1    2    0    0  0.29616590683E+03  0.95856762940E+02  0.44017620878E+03  0.56565651958E+03  0.17120000000E+03 0.  0.
        998    1    1    2    0    0 -0.19354807421E+03 -0.61272637534E+02  0.61458884586E+03  0.64732885197E+03  0.10000000000E+02 0. -1.
</event>
<event>
 5    1  0.5525569E-010  0.3820084E+03  0.7957747E-01  0.3442460E+00
         13   -1    0    0    0    0  0.00000000000E+00  0.00000000000E+00  0.14999999963E+04  0.15000000000E+04  0.10566000000E+00 0.  1.
        994   -1    0    0    0    0 -0.00000000000E+00 -0.00000000000E+00  0.11368683772E-12  0.17120000000E+03  0.17120000000E+03 0.  0.
         13    1    1    2    0    0  0.30701213951E+02 -0.11438447226E+02  0.18225489559E+03  0.18517629639E+03  0.10566000000E+00 0.  1.
        994    1    1    2    0    0 -0.44911980928E+02 -0.61660614462E+02  0.22694272488E+02  0.18879509371E+03  0.17120000000E+03 0.  0.
        998    1    1    2    0    0  0.14210766977E+02  0.73099061687E+02  0.12950508282E+04  0.12972286099E+04  0.10000000000E+02 0.  1.
</event>
<event>
 5    1  0.5525569E-010  0.3807929E+03  0.7957747E-01  0.3447713E+00
         13   -1    0    0    0    0  0.00000000000E+00  0.00000000000E+00  0.14999999963E+04  0.15000000000E+04  0.10566000000E+00 0. -1.
        994   -1    0    0    0    0 -0.00000000000E+00 -0.00000000000E+00  0.11368683772E-12  0.17120000000E+03  0.17120000000E+03 0.  0.
         13    1    1    2    0    0  0.43888785623E+01  0.28508385231E+02  0.12254826541E+03  0.12589709608E+03  0.10566000000E+00 0. -1.
        994    1    1    2    0    0  0.53076156775E+02 -0.11251780956E+02  0.13611221388E+02  0.18010659716E+03  0.17120000000E+03 0.  0.
        998    1    1    2    0    0 -0.57465035338E+02 -0.17256604275E+02  0.13638405095E+04  0.13651963068E+04  0.10000000000E+02 0. -1.
</event>
<event>
 5    1  0.5525569E-010  0.3844597E+03  0.7957747E-01  0.3431967E+00
         13   -1    0    0    0    0  0.00000000000E+00  0.00000000000E+00  0.14999999963E+04  0.15000000000E+04  0.10566000000E+00 0. -1.
        994   -1    0    0    0    0 -0.00000000000E+00 -0.00000000000E+00  0.11368683772E-12  0.17120000000E+03  0.17120000000E+03 0.  0.
         13    1    1    2    0    0 -0.10078239674E+03 -0.67746040569E+02  0.64835697947E+03  0.65963126176E+03  0.10566000000E+00 0. -1.
        994    1    1    2    0    0  0.13646622206E+03  0.12712148131E+03  0.12641636819E+03  0.28297250559E+03  0.17120000000E+03 0.  0.
        998    1    1    2    0    0 -0.35683825327E+02 -0.59375440745E+02  0.72522664862E+03  0.72859623265E+03  0.10000000000E+02 0. -1.
</event>
<event>
 5    1  0.5525569E-010  0.3839062E+03  0.7957747E-01  0.3434324E+00
         13   -1    0    0    0    0  0.00000000000E+00  0.00000000000E+00  0.14999999963E+04  0.15000000000E+04  0.10566000000E+00 0. -1.
        994   -1    0    0    0    0 -0.00000000000E+00 -0.00000000000E+00  0.11368683772E-12  0.17120000000E+03  0.17120000000E+03 0.  0.
         13    1    1    2    0    0  0.18217608039E+03  0.15662688286E+02  0.89247368900E+03  0.91101193230E+03  0.10566000000E+00 0. -1.
        994    1    1    2    0    0 -0.26336979160E+03 -0.63354533883E+02  0.30202521673E+03  0.44034772127E+03  0.17120000000E+03 0.  0.
        998    1    1    2    0    0  0.81193711209E+02  0.47691845598E+02  0.30550109056E+03  0.31984034643E+03  0.10000000000E+02 0.  1.
</event>
<event>
 5    1  0.5525569E-010  0.3869898E+03  0.7957747E-01  0.3421277E+00
         13   -1    0    0    0    0  0.00000000000E+00  0.00000000000E+00  0.14999999963E+04  0.15000000000E+04  0.10566000000E+00 0. -1.
        994   -1    0    0    0    0 -0.00000000000E+00 -0.00000000000E+00  0.11368683772E-12  0.17120000000E+03  0.17120000000E+03 0.  0.
         13    1    1    2    0    0 -0.18350447859E+03 -0.10250430383E+03  0.12075960700E+04  0.12257525465E+04  0.10566000000E+00 0. -1.
        994    1    1    2    0    0  0.19435899846E+03  0.11680606195E+03  0.19189486654E+03  0.34285879921E+03  0.17120000000E+03 0.  0.
        998    1    1    2    0    0 -0.10854519871E+02 -0.14301758116E+02  0.10050905977E+03  0.10258865426E+03  0.10000000000E+02 0.  0.
</event>
<event>
 5    1  0.5525569E-010  0.3834867E+03  0.7957747E-01  0.3436116E+00
         13   -1    0    0    0    0  0.00000000000E+00  0.00000000000E+00  0.14999999963E+04  0.15000000000E+04  0.10566000000E+00 0. -1.
        994   -1    0    0    0    0 -0.00000000000E+00 -0.00000000000E+00  0.11368683772E-12  0.17120000000E+03  0.17120000000E+03 0.  0.
         13    1    1    2    0    0 -0.66860947201E+02 -0.50439919183E+01  0.35811718840E+03  0.36434017059E+03  0.10566000000E+00 0. -1.
        994    1    1    2    0    0  0.12616809613E+03  0.54462529922E+02  0.67519203236E+02  0.22967986079E+03  0.17120000000E+03 0.  0.
        998    1    1    2    0    0 -0.59307148931E+02 -0.49418538004E+02  0.10743636046E+04  0.10771799686E+04  0.10000000000E+02 0. -1.
</event>
<event>
 5    1  0.5525569E-010  0.3800361E+03  0.7957747E-01  0.3451001E+00
         13   -1    0    0    0    0  0.00000000000E+00  0.00000000000E+00  0.14999999963E+04  0.15000000000E+04  0.10566000000E+00 0. -1.
        994   -1    0    0    0    0 -0.00000000000E+00 -0.00000000000E+00  0.11368683772E-12  0.17120000000E+03  0.17120000000E+03 0.  0.
         13    1    1    2    0    0  0.21226060836E+02 -0.86835760428E+02  0.34023759382E+03  0.35178491491E+03  0.10566000000E+00 0. -1.
        994    1    1    2    0    0 -0.46417181244E+02  0.16378741837E+03  0.10799258136E+03  0.26448574774E+03  0.17120000000E+03 0.  0.
        998    1    1    2    0    0  0.25191120407E+02 -0.76951657944E+02  0.10517698211E+04  0.10549293373E+04  0.10000000000E+02 0. -1.
</event>
<event>
 5    1  0.5525569E-010  0.3877654E+03  0.7957747E-01  0.3418028E+00
         13   -1    0    0    0    0  0.00000000000E+00  0.00000000000E+00  0.14999999963E+04  0.15000000000E+04  0.10566000000E+00 0. -1.
        994   -1    0    0    0    0 -0.00000000000E+00 -0.00000000000E+00  0.11368683772E-12  0.17120000000E+03  0.17120000000E+03 0.  0.
         13    1    1    2    0    0 -0.14796868948E+03  0.24636695754E+03  0.72212037343E+03  0.77720605744E+03  0.10566000000E+00 0. -1.
        994    1    1    2    0    0  0.17550737515E+03 -0.29421315327E+03  0.65165199794E+03  0.75585976524E+03  0.17120000000E+03 0.  0.
        998    1    1    2    0    0 -0.27538685676E+02  0.47846195724E+02  0.12622762491E+03  0.13813417732E+03  0.10000000000E+02 0.  0.
</event>
<event>
 5    1  0.5525569E-010  0.3842630E+03  0.7957747E-01  0.3432804E+00
         13   -1    0    0    0    0  0.00000000000E+00  0.00000000000E+00  0.14999999963E+04  0.15000000000E+04  0.10566000000E+00 0.  1.
        994   -1    0    0    0    0 -0.00000000000E+00 -0.00000000000E+00  0.11368683772E-12  0.17120000000E+03  0.17120000000E+03 0.  0.
         13    1    1    2    0    0 -0.22055877508E+02  0.84160226752E+00  0.80850211530E+02  0.83808936847E+02  0.10566000000E+00 0.  1.
        994    1    1    2    0    0  0.82586176326E+02 -0.60669103386E+02  0.37417725497E+02  0.20300429258E+03  0.17120000000E+03 0.  0.
        998    1    1    2    0    0 -0.60530298818E+02  0.59827501118E+02  0.13817320593E+04  0.13843867706E+04  0.10000000000E+02 0.  1.
</event>
<event>
 5    1  0.5525569E-010  0.3840917E+03  0.7957747E-01  0.3433533E+00
         13   -1    0    0    0    0  0.00000000000E+00  0.00000000000E+00  0.14999999963E+04  0.15000000000E+04  0.10566000000E+00 0.  1.
        994   -1    0    0    0    0 -0.00000000000E+00 -0.00000000000E+00  0.11368683772E-12  0.17120000000E+03  0.17120000000E+03 0.  0.
         13    1    1    2    0    0 -0.14900272006E+03 -0.63537452293E+02  0.59724887694E+03  0.61882554133E+03  0.10566000000E+00 0.  1.
        994    1    1    2    0    0  0.24485369382E+03  0.79761777700E+02  0.26519982161E+03  0.40737655546E+03  0.17120000000E+03 0.  0.
        998    1    1    2    0    0 -0.95850973758E+02 -0.16224325407E+02  0.63755129773E+03  0.64499790321E+03  0.10000000000E+02 0. -1.
</event>
<event>
 5    1  0.5525569E-010  0.3870432E+03  0.7957747E-01  0.3421053E+00
         13   -1    0    0    0    0  0.00000000000E+00  0.00000000000E+00  0.14999999963E+04  0.15000000000E+04  0.10566000000E+00 0.  1.
        994   -1    0    0    0    0 -0.00000000000E+00 -0.00000000000E+00  0.11368683772E-12  0.17120000000E+03  0.17120000000E+03 0.  0.
         13    1    1    2    0    0  0.16577054717E+03  0.31821864984E+02  0.94654645146E+03  0.96147943365E+03  0.10566000000E+00 0.  1.
        994    1    1    2    0    0 -0.20878042192E+03 -0.41324519473E+02  0.16596925293E+03  0.31961259894E+03  0.17120000000E+03 0.  0.
        998    1    1    2    0    0  0.43009874753E+02  0.95026544896E+01  0.38748429189E+03  0.39010796741E+03  0.10000000000E+02 0.  1.
</event>
<event>
 5    1  0.5525569E-010  0.3861539E+03  0.7957747E-01  0.3424793E+00
         13   -1    0    0    0    0  0.00000000000E+00  0.00000000000E+00  0.14999999963E+04  0.15000000000E+04  0.10566000000E+00 0. -1.
        994   -1    0    0    0    0 -0.00000000000E+00 -0.00000000000E+00  0.11368683772E-12  0.17120000000E+03  0.17120000000E+03 0.  0.
         13    1    1    2    0    0 -0.11889156861E+03 -0.13630316716E+03  0.10310420415E+04  0.10467862537E+04  0.10566000000E+00 0. -1.
        994    1    1    2    0    0  0.12732514213E+03  0.16714091421E+03  0.16225284983E+03  0.31588479593E+03  0.17120000000E+03 0.  0.
        998    1    1    2    0    0 -0.84335735189E+01 -0.30837747043E+02  0.30670510495E+03  0.30852895036E+03  0.10000000000E+02 0.  1.
</event>
<event>
 5    1  0.5525569E-010  0.3853911E+03  0.7957747E-01  0.3428015E+00
         13   -1    0    0    0    0  0.00000000000E+00  0.00000000000E+00  0.14999999963E+04  0.15000000000E+04  0.10566000000E+00 0.  1.
        994   -1    0    0    0    0 -0.00000000000E+00 -0.00000000000E+00  0.11368683772E-12  0.17120000000E+03  0.17120000000E+03 0.  0.
         13    1    1    2    0    0 -0.34279611594E+02 -0.21412436167E+02  0.23479251472E+03  0.23824592405E+03  0.10566000000E+00 0.  1.
        994    1    1    2    0    0  0.69571241291E+02  0.93221791511E+02  0.47214538377E+02  0.21229487196E+03  0.17120000000E+03 0.  0.
        998    1    1    2    0    0 -0.35291629698E+02 -0.71809355344E+02  0.12179929432E+04  0.12206592040E+04  0.10000000000E+02 0.  1.
</event>
<event>
 5    1  0.5525569E-010  0.3830876E+03  0.7957747E-01  0.3437824E+00
         13   -1    0    0    0    0  0.00000000000E+00  0.00000000000E+00  0.14999999963E+04  0.15000000000E+04  0.10566000000E+00 0. -1.
        994   -1    0    0    0    0 -0.00000000000E+00 -0.00000000000E+00  0.11368683772E-12  0.17120000000E+03  0.17120000000E+03 0.  0.
         13    1    1    2    0    0  0.13038089174E+02 -0.22525156742E+03  0.11070946391E+04  0.11298525618E+04  0.10566000000E+00 0. -1.
        994    1    1    2    0    0 -0.36406063414E+02  0.23526642639E+03  0.22074611851E+03  0.36703403340E+03  0.17120000000E+03 0.  0.
        998    1    1    2    0    0  0.23367974240E+02 -0.10014858964E+02  0.17215923869E+03  0.17431340478E+03  0.10000000000E+02 0. -1.
</event>
<event>
 5    1  0.5525569E-010  0.3688307E+03  0.7957747E-01  0.3501282E+00
         13   -1    0    0    0    0  0.00000000000E+00  0.00000000000E+00  0.14999999963E+04  0.15000000000E+04  0.10566000000E+00 0. -1.
        994   -1    0    0    0    0 -0.00000000000E+00 -0.00000000000E+00  0.11368683772E-12  0.17120000000E+03  0.17120000000E+03 0.  0.
         13    1    1    2    0    0 -0.69663046350E+01  0.53371884225E+02  0.10585218065E+03  0.11875092731E+03  0.10566000000E+00 0. -1.
        994    1    1    2    0    0 -0.17842068739E+03 -0.12357766130E+03  0.19820531286E+03  0.34014727120E+03  0.17120000000E+03 0.  0.
        998    1    1    2    0    0  0.18538699203E+03  0.70205777071E+02  0.11959425028E+04  0.12123018015E+04  0.10000000000E+02 0. -1.
</event>
<event>
 5    1  0.5525569E-010  0.3867856E+03  0.7957747E-01  0.3422134E+00
         13   -1    0    0    0    0  0.00000000000E+00  0.00000000000E+00  0.14999999963E+04  0.15000000000E+04  0.10566000000E+00 0.  1.
        994   -1    0    0    0    0 -0.00000000000E+00 -0.00000000000E+00  0.11368683772E-12  0.17120000000E+03  0.17120000000E+03 0.  0.
         13    1    1    2    0    0 -0.19623110624E+03 -0.25040050827E+03  0.65919804752E+03  0.73194886339E+03  0.10566000000E+00 0.  1.
        994    1    1    2    0    0  0.20658705327E+03  0.27842049649E+03  0.76500999014E+03  0.85717320797E+03  0.17120000000E+03 0.  0.
        998    1    1    2    0    0 -0.10355947034E+02 -0.28019988219E+02  0.75791958621E+02  0.82077928644E+02  0.10000000000E+02 0.  1.
</event>
<event>
 5    1  0.7780058E-010  0.3867030E+03  0.7957747E-01  0.3422481E+00
         13   -1    0    0    0    0  0.00000000000E+00  0.00000000000E+00  0.14999999963E+04  0.15000000000E+04  0.10566000000E+00 0. -1.
        994   -1    0    0    0    0 -0.00000000000E+00 -0.00000000000E+00  0.11368683772E-12  0.17120000000E+03  0.17120000000E+03 0.  0.
         13    1    1    2    0    0 -0.52373101659E+01  0.10897160411E+02  0.59772964300E+02  0.60983571132E+02  0.10566000000E+00 0. -1.
        994    1    1    2    0    0 -0.51287182472E+00 -0.76752157869E+02  0.20296607868E+02  0.18871287467E+03  0.17120000000E+03 0.  0.
        998    1    1    2    0    0  0.57501819906E+01  0.65854997458E+02  0.14199304241E+04  0.14215035542E+04  0.10000000000E+02 0. -1.
</event>
<event>
 5    1  0.5525569E-010  0.3855081E+03  0.7957747E-01  0.3427520E+00
         13   -1    0    0    0    0  0.00000000000E+00  0.00000000000E+00  0.14999999963E+04  0.15000000000E+04  0.10566000000E+00 0.  1.
        994   -1    0    0    0    0 -0.00000000000E+00 -0.00000000000E+00  0.11368683772E-12  0.17120000000E+03  0.17120000000E+03 0.  0.
         13    1    1    2    0    0  0.13223122189E+02  0.85208291945E+01  0.69058711497E+02  0.70827764954E+02  0.10566000000E+00 0.  1.
        994    1    1    2    0    0 -0.28121582765E+02 -0.50338390096E+02  0.12371246935E+02  0.18107253984E+03  0.17120000000E+03 0.  0.
        998    1    1    2    0    0  0.14898460576E+02  0.41817560901E+02  0.14185700378E+04  0.14192996952E+04  0.10000000000E+02 0.  1.
</event>
<event>
 5    1  0.5525569E-010  0.3878344E+03  0.7957747E-01  0.3417740E+00
         13   -1    0    0    0    0  0.00000000000E+00  0.00000000000E+00  0.14999999963E+04  0.15000000000E+04  0.10566000000E+00 0.  1.
        994   -1    0    0    0    0 -0.00000000000E+00 -0.00000000000E+00  0.11368683772E-12  0.17120000000E+03  0.17120000000E+03 0.  0.
         13    1    1    2    0    0 -0.14885861170E+03  0.16235682534E+03  0.92990280841E+03  0.95563479911E+03  0.10566000000E+00 0.  1.
        994    1    1    2    0    0  0.19509747342E+03 -0.20223873002E+03  0.32392656703E+03  0.46173735920E+03  0.17120000000E+03 0.  0.
        998    1    1    2    0    0 -0.46238861722E+02  0.39881904673E+02  0.24617062083E+03  0.25382784168E+03  0.10000000000E+02 0.  0.
</event>
<event>
 5    1  0.5525569E-010  0.3871134E+03  0.7957747E-01  0.3420758E+00
         13   -1    0    0    0    0  0.00000000000E+00  0.00000000000E+00  0.14999999963E+04  0.15000000000E+04  0.10566000000E+00 0. -1.
        994   -1    0    0    0    0 -0.00000000000E+00 -0.00000000000E+00  0.11368683772E-12  0.17120000000E+03  0.17120000000E+03 0.  0.
         13    1    1    2    0    0  0.81162231427E+02  0.10452017321E+03  0.70304597466E+03  0.71539180039E+03  0.10566000000E+00 0. -1.
        994    1    1    2    0    0 -0.14004322532E+03 -0.16290132131E+03  0.16941956874E+03  0.32274041537E+03  0.17120000000E+03 0.  0.
        998    1    1    2    0    0  0.58880993889E+02  0.58381148096E+02  0.62753445287E+03  0.63306778424E+03  0.10000000000E+02 0.  1.
</event>
<event>
 5    1  0.5525569E-010  0.3238264E+03  0.7957747E-01  0.3739353E+00
         13   -1    0    0    0    0  0.00000000000E+00  0.00000000000E+00  0.14999999963E+04  0.15000000000E+04  0.10566000000E+00 0.  1.
        994   -1    0    0    0    0 -0.00000000000E+00 -0.00000000000E+00  0.11368683772E-12  0.17120000000E+03  0.17120000000E+03 0.  0.
         13    1    1    2    0    0 -0.19477379341E+03 -0.12710932007E+03  0.31865599404E+03  0.39450635426E+03  0.10566000000E+00 0.  1.
        994    1    1    2    0    0  0.25449631580E+03  0.19875995238E+03  0.73815215771E+03  0.82368194186E+03  0.17120000000E+03 0.  0.
        998    1    1    2    0    0 -0.59722522391E+02 -0.71650632302E+02  0.44319184453E+03  0.45301170388E+03  0.10000000000E+02 0. -1.
</event>
<event>
 5    1  0.5525569E-010  0.3764991E+03  0.7957747E-01  0.3466545E+00
         13   -1    0    0    0    0  0.00000000000E+00  0.00000000000E+00  0.14999999963E+04  0.15000000000E+04  0.10566000000E+00 0. -1.
        994   -1    0    0    0    0 -0.00000000000E+00 -0.00000000000E+00  0.11368683772E-12  0.17120000000E+03  0.17120000000E+03 0.  0.
         13    1    1    2    0    0 -0.51939596116E+02 -0.88024219008E+02  0.26324823689E+03  0.28239268787E+03  0.10566000000E+00 0. -1.
        994    1    1    2    0    0  0.13568261383E+03  0.18895340796E+03  0.21868270917E+03  0.36227714442E+03  0.17120000000E+03 0.  0.
        998    1    1    2    0    0 -0.83743017718E+02 -0.10092918895E+03  0.10180690502E+04  0.10265301677E+04  0.10000000000E+02 0.  1.
</event>
<event>
 5    1  0.5525569E-010  0.3879120E+03  0.7957747E-01  0.3417415E+00
         13   -1    0    0    0    0  0.00000000000E+00  0.00000000000E+00  0.14999999963E+04  0.15000000000E+04  0.10566000000E+00 0. -1.
        994   -1    0    0    0    0 -0.00000000000E+00 -0.00000000000E+00  0.11368683772E-12  0.17120000000E+03  0.17120000000E+03 0.  0.
         13    1    1    2    0    0  0.12783497873E+03  0.12877405231E+03  0.10346255764E+04  0.10504164093E+04  0.10566000000E+00 0. -1.
        994    1    1    2    0    0 -0.15887610091E+03 -0.16644760384E+03  0.19729064069E+03  0.34810839859E+03  0.17120000000E+03 0.  0.
        998    1    1    2    0    0  0.31041122177E+02  0.37673551534E+02  0.26808377917E+03  0.27267519214E+03  0.10000000000E+02 0.  0.
</event>
<event>
 5    1  0.5525569E-010  0.3844886E+03  0.7957747E-01  0.3431844E+00
         13   -1    0    0    0    0  0.00000000000E+00  0.00000000000E+00  0.14999999963E+04  0.15000000000E+04  0.10566000000E+00 0. -1.
        994   -1    0    0    0    0 -0.00000000000E+00 -0.00000000000E+00  0.11368683772E-12  0.17120000000E+03  0.17120000000E+03 0.  0.
         13    1    1    2    0    0  0.25843922730E+02 -0.60410541214E+02  0.34383621700E+03  0.35005813391E+03  0.10566000000E+00 0. -1.
        994    1    1    2    0    0 -0.42756913167E+02  0.13519401468E+03  0.71189448843E+02  0.23341583677E+03  0.17120000000E+03 0.  0.
        998    1    1    2    0    0  0.16912990437E+02 -0.74783473469E+02  0.10849743304E+04  0.10877260293E+04  0.10000000000E+02 0. -1.
</event>
<event>
 5    1  0.5525569E-010  0.3818754E+03  0.7957747E-01  0.3443033E+00
         13   -1    0    0    0    0  0.00000000000E+00  0.00000000000E+00  0.14999999963E+04  0.15000000000E+04  0.10566000000E+00 0. -1.
        994   -1    0    0    0    0 -0.00000000000E+00 -0.00000000000E+00  0.11368683772E-12  0.17120000000E+03  0.17120000000E+03 0.  0.
         13    1    1    2    0    0  0.18389415510E+02 -0.15231721287E+02  0.12166493158E+03  0.12398605839E+03  0.10566000000E+00 0. -1.
        994    1    1    2    0    0 -0.10123879764E+02 -0.58040782859E+02  0.14809022477E+02  0.18165894573E+03  0.17120000000E+03 0.  0.
        998    1    1    2    0    0 -0.82655357461E+01  0.73272504146E+02  0.13635260422E+04  0.13655549959E+04  0.10000000000E+02 0. -1.
</event>
<event>
 5    1  0.5525569E-010  0.3812759E+03  0.7957747E-01  0.3445621E+00
         13   -1    0    0    0    0  0.00000000000E+00  0.00000000000E+00  0.14999999963E+04  0.15000000000E+04  0.10566000000E+00 0.  1.
        994   -1    0    0    0    0 -0.00000000000E+00 -0.00000000000E+00  0.11368683772E-12  0.17120000000E+03  0.17120000000E+03 0.  0.
         13    1    1    2    0    0 -0.35732512327E+01 -0.12150371745E+02  0.24180582791E+02  0.27296728853E+02  0.10566000000E+00 0.  1.
        994    1    1    2    0    0  0.16391319532E+03 -0.81728465519E+02  0.12466360365E+03  0.27999559238E+03  0.17120000000E+03 0.  0.
        998    1    1    2    0    0 -0.16033994409E+03  0.93878837264E+02  0.13511558098E+04  0.13639076788E+04  0.10000000000E+02 0.  1.
</event>
<event>
 5    1  0.5525569E-010  0.3844578E+03  0.7957747E-01  0.3431975E+00
         13   -1    0    0    0    0  0.00000000000E+00  0.00000000000E+00  0.14999999963E+04  0.15000000000E+04  0.10566000000E+00 0.  1.
        994   -1    0    0    0    0 -0.00000000000E+00 -0.00000000000E+00  0.11368683772E-12  0.17120000000E+03  0.17120000000E+03 0.  0.
         13    1    1    2    0    0  0.18539816674E+03 -0.97540045707E+02  0.11238189326E+04  0.11431778275E+04  0.10566000000E+00 0.  1.
        994    1    1    2    0    0 -0.19365178750E+03  0.13086848081E+03  0.20945280479E+03  0.35750173637E+03  0.17120000000E+03 0.  0.
        998    1    1    2    0    0  0.82536207660E+01 -0.33328435107E+02  0.16672825886E+03  0.17052043615E+03  0.10000000000E+02 0.  1.
</event>
<event>
 5    1  0.5525569E-010  0.3857049E+03  0.7957747E-01  0.3426688E+00
         13   -1    0    0    0    0  0.00000000000E+00  0.00000000000E+00  0.14999999963E+04  0.15000000000E+04  0.10566000000E+00 0. -1.
        994   -1    0    0    0    0 -0.00000000000E+00 -0.00000000000E+00  0.11368683772E-12  0.17120000000E+03  0.17120000000E+03 0.  0.
         13    1    1    2    0    0  0.10405821016E+03  0.17736732975E+03  0.11869288471E+04  0.12046108832E+04  0.10566000000E+00 0. -1.
        994    1    1    2    0    0 -0.12880429248E+03 -0.19477793987E+03  0.20725887516E+03  0.35608239630E+03  0.17120000000E+03 0.  0.
        998    1    1    2    0    0  0.24746082319E+02  0.17410610124E+02  0.10581227402E+03  0.11050672047E+03  0.10000000000E+02 0.  1.
</event>
<event>
 5    1  0.5525569E-010  0.3820863E+03  0.7957747E-01  0.3442124E+00
         13   -1    0    0    0    0  0.00000000000E+00  0.00000000000E+00  0.14999999963E+04  0.15000000000E+04  0.10566000000E+00 0. -1.
        994   -1    0    0    0    0 -0.00000000000E+00 -0.00000000000E+00  0.11368683772E-12  0.17120000000E+03  0.17120000000E+03 0.  0.
         13    1    1    2    0    0  0.11206768839E+02 -0.43944979855E+02  0.15462237840E+03  0.16113610392E+03  0.10566000000E+00 0. -1.
        994    1    1    2    0    0 -0.14051519410E+02  0.14271575183E+03  0.74666838258E+02  0.23547782858E+03  0.17120000000E+03 0.  0.
        998    1    1    2    0    0  0.28447505716E+01 -0.98770771974E+02  0.12707107796E+04  0.12745860675E+04  0.10000000000E+02 0. -1.
</event>
<event>
 5    1  0.5525569E-010  0.3854724E+03  0.7957747E-01  0.3427671E+00
         13   -1    0    0    0    0  0.00000000000E+00  0.00000000000E+00  0.14999999963E+04  0.15000000000E+04  0.10566000000E+00 0. -1.
        994   -1    0    0    0    0 -0.00000000000E+00 -0.00000000000E+00  0.11368683772E-12  0.17120000000E+03  0.17120000000E+03 0.  0.
         13    1    1    2    0    0  0.24649672061E+03 -0.14295365736E+03  0.11066705325E+04  0.11427668441E+04  0.10566000000E+00 0. -1.
        994    1    1    2    0    0 -0.24948586608E+03  0.14466558624E+03  0.35374071070E+03  0.48745590531E+03  0.17120000000E+03 0.  0.
        998    1    1    2    0    0  0.29891454763E+01 -0.17119288814E+01  0.39588753086E+02  0.40977250543E+02  0.10000000000E+02 0.  1.
</event>
<event>
 5    1  0.5525569E-010  0.3855885E+03  0.7957747E-01  0.3427180E+00
         13   -1    0    0    0    0  0.00000000000E+00  0.00000000000E+00  0.14999999963E+04  0.15000000000E+04  0.10566000000E+00 0.  1.
        994   -1    0    0    0    0 -0.00000000000E+00 -0.00000000000E+00  0.11368683772E-12  0.17120000000E+03  0.17120000000E+03 0.  0.
         13    1    1    2    0    0  0.10011051251E+02 -0.20985105490E+01  0.38596993308E+02  0.39929487226E+02  0.10566000000E+00 0.  1.
        994    1    1    2    0    0 -0.23959910784E+02 -0.51768857253E+02  0.12093201760E+02  0.18085844585E+03  0.17120000000E+03 0.  0.
        998    1    1    2    0    0  0.13948859534E+02  0.53867367802E+02  0.14493098012E+04  0.14504120669E+04  0.10000000000E+02 0.  1.
</event>
<event>
 5    1  0.5525569E-010  0.2518608E+03  0.7957747E-01  0.4313674E+00
         13   -1    0    0    0    0  0.00000000000E+00  0.00000000000E+00  0.14999999963E+04  0.15000000000E+04  0.10566000000E+00 0. -1.
        994   -1    0    0    0    0 -0.00000000000E+00 -0.00000000000E+00  0.11368683772E-12  0.17120000000E+03  0.17120000000E+03 0.  0.
         13    1    1    2    0    0  0.51883137924E+02 -0.17518608179E+03  0.82670918099E+03  0.84665819806E+03  0.10566000000E+00 0. -1.
        994    1    1    2    0    0 -0.13580733455E+03 -0.47769700815E+02  0.22783742290E+03  0.31928812648E+03  0.17120000000E+03 0.  0.
        998    1    1    2    0    0  0.83924196625E+02  0.22295578261E+03  0.44545339239E+03  0.50525367546E+03  0.10000000000E+02 0. -1.
</event>
<event>
 5    1  0.5525569E-010  0.3780981E+03  0.7957747E-01  0.3459482E+00
         13   -1    0    0    0    0  0.00000000000E+00  0.00000000000E+00  0.14999999963E+04  0.15000000000E+04  0.10566000000E+00 0.  1.
        994   -1    0    0    0    0 -0.00000000000E+00 -0.00000000000E+00  0.11368683772E-12  0.17120000000E+03  0.17120000000E+03 0.  0.
         13    1    1    2    0    0  0.56317002241E+02  0.13357624556E+03  0.60678017186E+03  0.62385607815E+03  0.10566000000E+00 0.  1.
        994    1    1    2    0    0 -0.36668784055E+01 -0.22701313980E+03  0.20450638614E+03  0.35025806716E+03  0.17120000000E+03 0.  0.
        998    1    1    2    0    0 -0.52650123836E+02  0.93436894240E+02  0.68871343828E+03  0.69708585469E+03  0.10000000000E+02 0.  1.
</event>
<event>
 5    1  0.5525569E-010  0.3864723E+03  0.7957747E-01  0.3423452E+00
         13   -1    0    0    0    0  0.00000000000E+00  0.00000000000E+00  0.14999999963E+04  0.15000000000E+04  0.10566000000E+00 0.  1.
        994   -1    0    0    0    0 -0.00000000000E+00 -0.00000000000E+00  0.11368683772E-12  0.17120000000E+03  0.17120000000E+03 0.  0.
         13    1    1    2    0    0  0.17349706905E+03 -0.12767383544E+02  0.10425717190E+04  0.10569863005E+04  0.10566000000E+00 0.  1.
        994    1    1    2    0    0 -0.20262941121E+03  0.30608297252E+02  0.15309037669E+03  0.30780131511E+03  0.17120000000E+03 0.  0.
        998    1    1    2    0    0  0.29132342167E+02 -0.17840913708E+02  0.30433790063E+03  0.30641238442E+03  0.10000000000E+02 0.  1.
</event>
<event>
 5    1  0.5525569E-010  0.3866520E+03  0.7957747E-01  0.3422696E+00
         13   -1    0    0    0    0  0.00000000000E+00  0.00000000000E+00  0.14999999963E+04  0.15000000000E+04  0.10566000000E+00 0.  1.
        994   -1    0    0    0    0 -0.00000000000E+00 -0.00000000000E+00  0.11368683772E-12  0.17120000000E+03  0.17120000000E+03 0.  0.
         13    1    1    2    0    0  0.65447975944E+02  0.26547008167E+02  0.33525197835E+03  0.34261068481E+03  0.10566000000E+00 0.  1.
        994    1    1    2    0    0 -0.19550044454E+03 -0.56695155675E+02  0.15062230668E+03  0.30566531331E+03  0.17120000000E+03 0.  0.
        998    1    1    2    0    0  0.13005246860E+03  0.30148147508E+02  0.10141257113E+04  0.10229240019E+04  0.10000000000E+02 0.  1.
</event>
<event>
 5    1  0.5525569E-010  0.3872805E+03  0.7957747E-01  0.3420057E+00
         13   -1    0    0    0    0  0.00000000000E+00  0.00000000000E+00  0.14999999963E+04  0.15000000000E+04  0.10566000000E+00 0.  1.
        994   -1    0    0    0    0 -0.00000000000E+00 -0.00000000000E+00  0.11368683772E-12  0.17120000000E+03  0.17120000000E+03 0.  0.
         13    1    1    2    0    0 -0.25924964771E+02 -0.17021543361E+03  0.98061472868E+03  0.99561571648E+03  0.10566000000E+00 0.  1.
        994    1    1    2    0    0  0.34302282424E+02  0.21104233521E+03  0.16742408013E+03  0.32102301543E+03  0.17120000000E+03 0.  0.
        998    1    1    2    0    0 -0.83773176535E+01 -0.40826901597E+02  0.35196118747E+03  0.35456126809E+03  0.10000000000E+02 0. -1.
</event>
<event>
 5    1  0.5525569E-010  0.3867137E+03  0.7957747E-01  0.3422436E+00
         13   -1    0    0    0    0  0.00000000000E+00  0.00000000000E+00  0.14999999963E+04  0.15000000000E+04  0.10566000000E+00 0. -1.
        994   -1    0    0    0    0 -0.00000000000E+00 -0.00000000000E+00  0.11368683772E-12  0.17120000000E+03  0.17120000000E+03 0.  0.
         13    1    1    2    0    0  0.21330473405E+03 -0.54960771655E+02  0.94273223506E+03  0.96812379073E+03  0.10566000000E+00 0. -1.
        994    1    1    2    0    0 -0.25450144019E+03  0.83051246648E+02  0.28739982365E+03  0.42845838918E+03  0.17120000000E+03 0.  0.
        998    1    1    2    0    0  0.41196706144E+02 -0.28090474993E+02  0.26986793757E+03  0.27461782009E+03  0.10000000000E+02 0. -1.
</event>
<event>
 5    1  0.5525569E-010  0.3850122E+03  0.7957747E-01  0.3429621E+00
         13   -1    0    0    0    0  0.00000000000E+00  0.00000000000E+00  0.14999999963E+04  0.15000000000E+04  0.10566000000E+00 0.  1.
        994   -1    0    0    0    0 -0.00000000000E+00 -0.00000000000E+00  0.11368683772E-12  0.17120000000E+03  0.17120000000E+03 0.  0.
         13    1    1    2    0    0 -0.99880377604E+02  0.36117120398E+02  0.58260401568E+03  0.59220603380E+03  0.10566000000E+00 0.  1.
        994    1    1    2    0    0  0.15833923027E+03 -0.73119117040E+02  0.10902680585E+03  0.26760792498E+03  0.17120000000E+03 0.  0.
        998    1    1    2    0    0 -0.58458852663E+02  0.37001996642E+02  0.80836917474E+03  0.81138604122E+03  0.10000000000E+02 0.  1.
</event>
<event>
 5    1  0.5525569E-010  0.3865258E+03  0.7957747E-01  0.3423227E+00
         13   -1    0    0    0    0  0.00000000000E+00  0.00000000000E+00  0.14999999963E+04  0.15000000000E+04  0.10566000000E+00 0. -1.
        994   -1    0    0    0    0 -0.00000000000E+00 -0.00000000000E+00  0.11368683772E-12  0.17120000000E+03  0.17120000000E+03 0.  0.
         13    1    1    2    0    0  0.11023086026E+02 -0.10302884016E+02  0.45508729282E+02  0.47944900141E+02  0.10566000000E+00 0. -1.
        994    1    1    2    0    0 -0.12238637810E+03  0.13327913294E+03  0.11653007689E+03  0.27500991190E+03  0.17120000000E+03 0.  0.
        998    1    1    2    0    0  0.11136329208E+03 -0.12297624892E+03  0.13379611901E+04  0.13482451880E+04  0.10000000000E+02 0. -1.
</event>
<event>
 5    1  0.5525569E-010  0.3875375E+03  0.7957747E-01  0.3418981E+00
         13   -1    0    0    0    0  0.00000000000E+00  0.00000000000E+00  0.14999999963E+04  0.15000000000E+04  0.10566000000E+00 0. -1.
        994   -1    0    0    0    0 -0.00000000000E+00 -0.00000000000E+00  0.11368683772E-12  0.17120000000E+03  0.17120000000E+03 0.  0.
         13    1    1    2    0    0 -0.16733448681E+03 -0.46920850898E+02  0.10435554901E+04  0.10579274403E+04  0.10566000000E+00 0. -1.
        994    1    1    2    0    0  0.20830768528E+03  0.47473416767E+02  0.16683478860E+03  0.32060739813E+03  0.17120000000E+03 0.  0.
        998    1    1    2    0    0 -0.40973198468E+02 -0.55256586922E+00  0.28960971753E+03  0.29266516159E+03  0.10000000000E+02 0.  1.
</event>
<event>
 5    1  0.5525569E-010  0.3813770E+03  0.7957747E-01  0.3445185E+00
         13   -1    0    0    0    0  0.00000000000E+00  0.00000000000E+00  0.14999999963E+04  0.15000000000E+04  0.10566000000E+00 0.  1.
        994   -1    0    0    0    0 -0.00000000000E+00 -0.00000000000E+00  0.11368683772E-12  0.17120000000E+03  0.17120000000E+03 0.  0.
         13    1    1    2    0    0  0.19740432944E+02 -0.11067484448E+03  0.61854135495E+03  0.62867481645E+03  0.10566000000E+00 0.  1.
        994    1    1    2    0    0 -0.98491125735E+02  0.14989229130E+03  0.11914648720E+03  0.27508821540E+03  0.17120000000E+03 0.  0.
        998    1    1    2    0    0  0.78750692791E+02 -0.39217446816E+02  0.76231215413E+03  0.76743696815E+03  0.10000000000E+02 0.  1.
</event>
<event>
 5    1  0.5591542E-010  0.3865991E+03  0.7957747E-01  0.3422919E+00
         13   -1    0    0    0    0  0.00000000000E+00  0.00000000000E+00  0.14999999963E+04  0.15000000000E+04  0.10566000000E+00 0. -1.
        994   -1    0    0    0    0 -0.00000000000E+00 -0.00000000000E+00  0.11368683772E-12  0.17120000000E+03  0.17120000000E+03 0.  0.
         13    1    1    2    0    0 -0.97054323815E+01  0.17469163687E+02  0.11194234029E+03  0.11371220608E+03  0.10566000000E+00 0. -1.
        994    1    1    2    0    0  0.63335398419E+02 -0.70033416171E+02  0.30571202355E+02  0.19788908633E+03  0.17120000000E+03 0.  0.
        998    1    1    2    0    0 -0.53629966038E+02  0.52564252483E+02  0.13574864536E+04  0.13595987076E+04  0.10000000000E+02 0. -1.
</event>
<event>
 5    1  0.5525569E-010  0.3865214E+03  0.7957747E-01  0.3423245E+00
         13   -1    0    0    0    0  0.00000000000E+00  0.00000000000E+00  0.14999999963E+04  0.15000000000E+04  0.10566000000E+00 0. -1.
        994   -1    0    0    0    0 -0.00000000000E+00 -0.00000000000E+00  0.11368683772E-12  0.17120000000E+03  0.17120000000E+03 0.  0.
         13    1    1    2    0    0 -0.13118655336E+03 -0.17343771449E+03  0.10445069904E+04  0.10669045959E+04  0.10566000000E+00 0. -1.
        994    1    1    2    0    0  0.14290512867E+03  0.19781149774E+03  0.22880886999E+03  0.37578478339E+03  0.17120000000E+03 0.  0.
        998    1    1    2    0    0 -0.11718575304E+02 -0.24373783250E+02  0.22668413593E+03  0.22851062076E+03  0.10000000000E+02 0. -1.
</event>
<event>
 5    1  0.5525569E-010  0.3870885E+03  0.7957747E-01  0.3420863E+00
         13   -1    0    0    0    0  0.00000000000E+00  0.00000000000E+00  0.14999999963E+04  0.15000000000E+04  0.10566000000E+00 0.  1.
        994   -1    0    0    0    0 -0.00000000000E+00 -0.00000000000E+00  0.11368683772E-12  0.17120000000E+03  0.17120000000E+03 0.  0.
         13    1    1    2    0    0  0.17277389635E+02 -0.11143565777E+02  0.90069847996E+02  0.92386557101E+02  0.10566000000E+00 0.  1.
        994    1    1    2    0    0 -0.16594175948E+03  0.51493610047E+02  0.10630377678E+03  0.26607929715E+03  0.17120000000E+03 0.  0.
        998    1    1    2    0    0  0.14866436985E+03 -0.40350044270E+02  0.13036263715E+04  0.13127341457E+04  0.10000000000E+02 0.  1.
</event>
<event>
 5    1  0.5525569E-010  0.3867191E+03  0.7957747E-01  0.3422414E+00
         13   -1    0    0    0    0  0.00000000000E+00  0.00000000000E+00  0.14999999963E+04  0.15000000000E+04  0.10566000000E+00 0. -1.
        994   -1    0    0    0    0 -0.00000000000E+00 -0.00000000000E+00  0.11368683772E-12  0.17120000000E+03  0.17120000000E+03 0.  0.
         13    1    1    2    0    0  0.15542707547E+03  0.13970664931E+03  0.12287771564E+04  0.12464224143E+04  0.10566000000E+00 0. -1.
        994    1    1    2    0    0 -0.17082312863E+03 -0.14343954464E+03  0.18509984651E+03  0.33664051660E+03  0.17120000000E+03 0.  0.
        998    1    1    2    0    0  0.15396053154E+02  0.37328953354E+01  0.86122993358E+02  0.88137069076E+02  0.10000000000E+02 0.  0.
</event>
<event>
 5    1  0.5525569E-010  0.3763018E+03  0.7957747E-01  0.3467421E+00
         13   -1    0    0    0    0  0.00000000000E+00  0.00000000000E+00  0.14999999963E+04  0.15000000000E+04  0.10566000000E+00 0.  1.
        994   -1    0    0    0    0 -0.00000000000E+00 -0.00000000000E+00  0.11368683772E-12  0.17120000000E+03  0.17120000000E+03 0.  0.
         13    1    1    2    0    0  0.22688929508E+03 -0.24127350187E+02  0.46072872146E+03  0.51413213009E+03  0.10566000000E+00 0.  1.
        994    1    1    2    0    0 -0.32643511451E+03 -0.19560866289E+02  0.60014635226E+03  0.70457618155E+03  0.17120000000E+03 0.  0.
        998    1    1    2    0    0  0.99545819426E+02  0.43688216476E+02  0.43912492256E+03  0.45249168836E+03  0.10000000000E+02 0. -1.
</event>
<event>
 5    1  0.5525569E-010  0.3878065E+03  0.7957747E-01  0.3417856E+00
         13   -1    0    0    0    0  0.00000000000E+00  0.00000000000E+00  0.14999999963E+04  0.15000000000E+04  0.10566000000E+00 0.  1.
        994   -1    0    0    0    0 -0.00000000000E+00 -0.00000000000E+00  0.11368683772E-12  0.17120000000E+03  0.17120000000E+03 0.  0.
         13    1    1    2    0    0 -0.16757421617E+03 -0.13874356492E+03  0.10779982396E+04  0.10997322904E+04  0.10566000000E+00 0.  1.
        994    1    1    2    0    0  0.19428556610E+03  0.15993921883E+03  0.24439410712E+03  0.39034004984E+03  0.17120000000E+03 0.  0.
        998    1    1    2    0    0 -0.26711349933E+02 -0.21195653905E+02  0.17760764953E+03  0.18112765977E+03  0.10000000000E+02 0. -1.
</event>
<event>
 5    1  0.5525569E-010  0.3838835E+03  0.7957747E-01  0.3434421E+00
         13   -1    0    0    0    0  0.00000000000E+00  0.00000000000E+00  0.14999999963E+04  0.15000000000E+04  0.10566000000E+00 0. -1.
        994   -1    0    0    0    0 -0.00000000000E+00 -0.00000000000E+00  0.11368683772E-12  0.17120000000E+03  0.17120000000E+03 0.  0.
         13    1    1    2    0    0  0.72488336110E+02  0.31380352394E+02  0.40349037667E+03  0.41114934101E+03  0.10566000000E+00 0. -1.
        994    1    1    2    0    0 -0.12619653833E+03 -0.10091796241E+03  0.93741445067E+02  0.25339080478E+03  0.17120000000E+03 0.  0.
        998    1    1    2    0    0  0.53708202218E+02  0.69537610020E+02  0.10027681745E+04  0.10066598542E+04  0.10000000000E+02 0. -1.
</event>
<event>
 5    1  0.5525569E-010  0.3875588E+03  0.7957747E-01  0.3418892E+00
         13   -1    0    0    0    0  0.00000000000E+00  0.00000000000E+00  0.14999999963E+04  0.15000000000E+04  0.10566000000E+00 0.  1.
        994   -1    0    0    0    0 -0.00000000000E+00 -0.00000000000E+00  0.11368683772E-12  0.17120000000E+03  0.17120000000E+03 0.  0.
         13    1    1    2    0    0 -0.92666124258E+02 -0.17936773689E+03  0.83603990756E+03  0.86007123764E+03  0.10566000000E+00 0.  1.
        994    1    1    2    0    0  0.11452148279E+03  0.25095932538E+03  0.30892738325E+03  0.44815323400E+03  0.17120000000E+03 0.  0.
        998    1    1    2    0    0 -0.21855358534E+02 -0.71591588496E+02  0.35503270547E+03  0.36297552836E+03  0.10000000000E+02 0.  1.
</event>
<event>
 5    1  0.5525569E-010  0.3850964E+03  0.7957747E-01  0.3429264E+00
         13   -1    0    0    0    0  0.00000000000E+00  0.00000000000E+00  0.14999999963E+04  0.15000000000E+04  0.10566000000E+00 0.  1.
        994   -1    0    0    0    0 -0.00000000000E+00 -0.00000000000E+00  0.11368683772E-12  0.17120000000E+03  0.17120000000E+03 0.  0.
         13    1    1    2    0    0 -0.11850171576E+03 -0.22299736038E+03  0.10033703590E+04  0.10346606051E+04  0.10566000000E+00 0.  1.
        994    1    1    2    0    0  0.12759317825E+03  0.24079393650E+03  0.30428225170E+03  0.44289825885E+03  0.17120000000E+03 0.  0.
        998    1    1    2    0    0 -0.90914624901E+01 -0.17796576118E+02  0.19234738559E+03  0.19364113601E+03  0.10000000000E+02 0.  1.
</event>
<event>
 5    1  0.5525569E-010  0.3869128E+03  0.7957747E-01  0.3421600E+00
         13   -1    0    0    0    0  0.00000000000E+00  0.00000000000E+00  0.14999999963E+04  0.15000000000E+04  0.10566000000E+00 0. -1.
        994   -1    0    0    0    0 -0.00000000000E+00 -0.00000000000E+00  0.11368683772E-12  0.17120000000E+03  0.17120000000E+03 0.  0.
         13    1    1    2    0    0 -0.25173950617E+02  0.11093152560E+02  0.13767662248E+03  0.14039818149E+03  0.10566000000E+00 0. -1.
        994    1    1    2    0    0  0.12231293729E+03 -0.14025840706E+03  0.12345388197E+03  0.28139505389E+03  0.17120000000E+03 0.  0.
        998    1    1    2    0    0 -0.97138986673E+02  0.12916525450E+03  0.12388694918E+04  0.12494067646E+04  0.10000000000E+02 0. -1.
</event>
<event>
 5    1  0.5525569E-010  0.3851513E+03  0.7957747E-01  0.3429031E+00
         13   -1    0    0    0    0  0.00000000000E+00  0.00000000000E+00  0.14999999963E+04  0.15000000000E+04  0.10566000000E+00 0.  1.
        994   -1    0    0    0    0 -0.00000000000E+00 -0.00000000000E+00  0.11368683772E-12  0.17120000000E+03  0.17120000000E+03 0.  0.
         13    1    1    2    0    0 -0.43829612315E+02  0.38515059792E+02  0.30229185597E+03  0.30787143761E+03  0.10566000000E+00 0.  1.
        994    1    1    2    0    0  0.79392187701E+02 -0.14364522694E+03  0.95769435474E+02  0.25577000501E+03  0.17120000000E+03 0.  0.
        998    1    1    2    0    0 -0.35562575386E+02  0.10513016715E+03  0.11019387048E+04  0.11075585574E+04  0.10000000000E+02 0.  1.
</event>
<event>
 5    1  0.5525569E-010  0.3812455E+03  0.7957747E-01  0.3445753E+00
         13   -1    0    0    0    0  0.00000000000E+00  0.00000000000E+00  0.14999999963E+04  0.15000000000E+04  0.10566000000E+00 0. -1.
        994   -1    0    0    0    0 -0.00000000000E+00 -0.00000000000E+00  0.11368683772E-12  0.17120000000E+03  0.17120000000E+03 0.  0.
         13    1    1    2    0    0 -0.40739971742E+02  0.21318079508E+03  0.11528735773E+04  0.11731254379E+04  0.10566000000E+00 0. -1.
        994    1    1    2    0    0  0.74363117489E+02 -0.22177563039E+03  0.21445598441E+03  0.36057608452E+03  0.17120000000E+03 0.  0.
        998    1    1    2    0    0 -0.33623145747E+02  0.85948353090E+01  0.13267043460E+03  0.13749847760E+03  0.10000000000E+02 0.  1.
</event>
<event>
 5    1  0.5525569E-010  0.3848445E+03  0.7957747E-01  0.3430332E+00
         13   -1    0    0    0    0  0.00000000000E+00  0.00000000000E+00  0.14999999963E+04  0.15000000000E+04  0.10566000000E+00 0.  1.
        994   -1    0    0    0    0 -0.00000000000E+00 -0.00000000000E+00  0.11368683772E-12  0.17120000000E+03  0.17120000000E+03 0.  0.
         13    1    1    2    0    0  0.52021904413E+02  0.10260535559E+03  0.63267268586E+03  0.64304655829E+03  0.10566000000E+00 0.  1.
        994    1    1    2    0    0 -0.99596304612E+02 -0.14890361919E+03  0.11559403433E+03  0.27342847780E+03  0.17120000000E+03 0.  0.
        998    1    1    2    0    0  0.47574400199E+02  0.46298263597E+02  0.75173327609E+03  0.75472496391E+03  0.10000000000E+02 0.  1.
</event>
<event>
 5    1  0.5525569E-010  0.3870124E+03  0.7957747E-01  0.3421182E+00
         13   -1    0    0    0    0  0.00000000000E+00  0.00000000000E+00  0.14999999963E+04  0.15000000000E+04  0.10566000000E+00 0.  1.
        994   -1    0    0    0    0 -0.00000000000E+00 -0.00000000000E+00  0.11368683772E-12  0.17120000000E+03  0.17120000000E+03 0.  0.
         13    1    1    2    0    0 -0.14900049056E+03  0.24901397141E+03  0.82040454533E+03  0.87021418817E+03  0.10566000000E+00 0.  1.
        994    1    1    2    0    0  0.16957033973E+03 -0.28916835693E+03  0.58377698773E+03  0.69460596756E+03  0.17120000000E+03 0.  0.
        998    1    1    2    0    0 -0.20569849173E+02  0.40154385525E+02  0.95818463221E+02  0.10637984427E+03  0.10000000000E+02 0.  1.
</event>
<event>
 5    1  0.5525569E-010  0.3871103E+03  0.7957747E-01  0.3420771E+00
         13   -1    0    0    0    0  0.00000000000E+00  0.00000000000E+00  0.14999999963E+04  0.15000000000E+04  0.10566000000E+00 0. -1.
        994   -1    0    0    0    0 -0.00000000000E+00 -0.00000000000E+00  0.11368683772E-12  0.17120000000E+03  0.17120000000E+03 0.  0.
         13    1    1    2    0    0  0.14633950535E+03  0.48175366595E+02  0.82471889575E+03  0.83898592655E+03  0.10566000000E+00 0. -1.
        994    1    1    2    0    0 -0.23434111800E+03 -0.47103542318E+02  0.21692211404E+03  0.36537535062E+03  0.17120000000E+03 0.  0.
        998    1    1    2    0    0  0.88001612648E+02 -0.10718242776E+01  0.45835898649E+03  0.46683872283E+03  0.10000000000E+02 0.  1.
</event>
<event>
 5    1  0.5525569E-010  0.3877394E+03  0.7957747E-01  0.3418137E+00
         13   -1    0    0    0    0  0.00000000000E+00  0.00000000000E+00  0.14999999963E+04  0.15000000000E+04  0.10566000000E+00 0.  1.
        994   -1    0    0    0    0 -0.00000000000E+00 -0.00000000000E+00  0.11368683772E-12  0.17120000000E+03  0.17120000000E+03 0.  0.
         13    1    1    2    0    0  0.21215084099E+02 -0.20639010133E+03  0.10596491272E+04  0.10797699930E+04  0.10566000000E+00 0.  1.
        994    1    1    2    0    0 -0.31091923707E+02  0.24378929692E+03  0.23085361809E+03  0.37815705996E+03  0.17120000000E+03 0.  0.
        998    1    1    2    0    0  0.98768396075E+01 -0.37399195591E+02  0.20949725094E+03  0.21327294705E+03  0.10000000000E+02 0.  0.
</event>
<event>
 5    1  0.5525569E-010  0.3746899E+03  0.7957747E-01  0.3474611E+00
         13   -1    0    0    0    0  0.00000000000E+00  0.00000000000E+00  0.14999999963E+04  0.15000000000E+04  0.10566000000E+00 0.  1.
        994   -1    0    0    0    0 -0.00000000000E+00 -0.00000000000E+00  0.11368683772E-12  0.17120000000E+03  0.17120000000E+03 0.  0.
         13    1    1    2    0    0 -0.87075179645E+02  0.16568438864E+02  0.47465147665E+03  0.48285674431E+03  0.10566000000E+00 0.  1.
        994    1    1    2    0    0  0.10646580751E+03  0.76000829762E+02  0.67493718168E+02  0.22577851157E+03  0.17120000000E+03 0.  0.
        998    1    1    2    0    0 -0.19390627868E+02 -0.92569268626E+02  0.95785480146E+03  0.96256474412E+03  0.10000000000E+02 0.  1.
</event>
<event>
 5    1  0.5525569E-010  0.3845634E+03  0.7957747E-01  0.3431526E+00
         13   -1    0    0    0    0  0.00000000000E+00  0.00000000000E+00  0.14999999963E+04  0.15000000000E+04  0.10566000000E+00 0.  1.
        994   -1    0    0    0    0 -0.00000000000E+00 -0.00000000000E+00  0.11368683772E-12  0.17120000000E+03  0.17120000000E+03 0.  0.
         13    1    1    2    0    0 -0.13898722559E+03 -0.10732099396E+03  0.86565709338E+03  0.88328786877E+03  0.10566000000E+00 0.  1.
        994    1    1    2    0    0  0.18806467912E+03  0.11610968811E+03  0.18395359399E+03  0.33466124357E+03  0.17120000000E+03 0.  0.
        998    1    1    2    0    0 -0.49077453531E+02 -0.87886941495E+01  0.45038930891E+03  0.45325088767E+03  0.10000000000E+02 0.  1.
</event>
<event>
 5    1  0.5525569E-010  0.3706856E+03  0.7957747E-01  0.3492746E+00
         13   -1    0    0    0    0  0.00000000000E+00  0.00000000000E+00  0.14999999963E+04  0.15000000000E+04  0.10566000000E+00 0.  1.
        994   -1    0    0    0    0 -0.00000000000E+00 -0.00000000000E+00  0.11368683772E-12  0.17120000000E+03  0.17120000000E+03 0.  0.
         13    1    1    2    0    0  0.12290036376E+03 -0.65182543834E+02  0.80536640330E+03  0.81729328773E+03  0.10566000000E+00 0.  1.
        994    1    1    2    0    0 -0.27809826781E+03  0.74402346947E+02  0.40992481380E+03  0.52936013144E+03  0.17120000000E+03 0.  0.
        998    1    1    2    0    0  0.15519790405E+03 -0.92198031128E+01  0.28470877917E+03  0.32454658083E+03  0.10000000000E+02 0. -1.
</event>
<event>
 5    1  0.5525569E-010  0.3838801E+03  0.7957747E-01  0.3434436E+00
         13   -1    0    0    0    0  0.00000000000E+00  0.00000000000E+00  0.14999999963E+04  0.15000000000E+04  0.10566000000E+00 0.  1.
        994   -1    0    0    0    0 -0.00000000000E+00 -0.00000000000E+00  0.11368683772E-12  0.17120000000E+03  0.17120000000E+03 0.  0.
         13    1    1    2    0    0 -0.14590706067E+02  0.16491757524E+02  0.71450315991E+02  0.74766473696E+02  0.10566000000E+00 0.  1.
        994    1    1    2    0    0  0.34407392186E+02 -0.95214211749E+02  0.36785124280E+02  0.20226764478E+03  0.17120000000E+03 0.  0.
        998    1    1    2    0    0 -0.19816686118E+02  0.78722454225E+02  0.13917645560E+04  0.13941658815E+04  0.10000000000E+02 0.  1.
</event>
<event>
 5    1  0.5525569E-010  0.3853390E+03  0.7957747E-01  0.3428236E+00
         13   -1    0    0    0    0  0.00000000000E+00  0.00000000000E+00  0.14999999963E+04  0.15000000000E+04  0.10566000000E+00 0. -1.
        994   -1    0    0    0    0 -0.00000000000E+00 -0.00000000000E+00  0.11368683772E-12  0.17120000000E+03  0.17120000000E+03 0.  0.
         13    1    1    2    0    0 -0.57908597931E+02 -0.11940074852E+03  0.75572659621E+03  0.76728915270E+03  0.10566000000E+00 0. -1.
        994    1    1    2    0    0  0.63236300127E+02  0.17616931771E+03  0.12654148971E+03  0.28347247975E+03  0.17120000000E+03 0.  0.
        998    1    1    2    0    0 -0.53277021964E+01 -0.56768569188E+02  0.61773191036E+03  0.62043836756E+03  0.10000000000E+02 0. -1.
</event>
<event>
 5    1  0.5525569E-010  0.3749927E+03  0.7957747E-01  0.3473256E+00
         13   -1    0    0    0    0  0.00000000000E+00  0.00000000000E+00  0.14999999963E+04  0.15000000000E+04  0.10566000000E+00 0. -1.
        994   -1    0    0    0    0 -0.00000000000E+00 -0.00000000000E+00  0.11368683772E-12  0.17120000000E+03  0.17120000000E+03 0.  0.
         13    1    1    2    0    0  0.13373607439E+02  0.13553486255E+02  0.62553170063E+02  0.65387006465E+02  0.10566000000E+00 0. -1.
        994    1    1    2    0    0  0.20875206943E+03  0.10750226128E+03  0.22582097730E+03  0.36801999465E+03  0.17120000000E+03 0.  0.
        998    1    1    2    0    0 -0.22212567687E+03 -0.12105574753E+03  0.12116258489E+04  0.12377929989E+04  0.10000000000E+02 0. -1.
</event>
<event>
 5    1  0.5525569E-010  0.3820777E+03  0.7957747E-01  0.3442161E+00
         13   -1    0    0    0    0  0.00000000000E+00  0.00000000000E+00  0.14999999963E+04  0.15000000000E+04  0.10566000000E+00 0.  1.
        994   -1    0    0    0    0 -0.00000000000E+00 -0.00000000000E+00  0.11368683772E-12  0.17120000000E+03  0.17120000000E+03 0.  0.
         13    1    1    2    0    0 -0.15858651739E+03  0.24683521458E+02  0.77052680387E+03  0.78706449950E+03  0.10566000000E+00 0.  1.
        994    1    1    2    0    0  0.20969114056E+03 -0.94993587603E+02  0.20546521452E+03  0.35287327824E+03  0.17120000000E+03 0.  0.
        998    1    1    2    0    0 -0.51104623174E+02  0.70310066144E+02  0.52400797789E+03  0.53126222226E+03  0.10000000000E+02 0.  1.
</event>
<event>
 5    1  0.5525569E-010  0.3855833E+03  0.7957747E-01  0.3427202E+00
         13   -1    0    0    0    0  0.00000000000E+00  0.00000000000E+00  0.14999999963E+04  0.15000000000E+04  0.10566000000E+00 0. -1.
        994   -1    0    0    0    0 -0.00000000000E+00 -0.00000000000E+00  0.11368683772E-12  0.17120000000E+03  0.17120000000E+03 0.  0.
         13    1    1    2    0    0 -0.36078902849E+02 -0.24575932580E+02  0.24858768738E+03  0.25239158697E+03  0.10566000000E+00 0. -1.
        994    1    1    2    0    0  0.80396840855E+02  0.96030576496E+02  0.54640200301E+02  0.21904455056E+03  0.17120000000E+03 0.  0.
        998    1    1    2    0    0 -0.44317938006E+02 -0.71454643916E+02  0.11967721086E+04  0.11997638625E+04  0.10000000000E+02 0. -1.
</event>
<event>
 5    1  0.5525569E-010  0.3794209E+03  0.7957747E-01  0.3453684E+00
         13   -1    0    0    0    0  0.00000000000E+00  0.00000000000E+00  0.14999999963E+04  0.15000000000E+04  0.10566000000E+00 0. -1.
        994   -1    0    0    0    0 -0.00000000000E+00 -0.00000000000E+00  0.11368683772E-12  0.17120000000E+03  0.17120000000E+03 0.  0.
         13    1    1    2    0    0 -0.61793355811E+01  0.66218557417E+02  0.25681001161E+03  0.26528187794E+03  0.10566000000E+00 0. -1.
        994    1    1    2    0    0 -0.87492136910E+02 -0.14947908796E+03  0.11250406162E+03  0.26826381724E+03  0.17120000000E+03 0.  0.
        998    1    1    2    0    0  0.93671472491E+02  0.83260530547E+02  0.11306859230E+04  0.11376543048E+04  0.10000000000E+02 0. -1.
</event>
<event>
 5    1  0.5525569E-010  0.3772182E+03  0.7957747E-01  0.3463361E+00
         13   -1    0    0    0    0  0.00000000000E+00  0.00000000000E+00  0.14999999963E+04  0.15000000000E+04  0.10566000000E+00 0.  1.
        994   -1    0    0    0    0 -0.00000000000E+00 -0.00000000000E+00  0.11368683772E-12  0.17120000000E+03  0.17120000000E+03 0.  0.
         13    1    1    2    0    0 -0.12593193871E+03 -0.72297014221E+02  0.59510457335E+03  0.61256442587E+03  0.10566000000E+00 0.  1.
        994    1    1    2    0    0  0.20926625369E+03  0.38157601856E+02  0.17762611266E+03  0.32574352397E+03  0.17120000000E+03 0.  0.
        998    1    1    2    0    0 -0.83334314976E+02  0.34139412365E+02  0.72726931027E+03  0.73289205016E+03  0.10000000000E+02 0.  1.
</event>
<event>
 5    1  0.5525569E-010  0.3853241E+03  0.7957747E-01  0.3428299E+00
         13   -1    0    0    0    0  0.00000000000E+00  0.00000000000E+00  0.14999999963E+04  0.15000000000E+04  0.10566000000E+00 0.  1.
        994   -1    0    0    0    0 -0.00000000000E+00 -0.00000000000E+00  0.11368683772E-12  0.17120000000E+03  0.17120000000E+03 0.  0.
         13    1    1    2    0    0  0.24993768845E+03 -0.11056145772E+03  0.11015520412E+04  0.11349491595E+04  0.10566000000E+00 0.  1.
        994    1    1    2    0    0 -0.26589722419E+03  0.10658331375E+03  0.34753671425E+03  0.48182210861E+03  0.17120000000E+03 0.  0.
        998    1    1    2    0    0  0.15959535740E+02  0.39781439719E+01  0.50911240859E+02  0.54428731901E+02  0.10000000000E+02 0.  1.
</event>
<event>
 5    1  0.5525569E-010  0.3840726E+03  0.7957747E-01  0.3433615E+00
         13   -1    0    0    0    0  0.00000000000E+00  0.00000000000E+00  0.14999999963E+04  0.15000000000E+04  0.10566000000E+00 0. -1.
        994   -1    0    0    0    0 -0.00000000000E+00 -0.00000000000E+00  0.11368683772E-12  0.17120000000E+03  0.17120000000E+03 0.  0.
         13    1    1    2    0    0 -0.12981783209E+03 -0.14752756646E+02  0.78771688162E+03  0.79847868482E+03  0.10566000000E+00 0. -1.
        994    1    1    2    0    0  0.18516807776E+03  0.78995119732E+02  0.14975340144E+03  0.30374819704E+03  0.17120000000E+03 0.  0.
        998    1    1    2    0    0 -0.55350245668E+02 -0.64242363085E+02  0.56252971322E+03  0.56897311814E+03  0.10000000000E+02 0.  1.
</event>
<event>
 5    1  0.5525569E-010  0.3881482E+03  0.7957747E-01  0.3416429E+00
         13   -1    0    0    0    0  0.00000000000E+00  0.00000000000E+00  0.14999999963E+04  0.15000000000E+04  0.10566000000E+00 0.  1.
        994   -1    0    0    0    0 -0.00000000000E+00 -0.00000000000E+00  0.11368683772E-12  0.17120000000E+03  0.17120000000E+03 0.  0.
         13    1    1    2    0    0 -0.11051658040E+02  0.21762154719E+01  0.58360259569E+02  0.59437413472E+02  0.10566000000E+00 0.  1.
        994    1    1    2    0    0  0.25869777679E+03 -0.30561607882E+01  0.26109158177E+03  0.40547766141E+03  0.17120000000E+03 0.  0.
        998    1    1    2    0    0 -0.24764611874E+03  0.87994531628E+00  0.11805481549E+04  0.12062849251E+04  0.10000000000E+02 0.  1.
</event>
<event>
 5    1  0.5525569E-010  0.3764193E+03  0.7957747E-01  0.3466899E+00
         13   -1    0    0    0    0  0.00000000000E+00  0.00000000000E+00  0.14999999963E+04  0.15000000000E+04  0.10566000000E+00 0.  1.
        994   -1    0    0    0    0 -0.00000000000E+00 -0.00000000000E+00  0.11368683772E-12  0.17120000000E+03  0.17120000000E+03 0.  0.
         13    1    1    2    0    0 -0.98221480070E+02  0.45407591462E+01  0.56771980966E+03  0.57617173750E+03  0.10566000000E+00 0.  1.
        994    1    1    2    0    0  0.11230652169E+03  0.79182983958E+02  0.72765066006E+02  0.23127233858E+03  0.17120000000E+03 0.  0.
        998    1    1    2    0    0 -0.14085041615E+02 -0.83723743104E+02  0.85951512061E+03  0.86375592392E+03  0.10000000000E+02 0.  1.
</event>
<event>
 5    1  0.5525569E-010  0.3838845E+03  0.7957747E-01  0.3434417E+00
         13   -1    0    0    0    0  0.00000000000E+00  0.00000000000E+00  0.14999999963E+04  0.15000000000E+04  0.10566000000E+00 0. -1.
        994   -1    0    0    0    0 -0.00000000000E+00 -0.00000000000E+00  0.11368683772E-12  0.17120000000E+03  0.17120000000E+03 0.  0.
         13    1    1    2    0    0 -0.11998124760E+03  0.11254793055E+03  0.89485899194E+03  0.90985447357E+03  0.10566000000E+00 0. -1.
        994    1    1    2    0    0  0.12460091990E+03 -0.18043834722E+03  0.18152154878E+03  0.33217901659E+03  0.17120000000E+03 0.  0.
        998    1    1    2    0    0 -0.46196723039E+01  0.67890416673E+02  0.42361945556E+03  0.42916650985E+03  0.10000000000E+02 0. -1.
</event>
<event>
 5    1  0.5525569E-010  0.3830081E+03  0.7957747E-01  0.3438164E+00
         13   -1    0    0    0    0  0.00000000000E+00  0.00000000000E+00  0.14999999963E+04  0.15000000000E+04  0.10566000000E+00 0.  1.
        994   -1    0    0    0    0 -0.00000000000E+00 -0.00000000000E+00  0.11368683772E-12  0.17120000000E+03  0.17120000000E+03 0.  0.
         13    1    1    2    0    0  0.18559687841E+02  0.52851684346E+01  0.57761058175E+02  0.60899474740E+02  0.10566000000E+00 0.  1.
        994    1    1    2    0    0 -0.68546643195E+02  0.37926370291E+02  0.23208599585E+02  0.18969747218E+03  0.17120000000E+03 0.  0.
        998    1    1    2    0    0  0.49986955354E+02 -0.43211538725E+02  0.14190303385E+04  0.14206030531E+04  0.10000000000E+02 0.  1.
</event>
<event>
 5    1  0.5525569E-010  0.3872392E+03  0.7957747E-01  0.3420231E+00
         13   -1    0    0    0    0  0.00000000000E+00  0.00000000000E+00  0.14999999963E+04  0.15000000000E+04  0.10566000000E+00 0.  1.
        994   -1    0    0    0    0 -0.00000000000E+00 -0.00000000000E+00  0.11368683772E-12  0.17120000000E+03  0.17120000000E+03 0.  0.
         13    1    1    2    0    0 -0.28680208315E+03 -0.28295491313E+02  0.84750679962E+03  0.89516694325E+03  0.10566000000E+00 0.  1.
        994    1    1    2    0    0  0.32503257855E+03  0.24104967043E+02  0.51598852632E+03  0.63386183499E+03  0.17120000000E+03 0.  0.
        998    1    1    2    0    0 -0.38230495400E+02  0.41905242695E+01  0.13650467034E+03  0.14217122176E+03  0.10000000000E+02 0.  0.
</event>
<event>
 5    1  0.5525569E-010  0.3854922E+03  0.7957747E-01  0.3427588E+00
         13   -1    0    0    0    0  0.00000000000E+00  0.00000000000E+00  0.14999999963E+04  0.15000000000E+04  0.10566000000E+00 0. -1.
        994   -1    0    0    0    0 -0.00000000000E+00 -0.00000000000E+00  0.11368683772E-12  0.17120000000E+03  0.17120000000E+03 0.  0.
         13    1    1    2    0    0  0.12172286812E+02  0.21229505669E+03  0.12223867069E+04  0.12407443846E+04  0.10566000000E+00 0. -1.
        994    1    1    2    0    0 -0.21682468965E+02 -0.21709240447E+03  0.17746085937E+03  0.32924312924E+03  0.17120000000E+03 0.  0.
        998    1    1    2    0    0  0.95101821535E+01  0.47973477820E+01  0.10015243005E+03  0.10121248616E+03  0.10000000000E+02 0. -1.
</event>
<event>
 5    1  0.5525569E-010  0.3866435E+03  0.7957747E-01  0.3422732E+00
         13   -1    0    0    0    0  0.00000000000E+00  0.00000000000E+00  0.14999999963E+04  0.15000000000E+04  0.10566000000E+00 0.  1.
        994   -1    0    0    0    0 -0.00000000000E+00 -0.00000000000E+00  0.11368683772E-12  0.17120000000E+03  0.17120000000E+03 0.  0.
         13    1    1    2    0    0  0.16340468592E+03  0.91516861505E+02  0.65588238136E+03  0.68209833357E+03  0.10566000000E+00 0.  1.
        994    1    1    2    0    0 -0.24295428496E+03 -0.16010808639E+03  0.35963534414E+03  0.49326301773E+03  0.17120000000E+03 0.  0.
        998    1    1    2    0    0  0.79549599046E+02  0.68591224884E+02  0.48448227078E+03  0.49583864870E+03  0.10000000000E+02 0. -1.
</event>
<event>
 5    1  0.5793945E-010  0.3854287E+03  0.7957747E-01  0.3427856E+00
         13   -1    0    0    0    0  0.00000000000E+00  0.00000000000E+00  0.14999999963E+04  0.15000000000E+04  0.10566000000E+00 0. -1.
        994   -1    0    0    0    0 -0.00000000000E+00 -0.00000000000E+00  0.11368683772E-12  0.17120000000E+03  0.17120000000E+03 0.  0.
         13    1    1    2    0    0 -0.76680779224E+00  0.18194400848E+02  0.10280642660E+03  0.10440688067E+03  0.10566000000E+00 0. -1.
        994    1    1    2    0    0  0.72788175142E+02 -0.34026882331E+02  0.22914286414E+02  0.19050052935E+03  0.17120000000E+03 0.  0.
        998    1    1    2    0    0 -0.72021367349E+02  0.15832481484E+02  0.13742792833E+04  0.13762925900E+04  0.10000000000E+02 0. -1.
</event>
<event>
 5    1  0.5525569E-010  0.3853937E+03  0.7957747E-01  0.3428004E+00
         13   -1    0    0    0    0  0.00000000000E+00  0.00000000000E+00  0.14999999963E+04  0.15000000000E+04  0.10566000000E+00 0. -1.
        994   -1    0    0    0    0 -0.00000000000E+00 -0.00000000000E+00  0.11368683772E-12  0.17120000000E+03  0.17120000000E+03 0.  0.
         13    1    1    2    0    0 -0.13952894662E+03 -0.16636965037E+03  0.10642556237E+04  0.10861801100E+04  0.10566000000E+00 0. -1.
        994    1    1    2    0    0  0.18370277055E+03  0.18622104651E+03  0.27339491978E+03  0.41530616205E+03  0.17120000000E+03 0.  0.
        998    1    1    2    0    0 -0.44173823925E+02 -0.19851396144E+02  0.16234945279E+03  0.16971372799E+03  0.10000000000E+02 0.  1.
</event>
<event>
 5    1  0.5525569E-010  0.3861783E+03  0.7957747E-01  0.3424690E+00
         13   -1    0    0    0    0  0.00000000000E+00  0.00000000000E+00  0.14999999963E+04  0.15000000000E+04  0.10566000000E+00 0.  1.
        994   -1    0    0    0    0 -0.00000000000E+00 -0.00000000000E+00  0.11368683772E-12  0.17120000000E+03  0.17120000000E+03 0.  0.
         13    1    1    2    0    0  0.15708063081E+03  0.88137215465E+02  0.10370504062E+04  0.10525759115E+04  0.10566000000E+00 0.  1.
        994    1    1    2    0    0 -0.17981769599E+03 -0.13011193743E+03  0.18368310035E+03  0.33513048415E+03  0.17120000000E+03 0.  0.
        998    1    1    2    0    0  0.22737065183E+02  0.41974721961E+02  0.27926648972E+03  0.28349360433E+03  0.10000000000E+02 0.  0.
</event>
<event>
 5    1  0.5525569E-010  0.3785658E+03  0.7957747E-01  0.3457427E+00
         13   -1    0    0    0    0  0.00000000000E+00  0.00000000000E+00  0.14999999963E+04  0.15000000000E+04  0.10566000000E+00 0. -1.
        994   -1    0    0    0    0 -0.00000000000E+00 -0.00000000000E+00  0.11368683772E-12  0.17120000000E+03  0.17120000000E+03 0.  0.
         13    1    1    2    0    0  0.42896386322E+02 -0.24744190883E+03  0.11773955516E+04  0.12038803488E+04  0.10566000000E+00 0. -1.
        994    1    1    2    0    0 -0.53574303641E+02  0.26091049753E+03  0.29136156291E+03  0.43028536353E+03  0.17120000000E+03 0.  0.
        998    1    1    2    0    0  0.10677917319E+02 -0.13468588697E+02  0.31242881785E+02  0.37034287653E+02  0.10000000000E+02 0.  0.
</event>
<event>
 5    1  0.5525569E-010  0.3861893E+03  0.7957747E-01  0.3424644E+00
         13   -1    0    0    0    0  0.00000000000E+00  0.00000000000E+00  0.14999999963E+04  0.15000000000E+04  0.10566000000E+00 0. -1.
        994   -1    0    0    0    0 -0.00000000000E+00 -0.00000000000E+00  0.11368683772E-12  0.17120000000E+03  0.17120000000E+03 0.  0.
         13    1    1    2    0    0  0.79805863852E+01  0.25286265060E+02  0.99733751814E+02  0.10319843688E+03  0.10566000000E+00 0. -1.
        994    1    1    2    0    0 -0.12534801608E+03 -0.14858473330E+03  0.13653070651E+03  0.29281328850E+03  0.17120000000E+03 0.  0.
        998    1    1    2    0    0  0.11736742970E+03  0.12329846824E+03  0.12637355380E+04  0.12751882746E+04  0.10000000000E+02 0. -1.
</event>
<event>
 5    1  0.5525569E-010  0.3846856E+03  0.7957747E-01  0.3431007E+00
         13   -1    0    0    0    0  0.00000000000E+00  0.00000000000E+00  0.14999999963E+04  0.15000000000E+04  0.10566000000E+00 0.  1.
        994   -1    0    0    0    0 -0.00000000000E+00 -0.00000000000E+00  0.11368683772E-12  0.17120000000E+03  0.17120000000E+03 0.  0.
         13    1    1    2    0    0 -0.99788115371E+01  0.23630625667E+02  0.92339678170E+02  0.95836373458E+02  0.10566000000E+00 0.  1.
        994    1    1    2    0    0  0.95324134378E+02 -0.94563633490E+02  0.63580970846E+02  0.22667366682E+03  0.17120000000E+03 0.  0.
        998    1    1    2    0    0 -0.85345322841E+02  0.70933007823E+02  0.13440793473E+04  0.13486899597E+04  0.10000000000E+02 0.  1.
</event>
<event>
 5    1  0.5525569E-010  0.3841474E+03  0.7957747E-01  0.3433296E+00
         13   -1    0    0    0    0  0.00000000000E+00  0.00000000000E+00  0.14999999963E+04  0.15000000000E+04  0.10566000000E+00 0. -1.
        994   -1    0    0    0    0 -0.00000000000E+00 -0.00000000000E+00  0.11368683772E-12  0.17120000000E+03  0.17120000000E+03 0.  0.
         13    1    1    2    0    0 -0.28750882560E+02  0.10880276593E+02  0.12209613605E+03  0.12590659740E+03  0.10566000000E+00 0. -1.
        994    1    1    2    0    0  0.87075465606E+02 -0.82238516974E+02  0.50889953687E+02  0.21504543188E+03  0.17120000000E+03 0.  0.
        998    1    1    2    0    0 -0.58324583046E+02  0.71358240380E+02  0.13270139065E+04  0.13302479707E+04  0.10000000000E+02 0. -1.
</event>
<event>
 5    1  0.5525569E-010  0.3857346E+03  0.7957747E-01  0.3426563E+00
         13   -1    0    0    0    0  0.00000000000E+00  0.00000000000E+00  0.14999999963E+04  0.15000000000E+04  0.10566000000E+00 0. -1.
        994   -1    0    0    0    0 -0.00000000000E+00 -0.00000000000E+00  0.11368683772E-12  0.17120000000E+03  0.17120000000E+03 0.  0.
         13    1    1    2    0    0  0.91148028115E+01  0.31310984321E+02  0.18357363549E+03  0.18644770897E+03  0.10566000000E+00 0. -1.
        994    1    1    2    0    0  0.30188906191E+01 -0.10721829996E+03  0.39966622749E+02  0.20594088589E+03  0.17120000000E+03 0.  0.
        998    1    1    2    0    0 -0.12133693431E+02  0.75907315635E+02  0.12764597380E+04  0.12788114051E+04  0.10000000000E+02 0. -1.
</event>
<event>
 5    1  0.5525569E-010  0.3825982E+03  0.7957747E-01  0.3439923E+00
         13   -1    0    0    0    0  0.00000000000E+00  0.00000000000E+00  0.14999999963E+04  0.15000000000E+04  0.10566000000E+00 0. -1.
        994   -1    0    0    0    0 -0.00000000000E+00 -0.00000000000E+00  0.11368683772E-12  0.17120000000E+03  0.17120000000E+03 0.  0.
         13    1    1    2    0    0 -0.44538862290E+02 -0.11427614364E+03  0.40161843811E+03  0.41992871806E+03  0.10566000000E+00 0. -1.
        994    1    1    2    0    0  0.11964600673E+03  0.22128555915E+03  0.25284646348E+03  0.39563018048E+03  0.17120000000E+03 0.  0.
        998    1    1    2    0    0 -0.75107144438E+02 -0.10700941551E+03  0.84553509468E+03  0.85564110145E+03  0.10000000000E+02 0. -1.
</event>
<event>
 5    1  0.5525569E-010  0.3689620E+03  0.7957747E-01  0.3500675E+00
         13   -1    0    0    0    0  0.00000000000E+00  0.00000000000E+00  0.14999999963E+04  0.15000000000E+04  0.10566000000E+00 0.  1.
        994   -1    0    0    0    0 -0.00000000000E+00 -0.00000000000E+00  0.11368683772E-12  0.17120000000E+03  0.17120000000E+03 0.  0.
         13    1    1    2    0    0  0.48661598513E+02 -0.44867736992E+02  0.34747412475E+03  0.35372212756E+03  0.10566000000E+00 0.  1.
        994    1    1    2    0    0  0.10374912491E+03  0.19131719742E+03  0.19960905882E+03  0.34134933325E+03  0.17120000000E+03 0.  0.
        998    1    1    2    0    0 -0.15241072343E+03 -0.14644946042E+03  0.95291681271E+03  0.97612853919E+03  0.10000000000E+02 0.  1.
</event>
<event>
 5    1  0.5525569E-010  0.3871506E+03  0.7957747E-01  0.3420602E+00
         13   -1    0    0    0    0  0.00000000000E+00  0.00000000000E+00  0.14999999963E+04  0.15000000000E+04  0.10566000000E+00 0. -1.
        994   -1    0    0    0    0 -0.00000000000E+00 -0.00000000000E+00  0.11368683772E-12  0.17120000000E+03  0.17120000000E+03 0.  0.
         13    1    1    2    0    0 -0.91236587519E+02 -0.22428286072E+02  0.45934575664E+03  0.46885571152E+03  0.10566000000E+00 0. -1.
        994    1    1    2    0    0  0.25766324406E+03  0.10727226278E+02  0.26074049974E+03  0.40472270622E+03  0.17120000000E+03 0.  0.
        998    1    1    2    0    0 -0.16642665654E+03  0.11701059794E+02  0.77991373990E+03  0.79762158226E+03  0.10000000000E+02 0. -1.
</event>
<event>
 5    1  0.5525569E-010  0.3880531E+03  0.7957747E-01  0.3416826E+00
         13   -1    0    0    0    0  0.00000000000E+00  0.00000000000E+00  0.14999999963E+04  0.15000000000E+04  0.10566000000E+00 0.  1.
        994   -1    0    0    0    0 -0.00000000000E+00 -0.00000000000E+00  0.11368683772E-12  0.17120000000E+03  0.17120000000E+03 0.  0.
         13    1    1    2    0    0 -0.22649288481E+02  0.13772315115E+03  0.69743120679E+03  0.71126011838E+03  0.10566000000E+00 0.  1.
        994    1    1    2    0    0  0.30483196259E+02 -0.24709834856E+03  0.23771454892E+03  0.38445346388E+03  0.17120000000E+03 0.  0.
        998    1    1    2    0    0 -0.78339077783E+01  0.10937519741E+03  0.56485424057E+03  0.57548641775E+03  0.10000000000E+02 0.  0.
</event>
<event>
 5    1  0.5525569E-010  0.3785397E+03  0.7957747E-01  0.3457542E+00
         13   -1    0    0    0    0  0.00000000000E+00  0.00000000000E+00  0.14999999963E+04  0.15000000000E+04  0.10566000000E+00 0. -1.
        994   -1    0    0    0    0 -0.00000000000E+00 -0.00000000000E+00  0.11368683772E-12  0.17120000000E+03  0.17120000000E+03 0.  0.
         13    1    1    2    0    0  0.13026836993E+02  0.67136018769E+02  0.41172254571E+03  0.41736364158E+03  0.10566000000E+00 0. -1.
        994    1    1    2    0    0 -0.59605659831E+02 -0.48677844959E+02  0.25030915906E+02  0.18936302180E+03  0.17120000000E+03 0.  0.
        998    1    1    2    0    0  0.46578822838E+02 -0.18458173810E+02  0.10632465347E+04  0.10644733366E+04  0.10000000000E+02 0. -1.
</event>
<event>
 5    1  0.5525569E-010  0.3864929E+03  0.7957747E-01  0.3423365E+00
         13   -1    0    0    0    0  0.00000000000E+00  0.00000000000E+00  0.14999999963E+04  0.15000000000E+04  0.10566000000E+00 0.  1.
        994   -1    0    0    0    0 -0.00000000000E+00 -0.00000000000E+00  0.11368683772E-12  0.17120000000E+03  0.17120000000E+03 0.  0.
         13    1    1    2    0    0  0.14628065164E+02 -0.21834741540E+01  0.69040050060E+02  0.70606568576E+02  0.10566000000E+00 0.  1.
        994    1    1    2    0    0 -0.85844384726E+02  0.10541603797E+03  0.63904572327E+02  0.22776091371E+03  0.17120000000E+03 0.  0.
        998    1    1    2    0    0  0.71216319562E+02 -0.10323256382E+03  0.13670553739E+04  0.13728325177E+04  0.10000000000E+02 0.  1.
</event>
<event>
 5    1  0.5525569E-010  0.3844218E+03  0.7957747E-01  0.3432128E+00
         13   -1    0    0    0    0  0.00000000000E+00  0.00000000000E+00  0.14999999963E+04  0.15000000000E+04  0.10566000000E+00 0. -1.
        994   -1    0    0    0    0 -0.00000000000E+00 -0.00000000000E+00  0.11368683772E-12  0.17120000000E+03  0.17120000000E+03 0.  0.
         13    1    1    2    0    0  0.84575114913E+02 -0.18168295649E+03  0.96639645300E+03  0.98695681885E+03  0.10566000000E+00 0. -1.
        994    1    1    2    0    0 -0.71644704772E+02  0.22965570175E+03  0.22426792675E+03  0.37078328986E+03  0.17120000000E+03 0.  0.
        998    1    1    2    0    0 -0.12930410141E+02 -0.47972745261E+02  0.30933561653E+03  0.31345989129E+03  0.10000000000E+02 0. -1.
</event>
<event>
 5    1  0.5525569E-010  0.3878136E+03  0.7957747E-01  0.3417826E+00
         13   -1    0    0    0    0  0.00000000000E+00  0.00000000000E+00  0.14999999963E+04  0.15000000000E+04  0.10566000000E+00 0.  1.
        994   -1    0    0    0    0 -0.00000000000E+00 -0.00000000000E+00  0.11368683772E-12  0.17120000000E+03  0.17120000000E+03 0.  0.
         13    1    1    2    0    0 -0.16544902416E+03 -0.12728014880E+03  0.89864921833E+03  0.92257468242E+03  0.10566000000E+00 0.  1.
        994    1    1    2    0    0  0.21097735962E+03  0.17264227239E+03  0.29897001907E+03  0.43932825175E+03  0.17120000000E+03 0.  0.
        998    1    1    2    0    0 -0.45528335462E+02 -0.45362123588E+02  0.30238075888E+03  0.30929706583E+03  0.10000000000E+02 0.  1.
</event>
<event>
 5    1  0.5525569E-010  0.3861939E+03  0.7957747E-01  0.3424625E+00
         13   -1    0    0    0    0  0.00000000000E+00  0.00000000000E+00  0.14999999963E+04  0.15000000000E+04  0.10566000000E+00 0.  1.
        994   -1    0    0    0    0 -0.00000000000E+00 -0.00000000000E+00  0.11368683772E-12  0.17120000000E+03  0.17120000000E+03 0.  0.
         13    1    1    2    0    0 -0.39441933881E+02 -0.22293377376E+03  0.99141658814E+03  0.10169375576E+04  0.10566000000E+00 0.  1.
        994    1    1    2    0    0  0.61047798555E+02  0.25432512138E+03  0.27184215007E+03  0.41426524791E+03  0.17120000000E+03 0.  0.
        998    1    1    2    0    0 -0.21605864674E+02 -0.31391347628E+02  0.23674125807E+03  0.23999719450E+03  0.10000000000E+02 0. -1.
</event>
<event>
 5    1  0.5525569E-010  0.3861352E+03  0.7957747E-01  0.3424872E+00
         13   -1    0    0    0    0  0.00000000000E+00  0.00000000000E+00  0.14999999963E+04  0.15000000000E+04  0.10566000000E+00 0.  1.
        994   -1    0    0    0    0 -0.00000000000E+00 -0.00000000000E+00  0.11368683772E-12  0.17120000000E+03  0.17120000000E+03 0.  0.
         13    1    1    2    0    0  0.17538119818E+03 -0.11985243316E+03  0.99895275014E+03  0.10212882936E+04  0.10566000000E+00 0.  1.
        994    1    1    2    0    0 -0.20434545061E+03  0.13250334815E+03  0.22830554750E+03  0.37516271600E+03  0.17120000000E+03 0.  0.
        998    1    1    2    0    0  0.28964252424E+02 -0.12650914991E+02  0.27274169863E+03  0.27474899043E+03  0.10000000000E+02 0.  1.
</event>
<event>
 5    1  0.5525569E-010  0.3864392E+03  0.7957747E-01  0.3423591E+00
         13   -1    0    0    0    0  0.00000000000E+00  0.00000000000E+00  0.14999999963E+04  0.15000000000E+04  0.10566000000E+00 0.  1.
        994   -1    0    0    0    0 -0.00000000000E+00 -0.00000000000E+00  0.11368683772E-12  0.17120000000E+03  0.17120000000E+03 0.  0.
         13    1    1    2    0    0 -0.63960950427E+02  0.19612872226E+03  0.11151990858E+04  0.11341192579E+04  0.10566000000E+00 0.  1.
        994    1    1    2    0    0  0.62537752125E+02 -0.21611272852E+03  0.18914665322E+03  0.34014934704E+03  0.17120000000E+03 0.  0.
        998    1    1    2    0    0  0.14231983014E+01  0.19984006260E+02  0.19565425722E+03  0.19693139508E+03  0.10000000000E+02 0.  1.
</event>
<event>
 5    1  0.5525569E-010  0.3825102E+03  0.7957747E-01  0.3440301E+00
         13   -1    0    0    0    0  0.00000000000E+00  0.00000000000E+00  0.14999999963E+04  0.15000000000E+04  0.10566000000E+00 0.  1.
        994   -1    0    0    0    0 -0.00000000000E+00 -0.00000000000E+00  0.11368683772E-12  0.17120000000E+03  0.17120000000E+03 0.  0.
         13    1    1    2    0    0 -0.25562105479E+02  0.36964611043E+01  0.61310282059E+02  0.66528542080E+02  0.10566000000E+00 0.  1.
        994    1    1    2    0    0  0.13301965688E+03 -0.20344341134E+03  0.23283812417E+03  0.37763273534E+03  0.17120000000E+03 0.  0.
        998    1    1    2    0    0 -0.10745755140E+03  0.19974695024E+03  0.12058515901E+04  0.12270387226E+04  0.10000000000E+02 0.  1.
</event>
<event>
 5    1  0.5525569E-010  0.3873490E+03  0.7957747E-01  0.3419770E+00
         13   -1    0    0    0    0  0.00000000000E+00  0.00000000000E+00  0.14999999963E+04  0.15000000000E+04  0.10566000000E+00 0.  1.
        994   -1    0    0    0    0 -0.00000000000E+00 -0.00000000000E+00  0.11368683772E-12  0.17120000000E+03  0.17120000000E+03 0.  0.
         13    1    1    2    0    0  0.47195812571E+02  0.19736222436E+02  0.27259037254E+03  0.27734903203E+03  0.10566000000E+00 0.  1.
        994    1    1    2    0    0 -0.18001341803E+03 -0.55500815839E+02  0.12633752922E+03  0.28417561915E+03  0.17120000000E+03 0.  0.
        998    1    1    2    0    0  0.13281760546E+03  0.35764593403E+02  0.11010720945E+04  0.11096753488E+04  0.10000000000E+02 0.  1.
</event>
<event>
 5    1  0.5525569E-010  0.3876638E+03  0.7957747E-01  0.3418453E+00
         13   -1    0    0    0    0  0.00000000000E+00  0.00000000000E+00  0.14999999963E+04  0.15000000000E+04  0.10566000000E+00 0.  1.
        994   -1    0    0    0    0 -0.00000000000E+00 -0.00000000000E+00  0.11368683772E-12  0.17120000000E+03  0.17120000000E+03 0.  0.
         13    1    1    2    0    0 -0.11132035605E+03 -0.15176529247E+03  0.94812725112E+03  0.96662827454E+03  0.10566000000E+00 0.  1.
        994    1    1    2    0    0  0.13874865582E+03  0.19681994082E+03  0.21997031385E+03  0.36835534145E+03  0.17120000000E+03 0.  0.
        998    1    1    2    0    0 -0.27428299767E+02 -0.45054648354E+02  0.33190243131E+03  0.33621638401E+03  0.10000000000E+02 0.  1.
</event>
<event>
 5    1  0.5525569E-010  0.3820209E+03  0.7957747E-01  0.3442406E+00
         13   -1    0    0    0    0  0.00000000000E+00  0.00000000000E+00  0.14999999963E+04  0.15000000000E+04  0.10566000000E+00 0. -1.
        994   -1    0    0    0    0 -0.00000000000E+00 -0.00000000000E+00  0.11368683772E-12  0.17120000000E+03  0.17120000000E+03 0.  0.
         13    1    1    2    0    0 -0.10438108388E+03  0.19703663773E+03  0.76571326883E+03  0.79751844399E+03  0.10566000000E+00 0. -1.
        994    1    1    2    0    0  0.15544579932E+03 -0.23133351101E+03  0.33006426683E+03  0.46468317173E+03  0.17120000000E+03 0.  0.
        998    1    1    2    0    0 -0.51064715436E+02  0.34296873284E+02  0.40422246062E+03  0.40899838429E+03  0.10000000000E+02 0.  1.
</event>
<event>
 5    1  0.5525569E-010  0.3878399E+03  0.7957747E-01  0.3417716E+00
         13   -1    0    0    0    0  0.00000000000E+00  0.00000000000E+00  0.14999999963E+04  0.15000000000E+04  0.10566000000E+00 0. -1.
        994   -1    0    0    0    0 -0.00000000000E+00 -0.00000000000E+00  0.11368683772E-12  0.17120000000E+03  0.17120000000E+03 0.  0.
         13    1    1    2    0    0  0.55878051520E+02  0.48413317442E+02  0.40757965590E+03  0.41423108649E+03  0.10566000000E+00 0. -1.
        994    1    1    2    0    0 -0.17083117207E+03 -0.12569709601E+03  0.16375164015E+03  0.31797340918E+03  0.17120000000E+03 0.  0.
        998    1    1    2    0    0  0.11495312055E+03  0.77283778570E+02  0.92866870023E+03  0.93899550433E+03  0.10000000000E+02 0. -1.
</event>
<event>
 5    1  0.5525569E-010  0.3803432E+03  0.7957747E-01  0.3449665E+00
         13   -1    0    0    0    0  0.00000000000E+00  0.00000000000E+00  0.14999999963E+04  0.15000000000E+04  0.10566000000E+00 0. -1.
        994   -1    0    0    0    0 -0.00000000000E+00 -0.00000000000E+00  0.11368683772E-12  0.17120000000E+03  0.17120000000E+03 0.  0.
         13    1    1    2    0    0  0.10606088406E+03  0.10617526597E+03  0.63127067074E+03  0.64886421471E+03  0.10566000000E+00 0. -1.
        994    1    1    2    0    0 -0.12510327739E+03 -0.16675651118E+03  0.16614318577E+03  0.31681471275E+03  0.17120000000E+03 0.  0.
        998    1    1    2    0    0  0.19042393330E+02  0.60581245207E+02  0.70258613976E+03  0.70552107254E+03  0.10000000000E+02 0. -1.
</event>
<event>
 5    1  0.5525569E-010  0.3881502E+03  0.7957747E-01  0.3416421E+00
         13   -1    0    0    0    0  0.00000000000E+00  0.00000000000E+00  0.14999999963E+04  0.15000000000E+04  0.10566000000E+00 0.  1.
        994   -1    0    0    0    0 -0.00000000000E+00 -0.00000000000E+00  0.11368683772E-12  0.17120000000E+03  0.17120000000E+03 0.  0.
         13    1    1    2    0    0  0.68894353065E+02 -0.10941633590E+03  0.41989244757E+03  0.43934957054E+03  0.10566000000E+00 0.  1.
        994    1    1    2    0    0 -0.17142219675E+03  0.26390100357E+03  0.45131504864E+03  0.57621525696E+03  0.17120000000E+03 0.  0.
        998    1    1    2    0    0  0.10252784369E+03 -0.15448466767E+03  0.62879250007E+03  0.65563517250E+03  0.10000000000E+02 0.  1.
</event>
<event>
 5    1  0.5525569E-010  0.3840668E+03  0.7957747E-01  0.3433640E+00
         13   -1    0    0    0    0  0.00000000000E+00  0.00000000000E+00  0.14999999963E+04  0.15000000000E+04  0.10566000000E+00 0. -1.
        994   -1    0    0    0    0 -0.00000000000E+00 -0.00000000000E+00  0.11368683772E-12  0.17120000000E+03  0.17120000000E+03 0.  0.
         13    1    1    2    0    0 -0.30554024340E+02 -0.14916388936E+02  0.12845910781E+03  0.13288265728E+03  0.10566000000E+00 0. -1.
        994    1    1    2    0    0  0.13697917858E+03  0.16768029662E+02  0.67671736858E+02  0.23007252368E+03  0.17120000000E+03 0.  0.
        998    1    1    2    0    0 -0.10642515424E+03 -0.18516407263E+01  0.13038691516E+04  0.13082448190E+04  0.10000000000E+02 0. -1.
</event>
<event>
 5    1  0.5525569E-010  0.3794269E+03  0.7957747E-01  0.3453658E+00
         13   -1    0    0    0    0  0.00000000000E+00  0.00000000000E+00  0.14999999963E+04  0.15000000000E+04  0.10566000000E+00 0.  1.
        994   -1    0    0    0    0 -0.00000000000E+00 -0.00000000000E+00  0.11368683772E-12  0.17120000000E+03  0.17120000000E+03 0.  0.
         13    1    1    2    0    0  0.49825533541E+02  0.39469724364E+01  0.29552525146E+03  0.29972211764E+03  0.10566000000E+00 0.  1.
        994    1    1    2    0    0 -0.75294103953E+02  0.13095962590E+03  0.85085634762E+02  0.24365678926E+03  0.17120000000E+03 0.  0.
        998    1    1    2    0    0  0.25468570412E+02 -0.13490659834E+03  0.11193891101E+04  0.11278210931E+04  0.10000000000E+02 0.  1.
</event>
<event>
 5    1  0.5525569E-010  0.3863134E+03  0.7957747E-01  0.3424121E+00
         13   -1    0    0    0    0  0.00000000000E+00  0.00000000000E+00  0.14999999963E+04  0.15000000000E+04  0.10566000000E+00 0. -1.
        994   -1    0    0    0    0 -0.00000000000E+00 -0.00000000000E+00  0.11368683772E-12  0.17120000000E+03  0.17120000000E+03 0.  0.
         13    1    1    2    0    0  0.19605761598E+03  0.37191582763E+02  0.11873394816E+04  0.12039920508E+04  0.10566000000E+00 0. -1.
        994    1    1    2    0    0 -0.20798303437E+03 -0.51878080894E+02  0.16953166068E+03  0.32248829721E+03  0.17120000000E+03 0.  0.
        998    1    1    2    0    0  0.11925418389E+02  0.14686498131E+02  0.14312885395E+03  0.14471965197E+03  0.10000000000E+02 0. -1.
</event>
<event>
 5    1  0.5525569E-010  0.3878838E+03  0.7957747E-01  0.3417533E+00
         13   -1    0    0    0    0  0.00000000000E+00  0.00000000000E+00  0.14999999963E+04  0.15000000000E+04  0.10566000000E+00 0.  1.
        994   -1    0    0    0    0 -0.00000000000E+00 -0.00000000000E+00  0.11368683772E-12  0.17120000000E+03  0.17120000000E+03 0.  0.
         13    1    1    2    0    0  0.32094330537E+02  0.16340327570E+02  0.21672414995E+03  0.21969620091E+03  0.10566000000E+00 0.  1.
        994    1    1    2    0    0 -0.15623279738E+03 -0.12766273358E+03  0.14636724935E+03  0.30238927263E+03  0.17120000000E+03 0.  0.
        998    1    1    2    0    0  0.12413846684E+03  0.11132240601E+03  0.11369085970E+04  0.11491145265E+04  0.10000000000E+02 0.  1.
</event>
<event>
 5    1  0.6765244E-010  0.3853969E+03  0.7957747E-01  0.3427990E+00
         13   -1    0    0    0    0  0.00000000000E+00  0.00000000000E+00  0.14999999963E+04  0.15000000000E+04  0.10566000000E+00 0. -1.
        994   -1    0    0    0    0 -0.00000000000E+00 -0.00000000000E+00  0.11368683772E-12  0.17120000000E+03  0.17120000000E+03 0.  0.
         13    1    1    2    0    0  0.13633741643E+02  0.44618059091E+01  0.77167830490E+02  0.78489947443E+02  0.10566000000E+00 0. -1.
        994    1    1    2    0    0 -0.25391676197E+02  0.57242467733E+02  0.14420500120E+02  0.18286286708E+03  0.17120000000E+03 0.  0.
        998    1    1    2    0    0  0.11757934554E+02 -0.61704273642E+02  0.14084116657E+04  0.14098471855E+04  0.10000000000E+02 0. -1.
</event>
<event>
 5    1  0.6906376E-010  0.3864426E+03  0.7957747E-01  0.3423577E+00
         13   -1    0    0    0    0  0.00000000000E+00  0.00000000000E+00  0.14999999963E+04  0.15000000000E+04  0.10566000000E+00 0. -1.
        994   -1    0    0    0    0 -0.00000000000E+00 -0.00000000000E+00  0.11368683772E-12  0.17120000000E+03  0.17120000000E+03 0.  0.
         13    1    1    2    0    0  0.13139550980E+03 -0.17884555037E+03  0.12318596066E+04  0.12516903022E+04  0.10566000000E+00 0. -1.
        994    1    1    2    0    0 -0.14140237819E+03  0.18259320250E+03  0.20096392507E+03  0.35075753640E+03  0.17120000000E+03 0.  0.
        998    1    1    2    0    0  0.10006868389E+02 -0.37476521312E+01  0.67176464567E+02  0.68752161444E+02  0.10000000000E+02 0. -1.
</event>
<event>
 5    1  0.5525569E-010  0.3831436E+03  0.7957747E-01  0.3437584E+00
         13   -1    0    0    0    0  0.00000000000E+00  0.00000000000E+00  0.14999999963E+04  0.15000000000E+04  0.10566000000E+00 0.  1.
        994   -1    0    0    0    0 -0.00000000000E+00 -0.00000000000E+00  0.11368683772E-12  0.17120000000E+03  0.17120000000E+03 0.  0.
         13    1    1    2    0    0  0.12654597474E+03  0.28776837303E+03  0.10031668081E+04  0.10512697924E+04  0.10566000000E+00 0.  1.
        994    1    1    2    0    0 -0.12984283103E+03 -0.28656921149E+03  0.46886169833E+03  0.59001847929E+03  0.17120000000E+03 0.  0.
        998    1    1    2    0    0  0.32968562872E+01 -0.11991615397E+01  0.27971489803E+02  0.29911728328E+02  0.10000000000E+02 0. -1.
</event>
<event>
 5    1  0.5525569E-010  0.3874206E+03  0.7957747E-01  0.3419471E+00
         13   -1    0    0    0    0  0.00000000000E+00  0.00000000000E+00  0.14999999963E+04  0.15000000000E+04  0.10566000000E+00 0. -1.
        994   -1    0    0    0    0 -0.00000000000E+00 -0.00000000000E+00  0.11368683772E-12  0.17120000000E+03  0.17120000000E+03 0.  0.
         13    1    1    2    0    0 -0.74879382016E+02  0.60079601446E+02  0.44774027308E+03  0.45791685234E+03  0.10566000000E+00 0. -1.
        994    1    1    2    0    0  0.23799860599E+03 -0.13985173351E+03  0.30978986315E+03  0.44886639786E+03  0.17120000000E+03 0.  0.
        998    1    1    2    0    0 -0.16311922397E+03  0.79772132064E+02  0.74246986005E+03  0.76441674980E+03  0.10000000000E+02 0. -1.
</event>
<event>
 5    1  0.5525569E-010  0.3843919E+03  0.7957747E-01  0.3432255E+00
         13   -1    0    0    0    0  0.00000000000E+00  0.00000000000E+00  0.14999999963E+04  0.15000000000E+04  0.10566000000E+00 0.  1.
        994   -1    0    0    0    0 -0.00000000000E+00 -0.00000000000E+00  0.11368683772E-12  0.17120000000E+03  0.17120000000E+03 0.  0.
         13    1    1    2    0    0  0.15454676334E+02  0.21214252360E+02  0.12497493235E+03  0.12770135631E+03  0.10566000000E+00 0.  1.
        994    1    1    2    0    0 -0.16739529632E+02 -0.66020577574E+02  0.17370867828E+02  0.18506786746E+03  0.17120000000E+03 0.  0.
        998    1    1    2    0    0  0.12848532979E+01  0.44806325214E+02  0.13576541961E+04  0.13584307762E+04  0.10000000000E+02 0.  1.
</event>
<event>
 5    1  0.5525569E-010  0.3858506E+03  0.7957747E-01  0.3426073E+00
         13   -1    0    0    0    0  0.00000000000E+00  0.00000000000E+00  0.14999999963E+04  0.15000000000E+04  0.10566000000E+00 0.  1.
        994   -1    0    0    0    0 -0.00000000000E+00 -0.00000000000E+00  0.11368683772E-12  0.17120000000E+03  0.17120000000E+03 0.  0.
         13    1    1    2    0    0 -0.46917959313E+01  0.13561147327E+02  0.55509161146E+02  0.57334071904E+02  0.10566000000E+00 0.  1.
        994    1    1    2    0    0 -0.40046757382E+02 -0.10358979015E+03  0.42761774288E+02  0.20850083151E+03  0.17120000000E+03 0.  0.
        998    1    1    2    0    0  0.44738553314E+02  0.90028642826E+02  0.14017290608E+04  0.14053650966E+04  0.10000000000E+02 0.  1.
</event>
<event>
 5    1  0.5525569E-010  0.3854468E+03  0.7957747E-01  0.3427780E+00
         13   -1    0    0    0    0  0.00000000000E+00  0.00000000000E+00  0.14999999963E+04  0.15000000000E+04  0.10566000000E+00 0.  1.
        994   -1    0    0    0    0 -0.00000000000E+00 -0.00000000000E+00  0.11368683772E-12  0.17120000000E+03  0.17120000000E+03 0.  0.
         13    1    1    2    0    0 -0.18284112727E+03 -0.30779843266E+02  0.87145801990E+03  0.89096429119E+03  0.10566000000E+00 0.  1.
        994    1    1    2    0    0  0.22946148602E+03  0.62170538307E+02  0.21655378071E+03  0.36431130828E+03  0.17120000000E+03 0.  0.
        998    1    1    2    0    0 -0.46620358750E+02 -0.31390695041E+02  0.41198819567E+03  0.41592440053E+03  0.10000000000E+02 0. -1.
</event>
<event>
 5    1  0.5525569E-010  0.3858229E+03  0.7957747E-01  0.3426190E+00
         13   -1    0    0    0    0  0.00000000000E+00  0.00000000000E+00  0.14999999963E+04  0.15000000000E+04  0.10566000000E+00 0.  1.
        994   -1    0    0    0    0 -0.00000000000E+00 -0.00000000000E+00  0.11368683772E-12  0.17120000000E+03  0.17120000000E+03 0.  0.
         13    1    1    2    0    0 -0.17443153569E+01 -0.72089561318E+02  0.38978171067E+03  0.39639593922E+03  0.10566000000E+00 0.  1.
        994    1    1    2    0    0 -0.54381412385E+00  0.16360552028E+03  0.94571156933E+02  0.25499059928E+03  0.17120000000E+03 0.  0.
        998    1    1    2    0    0  0.22881294808E+01 -0.91515958959E+02  0.10156471287E+04  0.10198134615E+04  0.10000000000E+02 0.  1.
</event>
<event>
 5    1  0.5525569E-010  0.3875126E+03  0.7957747E-01  0.3419085E+00
         13   -1    0    0    0    0  0.00000000000E+00  0.00000000000E+00  0.14999999963E+04  0.15000000000E+04  0.10566000000E+00 0.  1.
        994   -1    0    0    0    0 -0.00000000000E+00 -0.00000000000E+00  0.11368683772E-12  0.17120000000E+03  0.17120000000E+03 0.  0.
         13    1    1    2    0    0 -0.15661554068E+03  0.43873222134E+02  0.88515741263E+03  0.89997607941E+03  0.10566000000E+00 0.  1.
        994    1    1    2    0    0  0.21406797223E+03 -0.57597470105E+02  0.18149566885E+03  0.33375542409E+03  0.17120000000E+03 0.  0.
        998    1    1    2    0    0 -0.57452431550E+02  0.13724247971E+02  0.43334691480E+03  0.43746849651E+03  0.10000000000E+02 0.  1.
</event>
<event>
 5    1  0.5525569E-010  0.3879690E+03  0.7957747E-01  0.3417177E+00
         13   -1    0    0    0    0  0.00000000000E+00  0.00000000000E+00  0.14999999963E+04  0.15000000000E+04  0.10566000000E+00 0.  1.
        994   -1    0    0    0    0 -0.00000000000E+00 -0.00000000000E+00  0.11368683772E-12  0.17120000000E+03  0.17120000000E+03 0.  0.
         13    1    1    2    0    0 -0.14040758280E+03  0.49148629088E+02  0.48945862438E+03  0.51156586399E+03  0.10566000000E+00 0.  1.
        994    1    1    2    0    0  0.29580799051E+03 -0.91707578949E+02  0.42906337492E+03  0.55616316579E+03  0.17120000000E+03 0.  0.
        998    1    1    2    0    0 -0.15540040771E+03  0.42558949861E+02  0.58147799698E+03  0.60347097022E+03  0.10000000000E+02 0.  0.
</event>
<event>
 5    1  0.5525569E-010  0.3875872E+03  0.7957747E-01  0.3418773E+00
         13   -1    0    0    0    0  0.00000000000E+00  0.00000000000E+00  0.14999999963E+04  0.15000000000E+04  0.10566000000E+00 0.  1.
        994   -1    0    0    0    0 -0.00000000000E+00 -0.00000000000E+00  0.11368683772E-12  0.17120000000E+03  0.17120000000E+03 0.  0.
         13    1    1    2    0    0  0.13734122762E+03  0.57011656124E+02  0.65911420829E+03  0.67568076225E+03  0.10566000000E+00 0.  1.
        994    1    1    2    0    0 -0.23570814121E+03 -0.94846981068E+02  0.25057973221E+03  0.39579530044E+03  0.17120000000E+03 0.  0.
        998    1    1    2    0    0  0.98366913594E+02  0.37835324944E+02  0.59030605577E+03  0.59972393731E+03  0.10000000000E+02 0.  1.
</event>
<event>
 5    1  0.5525569E-010  0.3879602E+03  0.7957747E-01  0.3417214E+00
         13   -1    0    0    0    0  0.00000000000E+00  0.00000000000E+00  0.14999999963E+04  0.15000000000E+04  0.10566000000E+00 0.  1.
        994   -1    0    0    0    0 -0.00000000000E+00 -0.00000000000E+00  0.11368683772E-12  0.17120000000E+03  0.17120000000E+03 0.  0.
         13    1    1    2    0    0  0.97844774213E+02  0.14521982638E+03  0.77497683040E+03  0.79451337096E+03  0.10566000000E+00 0.  1.
        994    1    1    2    0    0 -0.15662719868E+03 -0.21681143519E+03  0.28433508991E+03  0.42625715379E+03  0.17120000000E+03 0.  0.
        998    1    1    2    0    0  0.58782424472E+02  0.71591608813E+02  0.44068807597E+03  0.45042947525E+03  0.10000000000E+02 0.  1.
</event>
<event>
 5    1  0.5525569E-010  0.3881044E+03  0.7957747E-01  0.3416612E+00
         13   -1    0    0    0    0  0.00000000000E+00  0.00000000000E+00  0.14999999963E+04  0.15000000000E+04  0.10566000000E+00 0. -1.
        994   -1    0    0    0    0 -0.00000000000E+00 -0.00000000000E+00  0.11368683772E-12  0.17120000000E+03  0.17120000000E+03 0.  0.
         13    1    1    2    0    0 -0.10828783015E+02 -0.14501873446E+01  0.42579314806E+02  0.43958785223E+02  0.10566000000E+00 0. -1.
        994    1    1    2    0    0  0.31291017656E+03  0.73240825572E+02  0.48546366787E+03  0.60684545804E+03  0.17120000000E+03 0.  0.
        998    1    1    2    0    0 -0.30208139355E+03 -0.71790638227E+02  0.97195701361E+03  0.10203957567E+04  0.10000000000E+02 0. -1.
</event>
<event>
 5    1  0.5525569E-010  0.3710934E+03  0.7957747E-01  0.3490881E+00
         13   -1    0    0    0    0  0.00000000000E+00  0.00000000000E+00  0.14999999963E+04  0.15000000000E+04  0.10566000000E+00 0. -1.
        994   -1    0    0    0    0 -0.00000000000E+00 -0.00000000000E+00  0.11368683772E-12  0.17120000000E+03  0.17120000000E+03 0.  0.
         13    1    1    2    0    0  0.40046422678E+02 -0.17070063639E+02  0.16582592334E+03  0.17144489219E+03  0.10566000000E+00 0. -1.
        994    1    1    2    0    0  0.11166497908E+03 -0.64864902805E+02  0.72579062063E+02  0.22639276362E+03  0.17120000000E+03 0.  0.
        998    1    1    2    0    0 -0.15171140175E+03  0.81934966444E+02  0.12615950109E+04  0.12733623442E+04  0.10000000000E+02 0. -1.
</event>
<event>
 5    1  0.5525569E-010  0.3843431E+03  0.7957747E-01  0.3432463E+00
         13   -1    0    0    0    0  0.00000000000E+00  0.00000000000E+00  0.14999999963E+04  0.15000000000E+04  0.10566000000E+00 0.  1.
        994   -1    0    0    0    0 -0.00000000000E+00 -0.00000000000E+00  0.11368683772E-12  0.17120000000E+03  0.17120000000E+03 0.  0.
         13    1    1    2    0    0 -0.11672522130E+02  0.97154569456E+01  0.51264466420E+02  0.53466761244E+02  0.10566000000E+00 0.  1.
        994    1    1    2    0    0 -0.27714890452E+02 -0.10105660068E+03  0.39024850933E+02  0.20448210358E+03  0.17120000000E+03 0.  0.
        998    1    1    2    0    0  0.39387412583E+02  0.91341143730E+02  0.14097106789E+04  0.14132511352E+04  0.10000000000E+02 0.  1.
</event>
<event>
 5    1  0.5525569E-010  0.3879637E+03  0.7957747E-01  0.3417199E+00
         13   -1    0    0    0    0  0.00000000000E+00  0.00000000000E+00  0.14999999963E+04  0.15000000000E+04  0.10566000000E+00 0.  1.
        994   -1    0    0    0    0 -0.00000000000E+00 -0.00000000000E+00  0.11368683772E-12  0.17120000000E+03  0.17120000000E+03 0.  0.
         13    1    1    2    0    0 -0.72194991169E+02  0.70617823382E+02  0.55475972222E+03  0.56387707374E+03  0.10566000000E+00 0.  1.
        994    1    1    2    0    0  0.16932929967E+03 -0.14626515778E+03  0.18484761908E+03  0.33696289171E+03  0.17120000000E+03 0.  0.
        998    1    1    2    0    0 -0.97134308503E+02  0.75647334399E+02  0.76039265498E+03  0.77036003455E+03  0.10000000000E+02 0.  1.
</event>
<event>
 5    1  0.5525569E-010  0.3869204E+03  0.7957747E-01  0.3421568E+00
         13   -1    0    0    0    0  0.00000000000E+00  0.00000000000E+00  0.14999999963E+04  0.15000000000E+04  0.10566000000E+00 0.  1.
        994   -1    0    0    0    0 -0.00000000000E+00 -0.00000000000E+00  0.11368683772E-12  0.17120000000E+03  0.17120000000E+03 0.  0.
         13    1    1    2    0    0  0.12031514224E+03  0.11853621037E+03  0.10181051952E+04  0.10320197510E+04  0.10566000000E+00 0.  1.
        994    1    1    2    0    0 -0.13840643888E+03 -0.14797982923E+03  0.14879683788E+03  0.30414521391E+03  0.17120000000E+03 0.  0.
        998    1    1    2    0    0  0.18091296637E+02  0.29443618856E+02  0.33309796315E+03  0.33503503512E+03  0.10000000000E+02 0.  1.
</event>
<event>
 5    1  0.5525569E-010  0.3867520E+03  0.7957747E-01  0.3422276E+00
         13   -1    0    0    0    0  0.00000000000E+00  0.00000000000E+00  0.14999999963E+04  0.15000000000E+04  0.10566000000E+00 0. -1.
        994   -1    0    0    0    0 -0.00000000000E+00 -0.00000000000E+00  0.11368683772E-12  0.17120000000E+03  0.17120000000E+03 0.  0.
         13    1    1    2    0    0  0.32739908985E+02  0.15458886188E+02  0.21097148512E+03  0.21405573456E+03  0.10566000000E+00 0. -1.
        994    1    1    2    0    0 -0.11770381775E+03 -0.15498612012E+03  0.13629357585E+03  0.29284853587E+03  0.17120000000E+03 0.  0.
        998    1    1    2    0    0  0.84963908767E+02  0.13952723393E+03  0.11527349353E+04  0.11642957296E+04  0.10000000000E+02 0. -1.
</event>
<event>
 5    1  0.5525569E-010  0.3879934E+03  0.7957747E-01  0.3417075E+00
         13   -1    0    0    0    0  0.00000000000E+00  0.00000000000E+00  0.14999999963E+04  0.15000000000E+04  0.10566000000E+00 0. -1.
        994   -1    0    0    0    0 -0.00000000000E+00 -0.00000000000E+00  0.11368683772E-12  0.17120000000E+03  0.17120000000E+03 0.  0.
         13    1    1    2    0    0  0.11470756500E+03  0.12657865818E+03  0.85747456033E+03  0.87432409034E+03  0.10566000000E+00 0. -1.
        994    1    1    2    0    0 -0.16846863291E+03 -0.19184705534E+03  0.25292617448E+03  0.39808047259E+03  0.17120000000E+03 0.  0.
        998    1    1    2    0    0  0.53761067918E+02  0.65268397161E+02  0.38959926147E+03  0.39879543708E+03  0.10000000000E+02 0.  0.
</event>
<event>
 5    1  0.5525569E-010  0.3831789E+03  0.7957747E-01  0.3437433E+00
         13   -1    0    0    0    0  0.00000000000E+00  0.00000000000E+00  0.14999999963E+04  0.15000000000E+04  0.10566000000E+00 0.  1.
        994   -1    0    0    0    0 -0.00000000000E+00 -0.00000000000E+00  0.11368683772E-12  0.17120000000E+03  0.17120000000E+03 0.  0.
         13    1    1    2    0    0  0.43108315624E+02  0.13445994824E+03  0.85312941795E+03  0.86473557779E+03  0.10566000000E+00 0.  1.
        994    1    1    2    0    0 -0.11931183771E+03 -0.17274729186E+03  0.16540884851E+03  0.31740584214E+03  0.17120000000E+03 0.  0.
        998    1    1    2    0    0  0.76203522084E+02  0.38287343615E+02  0.48146172982E+03  0.48905858007E+03  0.10000000000E+02 0.  1.
</event>
<event>
 5    1  0.5525569E-010  0.3854340E+03  0.7957747E-01  0.3427834E+00
         13   -1    0    0    0    0  0.00000000000E+00  0.00000000000E+00  0.14999999963E+04  0.15000000000E+04  0.10566000000E+00 0. -1.
        994   -1    0    0    0    0 -0.00000000000E+00 -0.00000000000E+00  0.11368683772E-12  0.17120000000E+03  0.17120000000E+03 0.  0.
         13    1    1    2    0    0 -0.50783308626E+02  0.14151920899E+03  0.86310703107E+03  0.87610523865E+03  0.10566000000E+00 0. -1.
        994    1    1    2    0    0  0.45690612931E+02 -0.18973146551E+03  0.13848231231E+03  0.29423196960E+03  0.17120000000E+03 0.  0.
        998    1    1    2    0    0  0.50926956952E+01  0.48212256519E+02  0.49841065291E+03  0.50086279175E+03  0.10000000000E+02 0.  1.
</event>
<event>
 5    1  0.5525569E-010  0.3836182E+03  0.7957747E-01  0.3435554E+00
         13   -1    0    0    0    0  0.00000000000E+00  0.00000000000E+00  0.14999999963E+04  0.15000000000E+04  0.10566000000E+00 0. -1.
        994   -1    0    0    0    0 -0.00000000000E+00 -0.00000000000E+00  0.11368683772E-12  0.17120000000E+03  0.17120000000E+03 0.  0.
         13    1    1    2    0    0  0.10760039319E+03 -0.12690329859E+03  0.95260826302E+03  0.96702885466E+03  0.10566000000E+00 0. -1.
        994    1    1    2    0    0 -0.14051182615E+03  0.13009673522E+03  0.13470427170E+03  0.29004036722E+03  0.17120000000E+03 0.  0.
        998    1    1    2    0    0  0.32911432956E+02 -0.31934366304E+01  0.41268746156E+03  0.41413077812E+03  0.10000000000E+02 0. -1.
</event>
<event>
 5    1  0.8952823E-010  0.3871545E+03  0.7957747E-01  0.3420586E+00
         13   -1    0    0    0    0  0.00000000000E+00  0.00000000000E+00  0.14999999963E+04  0.15000000000E+04  0.10566000000E+00 0.  1.
        994   -1    0    0    0    0 -0.00000000000E+00 -0.00000000000E+00  0.11368683772E-12  0.17120000000E+03  0.17120000000E+03 0.  0.
         13    1    1    2    0    0  0.15241566060E+03  0.14644757593E+03  0.11932246834E+04  0.12118013791E+04  0.10566000000E+00 0.  1.
        994    1    1    2    0    0 -0.16598430632E+03 -0.15342410862E+03  0.19026156135E+03  0.34146544302E+03  0.17120000000E+03 0.  0.
        998    1    1    2    0    0  0.13568645717E+02  0.69765326964E+01  0.11651375152E+03  0.11793317790E+03  0.10000000000E+02 0.  1.
</event>
<event>
 5    1  0.5525569E-010  0.3863824E+03  0.7957747E-01  0.3423830E+00
         13   -1    0    0    0    0  0.00000000000E+00  0.00000000000E+00  0.14999999963E+04  0.15000000000E+04  0.10566000000E+00 0. -1.
        994   -1    0    0    0    0 -0.00000000000E+00 -0.00000000000E+00  0.11368683772E-12  0.17120000000E+03  0.17120000000E+03 0.  0.
         13    1    1    2    0    0  0.13687117608E+03  0.14639157415E+03  0.11939753204E+04  0.12106780286E+04  0.10566000000E+00 0. -1.
        994    1    1    2    0    0 -0.15159743356E+03 -0.14877069104E+03  0.16598443809E+03  0.31933489328E+03  0.17120000000E+03 0.  0.
        998    1    1    2    0    0  0.14726257476E+02  0.23791168902E+01  0.14004023774E+03  0.14118707817E+03  0.10000000000E+02 0.  1.
</event>
<event>
 5    1  0.5525569E-010  0.3881651E+03  0.7957747E-01  0.3416359E+00
         13   -1    0    0    0    0  0.00000000000E+00  0.00000000000E+00  0.14999999963E+04  0.15000000000E+04  0.10566000000E+00 0.  1.
        994   -1    0    0    0    0 -0.00000000000E+00 -0.00000000000E+00  0.11368683772E-12  0.17120000000E+03  0.17120000000E+03 0.  0.
         13    1    1    2    0    0 -0.37416011081E+02 -0.57223252560E+02  0.40013687303E+03  0.40593593933E+03  0.10566000000E+00 0.  1.
        994    1    1    2    0    0  0.11828072671E+03  0.18030135891E+03  0.16962872275E+03  0.32339179631E+03  0.17120000000E+03 0.  0.
        998    1    1    2    0    0 -0.80864715628E+02 -0.12307810635E+03  0.93023440050E+03  0.94187226436E+03  0.10000000000E+02 0.  0.
</event>
<event>
 5    1  0.5525569E-010  0.3723933E+03  0.7957747E-01  0.3484963E+00
         13   -1    0    0    0    0  0.00000000000E+00  0.00000000000E+00  0.14999999963E+04  0.15000000000E+04  0.10566000000E+00 0.  1.
        994   -1    0    0    0    0 -0.00000000000E+00 -0.00000000000E+00  0.11368683772E-12  0.17120000000E+03  0.17120000000E+03 0.  0.
         13    1    1    2    0    0 -0.15892040869E+03  0.72041015541E+02  0.79415005738E+03  0.81309281697E+03  0.10566000000E+00 0.  1.
        994    1    1    2    0    0  0.16543118118E+03 -0.19030128547E+03  0.27278568462E+03  0.40902753537E+03  0.17120000000E+03 0.  0.
        998    1    1    2    0    0 -0.65107724831E+01  0.11826026993E+03  0.43306425428E+03  0.44907964766E+03  0.10000000000E+02 0.  1.
</event>
<event>
 5    1  0.5525569E-010  0.3872377E+03  0.7957747E-01  0.3420237E+00
         13   -1    0    0    0    0  0.00000000000E+00  0.00000000000E+00  0.14999999963E+04  0.15000000000E+04  0.10566000000E+00 0. -1.
        994   -1    0    0    0    0 -0.00000000000E+00 -0.00000000000E+00  0.11368683772E-12  0.17120000000E+03  0.17120000000E+03 0.  0.
         13    1    1    2    0    0 -0.21185797550E+03  0.74026673045E+02  0.10520463638E+04  0.10757161861E+04  0.10566000000E+00 0. -1.
        994    1    1    2    0    0  0.24569348716E+03 -0.75270089200E+02  0.25828117611E+03  0.40255370064E+03  0.17120000000E+03 0.  0.
        998    1    1    2    0    0 -0.33835511661E+02  0.12434161552E+01  0.18967245633E+03  0.19293011331E+03  0.10000000000E+02 0.  0.
</event>
<event>
 5    1  0.5525569E-010  0.3853135E+03  0.7957747E-01  0.3428344E+00
         13   -1    0    0    0    0  0.00000000000E+00  0.00000000000E+00  0.14999999963E+04  0.15000000000E+04  0.10566000000E+00 0.  1.
        994   -1    0    0    0    0 -0.00000000000E+00 -0.00000000000E+00  0.11368683772E-12  0.17120000000E+03  0.17120000000E+03 0.  0.
         13    1    1    2    0    0 -0.15278448117E+03  0.11005334858E+03  0.93076162591E+03  0.94961679253E+03  0.10566000000E+00 0.  1.
        994    1    1    2    0    0  0.21927527481E+03 -0.11338041939E+03  0.23713727910E+03  0.38272744190E+03  0.17120000000E+03 0.  0.
        998    1    1    2    0    0 -0.66490793638E+02  0.33270708105E+01  0.33210109127E+03  0.33885576557E+03  0.10000000000E+02 0. -1.
</event>
<event>
 5    1  0.5525569E-010  0.3805370E+03  0.7957747E-01  0.3448824E+00
         13   -1    0    0    0    0  0.00000000000E+00  0.00000000000E+00  0.14999999963E+04  0.15000000000E+04  0.10566000000E+00 0.  1.
        994   -1    0    0    0    0 -0.00000000000E+00 -0.00000000000E+00  0.11368683772E-12  0.17120000000E+03  0.17120000000E+03 0.  0.
         13    1    1    2    0    0  0.32388795891E+02  0.56619604469E+02  0.14041707442E+03  0.15482822631E+03  0.10566000000E+00 0.  1.
        994    1    1    2    0    0 -0.14069452439E+03 -0.21757489822E+03  0.27587842256E+03  0.41539394503E+03  0.17120000000E+03 0.  0.
        998    1    1    2    0    0  0.10830572849E+03  0.16095529376E+03  0.10837044993E+04  0.11009778287E+04  0.10000000000E+02 0.  1.
</event>
<event>
 5    1  0.5525569E-010  0.3878916E+03  0.7957747E-01  0.3417500E+00
         13   -1    0    0    0    0  0.00000000000E+00  0.00000000000E+00  0.14999999963E+04  0.15000000000E+04  0.10566000000E+00 0. -1.
        994   -1    0    0    0    0 -0.00000000000E+00 -0.00000000000E+00  0.11368683772E-12  0.17120000000E+03  0.17120000000E+03 0.  0.
         13    1    1    2    0    0 -0.37152490419E+01 -0.13161237592E+03  0.73067055135E+03  0.74243860779E+03  0.10566000000E+00 0. -1.
        994    1    1    2    0    0  0.21513898078E+02  0.22669412511E+03  0.19258883754E+03  0.34387930225E+03  0.17120000000E+03 0.  0.
        998    1    1    2    0    0 -0.17798649036E+02 -0.95081749195E+02  0.57674060739E+03  0.58488208996E+03  0.10000000000E+02 0. -1.
</event>
<event>
 5    1  0.5525569E-010  0.3878165E+03  0.7957747E-01  0.3417814E+00
         13   -1    0    0    0    0  0.00000000000E+00  0.00000000000E+00  0.14999999963E+04  0.15000000000E+04  0.10566000000E+00 0.  1.
        994   -1    0    0    0    0 -0.00000000000E+00 -0.00000000000E+00  0.11368683772E-12  0.17120000000E+03  0.17120000000E+03 0.  0.
         13    1    1    2    0    0  0.55258093244E+02 -0.93121866089E+02  0.26542483169E+03  0.28666267852E+03  0.10566000000E+00 0.  1.
        994    1    1    2    0    0 -0.14470071976E+03  0.30876049763E+03  0.63202314876E+03  0.73826421000E+03  0.17120000000E+03 0.  0.
        998    1    1    2    0    0  0.89442626520E+02 -0.21563863154E+03  0.60255201582E+03  0.64627311148E+03  0.10000000000E+02 0.  1.
</event>
<event>
 5    1  0.5525569E-010  0.3846490E+03  0.7957747E-01  0.3431162E+00
         13   -1    0    0    0    0  0.00000000000E+00  0.00000000000E+00  0.14999999963E+04  0.15000000000E+04  0.10566000000E+00 0. -1.
        994   -1    0    0    0    0 -0.00000000000E+00 -0.00000000000E+00  0.11368683772E-12  0.17120000000E+03  0.17120000000E+03 0.  0.
         13    1    1    2    0    0 -0.23902447551E+03  0.60046224435E+02  0.11537581994E+04  0.11797865242E+04  0.10566000000E+00 0. -1.
        994    1    1    2    0    0  0.24091602761E+03 -0.64882090541E+02  0.24443070064E+03  0.38898075203E+03  0.17120000000E+03 0.  0.
        998    1    1    2    0    0 -0.18915521009E+01  0.48358661058E+01  0.10181109626E+03  0.10243272374E+03  0.10000000000E+02 0. -1.
</event>
<event>
 5    1  0.5525569E-010  0.3704376E+03  0.7957747E-01  0.3493882E+00
         13   -1    0    0    0    0  0.00000000000E+00  0.00000000000E+00  0.14999999963E+04  0.15000000000E+04  0.10566000000E+00 0. -1.
        994   -1    0    0    0    0 -0.00000000000E+00 -0.00000000000E+00  0.11368683772E-12  0.17120000000E+03  0.17120000000E+03 0.  0.
         13    1    1    2    0    0 -0.60872718955E+01  0.58206977193E+02  0.33172349729E+03  0.33684654799E+03  0.10566000000E+00 0. -1.
        994    1    1    2    0    0  0.44417119305E+02  0.41285379134E+02  0.21845514483E+02  0.18293176192E+03  0.17120000000E+03 0.  0.
        998    1    1    2    0    0 -0.38329847410E+02 -0.99492356327E+02  0.11464309845E+04  0.11514216901E+04  0.10000000000E+02 0. -1.
</event>
<event>
 5    1  0.5525569E-010  0.3876610E+03  0.7957747E-01  0.3418465E+00
         13   -1    0    0    0    0  0.00000000000E+00  0.00000000000E+00  0.14999999963E+04  0.15000000000E+04  0.10566000000E+00 0. -1.
        994   -1    0    0    0    0 -0.00000000000E+00 -0.00000000000E+00  0.11368683772E-12  0.17120000000E+03  0.17120000000E+03 0.  0.
         13    1    1    2    0    0  0.77134121129E+02  0.92205516775E+02  0.64176942338E+03  0.65293149252E+03  0.10566000000E+00 0. -1.
        994    1    1    2    0    0 -0.13233329795E+03 -0.17824113217E+03  0.18190119402E+03  0.33418481014E+03  0.17120000000E+03 0.  0.
        998    1    1    2    0    0  0.55199176823E+02  0.86035615392E+02  0.67632937888E+03  0.68408369734E+03  0.10000000000E+02 0. -1.
</event>
<event>
 5    1  0.5525569E-010  0.3811260E+03  0.7957747E-01  0.3446270E+00
         13   -1    0    0    0    0  0.00000000000E+00  0.00000000000E+00  0.14999999963E+04  0.15000000000E+04  0.10566000000E+00 0.  1.
        994   -1    0    0    0    0 -0.00000000000E+00 -0.00000000000E+00  0.11368683772E-12  0.17120000000E+03  0.17120000000E+03 0.  0.
         13    1    1    2    0    0  0.56788694317E+02  0.18124134569E+03  0.10637022825E+04  0.10805257693E+04  0.10566000000E+00 0.  1.
        994    1    1    2    0    0 -0.28485020049E+02 -0.20088023846E+03  0.15563229801E+03  0.30772572001E+03  0.17120000000E+03 0.  0.
        998    1    1    2    0    0 -0.28303674269E+02  0.19638892770E+02  0.28066541579E+03  0.28294851070E+03  0.10000000000E+02 0.  1.
</event>
<event>
 5    1  0.5525569E-010  0.2761819E+03  0.7957747E-01  0.4082247E+00
         13   -1    0    0    0    0  0.00000000000E+00  0.00000000000E+00  0.14999999963E+04  0.15000000000E+04  0.10566000000E+00 0.  1.
        994   -1    0    0    0    0 -0.00000000000E+00 -0.00000000000E+00  0.11368683772E-12  0.17120000000E+03  0.17120000000E+03 0.  0.
         13    1    1    2    0    0  0.38189286039E+02 -0.13898832939E+03  0.72537096635E+03  0.73955339717E+03  0.10566000000E+00 0.  1.
        994    1    1    2    0    0  0.15051808145E+03  0.11661821210E+03  0.19579632509E+03  0.32233699936E+03  0.17120000000E+03 0.  0.
        998    1    1    2    0    0 -0.18870736749E+03  0.22370117288E+02  0.57883270484E+03  0.60930960347E+03  0.10000000000E+02 0.  1.
</event>
<event>
 5    1  0.5525569E-010  0.3856947E+03  0.7957747E-01  0.3426731E+00
         13   -1    0    0    0    0  0.00000000000E+00  0.00000000000E+00  0.14999999963E+04  0.15000000000E+04  0.10566000000E+00 0. -1.
        994   -1    0    0    0    0 -0.00000000000E+00 -0.00000000000E+00  0.11368683772E-12  0.17120000000E+03  0.17120000000E+03 0.  0.
         13    1    1    2    0    0  0.17495912554E+03  0.13540614119E+03  0.12478247409E+04  0.12672853324E+04  0.10566000000E+00 0. -1.
        994    1    1    2    0    0 -0.18711081331E+03 -0.13583112989E+03  0.20253716024E+03  0.35183986923E+03  0.17120000000E+03 0.  0.
        998    1    1    2    0    0  0.12151687769E+02  0.42498870049E+00  0.49638095179E+02  0.52074798358E+02  0.10000000000E+02 0. -1.
</event>
<event>
 5    1  0.5525569E-010  0.3881541E+03  0.7957747E-01  0.3416405E+00
         13   -1    0    0    0    0  0.00000000000E+00  0.00000000000E+00  0.14999999963E+04  0.15000000000E+04  0.10566000000E+00 0. -1.
        994   -1    0    0    0    0 -0.00000000000E+00 -0.00000000000E+00  0.11368683772E-12  0.17120000000E+03  0.17120000000E+03 0.  0.
         13    1    1    2    0    0  0.13912009333E+03 -0.67906411960E+02  0.38197926930E+03  0.41215756028E+03  0.10566000000E+00 0. -1.
        994    1    1    2    0    0 -0.30859578572E+03  0.14743627647E+03  0.63999165940E+03  0.74556527459E+03  0.17120000000E+03 0.  0.
        998    1    1    2    0    0  0.16947569238E+03 -0.79529864511E+02  0.47802906758E+03  0.51347716513E+03  0.10000000000E+02 0.  0.
</event>
<event>
 5    1  0.5525569E-010  0.3853729E+03  0.7957747E-01  0.3428092E+00
         13   -1    0    0    0    0  0.00000000000E+00  0.00000000000E+00  0.14999999963E+04  0.15000000000E+04  0.10566000000E+00 0.  1.
        994   -1    0    0    0    0 -0.00000000000E+00 -0.00000000000E+00  0.11368683772E-12  0.17120000000E+03  0.17120000000E+03 0.  0.
         13    1    1    2    0    0  0.18895534312E+02 -0.49251846159E+01  0.50876962705E+02  0.54495643483E+02  0.10566000000E+00 0.  1.
        994    1    1    2    0    0 -0.19746284329E+03 -0.12160141111E+02  0.14275506483E+03  0.29804008463E+03  0.17120000000E+03 0.  0.
        998    1    1    2    0    0  0.17856730898E+03  0.17085325727E+02  0.13063679687E+04  0.13186642719E+04  0.10000000000E+02 0.  1.
</event>
<event>
 5    1  0.5525569E-010  0.3713500E+03  0.7957747E-01  0.3489709E+00
         13   -1    0    0    0    0  0.00000000000E+00  0.00000000000E+00  0.14999999963E+04  0.15000000000E+04  0.10566000000E+00 0.  1.
        994   -1    0    0    0    0 -0.00000000000E+00 -0.00000000000E+00  0.11368683772E-12  0.17120000000E+03  0.17120000000E+03 0.  0.
         13    1    1    2    0    0  0.45289725558E+02 -0.34086179352E+02  0.30222806547E+03  0.30749770989E+03  0.10566000000E+00 0.  1.
        994    1    1    2    0    0 -0.99870663943E+02 -0.12179097366E+03  0.99464492493E+02  0.25300161274E+03  0.17120000000E+03 0.  0.
        998    1    1    2    0    0  0.54580938385E+02  0.15587715301E+03  0.10983074383E+04  0.11107006774E+04  0.10000000000E+02 0. -1.
</event>
<event>
 5    1  0.5525569E-010  0.3862514E+03  0.7957747E-01  0.3424382E+00
         13   -1    0    0    0    0  0.00000000000E+00  0.00000000000E+00  0.14999999963E+04  0.15000000000E+04  0.10566000000E+00 0. -1.
        994   -1    0    0    0    0 -0.00000000000E+00 -0.00000000000E+00  0.11368683772E-12  0.17120000000E+03  0.17120000000E+03 0.  0.
         13    1    1    2    0    0 -0.13630633363E+03  0.17487409188E+03  0.77165195686E+03  0.80287428548E+03  0.10566000000E+00 0. -1.
        994    1    1    2    0    0  0.18401110963E+03 -0.22552517209E+03  0.36102912004E+03  0.49434113447E+03  0.17120000000E+03 0.  0.
        998    1    1    2    0    0 -0.47704776001E+02  0.50651080211E+02  0.36731891937E+03  0.37398458004E+03  0.10000000000E+02 0. -1.
</event>
<event>
 5    1  0.5525569E-010  0.3726950E+03  0.7957747E-01  0.3483596E+00
         13   -1    0    0    0    0  0.00000000000E+00  0.00000000000E+00  0.14999999963E+04  0.15000000000E+04  0.10566000000E+00 0.  1.
        994   -1    0    0    0    0 -0.00000000000E+00 -0.00000000000E+00  0.11368683772E-12  0.17120000000E+03  0.17120000000E+03 0.  0.
         13    1    1    2    0    0  0.37688558625E+02 -0.33141833530E+01  0.74123179215E+02  0.83220599154E+02  0.10566000000E+00 0.  1.
        994    1    1    2    0    0  0.68380278259E+02 -0.24962810556E+03  0.30920451756E+03  0.43807182883E+03  0.17120000000E+03 0.  0.
        998    1    1    2    0    0 -0.10606883688E+03  0.25294228892E+03  0.11166722995E+04  0.11499075720E+04  0.10000000000E+02 0.  1.
</event>
<event>
 5    1  0.5525569E-010  0.3813053E+03  0.7957747E-01  0.3445495E+00
         13   -1    0    0    0    0  0.00000000000E+00  0.00000000000E+00  0.14999999963E+04  0.15000000000E+04  0.10566000000E+00 0. -1.
        994   -1    0    0    0    0 -0.00000000000E+00 -0.00000000000E+00  0.11368683772E-12  0.17120000000E+03  0.17120000000E+03 0.  0.
         13    1    1    2    0    0 -0.32327322569E+02 -0.72583983241E+01  0.18599732102E+03  0.18892526227E+03  0.10566000000E+00 0. -1.
        994    1    1    2    0    0  0.66541748358E+02 -0.13238410323E+03  0.80373350217E+02  0.24025542759E+03  0.17120000000E+03 0.  0.
        998    1    1    2    0    0 -0.34214425790E+02  0.13964250155E+03  0.12336293250E+04  0.12420193101E+04  0.10000000000E+02 0. -1.
</event>
<event>
 5    1  0.5525569E-010  0.3876267E+03  0.7957747E-01  0.3418608E+00
         13   -1    0    0    0    0  0.00000000000E+00  0.00000000000E+00  0.14999999963E+04  0.15000000000E+04  0.10566000000E+00 0. -1.
        994   -1    0    0    0    0 -0.00000000000E+00 -0.00000000000E+00  0.11368683772E-12  0.17120000000E+03  0.17120000000E+03 0.  0.
         13    1    1    2    0    0  0.49648788581E+02 -0.85434510144E+01  0.88040970084E+02  0.10143577446E+03  0.10566000000E+00 0. -1.
        994    1    1    2    0    0 -0.32859910697E+03  0.11384427314E+03  0.79515971235E+03  0.88460516603E+03  0.17120000000E+03 0.  0.
        998    1    1    2    0    0  0.27895031839E+03 -0.10530082212E+03  0.61679931385E+03  0.68515905951E+03  0.10000000000E+02 0.  0.
</event>
<event>
 5    1  0.5525569E-010  0.3332958E+03  0.7957747E-01  0.3683692E+00
         13   -1    0    0    0    0  0.00000000000E+00  0.00000000000E+00  0.14999999963E+04  0.15000000000E+04  0.10566000000E+00 0.  1.
        994   -1    0    0    0    0 -0.00000000000E+00 -0.00000000000E+00  0.11368683772E-12  0.17120000000E+03  0.17120000000E+03 0.  0.
         13    1    1    2    0    0 -0.11500121498E+03  0.13759481995E+03  0.10692436709E+04  0.10841769472E+04  0.10566000000E+00 0.  1.
        994    1    1    2    0    0  0.62258508034E+02 -0.72133856385E+02  0.57366305007E+02  0.20415618533E+03  0.17120000000E+03 0.  0.
        998    1    1    2    0    0  0.52742706950E+02 -0.65460963566E+02  0.37339002036E+03  0.38286686745E+03  0.10000000000E+02 0.  1.
</event>
<event>
 5    1  0.5525569E-010  0.3790108E+03  0.7957747E-01  0.3455477E+00
         13   -1    0    0    0    0  0.00000000000E+00  0.00000000000E+00  0.14999999963E+04  0.15000000000E+04  0.10566000000E+00 0.  1.
        994   -1    0    0    0    0 -0.00000000000E+00 -0.00000000000E+00  0.11368683772E-12  0.17120000000E+03  0.17120000000E+03 0.  0.
         13    1    1    2    0    0  0.32420945259E+02  0.84960035130E+01  0.10359852421E+03  0.10888510068E+03  0.10566000000E+00 0.  1.
        994    1    1    2    0    0 -0.11451451756E+03  0.15409488727E+03  0.14023847717E+03  0.29297624391E+03  0.17120000000E+03 0.  0.
        998    1    1    2    0    0  0.82093572301E+02 -0.16259089079E+03  0.12561629949E+04  0.12693386554E+04  0.10000000000E+02 0.  1.
</event>
<event>
 5    1  0.5525569E-010  0.3809564E+03  0.7957747E-01  0.3447005E+00
         13   -1    0    0    0    0  0.00000000000E+00  0.00000000000E+00  0.14999999963E+04  0.15000000000E+04  0.10566000000E+00 0. -1.
        994   -1    0    0    0    0 -0.00000000000E+00 -0.00000000000E+00  0.11368683772E-12  0.17120000000E+03  0.17120000000E+03 0.  0.
         13    1    1    2    0    0  0.17270732393E+03  0.17979042070E+03  0.12047256139E+04  0.12302504749E+04  0.10566000000E+00 0. -1.
        994    1    1    2    0    0 -0.18397523526E+03 -0.18208715522E+03  0.26959285615E+03  0.41108681245E+03  0.17120000000E+03 0.  0.
        998    1    1    2    0    0  0.11267911336E+02  0.22967345264E+01  0.25681526238E+02  0.29862712624E+02  0.10000000000E+02 0.  1.
</event>
<event>
 5    1  0.5525569E-010  0.3832311E+03  0.7957747E-01  0.3437209E+00
         13   -1    0    0    0    0  0.00000000000E+00  0.00000000000E+00  0.14999999963E+04  0.15000000000E+04  0.10566000000E+00 0.  1.
        994   -1    0    0    0    0 -0.00000000000E+00 -0.00000000000E+00  0.11368683772E-12  0.17120000000E+03  0.17120000000E+03 0.  0.
         13    1    1    2    0    0  0.12997999169E+02  0.98916778218E+01  0.66918463558E+02  0.68883127118E+02  0.10566000000E+00 0.  1.
        994    1    1    2    0    0 -0.13494639687E+02  0.67414759847E+02  0.18305804238E+02  0.18539524701E+03  0.17120000000E+03 0.  0.
        998    1    1    2    0    0  0.49664051857E+00 -0.77306437669E+02  0.14147757285E+04  0.14169216259E+04  0.10000000000E+02 0.  1.
</event>
<event>
 5    1  0.5525569E-010  0.3656624E+03  0.7957747E-01  0.3516066E+00
         13   -1    0    0    0    0  0.00000000000E+00  0.00000000000E+00  0.14999999963E+04  0.15000000000E+04  0.10566000000E+00 0. -1.
        994   -1    0    0    0    0 -0.00000000000E+00 -0.00000000000E+00  0.11368683772E-12  0.17120000000E+03  0.17120000000E+03 0.  0.
         13    1    1    2    0    0 -0.11310688842E+03  0.18311959007E+03  0.11887827532E+04  0.12081102590E+04  0.10566000000E+00 0. -1.
        994    1    1    2    0    0  0.11750914890E+03 -0.22110509951E+03  0.27223055289E+03  0.40757180843E+03  0.17120000000E+03 0.  0.
        998    1    1    2    0    0 -0.44022604810E+01  0.37985509432E+02  0.38986690233E+02  0.55517932594E+02  0.10000000000E+02 0.  1.
</event>
<event>
 5    1  0.5525569E-010  0.3864024E+03  0.7957747E-01  0.3423746E+00
         13   -1    0    0    0    0  0.00000000000E+00  0.00000000000E+00  0.14999999963E+04  0.15000000000E+04  0.10566000000E+00 0. -1.
        994   -1    0    0    0    0 -0.00000000000E+00 -0.00000000000E+00  0.11368683772E-12  0.17120000000E+03  0.17120000000E+03 0.  0.
         13    1    1    2    0    0  0.14797346677E+01 -0.21487178533E+02  0.40287439295E+02  0.45683447604E+02  0.10566000000E+00 0. -1.
        994    1    1    2    0    0 -0.48061463663E+02  0.29889208825E+03  0.40472513202E+03  0.53362745169E+03  0.17120000000E+03 0.  0.
        998    1    1    2    0    0  0.46581728995E+02 -0.27740490972E+03  0.10549874250E+04  0.10918891007E+04  0.10000000000E+02 0. -1.
</event>
<event>
 5    1  0.5525569E-010  0.3809522E+03  0.7957747E-01  0.3447023E+00
         13   -1    0    0    0    0  0.00000000000E+00  0.00000000000E+00  0.14999999963E+04  0.15000000000E+04  0.10566000000E+00 0. -1.
        994   -1    0    0    0    0 -0.00000000000E+00 -0.00000000000E+00  0.11368683772E-12  0.17120000000E+03  0.17120000000E+03 0.  0.
         13    1    1    2    0    0  0.47729626638E+02 -0.37346537034E+02  0.25518275031E+03  0.26228062892E+03  0.10566000000E+00 0. -1.
        994    1    1    2    0    0 -0.18004064637E+03 -0.20996392852E+01  0.12053463866E+03  0.27614684852E+03  0.17120000000E+03 0.  0.
        998    1    1    2    0    0  0.13231101973E+03  0.39446176319E+02  0.11242826073E+04  0.11327725226E+04  0.10000000000E+02 0. -1.
</event>
<event>
 5    1  0.5525569E-010  0.3849139E+03  0.7957747E-01  0.3430038E+00
         13   -1    0    0    0    0  0.00000000000E+00  0.00000000000E+00  0.14999999963E+04  0.15000000000E+04  0.10566000000E+00 0.  1.
        994   -1    0    0    0    0 -0.00000000000E+00 -0.00000000000E+00  0.11368683772E-12  0.17120000000E+03  0.17120000000E+03 0.  0.
         13    1    1    2    0    0 -0.22404421057E+02  0.29114124739E+01  0.12784834655E+03  0.12982929286E+03  0.10566000000E+00 0.  1.
        994    1    1    2    0    0  0.32730314882E+02 -0.55816701220E+02  0.15569004574E+02  0.18368073266E+03  0.17120000000E+03 0.  0.
        998    1    1    2    0    0 -0.10325893826E+02  0.52905288747E+02  0.13565826452E+04  0.13576899745E+04  0.10000000000E+02 0.  1.
</event>
<event>
 5    1  0.5525569E-010  0.3848766E+03  0.7957747E-01  0.3430196E+00
         13   -1    0    0    0    0  0.00000000000E+00  0.00000000000E+00  0.14999999963E+04  0.15000000000E+04  0.10566000000E+00 0. -1.
        994   -1    0    0    0    0 -0.00000000000E+00 -0.00000000000E+00  0.11368683772E-12  0.17120000000E+03  0.17120000000E+03 0.  0.
         13    1    1    2    0    0  0.10646081156E+02 -0.63744855670E+00  0.46940918501E+02  0.48137369874E+02  0.10566000000E+00 0. -1.
        994    1    1    2    0    0  0.47253223740E+02 -0.53030061814E+02  0.18469428645E+02  0.18626758817E+03  0.17120000000E+03 0.  0.
        998    1    1    2    0    0 -0.57899304896E+02  0.53667510370E+02  0.14345896491E+04  0.14367950420E+04  0.10000000000E+02 0. -1.
</event>
<event>
 5    1  0.5525569E-010  0.3862260E+03  0.7957747E-01  0.3424489E+00
         13   -1    0    0    0    0  0.00000000000E+00  0.00000000000E+00  0.14999999963E+04  0.15000000000E+04  0.10566000000E+00 0.  1.
        994   -1    0    0    0    0 -0.00000000000E+00 -0.00000000000E+00  0.11368683772E-12  0.17120000000E+03  0.17120000000E+03 0.  0.
         13    1    1    2    0    0  0.19717218241E+03  0.15063723041E+02  0.99321477894E+03  0.10127089382E+04  0.10566000000E+00 0.  1.
        994    1    1    2    0    0 -0.23292192362E+03 -0.44844858422E+01  0.20539637560E+03  0.35464044359E+03  0.17120000000E+03 0.  0.
        998    1    1    2    0    0  0.35749741217E+02 -0.10579237199E+02  0.30138884173E+03  0.30385061819E+03  0.10000000000E+02 0.  1.
</event>
<event>
 5    1  0.5525569E-010  0.3875820E+03  0.7957747E-01  0.3418795E+00
         13   -1    0    0    0    0  0.00000000000E+00  0.00000000000E+00  0.14999999963E+04  0.15000000000E+04  0.10566000000E+00 0.  1.
        994   -1    0    0    0    0 -0.00000000000E+00 -0.00000000000E+00  0.11368683772E-12  0.17120000000E+03  0.17120000000E+03 0.  0.
         13    1    1    2    0    0  0.20271588268E+03  0.67056251207E+02  0.10640814624E+04  0.10852924213E+04  0.10566000000E+00 0.  1.
        994    1    1    2    0    0 -0.24067929481E+03 -0.70695046658E+02  0.24285746213E+03  0.38886179998E+03  0.17120000000E+03 0.  0.
        998    1    1    2    0    0  0.37963412127E+02  0.36387954514E+01  0.19306107170E+03  0.19704577869E+03  0.10000000000E+02 0.  0.
</event>
<event>
 5    1  0.5525569E-010  0.3849430E+03  0.7957747E-01  0.3429914E+00
         13   -1    0    0    0    0  0.00000000000E+00  0.00000000000E+00  0.14999999963E+04  0.15000000000E+04  0.10566000000E+00 0. -1.
        994   -1    0    0    0    0 -0.00000000000E+00 -0.00000000000E+00  0.11368683772E-12  0.17120000000E+03  0.17120000000E+03 0.  0.
         13    1    1    2    0    0  0.34646783619E+02  0.23265122674E+02  0.24714573711E+03  0.25064455327E+03  0.10566000000E+00 0. -1.
        994    1    1    2    0    0 -0.93527643247E+02 -0.30647775951E+02  0.34197329321E+02  0.20041358126E+03  0.17120000000E+03 0.  0.
        998    1    1    2    0    0  0.58880859628E+02  0.73826532765E+01  0.12186569298E+04  0.12201418655E+04  0.10000000000E+02 0. -1.
</event>
<event>
 5    1  0.5525569E-010  0.3765195E+03  0.7957747E-01  0.3466455E+00
         13   -1    0    0    0    0  0.00000000000E+00  0.00000000000E+00  0.14999999963E+04  0.15000000000E+04  0.10566000000E+00 0.  1.
        994   -1    0    0    0    0 -0.00000000000E+00 -0.00000000000E+00  0.11368683772E-12  0.17120000000E+03  0.17120000000E+03 0.  0.
         13    1    1    2    0    0 -0.31447519672E+02  0.28188349644E+02  0.53289509927E+02  0.67994945265E+02  0.10566000000E+00 0.  1.
        994    1    1    2    0    0  0.15941466621E+03  0.15718885700E+03  0.22436322325E+03  0.36023557364E+03  0.17120000000E+03 0.  0.
        998    1    1    2    0    0 -0.12796714653E+03 -0.18537720664E+03  0.12223472631E+04  0.12429694811E+04  0.10000000000E+02 0.  1.
</event>
<event>
 5    1  0.5525569E-010  0.3869794E+03  0.7957747E-01  0.3421320E+00
         13   -1    0    0    0    0  0.00000000000E+00  0.00000000000E+00  0.14999999963E+04  0.15000000000E+04  0.10566000000E+00 0.  1.
        994   -1    0    0    0    0 -0.00000000000E+00 -0.00000000000E+00  0.11368683772E-12  0.17120000000E+03  0.17120000000E+03 0.  0.
         13    1    1    2    0    0 -0.10592548859E+03 -0.87055817612E+01  0.38187729520E+03  0.39639156909E+03  0.10566000000E+00 0.  1.
        994    1    1    2    0    0  0.27139835704E+03  0.50589876033E+02  0.31080867503E+03  0.44958633902E+03  0.17120000000E+03 0.  0.
        998    1    1    2    0    0 -0.16547286844E+03 -0.41884294271E+02  0.80731402605E+03  0.82522209189E+03  0.10000000000E+02 0.  1.
</event>
<event>
 5    1  0.5525569E-010  0.3872039E+03  0.7957747E-01  0.3420379E+00
         13   -1    0    0    0    0  0.00000000000E+00  0.00000000000E+00  0.14999999963E+04  0.15000000000E+04  0.10566000000E+00 0.  1.
        994   -1    0    0    0    0 -0.00000000000E+00 -0.00000000000E+00  0.11368683772E-12  0.17120000000E+03  0.17120000000E+03 0.  0.
         13    1    1    2    0    0 -0.19854442225E+03 -0.30130348441E+02  0.11345392173E+04  0.11521748879E+04  0.10566000000E+00 0.  1.
        994    1    1    2    0    0  0.23289784450E+03  0.41638969809E+02  0.21159198507E+03  0.36063252478E+03  0.17120000000E+03 0.  0.
        998    1    1    2    0    0 -0.34353422255E+02 -0.11508621368E+02  0.15386879391E+03  0.15839258734E+03  0.10000000000E+02 0. -1.
</event>
<event>
 5    1  0.5525569E-010  0.3844862E+03  0.7957747E-01  0.3431854E+00
         13   -1    0    0    0    0  0.00000000000E+00  0.00000000000E+00  0.14999999963E+04  0.15000000000E+04  0.10566000000E+00 0.  1.
        994   -1    0    0    0    0 -0.00000000000E+00 -0.00000000000E+00  0.11368683772E-12  0.17120000000E+03  0.17120000000E+03 0.  0.
         13    1    1    2    0    0  0.49050800519E+02  0.69196108460E+02  0.25395054794E+03  0.26774049829E+03  0.10566000000E+00 0.  1.
        994    1    1    2    0    0 -0.12529092983E+03 -0.23207914087E+03  0.28085163698E+03  0.42159889317E+03  0.17120000000E+03 0.  0.
        998    1    1    2    0    0  0.76240129315E+02  0.16288303241E+03  0.96519781135E+03  0.98186060854E+03  0.10000000000E+02 0.  1.
</event>
<event>
 5    1  0.5525569E-010  0.3800026E+03  0.7957747E-01  0.3451147E+00
         13   -1    0    0    0    0  0.00000000000E+00  0.00000000000E+00  0.14999999963E+04  0.15000000000E+04  0.10566000000E+00 0. -1.
        994   -1    0    0    0    0 -0.00000000000E+00 -0.00000000000E+00  0.11368683772E-12  0.17120000000E+03  0.17120000000E+03 0.  0.
         13    1    1    2    0    0  0.10916527821E+03  0.78917509832E+01  0.54227535583E+03  0.55321054799E+03  0.10566000000E+00 0. -1.
        994    1    1    2    0    0 -0.15230028316E+03 -0.71843613013E+02  0.10561566147E+03  0.26233754769E+03  0.17120000000E+03 0.  0.
        998    1    1    2    0    0  0.43135004952E+02  0.63951862030E+02  0.85210897898E+03  0.85565190432E+03  0.10000000000E+02 0. -1.
</event>
<event>
 5    1  0.5525569E-010  0.3760506E+03  0.7957747E-01  0.3468538E+00
         13   -1    0    0    0    0  0.00000000000E+00  0.00000000000E+00  0.14999999963E+04  0.15000000000E+04  0.10566000000E+00 0.  1.
        994   -1    0    0    0    0 -0.00000000000E+00 -0.00000000000E+00  0.11368683772E-12  0.17120000000E+03  0.17120000000E+03 0.  0.
         13    1    1    2    0    0 -0.16945377856E+03 -0.15086409681E+03  0.10529949580E+04  0.10771596685E+04  0.10566000000E+00 0.  1.
        994    1    1    2    0    0  0.16937823726E+03  0.21132994478E+03  0.31904160142E+03  0.45215740208E+03  0.17120000000E+03 0.  0.
        998    1    1    2    0    0  0.75541299913E-01 -0.60465847977E+02  0.12796343684E+03  0.14188292937E+03  0.10000000000E+02 0. -1.
</event>
<event>
 5    1  0.5525569E-010  0.3840744E+03  0.7957747E-01  0.3433607E+00
         13   -1    0    0    0    0  0.00000000000E+00  0.00000000000E+00  0.14999999963E+04  0.15000000000E+04  0.10566000000E+00 0. -1.
        994   -1    0    0    0    0 -0.00000000000E+00 -0.00000000000E+00  0.11368683772E-12  0.17120000000E+03  0.17120000000E+03 0.  0.
         13    1    1    2    0    0 -0.11533855227E+03 -0.16436067697E+03  0.91236611312E+03  0.93419984441E+03  0.10566000000E+00 0. -1.
        994    1    1    2    0    0  0.13081936257E+03  0.19414396501E+03  0.21079727772E+03  0.35853942191E+03  0.17120000000E+03 0.  0.
        998    1    1    2    0    0 -0.15480810296E+02 -0.29783288040E+02  0.37683660544E+03  0.37846073368E+03  0.10000000000E+02 0.  1.
</event>
<event>
 5    1  0.5525569E-010  0.3879866E+03  0.7957747E-01  0.3417103E+00
         13   -1    0    0    0    0  0.00000000000E+00  0.00000000000E+00  0.14999999963E+04  0.15000000000E+04  0.10566000000E+00 0.  1.
        994   -1    0    0    0    0 -0.00000000000E+00 -0.00000000000E+00  0.11368683772E-12  0.17120000000E+03  0.17120000000E+03 0.  0.
         13    1    1    2    0    0 -0.61930645543E+02 -0.66663542206E+02  0.46857165855E+03  0.47732467260E+03  0.10566000000E+00 0.  1.
        994    1    1    2    0    0  0.14803167407E+03  0.18079989327E+03  0.20442044305E+03  0.35454073881E+03  0.17120000000E+03 0.  0.
        998    1    1    2    0    0 -0.86101028531E+02 -0.11413635106E+03  0.82700789468E+03  0.83933458859E+03  0.10000000000E+02 0.  1.
</event>
<event>
 5    1  0.5838875E-010  0.3861731E+03  0.7957747E-01  0.3424712E+00
         13   -1    0    0    0    0  0.00000000000E+00  0.00000000000E+00  0.14999999963E+04  0.15000000000E+04  0.10566000000E+00 0. -1.
        994   -1    0    0    0    0 -0.00000000000E+00 -0.00000000000E+00  0.11368683772E-12  0.17120000000E+03  0.17120000000E+03 0.  0.
         13    1    1    2    0    0 -0.92682275392E+01  0.39104157418E+01  0.44550299057E+02  0.45672001304E+02  0.10566000000E+00 0. -1.
        994    1    1    2    0    0  0.43734428870E+02  0.39258021489E+02  0.12447168674E+02  0.18143391229E+03  0.17120000000E+03 0.  0.
        998    1    1    2    0    0 -0.34466201331E+02 -0.43168437231E+02  0.14430025285E+04  0.14440940864E+04  0.10000000000E+02 0. -1.
</event>
<event>
 5    1  0.5525569E-010  0.3745741E+03  0.7957747E-01  0.3475130E+00
         13   -1    0    0    0    0  0.00000000000E+00  0.00000000000E+00  0.14999999963E+04  0.15000000000E+04  0.10566000000E+00 0. -1.
        994   -1    0    0    0    0 -0.00000000000E+00 -0.00000000000E+00  0.11368683772E-12  0.17120000000E+03  0.17120000000E+03 0.  0.
         13    1    1    2    0    0  0.58039120986E+02  0.20303451560E+02  0.36473659172E+03  0.36988317374E+03  0.10566000000E+00 0. -1.
        994    1    1    2    0    0  0.91976542655E+01 -0.13122689353E+03  0.68297415891E+02  0.22644882744E+03  0.17120000000E+03 0.  0.
        998    1    1    2    0    0 -0.67236775251E+02  0.11092344197E+03  0.10669659887E+04  0.10748679988E+04  0.10000000000E+02 0. -1.
</event>
<event>
 5    1  0.5525569E-010  0.3869397E+03  0.7957747E-01  0.3421487E+00
         13   -1    0    0    0    0  0.00000000000E+00  0.00000000000E+00  0.14999999963E+04  0.15000000000E+04  0.10566000000E+00 0.  1.
        994   -1    0    0    0    0 -0.00000000000E+00 -0.00000000000E+00  0.11368683772E-12  0.17120000000E+03  0.17120000000E+03 0.  0.
         13    1    1    2    0    0  0.50012889770E+02 -0.14082937230E+01  0.25716790793E+03  0.26198972588E+03  0.10566000000E+00 0.  1.
        994    1    1    2    0    0 -0.18978880177E+03 -0.42821077740E+02  0.13601754286E+03  0.29268352523E+03  0.17120000000E+03 0.  0.
        998    1    1    2    0    0  0.13977591200E+03  0.44229371463E+02  0.11068145455E+04  0.11165267489E+04  0.10000000000E+02 0.  1.
</event>
<event>
 5    1  0.5525569E-010  0.4034661E+03  0.7957747E-01  0.3354942E+00
         13   -1    0    0    0    0  0.00000000000E+00  0.00000000000E+00  0.14999999963E+04  0.15000000000E+04  0.10566000000E+00 0.  1.
        994   -1    0    0    0    0 -0.00000000000E+00 -0.00000000000E+00  0.11368683772E-12  0.17120000000E+03  0.17120000000E+03 0.  0.
         13    1    1    2    0    0  0.86212004066E+02 -0.19239776774E+02  0.50302153264E+03  0.51071846659E+03  0.10566000000E+00 0.  1.
        994    1    1    2    0    0  0.12362117770E+03 -0.55580979753E+02  0.10733215946E+03  0.24331270690E+03  0.17120000000E+03 0.  0.
        998    1    1    2    0    0 -0.20983318176E+03  0.74820756527E+02  0.88964630418E+03  0.91716882651E+03  0.10000000000E+02 0.  1.
</event>
<event>
 5    1  0.5525569E-010  0.3867908E+03  0.7957747E-01  0.3422113E+00
         13   -1    0    0    0    0  0.00000000000E+00  0.00000000000E+00  0.14999999963E+04  0.15000000000E+04  0.10566000000E+00 0. -1.
        994   -1    0    0    0    0 -0.00000000000E+00 -0.00000000000E+00  0.11368683772E-12  0.17120000000E+03  0.17120000000E+03 0.  0.
         13    1    1    2    0    0  0.12881409433E+02 -0.20036977014E+02  0.14224433626E+03  0.14422507937E+03  0.10566000000E+00 0. -1.
        994    1    1    2    0    0 -0.28070527078E+02  0.11025834370E+03  0.44273593941E+02  0.21027231859E+03  0.17120000000E+03 0.  0.
        998    1    1    2    0    0  0.15189117645E+02 -0.90221366689E+02  0.13134820661E+04  0.13167026020E+04  0.10000000000E+02 0. -1.
</event>
<event>
 5    1  0.5525569E-010  0.3871124E+03  0.7957747E-01  0.3420762E+00
         13   -1    0    0    0    0  0.00000000000E+00  0.00000000000E+00  0.14999999963E+04  0.15000000000E+04  0.10566000000E+00 0. -1.
        994   -1    0    0    0    0 -0.00000000000E+00 -0.00000000000E+00  0.11368683772E-12  0.17120000000E+03  0.17120000000E+03 0.  0.
         13    1    1    2    0    0  0.29258058413E+02  0.17559889464E+03  0.10568352773E+04  0.10717237612E+04  0.10566000000E+00 0. -1.
        994    1    1    2    0    0 -0.40844818376E+02 -0.23081103211E+03  0.20712922605E+03  0.35658657857E+03  0.17120000000E+03 0.  0.
        998    1    1    2    0    0  0.11586759963E+02  0.55212137474E+02  0.23603549290E+03  0.24288966021E+03  0.10000000000E+02 0. -1.
</event>
<event>
 5    1  0.5525569E-010  0.3863634E+03  0.7957747E-01  0.3423911E+00
         13   -1    0    0    0    0  0.00000000000E+00  0.00000000000E+00  0.14999999963E+04  0.15000000000E+04  0.10566000000E+00 0. -1.
        994   -1    0    0    0    0 -0.00000000000E+00 -0.00000000000E+00  0.11368683772E-12  0.17120000000E+03  0.17120000000E+03 0.  0.
         13    1    1    2    0    0 -0.18809338416E+03  0.26814120712E+03  0.61040916900E+03  0.69273241074E+03  0.10566000000E+00 0. -1.
        994    1    1    2    0    0  0.20468153437E+03 -0.27792425729E+03  0.85191939375E+03  0.93499332444E+03  0.17120000000E+03 0.  0.
        998    1    1    2    0    0 -0.16588150204E+02  0.97830501629E+01  0.37671433529E+02  0.43474264822E+02  0.10000000000E+02 0.  0.
</event>
<event>
 5    1  0.5525569E-010  0.3850597E+03  0.7957747E-01  0.3429419E+00
         13   -1    0    0    0    0  0.00000000000E+00  0.00000000000E+00  0.14999999963E+04  0.15000000000E+04  0.10566000000E+00 0. -1.
        994   -1    0    0    0    0 -0.00000000000E+00 -0.00000000000E+00  0.11368683772E-12  0.17120000000E+03  0.17120000000E+03 0.  0.
         13    1    1    2    0    0  0.30988559006E+03 -0.22424190470E+02  0.98013948338E+03  0.10282049121E+04  0.10566000000E+00 0. -1.
        994    1    1    2    0    0 -0.31802261648E+03  0.15239894912E+02  0.48306943574E+03  0.60335409068E+03  0.17120000000E+03 0.  0.
        998    1    1    2    0    0  0.81370264180E+01  0.71842955583E+01  0.36791077159E+02  0.39640997214E+02  0.10000000000E+02 0.  0.
</event>
<event>
 5    1  0.5581911E-010  0.3854420E+03  0.7957747E-01  0.3427800E+00
         13   -1    0    0    0    0  0.00000000000E+00  0.00000000000E+00  0.14999999963E+04  0.15000000000E+04  0.10566000000E+00 0.  1.
        994   -1    0    0    0    0 -0.00000000000E+00 -0.00000000000E+00  0.11368683772E-12  0.17120000000E+03  0.17120000000E+03 0.  0.
         13    1    1    2    0    0  0.12550379019E+03 -0.16763892151E+03  0.12538653606E+04  0.12712326156E+04  0.10566000000E+00 0.  1.
        994    1    1    2    0    0 -0.13887910161E+03  0.16754644989E+03  0.17650653930E+03  0.32836445628E+03  0.17120000000E+03 0.  0.
        998    1    1    2    0    0  0.13375311413E+02  0.92471627366E-01  0.69628096400E+02  0.71602928115E+02  0.10000000000E+02 0.  1.
</event>
<event>
 5    1  0.5525569E-010  0.3879753E+03  0.7957747E-01  0.3417151E+00
         13   -1    0    0    0    0  0.00000000000E+00  0.00000000000E+00  0.14999999963E+04  0.15000000000E+04  0.10566000000E+00 0. -1.
        994   -1    0    0    0    0 -0.00000000000E+00 -0.00000000000E+00  0.11368683772E-12  0.17120000000E+03  0.17120000000E+03 0.  0.
         13    1    1    2    0    0  0.12243693250E+03  0.13398804513E+03  0.97105146363E+03  0.98786869312E+03  0.10566000000E+00 0. -1.
        994    1    1    2    0    0 -0.16468533875E+03 -0.17333900563E+03  0.21582021212E+03  0.36476770092E+03  0.17120000000E+03 0.  0.
        998    1    1    2    0    0  0.42248406255E+02  0.39350960502E+02  0.31312832053E+03  0.31856360595E+03  0.10000000000E+02 0.  0.
</event>
<event>
 5    1  0.5525569E-010  0.3881307E+03  0.7957747E-01  0.3416502E+00
         13   -1    0    0    0    0  0.00000000000E+00  0.00000000000E+00  0.14999999963E+04  0.15000000000E+04  0.10566000000E+00 0.  1.
        994   -1    0    0    0    0 -0.00000000000E+00 -0.00000000000E+00  0.11368683772E-12  0.17120000000E+03  0.17120000000E+03 0.  0.
         13    1    1    2    0    0 -0.42003514616E+01  0.10205293130E+03  0.59858728637E+03  0.60723899274E+03  0.10566000000E+00 0.  1.
        994    1    1    2    0    0  0.50829605899E+01 -0.23007897308E+03  0.19706760208E+03  0.34800466969E+03  0.17120000000E+03 0.  0.
        998    1    1    2    0    0 -0.88260912823E+00  0.12802604177E+03  0.70434510784E+03  0.71595633757E+03  0.10000000000E+02 0.  0.
</event>
<event>
 5    1  0.5525569E-010  0.3874523E+03  0.7957747E-01  0.3419338E+00
         13   -1    0    0    0    0  0.00000000000E+00  0.00000000000E+00  0.14999999963E+04  0.15000000000E+04  0.10566000000E+00 0. -1.
        994   -1    0    0    0    0 -0.00000000000E+00 -0.00000000000E+00  0.11368683772E-12  0.17120000000E+03  0.17120000000E+03 0.  0.
         13    1    1    2    0    0  0.14161303816E+02 -0.25605018177E+01  0.77610767583E+02  0.78933776701E+02  0.10566000000E+00 0. -1.
        994    1    1    2    0    0 -0.12995947058E+03 -0.45590989152E+01  0.57670327052E+02  0.22258831056E+03  0.17120000000E+03 0.  0.
        998    1    1    2    0    0  0.11579816676E+03  0.71196007329E+01  0.13647189016E+04  0.13696779127E+04  0.10000000000E+02 0. -1.
</event>
<event>
 5    1  0.5525569E-010  0.3876911E+03  0.7957747E-01  0.3418338E+00
         13   -1    0    0    0    0  0.00000000000E+00  0.00000000000E+00  0.14999999963E+04  0.15000000000E+04  0.10566000000E+00 0. -1.
        994   -1    0    0    0    0 -0.00000000000E+00 -0.00000000000E+00  0.11368683772E-12  0.17120000000E+03  0.17120000000E+03 0.  0.
         13    1    1    2    0    0 -0.80658021900E+02 -0.22167326645E+03  0.96137522085E+03  0.98989245880E+03  0.10566000000E+00 0. -1.
        994    1    1    2    0    0  0.10201424592E+03  0.27049181354E+03  0.35048521632E+03  0.48551215682E+03  0.17120000000E+03 0.  0.
        998    1    1    2    0    0 -0.21356224021E+02 -0.48818547084E+02  0.18813955911E+03  0.19579538438E+03  0.10000000000E+02 0.  1.
</event>
<event>
 5    1  0.5525569E-010  0.3542308E+03  0.7957747E-01  0.3571658E+00
         13   -1    0    0    0    0  0.00000000000E+00  0.00000000000E+00  0.14999999963E+04  0.15000000000E+04  0.10566000000E+00 0.  1.
        994   -1    0    0    0    0 -0.00000000000E+00 -0.00000000000E+00  0.11368683772E-12  0.17120000000E+03  0.17120000000E+03 0.  0.
         13    1    1    2    0    0  0.24804665623E+03 -0.39645174762E+02  0.11503272108E+04  0.11774343237E+04  0.10566000000E+00 0.  1.
        994    1    1    2    0    0 -0.21882201858E+03  0.87727820727E+02  0.29686771260E+03  0.41595567688E+03  0.17120000000E+03 0.  0.
        998    1    1    2    0    0 -0.29224637647E+02 -0.48082645964E+02  0.52805072883E+02  0.77809999426E+02  0.10000000000E+02 0. -1.
</event>
<event>
 5    1  0.5525569E-010  0.3867694E+03  0.7957747E-01  0.3422202E+00
         13   -1    0    0    0    0  0.00000000000E+00  0.00000000000E+00  0.14999999963E+04  0.15000000000E+04  0.10566000000E+00 0.  1.
        994   -1    0    0    0    0 -0.00000000000E+00 -0.00000000000E+00  0.11368683772E-12  0.17120000000E+03  0.17120000000E+03 0.  0.
         13    1    1    2    0    0 -0.23091953935E+03  0.98465685303E+02  0.11287453182E+04  0.11563240590E+04  0.10566000000E+00 0.  1.
        994    1    1    2    0    0  0.24690839148E+03 -0.11170185889E+03  0.29649350484E+03  0.43664504747E+03  0.17120000000E+03 0.  0.
        998    1    1    2    0    0 -0.15988852134E+02  0.13236173586E+02  0.74761173259E+02  0.78230893583E+02  0.10000000000E+02 0.  0.
</event>
<event>
 5    1  0.5525569E-010  0.3876792E+03  0.7957747E-01  0.3418388E+00
         13   -1    0    0    0    0  0.00000000000E+00  0.00000000000E+00  0.14999999963E+04  0.15000000000E+04  0.10566000000E+00 0.  1.
        994   -1    0    0    0    0 -0.00000000000E+00 -0.00000000000E+00  0.11368683772E-12  0.17120000000E+03  0.17120000000E+03 0.  0.
         13    1    1    2    0    0  0.32318259613E+02  0.22030636814E+00  0.16879769092E+03  0.17186387073E+03  0.10566000000E+00 0.  1.
        994    1    1    2    0    0 -0.18857467788E+03 -0.20718906383E+02  0.12797605564E+03  0.28579187014E+03  0.17120000000E+03 0.  0.
        998    1    1    2    0    0  0.15625641827E+03  0.20498600015E+02  0.12032262497E+04  0.12135442591E+04  0.10000000000E+02 0.  1.
</event>
<event>
 5    1  0.5525569E-010  0.3845310E+03  0.7957747E-01  0.3431664E+00
         13   -1    0    0    0    0  0.00000000000E+00  0.00000000000E+00  0.14999999963E+04  0.15000000000E+04  0.10566000000E+00 0. -1.
        994   -1    0    0    0    0 -0.00000000000E+00 -0.00000000000E+00  0.11368683772E-12  0.17120000000E+03  0.17120000000E+03 0.  0.
         13    1    1    2    0    0  0.10019029690E+02  0.74206344379E+00  0.48886716534E+02  0.49908454510E+02  0.10566000000E+00 0. -1.
        994    1    1    2    0    0  0.94100122725E+02  0.33253940419E+02  0.35389573984E+02  0.20130206059E+03  0.17120000000E+03 0.  0.
        998    1    1    2    0    0 -0.10411915241E+03 -0.33996003863E+02  0.14157237058E+04  0.14199894849E+04  0.10000000000E+02 0. -1.
</event>
<event>
 5    1  0.5525569E-010  0.3300352E+03  0.7957747E-01  0.3702478E+00
         13   -1    0    0    0    0  0.00000000000E+00  0.00000000000E+00  0.14999999963E+04  0.15000000000E+04  0.10566000000E+00 0. -1.
        994   -1    0    0    0    0 -0.00000000000E+00 -0.00000000000E+00  0.11368683772E-12  0.17120000000E+03  0.17120000000E+03 0.  0.
         13    1    1    2    0    0 -0.18832796108E+03 -0.11044786491E+03  0.86286799308E+03  0.89006029932E+03  0.10566000000E+00 0. -1.
        994    1    1    2    0    0  0.23780275016E+03  0.29568108679E+02  0.26232053473E+03  0.39439310843E+03  0.17120000000E+03 0.  0.
        998    1    1    2    0    0 -0.49474789072E+02  0.80879756229E+02  0.37481146847E+03  0.38674659225E+03  0.10000000000E+02 0.  1.
</event>
<event>
 5    1  0.5525569E-010  0.3861997E+03  0.7957747E-01  0.3424600E+00
         13   -1    0    0    0    0  0.00000000000E+00  0.00000000000E+00  0.14999999963E+04  0.15000000000E+04  0.10566000000E+00 0.  1.
        994   -1    0    0    0    0 -0.00000000000E+00 -0.00000000000E+00  0.11368683772E-12  0.17120000000E+03  0.17120000000E+03 0.  0.
         13    1    1    2    0    0  0.20656146933E+03  0.96660189168E+02  0.10765842917E+04  0.11004747071E+04  0.10566000000E+00 0.  1.
        994    1    1    2    0    0 -0.22612498608E+03 -0.10054774616E+03  0.23716704147E+03  0.38314488663E+03  0.17120000000E+03 0.  0.
        998    1    1    2    0    0  0.19563516755E+02  0.38875569931E+01  0.18624866315E+03  0.18758040626E+03  0.10000000000E+02 0. -1.
</event>
<event>
 5    1  0.5525569E-010  0.3846482E+03  0.7957747E-01  0.3431165E+00
         13   -1    0    0    0    0  0.00000000000E+00  0.00000000000E+00  0.14999999963E+04  0.15000000000E+04  0.10566000000E+00 0.  1.
        994   -1    0    0    0    0 -0.00000000000E+00 -0.00000000000E+00  0.11368683772E-12  0.17120000000E+03  0.17120000000E+03 0.  0.
         13    1    1    2    0    0 -0.66359125300E+02  0.23699250017E+03  0.12051214484E+04  0.12299945915E+04  0.10566000000E+00 0.  1.
        994    1    1    2    0    0  0.58922866173E+02 -0.24471936075E+03  0.24975545693E+03  0.39375969569E+03  0.17120000000E+03 0.  0.
        998    1    1    2    0    0  0.74362591278E+01  0.77268605738E+01  0.45123090949E+02  0.47445712777E+02  0.10000000000E+02 0.  1.
</event>
<event>
 5    1  0.5525569E-010  0.3868121E+03  0.7957747E-01  0.3422023E+00
         13   -1    0    0    0    0  0.00000000000E+00  0.00000000000E+00  0.14999999963E+04  0.15000000000E+04  0.10566000000E+00 0. -1.
        994   -1    0    0    0    0 -0.00000000000E+00 -0.00000000000E+00  0.11368683772E-12  0.17120000000E+03  0.17120000000E+03 0.  0.
         13    1    1    2    0    0 -0.17590392756E+03 -0.10959423952E+03  0.11238097880E+04  0.11427604910E+04  0.10566000000E+00 0. -1.
        994    1    1    2    0    0  0.19846329008E+03  0.11289740652E+03  0.19522169212E+03  0.34576646885E+03  0.17120000000E+03 0.  0.
        998    1    1    2    0    0 -0.22559362518E+02 -0.33031669973E+01  0.18096851620E+03  0.18267304017E+03  0.10000000000E+02 0.  1.
</event>
<event>
 5    1  0.5525569E-010  0.3879021E+03  0.7957747E-01  0.3417457E+00
         13   -1    0    0    0    0  0.00000000000E+00  0.00000000000E+00  0.14999999963E+04  0.15000000000E+04  0.10566000000E+00 0.  1.
        994   -1    0    0    0    0 -0.00000000000E+00 -0.00000000000E+00  0.11368683772E-12  0.17120000000E+03  0.17120000000E+03 0.  0.
         13    1    1    2    0    0 -0.10996361957E+03  0.56252885143E+02  0.63570636947E+03  0.64759476841E+03  0.10566000000E+00 0.  1.
        994    1    1    2    0    0  0.22115857551E+03 -0.93492855775E+02  0.21810128770E+03  0.36678282580E+03  0.17120000000E+03 0.  0.
        998    1    1    2    0    0 -0.11119495594E+03  0.37239970631E+02  0.64619233911E+03  0.65682240580E+03  0.10000000000E+02 0.  0.
</event>
<event>
 5    1  0.5525569E-010  0.3878139E+03  0.7957747E-01  0.3417825E+00
         13   -1    0    0    0    0  0.00000000000E+00  0.00000000000E+00  0.14999999963E+04  0.15000000000E+04  0.10566000000E+00 0. -1.
        994   -1    0    0    0    0 -0.00000000000E+00 -0.00000000000E+00  0.11368683772E-12  0.17120000000E+03  0.17120000000E+03 0.  0.
         13    1    1    2    0    0  0.19676175136E+03 -0.62778589390E+01  0.10729563316E+04  0.10908665817E+04  0.10566000000E+00 0. -1.
        994    1    1    2    0    0 -0.23325738217E+03  0.45508432870E+01  0.20390079810E+03  0.35399815250E+03  0.17120000000E+03 0.  0.
        998    1    1    2    0    0  0.36495630813E+02  0.17270156520E+01  0.22314286654E+03  0.22633526578E+03  0.10000000000E+02 0.  0.
</event>
<event>
 5    1  0.5525569E-010  0.3864705E+03  0.7957747E-01  0.3423460E+00
         13   -1    0    0    0    0  0.00000000000E+00  0.00000000000E+00  0.14999999963E+04  0.15000000000E+04  0.10566000000E+00 0.  1.
        994   -1    0    0    0    0 -0.00000000000E+00 -0.00000000000E+00  0.11368683772E-12  0.17120000000E+03  0.17120000000E+03 0.  0.
         13    1    1    2    0    0 -0.26604721775E+02  0.13256449236E+03  0.67880419362E+03  0.69213893135E+03  0.10566000000E+00 0.  1.
        994    1    1    2    0    0  0.34322991737E+01 -0.24424533633E+03  0.22942322041E+03  0.37631372425E+03  0.17120000000E+03 0.  0.
        998    1    1    2    0    0  0.23172422602E+02  0.11168084397E+03  0.59177258225E+03  0.60274734440E+03  0.10000000000E+02 0.  1.
</event>
<event>
 5    1  0.5525569E-010  0.3860618E+03  0.7957747E-01  0.3425181E+00
         13   -1    0    0    0    0  0.00000000000E+00  0.00000000000E+00  0.14999999963E+04  0.15000000000E+04  0.10566000000E+00 0.  1.
        994   -1    0    0    0    0 -0.00000000000E+00 -0.00000000000E+00  0.11368683772E-12  0.17120000000E+03  0.17120000000E+03 0.  0.
         13    1    1    2    0    0  0.88986946087E+02  0.19051748094E+03  0.12262598945E+04  0.12441579189E+04  0.10566000000E+00 0.  1.
        994    1    1    2    0    0 -0.10502305679E+03 -0.20244531837E+03  0.19569689214E+03  0.34586220230E+03  0.17120000000E+03 0.  0.
        998    1    1    2    0    0  0.16036110705E+02  0.11927837428E+02  0.78043209633E+02  0.81179878801E+02  0.10000000000E+02 0. -1.
</event>
<event>
 5    1  0.5525569E-010  0.3870409E+03  0.7957747E-01  0.3421063E+00
         13   -1    0    0    0    0  0.00000000000E+00  0.00000000000E+00  0.14999999963E+04  0.15000000000E+04  0.10566000000E+00 0. -1.
        994   -1    0    0    0    0 -0.00000000000E+00 -0.00000000000E+00  0.11368683772E-12  0.17120000000E+03  0.17120000000E+03 0.  0.
         13    1    1    2    0    0  0.25324277788E+03 -0.10664824880E+03  0.10283817145E+04  0.10644598233E+04  0.10566000000E+00 0. -1.
        994    1    1    2    0    0 -0.27448645910E+03  0.12102004921E+03  0.39179878834E+03  0.52230680551E+03  0.17120000000E+03 0.  0.
        998    1    1    2    0    0  0.21243681215E+02 -0.14371800413E+02  0.79819493420E+02  0.84433371178E+02  0.10000000000E+02 0. -1.
</event>
<event>
 5    1  0.5525569E-010  0.3820296E+03  0.7957747E-01  0.3442368E+00
         13   -1    0    0    0    0  0.00000000000E+00  0.00000000000E+00  0.14999999963E+04  0.15000000000E+04  0.10566000000E+00 0. -1.
        994   -1    0    0    0    0 -0.00000000000E+00 -0.00000000000E+00  0.11368683772E-12  0.17120000000E+03  0.17120000000E+03 0.  0.
         13    1    1    2    0    0 -0.69192017458E+02 -0.10725884316E+03  0.69735216485E+03  0.70893726641E+03  0.10566000000E+00 0. -1.
        994    1    1    2    0    0  0.13038012942E+03  0.11855665003E+03  0.11419737181E+03  0.27093382429E+03  0.17120000000E+03 0.  0.
        998    1    1    2    0    0 -0.61188111967E+02 -0.11297806869E+02  0.68845045962E+03  0.69132890931E+03  0.10000000000E+02 0. -1.
</event>
<event>
 5    1  0.5525569E-010  0.3851822E+03  0.7957747E-01  0.3428900E+00
         13   -1    0    0    0    0  0.00000000000E+00  0.00000000000E+00  0.14999999963E+04  0.15000000000E+04  0.10566000000E+00 0.  1.
        994   -1    0    0    0    0 -0.00000000000E+00 -0.00000000000E+00  0.11368683772E-12  0.17120000000E+03  0.17120000000E+03 0.  0.
         13    1    1    2    0    0  0.93553183581E+01  0.42965475470E+01  0.50163078203E+02  0.51208669981E+02  0.10566000000E+00 0.  1.
        994    1    1    2    0    0  0.53200537880E+02  0.14596473481E+02  0.11607017269E+02  0.18024293916E+03  0.17120000000E+03 0.  0.
        998    1    1    2    0    0 -0.62555856238E+02 -0.18893021028E+02  0.14382299008E+04  0.14397483909E+04  0.10000000000E+02 0.  1.
</event>
<event>
 5    1  0.5525569E-010  0.3819691E+03  0.7957747E-01  0.3442629E+00
         13   -1    0    0    0    0  0.00000000000E+00  0.00000000000E+00  0.14999999963E+04  0.15000000000E+04  0.10566000000E+00 0. -1.
        994   -1    0    0    0    0 -0.00000000000E+00 -0.00000000000E+00  0.11368683772E-12  0.17120000000E+03  0.17120000000E+03 0.  0.
         13    1    1    2    0    0  0.24549018798E+03 -0.51664512110E+02  0.11093191532E+04  0.11373318113E+04  0.10566000000E+00 0. -1.
        994    1    1    2    0    0 -0.26445982624E+03  0.29491477932E+02  0.29229598972E+03  0.43076110847E+03  0.17120000000E+03 0.  0.
        998    1    1    2    0    0  0.18969638261E+02  0.22173034178E+02  0.98384853382E+02  0.10310708024E+03  0.10000000000E+02 0.  1.
</event>
<event>
 5    1  0.5525569E-010  0.3878771E+03  0.7957747E-01  0.3417561E+00
         13   -1    0    0    0    0  0.00000000000E+00  0.00000000000E+00  0.14999999963E+04  0.15000000000E+04  0.10566000000E+00 0.  1.
        994   -1    0    0    0    0 -0.00000000000E+00 -0.00000000000E+00  0.11368683772E-12  0.17120000000E+03  0.17120000000E+03 0.  0.
         13    1    1    2    0    0 -0.78721564034E+02 -0.15674885479E+03  0.92356709205E+03  0.94007631222E+03  0.10566000000E+00 0.  1.
        994    1    1    2    0    0  0.11307152947E+03  0.20870247015E+03  0.21227102369E+03  0.36153882133E+03  0.17120000000E+03 0.  0.
        998    1    1    2    0    0 -0.34349965435E+02 -0.51953615361E+02  0.36416188054E+03  0.36958486645E+03  0.10000000000E+02 0.  0.
</event>
<event>
 5    1  0.5525569E-010  0.3818471E+03  0.7957747E-01  0.3443155E+00
         13   -1    0    0    0    0  0.00000000000E+00  0.00000000000E+00  0.14999999963E+04  0.15000000000E+04  0.10566000000E+00 0.  1.
        994   -1    0    0    0    0 -0.00000000000E+00 -0.00000000000E+00  0.11368683772E-12  0.17120000000E+03  0.17120000000E+03 0.  0.
         13    1    1    2    0    0  0.20270293960E+02  0.39135065339E+02  0.19377303501E+03  0.19872201292E+03  0.10566000000E+00 0.  1.
        994    1    1    2    0    0  0.36560459567E+02 -0.12837486378E+03  0.64856365404E+02  0.22656690179E+03  0.17120000000E+03 0.  0.
        998    1    1    2    0    0 -0.56830753527E+02  0.89239798443E+02  0.12413705959E+04  0.12459110853E+04  0.10000000000E+02 0.  1.
</event>
<event>
 5    1  0.5525569E-010  0.3870414E+03  0.7957747E-01  0.3421060E+00
         13   -1    0    0    0    0  0.00000000000E+00  0.00000000000E+00  0.14999999963E+04  0.15000000000E+04  0.10566000000E+00 0.  1.
        994   -1    0    0    0    0 -0.00000000000E+00 -0.00000000000E+00  0.11368683772E-12  0.17120000000E+03  0.17120000000E+03 0.  0.
         13    1    1    2    0    0 -0.18580034073E+02  0.11019651092E+02  0.12999279110E+03  0.13177551851E+03  0.10566000000E+00 0.  1.
        994    1    1    2    0    0  0.12390433732E+03 -0.17679087566E+02  0.53578986390E+02  0.21873496000E+03  0.17120000000E+03 0.  0.
        998    1    1    2    0    0 -0.10532430325E+03  0.66594364744E+01  0.13164282188E+04  0.13206895215E+04  0.10000000000E+02 0.  1.
</event>
<event>
 5    1  0.5525569E-010  0.3693770E+03  0.7957747E-01  0.3498759E+00
         13   -1    0    0    0    0  0.00000000000E+00  0.00000000000E+00  0.14999999963E+04  0.15000000000E+04  0.10566000000E+00 0. -1.
        994   -1    0    0    0    0 -0.00000000000E+00 -0.00000000000E+00  0.11368683772E-12  0.17120000000E+03  0.17120000000E+03 0.  0.
         13    1    1    2    0    0  0.65605548307E+02  0.38682418205E+02  0.20598360662E+03  0.21961255612E+03  0.10566000000E+00 0. -1.
        994    1    1    2    0    0 -0.21335758080E+02 -0.17956369543E+03  0.13518534251E+03  0.28334228791E+03  0.17120000000E+03 0.  0.
        998    1    1    2    0    0 -0.44269790227E+02  0.14088127722E+03  0.11588310472E+04  0.11682451560E+04  0.10000000000E+02 0. -1.
</event>
<event>
 5    1  0.5525569E-010  0.3827342E+03  0.7957747E-01  0.3439339E+00
         13   -1    0    0    0    0  0.00000000000E+00  0.00000000000E+00  0.14999999963E+04  0.15000000000E+04  0.10566000000E+00 0. -1.
        994   -1    0    0    0    0 -0.00000000000E+00 -0.00000000000E+00  0.11368683772E-12  0.17120000000E+03  0.17120000000E+03 0.  0.
         13    1    1    2    0    0 -0.15186263772E+02  0.44184170658E+01  0.79043575084E+02  0.80610439416E+02  0.10566000000E+00 0. -1.
        994    1    1    2    0    0 -0.54856400183E+02  0.90232747880E+02  0.40625984484E+02  0.20520985368E+03  0.17120000000E+03 0.  0.
        998    1    1    2    0    0  0.70042663955E+02 -0.94651164946E+02  0.13803304367E+04  0.13853797069E+04  0.10000000000E+02 0. -1.
</event>
<event>
 5    1  0.5525569E-010  0.3766799E+03  0.7957747E-01  0.3465743E+00
         13   -1    0    0    0    0  0.00000000000E+00  0.00000000000E+00  0.14999999963E+04  0.15000000000E+04  0.10566000000E+00 0. -1.
        994   -1    0    0    0    0 -0.00000000000E+00 -0.00000000000E+00  0.11368683772E-12  0.17120000000E+03  0.17120000000E+03 0.  0.
         13    1    1    2    0    0 -0.39789589025E+02 -0.96283068885E+02  0.47664481513E+03  0.48789746024E+03  0.10566000000E+00 0. -1.
        994    1    1    2    0    0  0.19490301972E+03  0.11457880251E+03  0.20452785577E+03  0.34965207402E+03  0.17120000000E+03 0.  0.
        998    1    1    2    0    0 -0.15511343069E+03 -0.18295733630E+02  0.81882732538E+03  0.83365046574E+03  0.10000000000E+02 0. -1.
</event>
<event>
 5    1  0.5525569E-010  0.3850790E+03  0.7957747E-01  0.3429337E+00
         13   -1    0    0    0    0  0.00000000000E+00  0.00000000000E+00  0.14999999963E+04  0.15000000000E+04  0.10566000000E+00 0. -1.
        994   -1    0    0    0    0 -0.00000000000E+00 -0.00000000000E+00  0.11368683772E-12  0.17120000000E+03  0.17120000000E+03 0.  0.
         13    1    1    2    0    0  0.25759341977E+02 -0.49814762891E+02  0.33917961046E+03  0.34378463261E+03  0.10566000000E+00 0. -1.
        994    1    1    2    0    0  0.24663303213E+03  0.24645656921E+02  0.30417286333E+03  0.42809558714E+03  0.17120000000E+03 0.  0.
        998    1    1    2    0    0 -0.27239237411E+03  0.25169105969E+02  0.85664752249E+03  0.89931978025E+03  0.10000000000E+02 0. -1.
</event>
<event>
 5    1  0.5525569E-010  0.3843536E+03  0.7957747E-01  0.3432418E+00
         13   -1    0    0    0    0  0.00000000000E+00  0.00000000000E+00  0.14999999963E+04  0.15000000000E+04  0.10566000000E+00 0. -1.
        994   -1    0    0    0    0 -0.00000000000E+00 -0.00000000000E+00  0.11368683772E-12  0.17120000000E+03  0.17120000000E+03 0.  0.
         13    1    1    2    0    0 -0.54271836574E+02 -0.36385427925E+02  0.30441422509E+03  0.31134765650E+03  0.10566000000E+00 0. -1.
        994    1    1    2    0    0  0.10862313504E+03  0.13271467773E+03  0.10578716144E+03  0.26440978552E+03  0.17120000000E+03 0.  0.
        998    1    1    2    0    0 -0.54351298463E+02 -0.96329249810E+02  0.10897986098E+04  0.10954425580E+04  0.10000000000E+02 0. -1.
</event>
<event>
 5    1  0.5525569E-010  0.3874132E+03  0.7957747E-01  0.3419502E+00
         13   -1    0    0    0    0  0.00000000000E+00  0.00000000000E+00  0.14999999963E+04  0.15000000000E+04  0.10566000000E+00 0. -1.
        994   -1    0    0    0    0 -0.00000000000E+00 -0.00000000000E+00  0.11368683772E-12  0.17120000000E+03  0.17120000000E+03 0.  0.
         13    1    1    2    0    0 -0.54499491509E+02  0.15624183687E+02  0.33385831707E+03  0.33863800249E+03  0.10566000000E+00 0. -1.
        994    1    1    2    0    0  0.16535037003E+03 -0.74238484472E+02  0.11612838051E+03  0.27504061192E+03  0.17120000000E+03 0.  0.
        998    1    1    2    0    0 -0.11085087852E+03  0.58614300785E+02  0.10500132987E+04  0.10575213856E+04  0.10000000000E+02 0. -1.
</event>
<event>
 5    1  0.5525569E-010  0.3832323E+03  0.7957747E-01  0.3437204E+00
         13   -1    0    0    0    0  0.00000000000E+00  0.00000000000E+00  0.14999999963E+04  0.15000000000E+04  0.10566000000E+00 0.  1.
        994   -1    0    0    0    0 -0.00000000000E+00 -0.00000000000E+00  0.11368683772E-12  0.17120000000E+03  0.17120000000E+03 0.  0.
         13    1    1    2    0    0  0.16031700368E+01  0.15007824774E+02  0.38960674658E+02  0.41782176732E+02  0.10566000000E+00 0.  1.
        994    1    1    2    0    0 -0.79939948204E+02 -0.36944867810E+02  0.28599209358E+02  0.19463471775E+03  0.17120000000E+03 0.  0.
        998    1    1    2    0    0  0.78336778168E+02  0.21937043036E+02  0.14324401123E+04  0.14347831055E+04  0.10000000000E+02 0.  1.
</event>
<event>
 5    1  0.5525569E-010  0.3872483E+03  0.7957747E-01  0.3420193E+00
         13   -1    0    0    0    0  0.00000000000E+00  0.00000000000E+00  0.14999999963E+04  0.15000000000E+04  0.10566000000E+00 0.  1.
        994   -1    0    0    0    0 -0.00000000000E+00 -0.00000000000E+00  0.11368683772E-12  0.17120000000E+03  0.17120000000E+03 0.  0.
         13    1    1    2    0    0 -0.11250949460E+02  0.42526684981E+01  0.66606144254E+02  0.67683518448E+02  0.10566000000E+00 0.  1.
        994    1    1    2    0    0  0.78551370441E+02 -0.48822499106E+02  0.28959016081E+02  0.19672828681E+03  0.17120000000E+03 0.  0.
        998    1    1    2    0    0 -0.67300420980E+02  0.44569830608E+02  0.14044348359E+04  0.14067881947E+04  0.10000000000E+02 0.  1.
</event>
<event>
 5    1  0.5525569E-010  0.3866254E+03  0.7957747E-01  0.3422808E+00
         13   -1    0    0    0    0  0.00000000000E+00  0.00000000000E+00  0.14999999963E+04  0.15000000000E+04  0.10566000000E+00 0.  1.
        994   -1    0    0    0    0 -0.00000000000E+00 -0.00000000000E+00  0.11368683772E-12  0.17120000000E+03  0.17120000000E+03 0.  0.
         13    1    1    2    0    0 -0.12269942401E+03  0.25419504830E+03  0.99115777604E+03  0.10305649030E+04  0.10566000000E+00 0.  1.
        994    1    1    2    0    0  0.12325203688E+03 -0.27844790406E+03  0.41132745958E+03  0.53965175704E+03  0.17120000000E+03 0.  0.
        998    1    1    2    0    0 -0.55261287190E+00  0.24252855753E+02  0.97514760659E+02  0.10098333991E+03  0.10000000000E+02 0. -1.
</event>
<event>
 5    1  0.5525569E-010  0.3844237E+03  0.7957747E-01  0.3432120E+00
         13   -1    0    0    0    0  0.00000000000E+00  0.00000000000E+00  0.14999999963E+04  0.15000000000E+04  0.10566000000E+00 0.  1.
        994   -1    0    0    0    0 -0.00000000000E+00 -0.00000000000E+00  0.11368683772E-12  0.17120000000E+03  0.17120000000E+03 0.  0.
         13    1    1    2    0    0 -0.25622660370E+02 -0.77667718780E+01  0.14321029050E+03  0.14569159872E+03  0.10566000000E+00 0.  1.
        994    1    1    2    0    0  0.35402085747E+02  0.11472100857E+03  0.50947966306E+02  0.21521931315E+03  0.17120000000E+03 0.  0.
        998    1    1    2    0    0 -0.97794253776E+01 -0.10695423669E+03  0.13058417395E+04  0.13102890881E+04  0.10000000000E+02 0.  1.
</event>
<event>
 5    1  0.5525569E-010  0.3848580E+03  0.7957747E-01  0.3430274E+00
         13   -1    0    0    0    0  0.00000000000E+00  0.00000000000E+00  0.14999999963E+04  0.15000000000E+04  0.10566000000E+00 0.  1.
        994   -1    0    0    0    0 -0.00000000000E+00 -0.00000000000E+00  0.11368683772E-12  0.17120000000E+03  0.17120000000E+03 0.  0.
         13    1    1    2    0    0 -0.13720301562E+02  0.54127278687E+01  0.44719699429E+02  0.47089351015E+02  0.10566000000E+00 0.  1.
        994    1    1    2    0    0  0.77564669250E+02 -0.24631219813E+02  0.23803636273E+02  0.19104718790E+03  0.17120000000E+03 0.  0.
        998    1    1    2    0    0 -0.63844367689E+02  0.19218491944E+02  0.14314766606E+04  0.14330634611E+04  0.10000000000E+02 0.  1.
</event>
<event>
 5    1  0.5525569E-010  0.3858331E+03  0.7957747E-01  0.3426146E+00
         13   -1    0    0    0    0  0.00000000000E+00  0.00000000000E+00  0.14999999963E+04  0.15000000000E+04  0.10566000000E+00 0.  1.
        994   -1    0    0    0    0 -0.00000000000E+00 -0.00000000000E+00  0.11368683772E-12  0.17120000000E+03  0.17120000000E+03 0.  0.
         13    1    1    2    0    0  0.16982138422E+03  0.25509988997E+03  0.85667030514E+03  0.90983475382E+03  0.10566000000E+00 0.  1.
        994    1    1    2    0    0 -0.17487919496E+03 -0.27728813005E+03  0.53611393414E+03  0.65130563507E+03  0.17120000000E+03 0.  0.
        998    1    1    2    0    0  0.50578107364E+01  0.22188240079E+02  0.10721575701E+03  0.11005961111E+03  0.10000000000E+02 0.  1.
</event>
<event>
 5    1  0.5525569E-010  0.3857352E+03  0.7957747E-01  0.3426560E+00
         13   -1    0    0    0    0  0.00000000000E+00  0.00000000000E+00  0.14999999963E+04  0.15000000000E+04  0.10566000000E+00 0.  1.
        994   -1    0    0    0    0 -0.00000000000E+00 -0.00000000000E+00  0.11368683772E-12  0.17120000000E+03  0.17120000000E+03 0.  0.
         13    1    1    2    0    0 -0.37807106814E+01 -0.15029086402E+02  0.62662600613E+02  0.64550599462E+02  0.10566000000E+00 0.  1.
        994    1    1    2    0    0 -0.40736478279E+02  0.92183428457E+02  0.35329726380E+02  0.20177927225E+03  0.17120000000E+03 0.  0.
        998    1    1    2    0    0  0.44517188960E+02 -0.77154342055E+02  0.14020076693E+04  0.14048701283E+04  0.10000000000E+02 0.  1.
</event>
<event>
 5    1  0.5525569E-010  0.3864353E+03  0.7957747E-01  0.3423608E+00
         13   -1    0    0    0    0  0.00000000000E+00  0.00000000000E+00  0.14999999963E+04  0.15000000000E+04  0.10566000000E+00 0. -1.
        994   -1    0    0    0    0 -0.00000000000E+00 -0.00000000000E+00  0.11368683772E-12  0.17120000000E+03  0.17120000000E+03 0.  0.
         13    1    1    2    0    0  0.90622447075E+02  0.10163920508E+02  0.51997848336E+03  0.52791416680E+03  0.10566000000E+00 0. -1.
        994    1    1    2    0    0 -0.18081611517E+03  0.16157254551E-01  0.11643281391E+03  0.27488271666E+03  0.17120000000E+03 0.  0.
        998    1    1    2    0    0  0.90193668090E+02 -0.10180077762E+02  0.86358869901E+03  0.86840311653E+03  0.10000000000E+02 0. -1.
</event>
<event>
 5    1  0.5525569E-010  0.3874836E+03  0.7957747E-01  0.3419207E+00
         13   -1    0    0    0    0  0.00000000000E+00  0.00000000000E+00  0.14999999963E+04  0.15000000000E+04  0.10566000000E+00 0.  1.
        994   -1    0    0    0    0 -0.00000000000E+00 -0.00000000000E+00  0.11368683772E-12  0.17120000000E+03  0.17120000000E+03 0.  0.
         13    1    1    2    0    0  0.57906621020E+01 -0.15402505268E+03  0.81448729088E+03  0.82894318671E+03  0.10566000000E+00 0.  1.
        994    1    1    2    0    0 -0.21718076528E+02  0.25416721476E+03  0.25323625172E+03  0.39813400645E+03  0.17120000000E+03 0.  0.
        998    1    1    2    0    0  0.15927414426E+02 -0.10014216207E+03  0.43227645367E+03  0.44412280684E+03  0.10000000000E+02 0.  0.
</event>
<event>
 5    1  0.5525569E-010  0.3741616E+03  0.7957747E-01  0.3476981E+00
         13   -1    0    0    0    0  0.00000000000E+00  0.00000000000E+00  0.14999999963E+04  0.15000000000E+04  0.10566000000E+00 0. -1.
        994   -1    0    0    0    0 -0.00000000000E+00 -0.00000000000E+00  0.11368683772E-12  0.17120000000E+03  0.17120000000E+03 0.  0.
         13    1    1    2    0    0  0.72493353814E+02 -0.18857486361E+02  0.17763649261E+03  0.19278388369E+03  0.10566000000E+00 0. -1.
        994    1    1    2    0    0 -0.20740212738E+03 -0.35292154006E+02  0.17713743317E+03  0.32395723299E+03  0.17120000000E+03 0.  0.
        998    1    1    2    0    0  0.13490877357E+03  0.54149640367E+02  0.11452260705E+04  0.11544588833E+04  0.10000000000E+02 0. -1.
</event>
<event>
 5    1  0.5525569E-010  0.3878444E+03  0.7957747E-01  0.3417698E+00
         13   -1    0    0    0    0  0.00000000000E+00  0.00000000000E+00  0.14999999963E+04  0.15000000000E+04  0.10566000000E+00 0.  1.
        994   -1    0    0    0    0 -0.00000000000E+00 -0.00000000000E+00  0.11368683772E-12  0.17120000000E+03  0.17120000000E+03 0.  0.
         13    1    1    2    0    0  0.69398338036E+02 -0.83403474595E+02  0.60382351970E+03  0.61349419150E+03  0.10566000000E+00 0.  1.
        994    1    1    2    0    0 -0.14956930493E+03  0.15884735313E+03  0.17461094534E+03  0.32772226169E+03  0.17120000000E+03 0.  0.
        998    1    1    2    0    0  0.80170966896E+02 -0.75443878540E+02  0.72156553123E+03  0.72998354680E+03  0.10000000000E+02 0. -1.
</event>
<event>
 5    1  0.5525569E-010  0.3821695E+03  0.7957747E-01  0.3441766E+00
         13   -1    0    0    0    0  0.00000000000E+00  0.00000000000E+00  0.14999999963E+04  0.15000000000E+04  0.10566000000E+00 0.  1.
        994   -1    0    0    0    0 -0.00000000000E+00 -0.00000000000E+00  0.11368683772E-12  0.17120000000E+03  0.17120000000E+03 0.  0.
         13    1    1    2    0    0  0.61860163260E+01 -0.10273273823E+02  0.40620812474E+02  0.42354085082E+02  0.10566000000E+00 0.  1.
        994    1    1    2    0    0  0.50214384796E+02 -0.12397942763E+03  0.64896645936E+02  0.22674522612E+03  0.17120000000E+03 0.  0.
        998    1    1    2    0    0 -0.56400401122E+02  0.13425270146E+03  0.13944825379E+04  0.14021006888E+04  0.10000000000E+02 0.  1.
</event>
<event>
 5    1  0.5525569E-010  0.3869532E+03  0.7957747E-01  0.3421431E+00
         13   -1    0    0    0    0  0.00000000000E+00  0.00000000000E+00  0.14999999963E+04  0.15000000000E+04  0.10566000000E+00 0.  1.
        994   -1    0    0    0    0 -0.00000000000E+00 -0.00000000000E+00  0.11368683772E-12  0.17120000000E+03  0.17120000000E+03 0.  0.
         13    1    1    2    0    0  0.25061567757E+02 -0.20578889081E+03  0.11959213736E+04  0.12137566036E+04  0.10566000000E+00 0.  1.
        994    1    1    2    0    0 -0.23278491865E+02  0.23045860002E+03  0.20166644168E+03  0.35161320824E+03  0.17120000000E+03 0.  0.
        998    1    1    2    0    0 -0.17830758919E+01 -0.24669709208E+02  0.10241218102E+03  0.10583018819E+03  0.10000000000E+02 0.  1.
</event>
<event>
 5    1  0.5525569E-010  0.3780166E+03  0.7957747E-01  0.3459841E+00
         13   -1    0    0    0    0  0.00000000000E+00  0.00000000000E+00  0.14999999963E+04  0.15000000000E+04  0.10566000000E+00 0. -1.
        994   -1    0    0    0    0 -0.00000000000E+00 -0.00000000000E+00  0.11368683772E-12  0.17120000000E+03  0.17120000000E+03 0.  0.
         13    1    1    2    0    0 -0.44324922685E+02  0.44002400884E+02  0.35899290051E+03  0.36438554284E+03  0.10566000000E+00 0. -1.
        994    1    1    2    0    0  0.11918842128E+03  0.28113014024E+02  0.57383756096E+02  0.21817093480E+03  0.17120000000E+03 0.  0.
        998    1    1    2    0    0 -0.74863498599E+02 -0.72115414909E+02  0.10836233397E+04  0.10886435224E+04  0.10000000000E+02 0. -1.
</event>
<event>
 5    1  0.5525569E-010  0.3873156E+03  0.7957747E-01  0.3419911E+00
         13   -1    0    0    0    0  0.00000000000E+00  0.00000000000E+00  0.14999999963E+04  0.15000000000E+04  0.10566000000E+00 0.  1.
        994   -1    0    0    0    0 -0.00000000000E+00 -0.00000000000E+00  0.11368683772E-12  0.17120000000E+03  0.17120000000E+03 0.  0.
         13    1    1    2    0    0  0.67050959805E+02  0.25267551837E+03  0.10659636886E+04  0.10975515229E+04  0.10566000000E+00 0.  1.
        994    1    1    2    0    0 -0.72723093620E+02 -0.27209171567E+03  0.32709445562E+03  0.46435199255E+03  0.17120000000E+03 0.  0.
        998    1    1    2    0    0  0.56721338145E+01  0.19416197305E+02  0.10694185202E+03  0.10929648455E+03  0.10000000000E+02 0. -1.
</event>
<event>
 5    1  0.5525569E-010  0.3854381E+03  0.7957747E-01  0.3427816E+00
         13   -1    0    0    0    0  0.00000000000E+00  0.00000000000E+00  0.14999999963E+04  0.15000000000E+04  0.10566000000E+00 0. -1.
        994   -1    0    0    0    0 -0.00000000000E+00 -0.00000000000E+00  0.11368683772E-12  0.17120000000E+03  0.17120000000E+03 0.  0.
         13    1    1    2    0    0 -0.20721577291E+01  0.19629493461E+02  0.88521140559E+02  0.90695172645E+02  0.10566000000E+00 0. -1.
        994    1    1    2    0    0  0.28086052810E+02 -0.71751787343E+02  0.21159149766E+02  0.18892933856E+03  0.17120000000E+03 0.  0.
        998    1    1    2    0    0 -0.26013895081E+02  0.52122293882E+02  0.13903197060E+04  0.13915754888E+04  0.10000000000E+02 0. -1.
</event>
<event>
 5    1  0.5525569E-010  0.3704806E+03  0.7957747E-01  0.3493685E+00
         13   -1    0    0    0    0  0.00000000000E+00  0.00000000000E+00  0.14999999963E+04  0.15000000000E+04  0.10566000000E+00 0.  1.
        994   -1    0    0    0    0 -0.00000000000E+00 -0.00000000000E+00  0.11368683772E-12  0.17120000000E+03  0.17120000000E+03 0.  0.
         13    1    1    2    0    0 -0.25815888289E+03 -0.10036073181E+03  0.10282174067E+04  0.10648705705E+04  0.10566000000E+00 0.  1.
        994    1    1    2    0    0  0.26422933351E+03  0.13502088100E+03  0.40748868110E+03  0.53235725244E+03  0.17120000000E+03 0.  0.
        998    1    1    2    0    0 -0.60704506138E+01 -0.34660149197E+02  0.64293908445E+02  0.73972177041E+02  0.10000000000E+02 0.  1.
</event>
<event>
 5    1  0.5525569E-010  0.3726706E+03  0.7957747E-01  0.3483707E+00
         13   -1    0    0    0    0  0.00000000000E+00  0.00000000000E+00  0.14999999963E+04  0.15000000000E+04  0.10566000000E+00 0.  1.
        994   -1    0    0    0    0 -0.00000000000E+00 -0.00000000000E+00  0.11368683772E-12  0.17120000000E+03  0.17120000000E+03 0.  0.
         13    1    1    2    0    0 -0.25606619608E+02  0.50359536705E+02  0.32059536883E+03  0.32553522634E+03  0.10566000000E+00 0.  1.
        994    1    1    2    0    0  0.12903126149E+03  0.56837727616E+02  0.79392064249E+02  0.23556768367E+03  0.17120000000E+03 0.  0.
        998    1    1    2    0    0 -0.10342464188E+03 -0.10719726432E+03  0.11000125632E+04  0.11100970900E+04  0.10000000000E+02 0.  1.
</event>
<event>
 5    1  0.5525569E-010  0.3810288E+03  0.7957747E-01  0.3446691E+00
         13   -1    0    0    0    0  0.00000000000E+00  0.00000000000E+00  0.14999999963E+04  0.15000000000E+04  0.10566000000E+00 0. -1.
        994   -1    0    0    0    0 -0.00000000000E+00 -0.00000000000E+00  0.11368683772E-12  0.17120000000E+03  0.17120000000E+03 0.  0.
         13    1    1    2    0    0 -0.56768453458E+01 -0.12928578339E+02  0.40046597591E+02  0.42463111681E+02  0.10566000000E+00 0. -1.
        994    1    1    2    0    0  0.14271497351E+03 -0.15669854901E+03  0.17153382593E+03  0.32195541984E+03  0.17120000000E+03 0.  0.
        998    1    1    2    0    0 -0.13703812816E+03  0.16962712735E+03  0.12884195728E+04  0.13067814685E+04  0.10000000000E+02 0. -1.
</event>
<event>
 5    1  0.5525569E-010  0.3876941E+03  0.7957747E-01  0.3418326E+00
         13   -1    0    0    0    0  0.00000000000E+00  0.00000000000E+00  0.14999999963E+04  0.15000000000E+04  0.10566000000E+00 0.  1.
        994   -1    0    0    0    0 -0.00000000000E+00 -0.00000000000E+00  0.11368683772E-12  0.17120000000E+03  0.17120000000E+03 0.  0.
         13    1    1    2    0    0  0.64511710430E+02  0.15670513839E+03  0.99263954807E+03  0.10070012635E+04  0.10566000000E+00 0.  1.
        994    1    1    2    0    0 -0.92477176280E+02 -0.19790919616E+03  0.17528115392E+03  0.32825752235E+03  0.17120000000E+03 0.  0.
        998    1    1    2    0    0  0.27965465849E+02  0.41204057766E+02  0.33207929428E+03  0.33594121413E+03  0.10000000000E+02 0.  0.
</event>
<event>
 5    1  0.5525569E-010  0.3854955E+03  0.7957747E-01  0.3427573E+00
         13   -1    0    0    0    0  0.00000000000E+00  0.00000000000E+00  0.14999999963E+04  0.15000000000E+04  0.10566000000E+00 0. -1.
        994   -1    0    0    0    0 -0.00000000000E+00 -0.00000000000E+00  0.11368683772E-12  0.17120000000E+03  0.17120000000E+03 0.  0.
         13    1    1    2    0    0 -0.14863078361E+02 -0.33272476144E+01  0.87016118177E+02  0.88339106072E+02  0.10566000000E+00 0. -1.
        994    1    1    2    0    0  0.21424449632E+02  0.16991332090E+03  0.10446585396E+03  0.26372731809E+03  0.17120000000E+03 0.  0.
        998    1    1    2    0    0 -0.65613712705E+01 -0.16658607329E+03  0.13085180241E+04  0.13191335758E+04  0.10000000000E+02 0. -1.
</event>
<event>
 5    1  0.5525569E-010  0.3832016E+03  0.7957747E-01  0.3437335E+00
         13   -1    0    0    0    0  0.00000000000E+00  0.00000000000E+00  0.14999999963E+04  0.15000000000E+04  0.10566000000E+00 0.  1.
        994   -1    0    0    0    0 -0.00000000000E+00 -0.00000000000E+00  0.11368683772E-12  0.17120000000E+03  0.17120000000E+03 0.  0.
         13    1    1    2    0    0  0.30601235593E+02  0.11028920811E+03  0.44533205311E+03  0.45980516932E+03  0.10566000000E+00 0.  1.
        994    1    1    2    0    0 -0.11705457027E+03 -0.20299899967E+03  0.21251920803E+03  0.35970018081E+03  0.17120000000E+03 0.  0.
        998    1    1    2    0    0  0.86453334675E+02  0.92709791562E+02  0.84214873514E+03  0.85169464987E+03  0.10000000000E+02 0.  1.
</event>
<event>
 5    1  0.5525569E-010  0.3867580E+03  0.7957747E-01  0.3422250E+00
         13   -1    0    0    0    0  0.00000000000E+00  0.00000000000E+00  0.14999999963E+04  0.15000000000E+04  0.10566000000E+00 0. -1.
        994   -1    0    0    0    0 -0.00000000000E+00 -0.00000000000E+00  0.11368683772E-12  0.17120000000E+03  0.17120000000E+03 0.  0.
         13    1    1    2    0    0  0.56066986534E+02 -0.13910973481E+02  0.31141752183E+03  0.31673002104E+03  0.10566000000E+00 0. -1.
        994    1    1    2    0    0 -0.17182875439E+03  0.25465253503E+02  0.10654124168E+03  0.26614671922E+03  0.17120000000E+03 0.  0.
        998    1    1    2    0    0  0.11576176786E+03 -0.11554280021E+02  0.10820412328E+04  0.10883232597E+04  0.10000000000E+02 0. -1.
</event>
<event>
 5    1  0.5525569E-010  0.3877052E+03  0.7957747E-01  0.3418280E+00
         13   -1    0    0    0    0  0.00000000000E+00  0.00000000000E+00  0.14999999963E+04  0.15000000000E+04  0.10566000000E+00 0. -1.
        994   -1    0    0    0    0 -0.00000000000E+00 -0.00000000000E+00  0.11368683772E-12  0.17120000000E+03  0.17120000000E+03 0.  0.
         13    1    1    2    0    0  0.13068375642E+03 -0.99671262386E+02  0.45081861359E+03  0.47984376443E+03  0.10566000000E+00 0. -1.
        994    1    1    2    0    0 -0.28282910648E+03  0.18388408739E+03  0.59681789065E+03  0.70661637093E+03  0.17120000000E+03 0.  0.
        998    1    1    2    0    0  0.15214535006E+03 -0.84212825007E+02  0.45236349204E+03  0.48473986464E+03  0.10000000000E+02 0.  1.
</event>
<event>
 5    1  0.5525569E-010  0.3678509E+03  0.7957747E-01  0.3505827E+00
         13   -1    0    0    0    0  0.00000000000E+00  0.00000000000E+00  0.14999999963E+04  0.15000000000E+04  0.10566000000E+00 0.  1.
        994   -1    0    0    0    0 -0.00000000000E+00 -0.00000000000E+00  0.11368683772E-12  0.17120000000E+03  0.17120000000E+03 0.  0.
         13    1    1    2    0    0  0.14996185833E+03 -0.13954259364E+03  0.12006733794E+04  0.12180218674E+04  0.10566000000E+00 0.  1.
        994    1    1    2    0    0 -0.15941695294E+03  0.17838866442E+03  0.23383394731E+03  0.37579786508E+03  0.17120000000E+03 0.  0.
        998    1    1    2    0    0  0.94550946105E+01 -0.38846070781E+02  0.65492669558E+02  0.77380267479E+02  0.10000000000E+02 0.  1.
</event>
<event>
 5    1  0.5525569E-010  0.3879041E+03  0.7957747E-01  0.3417448E+00
         13   -1    0    0    0    0  0.00000000000E+00  0.00000000000E+00  0.14999999963E+04  0.15000000000E+04  0.10566000000E+00 0.  1.
        994   -1    0    0    0    0 -0.00000000000E+00 -0.00000000000E+00  0.11368683772E-12  0.17120000000E+03  0.17120000000E+03 0.  0.
         13    1    1    2    0    0  0.17140007872E+03  0.27743320941E+02  0.55386208374E+03  0.58044026206E+03  0.10566000000E+00 0.  1.
        994    1    1    2    0    0 -0.30819565695E+03 -0.51873079204E+02  0.44209898084E+03  0.56783477189E+03  0.17120000000E+03 0.  0.
        998    1    1    2    0    0  0.13679557823E+03  0.24129758263E+02  0.50403893170E+03  0.52292496605E+03  0.10000000000E+02 0.  1.
</event>
<event>
 5    1  0.5525569E-010  0.3783595E+03  0.7957747E-01  0.3458333E+00
         13   -1    0    0    0    0  0.00000000000E+00  0.00000000000E+00  0.14999999963E+04  0.15000000000E+04  0.10566000000E+00 0.  1.
        994   -1    0    0    0    0 -0.00000000000E+00 -0.00000000000E+00  0.11368683772E-12  0.17120000000E+03  0.17120000000E+03 0.  0.
         13    1    1    2    0    0  0.51675643101E+02 -0.47840606025E+02  0.41731223657E+03  0.42321225128E+03  0.10566000000E+00 0.  1.
        994    1    1    2    0    0  0.61472775110E+01  0.12486070388E+03  0.59428070924E+02  0.22015703488E+03  0.17120000000E+03 0.  0.
        998    1    1    2    0    0 -0.57822920612E+02 -0.77020097858E+02  0.10232596888E+04  0.10278307138E+04  0.10000000000E+02 0.  1.
</event>
<event>
 5    1  0.5525569E-010  0.3874872E+03  0.7957747E-01  0.3419192E+00
         13   -1    0    0    0    0  0.00000000000E+00  0.00000000000E+00  0.14999999963E+04  0.15000000000E+04  0.10566000000E+00 0.  1.
        994   -1    0    0    0    0 -0.00000000000E+00 -0.00000000000E+00  0.11368683772E-12  0.17120000000E+03  0.17120000000E+03 0.  0.
         13    1    1    2    0    0  0.94304946033E+02  0.96489591992E+02  0.36202184852E+03  0.38634633967E+03  0.10566000000E+00 0.  1.
        994    1    1    2    0    0 -0.23262788517E+03 -0.22708489954E+03  0.50962781539E+03  0.62826207492E+03  0.17120000000E+03 0.  0.
        998    1    1    2    0    0  0.13832293913E+03  0.13059530755E+03  0.62835033237E+03  0.65659158541E+03  0.10000000000E+02 0.  0.
</event>
<event>
 5    1  0.5525569E-010  0.3857380E+03  0.7957747E-01  0.3426548E+00
         13   -1    0    0    0    0  0.00000000000E+00  0.00000000000E+00  0.14999999963E+04  0.15000000000E+04  0.10566000000E+00 0. -1.
        994   -1    0    0    0    0 -0.00000000000E+00 -0.00000000000E+00  0.11368683772E-12  0.17120000000E+03  0.17120000000E+03 0.  0.
         13    1    1    2    0    0 -0.13052757383E+02  0.52035774393E+00  0.62127778224E+02  0.63486354743E+02  0.10566000000E+00 0. -1.
        994    1    1    2    0    0  0.38350518376E+02  0.92996311233E+02  0.35197158740E+02  0.20166148900E+03  0.17120000000E+03 0.  0.
        998    1    1    2    0    0 -0.25297760993E+02 -0.93516668977E+02  0.14026750593E+04  0.14060521563E+04  0.10000000000E+02 0. -1.
</event>
<event>
 5    1  0.5525569E-010  0.3880304E+03  0.7957747E-01  0.3416921E+00
         13   -1    0    0    0    0  0.00000000000E+00  0.00000000000E+00  0.14999999963E+04  0.15000000000E+04  0.10566000000E+00 0.  1.
        994   -1    0    0    0    0 -0.00000000000E+00 -0.00000000000E+00  0.11368683772E-12  0.17120000000E+03  0.17120000000E+03 0.  0.
         13    1    1    2    0    0 -0.55585417303E+02  0.53005733966E+02  0.39317162882E+03  0.40060365366E+03  0.10566000000E+00 0.  1.
        994    1    1    2    0    0  0.16261808730E+03 -0.16337669542E+03  0.19795860229E+03  0.34876013984E+03  0.17120000000E+03 0.  0.
        998    1    1    2    0    0 -0.10703266999E+03  0.11037096145E+03  0.90886976516E+03  0.92183620650E+03  0.10000000000E+02 0.  1.
</event>
<event>
 5    1  0.5525569E-010  0.3844402E+03  0.7957747E-01  0.3432050E+00
         13   -1    0    0    0    0  0.00000000000E+00  0.00000000000E+00  0.14999999963E+04  0.15000000000E+04  0.10566000000E+00 0.  1.
        994   -1    0    0    0    0 -0.00000000000E+00 -0.00000000000E+00  0.11368683772E-12  0.17120000000E+03  0.17120000000E+03 0.  0.
         13    1    1    2    0    0 -0.13892508936E+03 -0.20990050753E+02  0.72417974344E+03  0.73768358708E+03  0.10566000000E+00 0.  1.
        994    1    1    2    0    0  0.27613109419E+03  0.60008461501E+02  0.33681162350E+03  0.47180600500E+03  0.17120000000E+03 0.  0.
        998    1    1    2    0    0 -0.13720600483E+03 -0.39018410748E+02  0.43900862935E+03  0.46171040792E+03  0.10000000000E+02 0.  1.
</event>
<event>
 5    1  0.5525569E-010  0.3877453E+03  0.7957747E-01  0.3418112E+00
         13   -1    0    0    0    0  0.00000000000E+00  0.00000000000E+00  0.14999999963E+04  0.15000000000E+04  0.10566000000E+00 0.  1.
        994   -1    0    0    0    0 -0.00000000000E+00 -0.00000000000E+00  0.11368683772E-12  0.17120000000E+03  0.17120000000E+03 0.  0.
         13    1    1    2    0    0 -0.19199964871E+02  0.19411166613E+02  0.15560901817E+03  0.15798610616E+03  0.10566000000E+00 0.  1.
        994    1    1    2    0    0  0.12990297150E+03 -0.11156069889E+03  0.10246651338E+03  0.26292470007E+03  0.17120000000E+03 0.  0.
        998    1    1    2    0    0 -0.11070300663E+03  0.92149532274E+02  0.12419244647E+04  0.12502891938E+04  0.10000000000E+02 0.  1.
</event>
<event>
 5    1  0.5525569E-010  0.3767537E+03  0.7957747E-01  0.3465417E+00
         13   -1    0    0    0    0  0.00000000000E+00  0.00000000000E+00  0.14999999963E+04  0.15000000000E+04  0.10566000000E+00 0.  1.
        994   -1    0    0    0    0 -0.00000000000E+00 -0.00000000000E+00  0.11368683772E-12  0.17120000000E+03  0.17120000000E+03 0.  0.
         13    1    1    2    0    0  0.29470123922E+03  0.99675516983E+02  0.98052134268E+03  0.10286914716E+04  0.10566000000E+00 0.  1.
        994    1    1    2    0    0 -0.30219059644E+03 -0.88350811642E+02  0.50949525270E+03  0.62291241360E+03  0.17120000000E+03 0.  0.
        998    1    1    2    0    0  0.74893572179E+01 -0.11324705341E+02  0.99834009053E+01  0.19596114825E+02  0.10000000000E+02 0. -1.
</event>
<event>
 5    1  0.5525569E-010  0.3836364E+03  0.7957747E-01  0.3435476E+00
         13   -1    0    0    0    0  0.00000000000E+00  0.00000000000E+00  0.14999999963E+04  0.15000000000E+04  0.10566000000E+00 0. -1.
        994   -1    0    0    0    0 -0.00000000000E+00 -0.00000000000E+00  0.11368683772E-12  0.17120000000E+03  0.17120000000E+03 0.  0.
         13    1    1    2    0    0  0.22288599475E+02 -0.57171058495E+01  0.13830035743E+03  0.14020152280E+03  0.10566000000E+00 0. -1.
        994    1    1    2    0    0 -0.28789334531E+02 -0.87784829525E+02  0.31031396834E+02  0.19699591282E+03  0.17120000000E+03 0.  0.
        998    1    1    2    0    0  0.65007350565E+01  0.93501935374E+02  0.13306682420E+04  0.13340025644E+04  0.10000000000E+02 0. -1.
</event>
<event>
 5    1  0.5525569E-010  0.3857410E+03  0.7957747E-01  0.3426536E+00
         13   -1    0    0    0    0  0.00000000000E+00  0.00000000000E+00  0.14999999963E+04  0.15000000000E+04  0.10566000000E+00 0.  1.
        994   -1    0    0    0    0 -0.00000000000E+00 -0.00000000000E+00  0.11368683772E-12  0.17120000000E+03  0.17120000000E+03 0.  0.
         13    1    1    2    0    0 -0.16055524352E+02 -0.97206799159E+00  0.85867194897E+02  0.87360809875E+02  0.10566000000E+00 0.  1.
        994    1    1    2    0    0  0.35150047078E+02  0.55269398510E+02  0.15466592753E+02  0.18395349334E+03  0.17120000000E+03 0.  0.
        998    1    1    2    0    0 -0.19094522725E+02 -0.54297330518E+02  0.13986662086E+04  0.13998856968E+04  0.10000000000E+02 0.  1.
</event>
<event>
 5    1  0.5525569E-010  0.3857980E+03  0.7957747E-01  0.3426295E+00
         13   -1    0    0    0    0  0.00000000000E+00  0.00000000000E+00  0.14999999963E+04  0.15000000000E+04  0.10566000000E+00 0. -1.
        994   -1    0    0    0    0 -0.00000000000E+00 -0.00000000000E+00  0.11368683772E-12  0.17120000000E+03  0.17120000000E+03 0.  0.
         13    1    1    2    0    0 -0.10958270593E+02 -0.17782013904E+01  0.35315350694E+02  0.37019330805E+02  0.10566000000E+00 0. -1.
        994    1    1    2    0    0  0.69295510309E+02  0.57582346455E+02  0.28329555766E+02  0.19552390673E+03  0.17120000000E+03 0.  0.
        998    1    1    2    0    0 -0.58337239716E+02 -0.55804145065E+02  0.14363550898E+04  0.14386567625E+04  0.10000000000E+02 0. -1.
</event>
<event>
 5    1  0.5525569E-010  0.3786467E+03  0.7957747E-01  0.3457073E+00
         13   -1    0    0    0    0  0.00000000000E+00  0.00000000000E+00  0.14999999963E+04  0.15000000000E+04  0.10566000000E+00 0. -1.
        994   -1    0    0    0    0 -0.00000000000E+00 -0.00000000000E+00  0.11368683772E-12  0.17120000000E+03  0.17120000000E+03 0.  0.
         13    1    1    2    0    0  0.67806805667E+02  0.23778857140E+03  0.60340683707E+03  0.65210504504E+03  0.10566000000E+00 0. -1.
        994    1    1    2    0    0 -0.13733349013E+03 -0.29095191968E+03  0.53786655692E+03  0.64971022782E+03  0.17120000000E+03 0.  0.
        998    1    1    2    0    0  0.69526684468E+02  0.53163348280E+02  0.35872660229E+03  0.36938472714E+03  0.10000000000E+02 0. -1.
</event>
<event>
 5    1  0.5525569E-010  0.3711381E+03  0.7957747E-01  0.3490677E+00
         13   -1    0    0    0    0  0.00000000000E+00  0.00000000000E+00  0.14999999963E+04  0.15000000000E+04  0.10566000000E+00 0.  1.
        994   -1    0    0    0    0 -0.00000000000E+00 -0.00000000000E+00  0.11368683772E-12  0.17120000000E+03  0.17120000000E+03 0.  0.
         13    1    1    2    0    0 -0.98963136076E+02 -0.24544625644E+02  0.44751100603E+03  0.45897957758E+03  0.10566000000E+00 0.  1.
        994    1    1    2    0    0  0.83855495136E+02  0.12900039476E+03  0.95216385393E+02  0.24909525479E+03  0.17120000000E+03 0.  0.
        998    1    1    2    0    0  0.15107640940E+02 -0.10445576912E+03  0.95727260485E+03  0.96312516763E+03  0.10000000000E+02 0.  1.
</event>
<event>
 5    1  0.5525569E-010  0.3704934E+03  0.7957747E-01  0.3493626E+00
         13   -1    0    0    0    0  0.00000000000E+00  0.00000000000E+00  0.14999999963E+04  0.15000000000E+04  0.10566000000E+00 0.  1.
        994   -1    0    0    0    0 -0.00000000000E+00 -0.00000000000E+00  0.11368683772E-12  0.17120000000E+03  0.17120000000E+03 0.  0.
         13    1    1    2    0    0  0.10917270819E+03 -0.39232176649E+02  0.25932440840E+03  0.28408978133E+03  0.10566000000E+00 0.  1.
        994    1    1    2    0    0 -0.19579423916E+03  0.15568033608E+03  0.27104843084E+03  0.40663059771E+03  0.17120000000E+03 0.  0.
        998    1    1    2    0    0  0.86621530969E+02 -0.11644815943E+03  0.96962715703E+03  0.98047962096E+03  0.10000000000E+02 0.  1.
</event>
<event>
 5    1  0.5525569E-010  0.3832172E+03  0.7957747E-01  0.3437268E+00
         13   -1    0    0    0    0  0.00000000000E+00  0.00000000000E+00  0.14999999963E+04  0.15000000000E+04  0.10566000000E+00 0. -1.
        994   -1    0    0    0    0 -0.00000000000E+00 -0.00000000000E+00  0.11368683772E-12  0.17120000000E+03  0.17120000000E+03 0.  0.
         13    1    1    2    0    0 -0.95034357005E+01  0.25497295795E+02  0.11749563397E+03  0.12060540016E+03  0.10566000000E+00 0. -1.
        994    1    1    2    0    0 -0.51385133314E+02 -0.79655180141E+02  0.32829893361E+02  0.19842535510E+03  0.17120000000E+03 0.  0.
        998    1    1    2    0    0  0.60888569015E+02  0.54157884346E+02  0.13496744690E+04  0.13521692447E+04  0.10000000000E+02 0. -1.
</event>
<event>
 5    1  0.5525569E-010  0.3826899E+03  0.7957747E-01  0.3439529E+00
         13   -1    0    0    0    0  0.00000000000E+00  0.00000000000E+00  0.14999999963E+04  0.15000000000E+04  0.10566000000E+00 0.  1.
        994   -1    0    0    0    0 -0.00000000000E+00 -0.00000000000E+00  0.11368683772E-12  0.17120000000E+03  0.17120000000E+03 0.  0.
         13    1    1    2    0    0  0.21674969997E+03  0.59019147462E+02  0.93493845192E+03  0.96154750910E+03  0.10566000000E+00 0.  1.
        994    1    1    2    0    0 -0.28584542774E+03 -0.90345606017E+02  0.40450363438E+03  0.53179184585E+03  0.17120000000E+03 0.  0.
        998    1    1    2    0    0  0.69095727776E+02  0.31326458555E+02  0.16055790997E+03  0.17786064505E+03  0.10000000000E+02 0.  0.
</event>
<event>
 5    1  0.5525569E-010  0.3827951E+03  0.7957747E-01  0.3439077E+00
         13   -1    0    0    0    0  0.00000000000E+00  0.00000000000E+00  0.14999999963E+04  0.15000000000E+04  0.10566000000E+00 0. -1.
        994   -1    0    0    0    0 -0.00000000000E+00 -0.00000000000E+00  0.11368683772E-12  0.17120000000E+03  0.17120000000E+03 0.  0.
         13    1    1    2    0    0 -0.86123761201E+01 -0.53298977705E+02  0.19880771998E+03  0.20600843365E+03  0.10566000000E+00 0. -1.
        994    1    1    2    0    0 -0.30944150123E+02  0.17039196416E+03  0.10939319168E+03  0.26695930826E+03  0.17120000000E+03 0.  0.
        998    1    1    2    0    0  0.39556526243E+02 -0.11709298646E+03  0.11917990846E+04  0.11982322581E+04  0.10000000000E+02 0. -1.
</event>
<event>
 5    1  0.5525569E-010  0.3774485E+03  0.7957747E-01  0.3462344E+00
         13   -1    0    0    0    0  0.00000000000E+00  0.00000000000E+00  0.14999999963E+04  0.15000000000E+04  0.10566000000E+00 0.  1.
        994   -1    0    0    0    0 -0.00000000000E+00 -0.00000000000E+00  0.11368683772E-12  0.17120000000E+03  0.17120000000E+03 0.  0.
         13    1    1    2    0    0  0.70400595537E+02  0.76688250410E+01  0.37649106209E+03  0.38309344255E+03  0.10566000000E+00 0.  1.
        994    1    1    2    0    0 -0.93693180525E+02  0.90210753437E+02  0.64763617793E+02  0.22454433483E+03  0.17120000000E+03 0.  0.
        998    1    1    2    0    0  0.23292584988E+02 -0.97879578478E+02  0.10587453164E+04  0.10635622226E+04  0.10000000000E+02 0.  1.
</event>
<event>
 5    1  0.5525569E-010  0.3871623E+03  0.7957747E-01  0.3420553E+00
         13   -1    0    0    0    0  0.00000000000E+00  0.00000000000E+00  0.14999999963E+04  0.15000000000E+04  0.10566000000E+00 0. -1.
        994   -1    0    0    0    0 -0.00000000000E+00 -0.00000000000E+00  0.11368683772E-12  0.17120000000E+03  0.17120000000E+03 0.  0.
         13    1    1    2    0    0  0.81122794029E+02  0.84200638163E+01  0.40139457664E+03  0.40959665832E+03  0.10566000000E+00 0. -1.
        994    1    1    2    0    0 -0.21014049918E+03 -0.19827016574E+02  0.16275958646E+03  0.31678425303E+03  0.17120000000E+03 0.  0.
        998    1    1    2    0    0  0.12901770515E+03  0.11406952758E+02  0.93584583317E+03  0.94481908865E+03  0.10000000000E+02 0. -1.
</event>
<event>
 5    1  0.5525569E-010  0.3862424E+03  0.7957747E-01  0.3424420E+00
         13   -1    0    0    0    0  0.00000000000E+00  0.00000000000E+00  0.14999999963E+04  0.15000000000E+04  0.10566000000E+00 0. -1.
        994   -1    0    0    0    0 -0.00000000000E+00 -0.00000000000E+00  0.11368683772E-12  0.17120000000E+03  0.17120000000E+03 0.  0.
         13    1    1    2    0    0 -0.56915019202E+02 -0.28207376755E+02  0.35489476332E+03  0.36053471360E+03  0.10566000000E+00 0. -1.
        994    1    1    2    0    0  0.14842614580E+03  0.59784568918E+02  0.89913109831E+02  0.25099466679E+03  0.17120000000E+03 0.  0.
        998    1    1    2    0    0 -0.91511126597E+02 -0.31577192163E+02  0.10551921231E+04  0.10596706196E+04  0.10000000000E+02 0.  0.
</event>
<event>
 5    1  0.5525569E-010  0.3871576E+03  0.7957747E-01  0.3420573E+00
         13   -1    0    0    0    0  0.00000000000E+00  0.00000000000E+00  0.14999999963E+04  0.15000000000E+04  0.10566000000E+00 0.  1.
        994   -1    0    0    0    0 -0.00000000000E+00 -0.00000000000E+00  0.11368683772E-12  0.17120000000E+03  0.17120000000E+03 0.  0.
         13    1    1    2    0    0  0.67800568864E+02  0.21299151468E+02  0.28504046255E+03  0.29376631435E+03  0.10566000000E+00 0.  1.
        994    1    1    2    0    0 -0.31028813086E+03 -0.57869646239E+02  0.45984136060E+03  0.58343049031E+03  0.17120000000E+03 0.  0.
        998    1    1    2    0    0  0.24248756200E+03  0.36570494771E+02  0.75511817313E+03  0.79400319533E+03  0.10000000000E+02 0.  1.
</event>
<event>
 5    1  0.5525569E-010  0.3844899E+03  0.7957747E-01  0.3431839E+00
         13   -1    0    0    0    0  0.00000000000E+00  0.00000000000E+00  0.14999999963E+04  0.15000000000E+04  0.10566000000E+00 0. -1.
        994   -1    0    0    0    0 -0.00000000000E+00 -0.00000000000E+00  0.11368683772E-12  0.17120000000E+03  0.17120000000E+03 0.  0.
         13    1    1    2    0    0 -0.11818117411E+02 -0.92403738465E+01  0.44940460137E+02  0.47378355072E+02  0.10566000000E+00 0. -1.
        994    1    1    2    0    0 -0.27391974942E+01  0.12345401875E+03  0.53841629908E+02  0.21784572307E+03  0.17120000000E+03 0.  0.
        998    1    1    2    0    0  0.14557314905E+02 -0.11421364490E+03  0.14012179062E+04  0.14059759219E+04  0.10000000000E+02 0. -1.
</event>
<event>
 5    1  0.5525569E-010  0.3869183E+03  0.7957747E-01  0.3421577E+00
         13   -1    0    0    0    0  0.00000000000E+00  0.00000000000E+00  0.14999999963E+04  0.15000000000E+04  0.10566000000E+00 0.  1.
        994   -1    0    0    0    0 -0.00000000000E+00 -0.00000000000E+00  0.11368683772E-12  0.17120000000E+03  0.17120000000E+03 0.  0.
         13    1    1    2    0    0  0.35961712454E+02 -0.21893847340E+03  0.10294770660E+04  0.10531145904E+04  0.10566000000E+00 0.  1.
        994    1    1    2    0    0 -0.48381009897E+02  0.26864116824E+03  0.30181363755E+03  0.44148579955E+03  0.17120000000E+03 0.  0.
        998    1    1    2    0    0  0.12419297444E+02 -0.49702694836E+02  0.16870929276E+03  0.17659961010E+03  0.10000000000E+02 0.  0.
</event>
<event>
 5    1  0.5525569E-010  0.3865073E+03  0.7957747E-01  0.3423305E+00
         13   -1    0    0    0    0  0.00000000000E+00  0.00000000000E+00  0.14999999963E+04  0.15000000000E+04  0.10566000000E+00 0.  1.
        994   -1    0    0    0    0 -0.00000000000E+00 -0.00000000000E+00  0.11368683772E-12  0.17120000000E+03  0.17120000000E+03 0.  0.
         13    1    1    2    0    0  0.12543751344E+02  0.12442192460E+02  0.65020382986E+02  0.67378150900E+02  0.10566000000E+00 0.  1.
        994    1    1    2    0    0 -0.19857459064E+03 -0.40689060304E+02  0.14937709302E+03  0.30448386426E+03  0.17120000000E+03 0.  0.
        998    1    1    2    0    0  0.18603083929E+03  0.28246867845E+02  0.12856025203E+04  0.12993379848E+04  0.10000000000E+02 0.  1.
</event>
<event>
 5    1  0.5525569E-010  0.3876363E+03  0.7957747E-01  0.3418568E+00
         13   -1    0    0    0    0  0.00000000000E+00  0.00000000000E+00  0.14999999963E+04  0.15000000000E+04  0.10566000000E+00 0. -1.
        994   -1    0    0    0    0 -0.00000000000E+00 -0.00000000000E+00  0.11368683772E-12  0.17120000000E+03  0.17120000000E+03 0.  0.
         13    1    1    2    0    0 -0.59025553521E+02  0.18110441080E+03  0.72509585047E+03  0.74969782387E+03  0.10566000000E+00 0. -1.
        994    1    1    2    0    0  0.91895522729E+02 -0.26952567707E+03  0.33628788233E+03  0.47274502377E+03  0.17120000000E+03 0.  0.
        998    1    1    2    0    0 -0.32869969207E+02  0.88421266272E+02  0.43861626348E+03  0.44875715236E+03  0.10000000000E+02 0. -1.
</event>
<event>
 5    1  0.5525569E-010  0.3855432E+03  0.7957747E-01  0.3427372E+00
         13   -1    0    0    0    0  0.00000000000E+00  0.00000000000E+00  0.14999999963E+04  0.15000000000E+04  0.10566000000E+00 0.  1.
        994   -1    0    0    0    0 -0.00000000000E+00 -0.00000000000E+00  0.11368683772E-12  0.17120000000E+03  0.17120000000E+03 0.  0.
         13    1    1    2    0    0  0.10364875458E+02  0.34636282958E+02  0.15796041971E+03  0.16204508045E+03  0.10566000000E+00 0.  1.
        994    1    1    2    0    0 -0.47543413640E+02 -0.13821623499E+03  0.74952078639E+02  0.23725799858E+03  0.17120000000E+03 0.  0.
        998    1    1    2    0    0  0.37178538182E+02  0.10357995203E+03  0.12670874979E+04  0.12718969210E+04  0.10000000000E+02 0.  1.
</event>
<event>
 5    1  0.5525569E-010  0.3769220E+03  0.7957747E-01  0.3464671E+00
         13   -1    0    0    0    0  0.00000000000E+00  0.00000000000E+00  0.14999999963E+04  0.15000000000E+04  0.10566000000E+00 0. -1.
        994   -1    0    0    0    0 -0.00000000000E+00 -0.00000000000E+00  0.11368683772E-12  0.17120000000E+03  0.17120000000E+03 0.  0.
         13    1    1    2    0    0  0.23879106016E+02  0.16194391869E+02  0.13794978882E+03  0.14093482690E+03  0.10566000000E+00 0. -1.
        994    1    1    2    0    0  0.74446317837E+02  0.58761809075E+02  0.36704848384E+02  0.19912782412E+03  0.17120000000E+03 0.  0.
        998    1    1    2    0    0 -0.98325423853E+02 -0.74956200944E+02  0.13253453591E+04  0.13311373490E+04  0.10000000000E+02 0. -1.
</event>
<event>
 5    1  0.5525569E-010  0.3841535E+03  0.7957747E-01  0.3433270E+00
         13   -1    0    0    0    0  0.00000000000E+00  0.00000000000E+00  0.14999999963E+04  0.15000000000E+04  0.10566000000E+00 0.  1.
        994   -1    0    0    0    0 -0.00000000000E+00 -0.00000000000E+00  0.11368683772E-12  0.17120000000E+03  0.17120000000E+03 0.  0.
         13    1    1    2    0    0  0.15569701533E+01 -0.31096002097E+02  0.13482270458E+03  0.13837108923E+03  0.10566000000E+00 0.  1.
        994    1    1    2    0    0  0.44554100384E+02  0.99257604811E+02  0.42114960843E+02  0.20717202973E+03  0.17120000000E+03 0.  0.
        998    1    1    2    0    0 -0.46111070537E+02 -0.68161602714E+02  0.13230623309E+04  0.13256568810E+04  0.10000000000E+02 0.  1.
</event>
<event>
 5    1  0.5525569E-010  0.3794907E+03  0.7957747E-01  0.3453379E+00
         13   -1    0    0    0    0  0.00000000000E+00  0.00000000000E+00  0.14999999963E+04  0.15000000000E+04  0.10566000000E+00 0. -1.
        994   -1    0    0    0    0 -0.00000000000E+00 -0.00000000000E+00  0.11368683772E-12  0.17120000000E+03  0.17120000000E+03 0.  0.
         13    1    1    2    0    0  0.36862205671E+02  0.10323756268E+03  0.36707571498E+03  0.38309451608E+03  0.10566000000E+00 0. -1.
        994    1    1    2    0    0  0.24073023002E+02 -0.25284581415E+03  0.26440915221E+03  0.40463830262E+03  0.17120000000E+03 0.  0.
        998    1    1    2    0    0 -0.60935228673E+02  0.14960825147E+03  0.86851512908E+03  0.88346718131E+03  0.10000000000E+02 0. -1.
</event>
<event>
 5    1  0.5525569E-010  0.3864297E+03  0.7957747E-01  0.3423631E+00
         13   -1    0    0    0    0  0.00000000000E+00  0.00000000000E+00  0.14999999963E+04  0.15000000000E+04  0.10566000000E+00 0. -1.
        994   -1    0    0    0    0 -0.00000000000E+00 -0.00000000000E+00  0.11368683772E-12  0.17120000000E+03  0.17120000000E+03 0.  0.
         13    1    1    2    0    0 -0.24085531140E+03  0.11023955643E+03  0.94779760619E+03  0.98411602684E+03  0.10566000000E+00 0. -1.
        994    1    1    2    0    0  0.26953879724E+03 -0.11922146636E+03  0.37369911857E+03  0.50579184699E+03  0.17120000000E+03 0.  0.
        998    1    1    2    0    0 -0.28683485848E+02  0.89819099365E+01  0.17850327152E+03  0.18129212617E+03  0.10000000000E+02 0. -1.
</event>
<event>
 5    1  0.5525569E-010  0.3876258E+03  0.7957747E-01  0.3418612E+00
         13   -1    0    0    0    0  0.00000000000E+00  0.00000000000E+00  0.14999999963E+04  0.15000000000E+04  0.10566000000E+00 0. -1.
        994   -1    0    0    0    0 -0.00000000000E+00 -0.00000000000E+00  0.11368683772E-12  0.17120000000E+03  0.17120000000E+03 0.  0.
         13    1    1    2    0    0  0.15814428610E+03  0.16844195669E+03  0.10097002651E+04  0.10357977334E+04  0.10566000000E+00 0. -1.
        994    1    1    2    0    0 -0.18055516243E+03 -0.20387940326E+03  0.29856570615E+03  0.43888255678E+03  0.17120000000E+03 0.  0.
        998    1    1    2    0    0  0.22410876333E+02  0.35437446567E+02  0.19173402506E+03  0.19651970985E+03  0.10000000000E+02 0.  1.
</event>
<event>
 5    1  0.5525569E-010  0.3878419E+03  0.7957747E-01  0.3417708E+00
         13   -1    0    0    0    0  0.00000000000E+00  0.00000000000E+00  0.14999999963E+04  0.15000000000E+04  0.10566000000E+00 0. -1.
        994   -1    0    0    0    0 -0.00000000000E+00 -0.00000000000E+00  0.11368683772E-12  0.17120000000E+03  0.17120000000E+03 0.  0.
         13    1    1    2    0    0  0.74662181322E+02  0.82487805417E+01  0.25480631730E+03  0.26564780104E+03  0.10566000000E+00 0. -1.
        994    1    1    2    0    0 -0.30861745672E+03  0.66632707525E+01  0.42508115696E+03  0.55253286217E+03  0.17120000000E+03 0.  0.
        998    1    1    2    0    0  0.23395527540E+03 -0.14912051294E+02  0.82011252202E+03  0.85301933679E+03  0.10000000000E+02 0. -1.
</event>
<event>
 5    1  0.5525569E-010  0.3867421E+03  0.7957747E-01  0.3422317E+00
         13   -1    0    0    0    0  0.00000000000E+00  0.00000000000E+00  0.14999999963E+04  0.15000000000E+04  0.10566000000E+00 0.  1.
        994   -1    0    0    0    0 -0.00000000000E+00 -0.00000000000E+00  0.11368683772E-12  0.17120000000E+03  0.17120000000E+03 0.  0.
         13    1    1    2    0    0 -0.13217898584E+03 -0.22588204531E+03  0.11199443183E+04  0.11501170679E+04  0.10566000000E+00 0.  1.
        994    1    1    2    0    0  0.13520384901E+03  0.23756730799E+03  0.30328920954E+03  0.44273252787E+03  0.17120000000E+03 0.  0.
        998    1    1    2    0    0 -0.30248631705E+01 -0.11685262684E+02  0.76766468429E+02  0.78350404186E+02  0.10000000000E+02 0. -1.
</event>
<event>
 5    1  0.5525569E-010  0.3815581E+03  0.7957747E-01  0.3444402E+00
         13   -1    0    0    0    0  0.00000000000E+00  0.00000000000E+00  0.14999999963E+04  0.15000000000E+04  0.10566000000E+00 0.  1.
        994   -1    0    0    0    0 -0.00000000000E+00 -0.00000000000E+00  0.11368683772E-12  0.17120000000E+03  0.17120000000E+03 0.  0.
         13    1    1    2    0    0 -0.16243226612E+02  0.70203704322E+01  0.82409521321E+02  0.84288008519E+02  0.10566000000E+00 0.  1.
        994    1    1    2    0    0 -0.75009871058E+02  0.57560451518E+02  0.33674239799E+02  0.19845170889E+03  0.17120000000E+03 0.  0.
        998    1    1    2    0    0  0.91253097670E+02 -0.64580821950E+02  0.13839162352E+04  0.13884602826E+04  0.10000000000E+02 0.  1.
</event>
<event>
 5    1  0.5525569E-010  0.3876616E+03  0.7957747E-01  0.3418462E+00
         13   -1    0    0    0    0  0.00000000000E+00  0.00000000000E+00  0.14999999963E+04  0.15000000000E+04  0.10566000000E+00 0.  1.
        994   -1    0    0    0    0 -0.00000000000E+00 -0.00000000000E+00  0.11368683772E-12  0.17120000000E+03  0.17120000000E+03 0.  0.
         13    1    1    2    0    0 -0.82685805549E+02 -0.61340023492E+02  0.48232997994E+03  0.49319545986E+03  0.10566000000E+00 0.  1.
        994    1    1    2    0    0  0.18695361262E+03  0.14810001426E+03  0.21500651099E+03  0.36389903443E+03  0.17120000000E+03 0.  0.
        998    1    1    2    0    0 -0.10426780707E+03 -0.86759990764E+02  0.80266350536E+03  0.81410550570E+03  0.10000000000E+02 0.  1.
</event>
<event>
 5    1  0.5525569E-010  0.3791248E+03  0.7957747E-01  0.3454978E+00
         13   -1    0    0    0    0  0.00000000000E+00  0.00000000000E+00  0.14999999963E+04  0.15000000000E+04  0.10566000000E+00 0. -1.
        994   -1    0    0    0    0 -0.00000000000E+00 -0.00000000000E+00  0.11368683772E-12  0.17120000000E+03  0.17120000000E+03 0.  0.
         13    1    1    2    0    0 -0.13122400867E+03 -0.13671656678E+02  0.41161427730E+03  0.43224180627E+03  0.10566000000E+00 0. -1.
        994    1    1    2    0    0  0.32152325738E+03  0.10449034455E+03  0.74587294060E+03  0.83661898177E+03  0.17120000000E+03 0.  0.
        998    1    1    2    0    0 -0.19029924871E+03 -0.90818687868E+02  0.34251277838E+03  0.40233921196E+03  0.10000000000E+02 0. -1.
</event>
<event>
 5    1  0.5525569E-010  0.3852737E+03  0.7957747E-01  0.3428512E+00
         13   -1    0    0    0    0  0.00000000000E+00  0.00000000000E+00  0.14999999963E+04  0.15000000000E+04  0.10566000000E+00 0.  1.
        994   -1    0    0    0    0 -0.00000000000E+00 -0.00000000000E+00  0.11368683772E-12  0.17120000000E+03  0.17120000000E+03 0.  0.
         13    1    1    2    0    0 -0.29935494574E+02 -0.19622686359E+03  0.11481763842E+04  0.11652081943E+04  0.10566000000E+00 0.  1.
        994    1    1    2    0    0  0.43911368776E+02  0.20529453797E+03  0.16296151353E+03  0.31613280520E+03  0.17120000000E+03 0.  0.
        998    1    1    2    0    0 -0.13975874202E+02 -0.90676743824E+01  0.18886209858E+03  0.18985900046E+03  0.10000000000E+02 0. -1.
</event>
<event>
 5    1  0.5525569E-010  0.2868253E+03  0.7957747E-01  0.3994808E+00
         13   -1    0    0    0    0  0.00000000000E+00  0.00000000000E+00  0.14999999963E+04  0.15000000000E+04  0.10566000000E+00 0. -1.
        994   -1    0    0    0    0 -0.00000000000E+00 -0.00000000000E+00  0.11368683772E-12  0.17120000000E+03  0.17120000000E+03 0.  0.
         13    1    1    2    0    0 -0.83757306630E+02 -0.10161910325E+03  0.68165162848E+03  0.69425548780E+03  0.10566000000E+00 0. -1.
        994    1    1    2    0    0 -0.19962488152E+02  0.15651171115E+03  0.10755603289E+03  0.25646082912E+03  0.17120000000E+03 0.  0.
        998    1    1    2    0    0  0.10371979478E+03 -0.54892607903E+02  0.71079233491E+03  0.72048368309E+03  0.10000000000E+02 0. -1.
</event>
<event>
 5    1  0.5525569E-010  0.3877419E+03  0.7957747E-01  0.3418126E+00
         13   -1    0    0    0    0  0.00000000000E+00  0.00000000000E+00  0.14999999963E+04  0.15000000000E+04  0.10566000000E+00 0. -1.
        994   -1    0    0    0    0 -0.00000000000E+00 -0.00000000000E+00  0.11368683772E-12  0.17120000000E+03  0.17120000000E+03 0.  0.
         13    1    1    2    0    0  0.20725974392E+02  0.18369326923E+03  0.10810413362E+04  0.10967329506E+04  0.10566000000E+00 0. -1.
        994    1    1    2    0    0 -0.21772785049E+02 -0.22805979084E+03  0.19551685894E+03  0.34644134351E+03  0.17120000000E+03 0.  0.
        998    1    1    2    0    0  0.10468106567E+01  0.44366521612E+02  0.22344180110E+03  0.22802570585E+03  0.10000000000E+02 0.  0.
</event>
<event>
 5    1  0.5525569E-010  0.3839619E+03  0.7957747E-01  0.3434087E+00
         13   -1    0    0    0    0  0.00000000000E+00  0.00000000000E+00  0.14999999963E+04  0.15000000000E+04  0.10566000000E+00 0. -1.
        994   -1    0    0    0    0 -0.00000000000E+00 -0.00000000000E+00  0.11368683772E-12  0.17120000000E+03  0.17120000000E+03 0.  0.
         13    1    1    2    0    0 -0.10045620741E+03  0.11597914254E+03  0.78525796307E+03  0.80010792450E+03  0.10566000000E+00 0. -1.
        994    1    1    2    0    0  0.14661511021E+03 -0.23214502154E+03  0.31280909688E+03  0.45005141113E+03  0.17120000000E+03 0.  0.
        998    1    1    2    0    0 -0.46158902800E+02  0.11616587900E+03  0.40193293633E+03  0.42104066437E+03  0.10000000000E+02 0. -1.
</event>
<event>
 5    1  0.5525569E-010  0.3825279E+03  0.7957747E-01  0.3440225E+00
         13   -1    0    0    0    0  0.00000000000E+00  0.00000000000E+00  0.14999999963E+04  0.15000000000E+04  0.10566000000E+00 0.  1.
        994   -1    0    0    0    0 -0.00000000000E+00 -0.00000000000E+00  0.11368683772E-12  0.17120000000E+03  0.17120000000E+03 0.  0.
         13    1    1    2    0    0  0.31653421177E+02  0.35248644248E+01  0.12267840629E+03  0.12674528107E+03  0.10566000000E+00 0.  1.
        994    1    1    2    0    0 -0.91771056092E+02  0.70967189078E+02  0.48841529037E+02  0.21249283193E+03  0.17120000000E+03 0.  0.
        998    1    1    2    0    0  0.60117634916E+02 -0.74492053503E+02  0.13284800610E+04  0.13319618870E+04  0.10000000000E+02 0.  1.
</event>
<event>
 5    1  0.5525569E-010  0.3858228E+03  0.7957747E-01  0.3426190E+00
         13   -1    0    0    0    0  0.00000000000E+00  0.00000000000E+00  0.14999999963E+04  0.15000000000E+04  0.10566000000E+00 0. -1.
        994   -1    0    0    0    0 -0.00000000000E+00 -0.00000000000E+00  0.11368683772E-12  0.17120000000E+03  0.17120000000E+03 0.  0.
         13    1    1    2    0    0  0.15693243367E+03 -0.83096323939E+02  0.85163895173E+03  0.86995500060E+03  0.10566000000E+00 0. -1.
        994    1    1    2    0    0 -0.20222734834E+03  0.10712857020E+03  0.19758131882E+03  0.34744819545E+03  0.17120000000E+03 0.  0.
        998    1    1    2    0    0  0.45294914674E+02 -0.24032246264E+02  0.45077972573E+03  0.45379680396E+03  0.10000000000E+02 0.  1.
</event>
<event>
 5    1  0.5525569E-010  0.3783276E+03  0.7957747E-01  0.3458473E+00
         13   -1    0    0    0    0  0.00000000000E+00  0.00000000000E+00  0.14999999963E+04  0.15000000000E+04  0.10566000000E+00 0.  1.
        994   -1    0    0    0    0 -0.00000000000E+00 -0.00000000000E+00  0.11368683772E-12  0.17120000000E+03  0.17120000000E+03 0.  0.
         13    1    1    2    0    0  0.11303876807E+03  0.53627490044E+02  0.56319427102E+03  0.57692414479E+03  0.10566000000E+00 0.  1.
        994    1    1    2    0    0 -0.13093230303E+03 -0.16424234965E+03  0.17137181360E+03  0.32061901985E+03  0.17120000000E+03 0.  0.
        998    1    1    2    0    0  0.17893534962E+02  0.11061485961E+03  0.76543391167E+03  0.77365683535E+03  0.10000000000E+02 0.  1.
</event>
<event>
 5    1  0.5525569E-010  0.3877371E+03  0.7957747E-01  0.3418146E+00
         13   -1    0    0    0    0  0.00000000000E+00  0.00000000000E+00  0.14999999963E+04  0.15000000000E+04  0.10566000000E+00 0. -1.
        994   -1    0    0    0    0 -0.00000000000E+00 -0.00000000000E+00  0.11368683772E-12  0.17120000000E+03  0.17120000000E+03 0.  0.
         13    1    1    2    0    0  0.13259609086E+03 -0.66920340104E+02  0.87443416747E+03  0.88695838664E+03  0.10566000000E+00 0. -1.
        994    1    1    2    0    0 -0.19103959089E+03  0.11474572599E+03  0.18342020511E+03  0.33558176137E+03  0.17120000000E+03 0.  0.
        998    1    1    2    0    0  0.58443500032E+02 -0.47825385888E+02  0.44214562370E+03  0.44865985199E+03  0.10000000000E+02 0. -1.
</event>
<event>
 5    1  0.5525569E-010  0.3871038E+03  0.7957747E-01  0.3420799E+00
         13   -1    0    0    0    0  0.00000000000E+00  0.00000000000E+00  0.14999999963E+04  0.15000000000E+04  0.10566000000E+00 0.  1.
        994   -1    0    0    0    0 -0.00000000000E+00 -0.00000000000E+00  0.11368683772E-12  0.17120000000E+03  0.17120000000E+03 0.  0.
         13    1    1    2    0    0 -0.30311206837E+02  0.23159592594E+03  0.11215202892E+04  0.11455842232E+04  0.10566000000E+00 0.  1.
        994    1    1    2    0    0  0.32163924931E+02 -0.24933338223E+03  0.24494328225E+03  0.39052311722E+03  0.17120000000E+03 0.  0.
        998    1    1    2    0    0 -0.18527180940E+01  0.17737456293E+02  0.13353642482E+03  0.13509265958E+03  0.10000000000E+02 0.  1.
</event>
<event>
 5    1  0.5525569E-010  0.3750780E+03  0.7957747E-01  0.3472874E+00
         13   -1    0    0    0    0  0.00000000000E+00  0.00000000000E+00  0.14999999963E+04  0.15000000000E+04  0.10566000000E+00 0. -1.
        994   -1    0    0    0    0 -0.00000000000E+00 -0.00000000000E+00  0.11368683772E-12  0.17120000000E+03  0.17120000000E+03 0.  0.
         13    1    1    2    0    0  0.52809610351E+02 -0.28914075637E+01  0.12698284079E+03  0.13755678173E+03  0.10566000000E+00 0. -1.
        994    1    1    2    0    0 -0.13377335897E+03  0.89549415269E+02  0.10052200024E+03  0.25559444806E+03  0.17120000000E+03 0.  0.
        998    1    1    2    0    0  0.80963748623E+02 -0.86658007706E+02  0.12724951553E+04  0.12780487702E+04  0.10000000000E+02 0. -1.
</event>
<event>
 5    1  0.5525569E-010  0.3863471E+03  0.7957747E-01  0.3423979E+00
         13   -1    0    0    0    0  0.00000000000E+00  0.00000000000E+00  0.14999999963E+04  0.15000000000E+04  0.10566000000E+00 0. -1.
        994   -1    0    0    0    0 -0.00000000000E+00 -0.00000000000E+00  0.11368683772E-12  0.17120000000E+03  0.17120000000E+03 0.  0.
         13    1    1    2    0    0 -0.15664385955E+03 -0.11634773978E+03  0.99493784383E+03  0.10138912267E+04  0.10566000000E+00 0. -1.
        994    1    1    2    0    0  0.21635296357E+03  0.13068752694E+03  0.24945821222E+03  0.39424189806E+03  0.17120000000E+03 0.  0.
        998    1    1    2    0    0 -0.59709104022E+02 -0.14339787161E+02  0.25560394023E+03  0.26306687526E+03  0.10000000000E+02 0.  1.
</event>
<event>
 5    1  0.5525569E-010  0.3866375E+03  0.7957747E-01  0.3422757E+00
         13   -1    0    0    0    0  0.00000000000E+00  0.00000000000E+00  0.14999999963E+04  0.15000000000E+04  0.10566000000E+00 0.  1.
        994   -1    0    0    0    0 -0.00000000000E+00 -0.00000000000E+00  0.11368683772E-12  0.17120000000E+03  0.17120000000E+03 0.  0.
         13    1    1    2    0    0  0.11923195210E+02  0.73647739304E+02  0.26219816486E+03  0.27260601774E+03  0.10566000000E+00 0.  1.
        994    1    1    2    0    0 -0.17611152960E+01 -0.26525495927E+03  0.28087231135E+03  0.42256595962E+03  0.17120000000E+03 0.  0.
        998    1    1    2    0    0 -0.10162079914E+02  0.19160721996E+03  0.95692952007E+03  0.97602802265E+03  0.10000000000E+02 0.  1.
</event>
<event>
 5    1  0.5525569E-010  0.3632935E+03  0.7957747E-01  0.3527292E+00
         13   -1    0    0    0    0  0.00000000000E+00  0.00000000000E+00  0.14999999963E+04  0.15000000000E+04  0.10566000000E+00 0.  1.
        994   -1    0    0    0    0 -0.00000000000E+00 -0.00000000000E+00  0.11368683772E-12  0.17120000000E+03  0.17120000000E+03 0.  0.
         13    1    1    2    0    0 -0.10514159206E+03  0.21384421319E+03  0.10720203501E+04  0.10981856601E+04  0.10566000000E+00 0.  1.
        994    1    1    2    0    0  0.76154533402E+02 -0.25328383236E+03  0.29759705393E+03  0.43338857760E+03  0.17120000000E+03 0.  0.
        998    1    1    2    0    0  0.28987058656E+02  0.39439619171E+02  0.13038259225E+03  0.13962576228E+03  0.10000000000E+02 0.  1.
</event>
<event>
 5    1  0.6125762E-010  0.3876521E+03  0.7957747E-01  0.3418502E+00
         13   -1    0    0    0    0  0.00000000000E+00  0.00000000000E+00  0.14999999963E+04  0.15000000000E+04  0.10566000000E+00 0.  1.
        994   -1    0    0    0    0 -0.00000000000E+00 -0.00000000000E+00  0.11368683772E-12  0.17120000000E+03  0.17120000000E+03 0.  0.
         13    1    1    2    0    0 -0.15255218806E+03 -0.12579370835E+03  0.11814865051E+04  0.11979176099E+04  0.10566000000E+00 0.  1.
        994    1    1    2    0    0  0.16943225533E+03  0.14073582382E+03  0.17866726984E+03  0.33127827361E+03  0.17120000000E+03 0.  0.
        998    1    1    2    0    0 -0.16880067271E+02 -0.14942115471E+02  0.13984622128E+03  0.14200411647E+03  0.10000000000E+02 0.  0.
</event>
<event>
 5    1  0.5525569E-010  0.3879421E+03  0.7957747E-01  0.3417289E+00
         13   -1    0    0    0    0  0.00000000000E+00  0.00000000000E+00  0.14999999963E+04  0.15000000000E+04  0.10566000000E+00 0. -1.
        994   -1    0    0    0    0 -0.00000000000E+00 -0.00000000000E+00  0.11368683772E-12  0.17120000000E+03  0.17120000000E+03 0.  0.
         13    1    1    2    0    0  0.88130557719E+02 -0.13301666570E+03  0.94620062547E+03  0.95956034900E+03  0.10566000000E+00 0. -1.
        994    1    1    2    0    0 -0.11949397639E+03  0.17949304727E+03  0.16988269810E+03  0.32352146069E+03  0.17120000000E+03 0.  0.
        998    1    1    2    0    0  0.31363418667E+02 -0.46476381569E+02  0.38391667270E+03  0.38811819031E+03  0.10000000000E+02 0.  0.
</event>
<event>
 5    1  0.5525569E-010  0.3727319E+03  0.7957747E-01  0.3483429E+00
         13   -1    0    0    0    0  0.00000000000E+00  0.00000000000E+00  0.14999999963E+04  0.15000000000E+04  0.10566000000E+00 0. -1.
        994   -1    0    0    0    0 -0.00000000000E+00 -0.00000000000E+00  0.11368683772E-12  0.17120000000E+03  0.17120000000E+03 0.  0.
         13    1    1    2    0    0  0.14237532397E+03  0.14035275872E+03  0.44887334058E+03  0.49138265823E+03  0.10566000000E+00 0. -1.
        994    1    1    2    0    0 -0.18440079593E+03 -0.23394979169E+03  0.43102693442E+03  0.55120759861E+03  0.17120000000E+03 0.  0.
        998    1    1    2    0    0  0.42025471963E+02  0.93597032968E+02  0.62009972128E+03  0.62860974317E+03  0.10000000000E+02 0. -1.
</event>
<event>
 5    1  0.5525569E-010  0.3879654E+03  0.7957747E-01  0.3417192E+00
         13   -1    0    0    0    0  0.00000000000E+00  0.00000000000E+00  0.14999999963E+04  0.15000000000E+04  0.10566000000E+00 0. -1.
        994   -1    0    0    0    0 -0.00000000000E+00 -0.00000000000E+00  0.11368683772E-12  0.17120000000E+03  0.17120000000E+03 0.  0.
         13    1    1    2    0    0 -0.16547196671E+03 -0.31023579504E+02  0.99744480717E+03  0.10115530578E+04  0.10566000000E+00 0. -1.
        994    1    1    2    0    0  0.21477710822E+03  0.43629715761E+02  0.17626187624E+03  0.32925741803E+03  0.17120000000E+03 0.  0.
        998    1    1    2    0    0 -0.49305141508E+02 -0.12606136256E+02  0.32629331287E+03  0.33038952416E+03  0.10000000000E+02 0.  0.
</event>
<event>
 5    1  0.5525569E-010  0.3738924E+03  0.7957747E-01  0.3478191E+00
         13   -1    0    0    0    0  0.00000000000E+00  0.00000000000E+00  0.14999999963E+04  0.15000000000E+04  0.10566000000E+00 0. -1.
        994   -1    0    0    0    0 -0.00000000000E+00 -0.00000000000E+00  0.11368683772E-12  0.17120000000E+03  0.17120000000E+03 0.  0.
         13    1    1    2    0    0  0.23316925469E+03  0.46640348744E+02  0.46770565170E+03  0.52468258144E+03  0.10566000000E+00 0. -1.
        994    1    1    2    0    0 -0.32651607798E+03 -0.20792046176E+01  0.62007725920E+03  0.72140302165E+03  0.17120000000E+03 0.  0.
        998    1    1    2    0    0  0.93346823289E+02 -0.44561144127E+02  0.41221708538E+03  0.42511439691E+03  0.10000000000E+02 0. -1.
</event>
<event>
 5    1  0.5525569E-010  0.3782320E+03  0.7957747E-01  0.3458893E+00
         13   -1    0    0    0    0  0.00000000000E+00  0.00000000000E+00  0.14999999963E+04  0.15000000000E+04  0.10566000000E+00 0.  1.
        994   -1    0    0    0    0 -0.00000000000E+00 -0.00000000000E+00  0.11368683772E-12  0.17120000000E+03  0.17120000000E+03 0.  0.
         13    1    1    2    0    0 -0.17373154449E+03  0.28946711113E+02  0.76554493938E+03  0.78554415981E+03  0.10566000000E+00 0.  1.
        994    1    1    2    0    0  0.29361298562E+03 -0.90975502825E+02  0.45518179075E+03  0.57531298445E+03  0.17120000000E+03 0.  0.
        998    1    1    2    0    0 -0.11988144113E+03  0.62028791712E+02  0.27927326614E+03  0.31034285574E+03  0.10000000000E+02 0.  1.
</event>
<event>
 5    1  0.5525569E-010  0.3694962E+03  0.7957747E-01  0.3498210E+00
         13   -1    0    0    0    0  0.00000000000E+00  0.00000000000E+00  0.14999999963E+04  0.15000000000E+04  0.10566000000E+00 0.  1.
        994   -1    0    0    0    0 -0.00000000000E+00 -0.00000000000E+00  0.11368683772E-12  0.17120000000E+03  0.17120000000E+03 0.  0.
         13    1    1    2    0    0  0.68950697912E+01 -0.51668666431E+02  0.81366598527E+02  0.96631918112E+02  0.10566000000E+00 0.  1.
        994    1    1    2    0    0  0.16632643604E+03  0.16066276613E+03  0.22987165141E+03  0.36827628741E+03  0.17120000000E+03 0.  0.
        998    1    1    2    0    0 -0.17322150583E+03 -0.10899409970E+03  0.11887617463E+04  0.12062917945E+04  0.10000000000E+02 0.  1.
</event>
<event>
 5    1  0.5525569E-010  0.3865666E+03  0.7957747E-01  0.3423055E+00
         13   -1    0    0    0    0  0.00000000000E+00  0.00000000000E+00  0.14999999963E+04  0.15000000000E+04  0.10566000000E+00 0.  1.
        994   -1    0    0    0    0 -0.00000000000E+00 -0.00000000000E+00  0.11368683772E-12  0.17120000000E+03  0.17120000000E+03 0.  0.
         13    1    1    2    0    0 -0.18025806987E+02  0.80072200123E+01  0.10414533927E+03  0.10599673648E+03  0.10566000000E+00 0.  1.
        994    1    1    2    0    0  0.73980427590E+02 -0.88229749969E+02  0.45501669773E+02  0.21127573074E+03  0.17120000000E+03 0.  0.
        998    1    1    2    0    0 -0.55954620603E+02  0.80222529957E+02  0.13503529872E+04  0.13539275328E+04  0.10000000000E+02 0.  1.
</event>
<event>
 5    1  0.5525569E-010  0.3710099E+03  0.7957747E-01  0.3491262E+00
         13   -1    0    0    0    0  0.00000000000E+00  0.00000000000E+00  0.14999999963E+04  0.15000000000E+04  0.10566000000E+00 0.  1.
        994   -1    0    0    0    0 -0.00000000000E+00 -0.00000000000E+00  0.11368683772E-12  0.17120000000E+03  0.17120000000E+03 0.  0.
         13    1    1    2    0    0 -0.61637845195E+02  0.35482332994E+02  0.38935023875E+03  0.39579267236E+03  0.10566000000E+00 0.  1.
        994    1    1    2    0    0 -0.41300776453E+02 -0.60610985016E+01  0.17612142588E+02  0.17709353070E+03  0.17120000000E+03 0.  0.
        998    1    1    2    0    0  0.10293862165E+03 -0.29421234492E+02  0.10930376149E+04  0.10983137969E+04  0.10000000000E+02 0.  1.
</event>
<event>
 5    1  0.5525569E-010  0.3847984E+03  0.7957747E-01  0.3430528E+00
         13   -1    0    0    0    0  0.00000000000E+00  0.00000000000E+00  0.14999999963E+04  0.15000000000E+04  0.10566000000E+00 0. -1.
        994   -1    0    0    0    0 -0.00000000000E+00 -0.00000000000E+00  0.11368683772E-12  0.17120000000E+03  0.17120000000E+03 0.  0.
         13    1    1    2    0    0 -0.15163493001E+02 -0.16033225415E+02  0.10972914346E+03  0.11192627898E+03  0.10566000000E+00 0. -1.
        994    1    1    2    0    0  0.10200498080E+02  0.56060240717E+02  0.12488820905E+02  0.18086517464E+03  0.17120000000E+03 0.  0.
        998    1    1    2    0    0  0.49629949212E+01 -0.40027015302E+02  0.13777820319E+04  0.13784085464E+04  0.10000000000E+02 0. -1.
</event>
<event>
 5    1  0.5525569E-010  0.3410343E+03  0.7957747E-01  0.3640613E+00
         13   -1    0    0    0    0  0.00000000000E+00  0.00000000000E+00  0.14999999963E+04  0.15000000000E+04  0.10566000000E+00 0. -1.
        994   -1    0    0    0    0 -0.00000000000E+00 -0.00000000000E+00  0.11368683772E-12  0.17120000000E+03  0.17120000000E+03 0.  0.
         13    1    1    2    0    0 -0.17004757636E+03  0.19997450600E+03  0.86147677864E+03  0.90058216315E+03  0.10566000000E+00 0. -1.
        994    1    1    2    0    0  0.17590333856E+03 -0.25141408343E+03  0.62366755694E+03  0.71583635521E+03  0.17120000000E+03 0.  0.
        998    1    1    2    0    0 -0.58557621958E+01  0.51439577422E+02  0.14855660698E+02  0.54781481643E+02  0.10000000000E+02 0.  1.
</event>
<event>
 5    1  0.5525569E-010  0.3877253E+03  0.7957747E-01  0.3418196E+00
         13   -1    0    0    0    0  0.00000000000E+00  0.00000000000E+00  0.14999999963E+04  0.15000000000E+04  0.10566000000E+00 0. -1.
        994   -1    0    0    0    0 -0.00000000000E+00 -0.00000000000E+00  0.11368683772E-12  0.17120000000E+03  0.17120000000E+03 0.  0.
         13    1    1    2    0    0 -0.89629981591E+02  0.87192086153E+01  0.44130605177E+03  0.45040048922E+03  0.10566000000E+00 0. -1.
        994    1    1    2    0    0  0.22755350490E+03 -0.24027125746E+02  0.19498712022E+03  0.34595854869E+03  0.17120000000E+03 0.  0.
        998    1    1    2    0    0 -0.13792352331E+03  0.15307917131E+02  0.86370682430E+03  0.87484096209E+03  0.10000000000E+02 0. -1.
</event>
<event>
 5    1  0.5525569E-010  0.3869748E+03  0.7957747E-01  0.3421340E+00
         13   -1    0    0    0    0  0.00000000000E+00  0.00000000000E+00  0.14999999963E+04  0.15000000000E+04  0.10566000000E+00 0.  1.
        994   -1    0    0    0    0 -0.00000000000E+00 -0.00000000000E+00  0.11368683772E-12  0.17120000000E+03  0.17120000000E+03 0.  0.
         13    1    1    2    0    0  0.54417583794E+02  0.22244536594E+03  0.10497467927E+04  0.10744354584E+04  0.10566000000E+00 0.  1.
        994    1    1    2    0    0 -0.66579555711E+02 -0.24774799488E+03  0.25767108971E+03  0.40189020475E+03  0.17120000000E+03 0.  0.
        998    1    1    2    0    0  0.12161971917E+02  0.25302628932E+02  0.19258211382E+03  0.19487433683E+03  0.10000000000E+02 0.  1.
</event>
<event>
 5    1  0.5525569E-010  0.3871274E+03  0.7957747E-01  0.3420699E+00
         13   -1    0    0    0    0  0.00000000000E+00  0.00000000000E+00  0.14999999963E+04  0.15000000000E+04  0.10566000000E+00 0.  1.
        994   -1    0    0    0    0 -0.00000000000E+00 -0.00000000000E+00  0.11368683772E-12  0.17120000000E+03  0.17120000000E+03 0.  0.
         13    1    1    2    0    0 -0.98030989180E+02  0.67172639816E+01  0.52438621623E+03  0.53351299086E+03  0.10566000000E+00 0.  1.
        994    1    1    2    0    0  0.21542115775E+03  0.19649370884E+02  0.17208381092E+03  0.32513789531E+03  0.17120000000E+03 0.  0.
        998    1    1    2    0    0 -0.11739016857E+03 -0.26366634866E+02  0.80352996913E+03  0.81254911384E+03  0.10000000000E+02 0.  1.
</event>
<event>
 5    1  0.5525569E-010  0.3852099E+03  0.7957747E-01  0.3428782E+00
         13   -1    0    0    0    0  0.00000000000E+00  0.00000000000E+00  0.14999999963E+04  0.15000000000E+04  0.10566000000E+00 0. -1.
        994   -1    0    0    0    0 -0.00000000000E+00 -0.00000000000E+00  0.11368683772E-12  0.17120000000E+03  0.17120000000E+03 0.  0.
         13    1    1    2    0    0  0.77728204888E+00 -0.30259588128E+03  0.95098184629E+03  0.99796360388E+03  0.10566000000E+00 0. -1.
        994    1    1    2    0    0  0.11335370633E+02  0.31637604552E+03  0.47275459353E+03  0.59416213150E+03  0.17120000000E+03 0.  0.
        998    1    1    2    0    0 -0.12112652682E+02 -0.13780164238E+02  0.76263556457E+02  0.79074264618E+02  0.10000000000E+02 0.  1.
</event>
<event>
 5    1  0.6471259E-010  0.3867542E+03  0.7957747E-01  0.3422267E+00
         13   -1    0    0    0    0  0.00000000000E+00  0.00000000000E+00  0.14999999963E+04  0.15000000000E+04  0.10566000000E+00 0. -1.
        994   -1    0    0    0    0 -0.00000000000E+00 -0.00000000000E+00  0.11368683772E-12  0.17120000000E+03  0.17120000000E+03 0.  0.
         13    1    1    2    0    0 -0.14361757927E+03  0.13320309632E+03  0.11639996236E+04  0.11803661333E+04  0.10566000000E+00 0. -1.
        994    1    1    2    0    0  0.15938017763E+03 -0.13896833968E+03  0.16389761800E+03  0.31762573832E+03  0.17120000000E+03 0.  0.
        998    1    1    2    0    0 -0.15762598366E+02  0.57652433620E+01  0.17210275473E+03  0.17320812834E+03  0.10000000000E+02 0.  1.
</event>
<event>
 5    1  0.5525569E-010  0.3862349E+03  0.7957747E-01  0.3424452E+00
         13   -1    0    0    0    0  0.00000000000E+00  0.00000000000E+00  0.14999999963E+04  0.15000000000E+04  0.10566000000E+00 0. -1.
        994   -1    0    0    0    0 -0.00000000000E+00 -0.00000000000E+00  0.11368683772E-12  0.17120000000E+03  0.17120000000E+03 0.  0.
         13    1    1    2    0    0 -0.72697953477E+02 -0.18724370475E+03  0.67136993246E+03  0.70077299804E+03  0.10566000000E+00 0. -1.
        994    1    1    2    0    0  0.14010515075E+03  0.26876317444E+03  0.40672241718E+03  0.53534630086E+03  0.17120000000E+03 0.  0.
        998    1    1    2    0    0 -0.67407197270E+02 -0.81519469692E+02  0.42190764664E+03  0.43508070111E+03  0.10000000000E+02 0. -1.
</event>
<event>
 5    1  0.5525569E-010  0.3865232E+03  0.7957747E-01  0.3423238E+00
         13   -1    0    0    0    0  0.00000000000E+00  0.00000000000E+00  0.14999999963E+04  0.15000000000E+04  0.10566000000E+00 0.  1.
        994   -1    0    0    0    0 -0.00000000000E+00 -0.00000000000E+00  0.11368683772E-12  0.17120000000E+03  0.17120000000E+03 0.  0.
         13    1    1    2    0    0 -0.12607869238E+02  0.12055769060E+03  0.47444335281E+03  0.48968318464E+03  0.10566000000E+00 0.  1.
        994    1    1    2    0    0 -0.49938922823E+01 -0.26127797474E+03  0.27065834855E+03  0.41334791723E+03  0.17120000000E+03 0.  0.
        998    1    1    2    0    0  0.17601761520E+02  0.14072028414E+03  0.75489829492E+03  0.76816889813E+03  0.10000000000E+02 0. -1.
</event>
<event>
 5    1  0.5525569E-010  0.3859906E+03  0.7957747E-01  0.3425482E+00
         13   -1    0    0    0    0  0.00000000000E+00  0.00000000000E+00  0.14999999963E+04  0.15000000000E+04  0.10566000000E+00 0.  1.
        994   -1    0    0    0    0 -0.00000000000E+00 -0.00000000000E+00  0.11368683772E-12  0.17120000000E+03  0.17120000000E+03 0.  0.
         13    1    1    2    0    0  0.33014515150E+02 -0.29858867177E+02  0.15270838328E+03  0.15906404888E+03  0.10566000000E+00 0.  1.
        994    1    1    2    0    0 -0.15972651052E+03  0.15388923359E+03  0.18362498241E+03  0.33499556496E+03  0.17120000000E+03 0.  0.
        998    1    1    2    0    0  0.12671199537E+03 -0.12403036641E+03  0.11636666306E+04  0.11771403862E+04  0.10000000000E+02 0.  1.
</event>
<event>
 5    1  0.5525569E-010  0.3831806E+03  0.7957747E-01  0.3437425E+00
         13   -1    0    0    0    0  0.00000000000E+00  0.00000000000E+00  0.14999999963E+04  0.15000000000E+04  0.10566000000E+00 0.  1.
        994   -1    0    0    0    0 -0.00000000000E+00 -0.00000000000E+00  0.11368683772E-12  0.17120000000E+03  0.17120000000E+03 0.  0.
         13    1    1    2    0    0 -0.95768264484E+02 -0.18198059419E+03  0.12259361966E+04  0.12430639832E+04  0.10566000000E+00 0.  1.
        994    1    1    2    0    0  0.11357073819E+03  0.20386289923E+03  0.21050472362E+03  0.35788276421E+03  0.17120000000E+03 0.  0.
        998    1    1    2    0    0 -0.17802473706E+02 -0.21882305033E+02  0.63559076083E+02  0.70253252566E+02  0.10000000000E+02 0. -1.
</event>
<event>
 5    1  0.8846116E-010  0.3866206E+03  0.7957747E-01  0.3422828E+00
         13   -1    0    0    0    0  0.00000000000E+00  0.00000000000E+00  0.14999999963E+04  0.15000000000E+04  0.10566000000E+00 0.  1.
        994   -1    0    0    0    0 -0.00000000000E+00 -0.00000000000E+00  0.11368683772E-12  0.17120000000E+03  0.17120000000E+03 0.  0.
         13    1    1    2    0    0  0.11815796551E+02  0.13569117342E+02  0.10391187609E+03  0.10545815829E+03  0.10566000000E+00 0.  1.
        994    1    1    2    0    0 -0.51683559971E+02 -0.58449895511E+02  0.21001877033E+02  0.18930953356E+03  0.17120000000E+03 0.  0.
        998    1    1    2    0    0  0.39867763421E+02  0.44880778168E+02  0.13750862432E+04  0.13764323082E+04  0.10000000000E+02 0.  1.
</event>
<event>
 5    1  0.5525569E-010  0.3822799E+03  0.7957747E-01  0.3441291E+00
         13   -1    0    0    0    0  0.00000000000E+00  0.00000000000E+00  0.14999999963E+04  0.15000000000E+04  0.10566000000E+00 0. -1.
        994   -1    0    0    0    0 -0.00000000000E+00 -0.00000000000E+00  0.11368683772E-12  0.17120000000E+03  0.17120000000E+03 0.  0.
         13    1    1    2    0    0  0.60311390503E+02 -0.46083817495E+02  0.41831747853E+03  0.42514786377E+03  0.10566000000E+00 0. -1.
        994    1    1    2    0    0  0.36426415320E+02 -0.89474967300E+02  0.52542651303E+02  0.20347683827E+03  0.17120000000E+03 0.  0.
        998    1    1    2    0    0 -0.96737805824E+02  0.13555878480E+03  0.10291398664E+04  0.10425752980E+04  0.10000000000E+02 0. -1.
</event>
<event>
 5    1  0.5525569E-010  0.3862891E+03  0.7957747E-01  0.3424223E+00
         13   -1    0    0    0    0  0.00000000000E+00  0.00000000000E+00  0.14999999963E+04  0.15000000000E+04  0.10566000000E+00 0.  1.
        994   -1    0    0    0    0 -0.00000000000E+00 -0.00000000000E+00  0.11368683772E-12  0.17120000000E+03  0.17120000000E+03 0.  0.
         13    1    1    2    0    0 -0.11239660582E+03  0.14587476783E+03  0.73134227729E+03  0.75417105659E+03  0.10566000000E+00 0.  1.
        994    1    1    2    0    0  0.16156747335E+03 -0.20887347469E+03  0.27832785955E+03  0.42012856875E+03  0.17120000000E+03 0.  0.
        998    1    1    2    0    0 -0.49170867535E+02  0.62998706861E+02  0.49032985944E+03  0.49690037466E+03  0.10000000000E+02 0.  1.
</event>
<event>
 5    1  0.5525569E-010  0.3862908E+03  0.7957747E-01  0.3424216E+00
         13   -1    0    0    0    0  0.00000000000E+00  0.00000000000E+00  0.14999999963E+04  0.15000000000E+04  0.10566000000E+00 0. -1.
        994   -1    0    0    0    0 -0.00000000000E+00 -0.00000000000E+00  0.11368683772E-12  0.17120000000E+03  0.17120000000E+03 0.  0.
         13    1    1    2    0    0 -0.82474369108E+02  0.20236467816E+03  0.94656341720E+03  0.97146065205E+03  0.10566000000E+00 0. -1.
        994    1    1    2    0    0  0.97375147063E+02 -0.23842181894E+03  0.26136800799E+03  0.40490685177E+03  0.17120000000E+03 0.  0.
        998    1    1    2    0    0 -0.14900777954E+02  0.36057140783E+02  0.29206857109E+03  0.29483249618E+03  0.10000000000E+02 0.  1.
</event>
<event>
 5    1  0.5525569E-010  0.3833129E+03  0.7957747E-01  0.3436859E+00
         13   -1    0    0    0    0  0.00000000000E+00  0.00000000000E+00  0.14999999963E+04  0.15000000000E+04  0.10566000000E+00 0. -1.
        994   -1    0    0    0    0 -0.00000000000E+00 -0.00000000000E+00  0.11368683772E-12  0.17120000000E+03  0.17120000000E+03 0.  0.
         13    1    1    2    0    0 -0.33015045070E+01 -0.14537212718E+03  0.85245229373E+03  0.86476521642E+03  0.10566000000E+00 0. -1.
        994    1    1    2    0    0 -0.40138551474E+02  0.18591677221E+03  0.13305490247E+03  0.28842537436E+03  0.17120000000E+03 0.  0.
        998    1    1    2    0    0  0.43440055981E+02 -0.40544645031E+02  0.51449280008E+03  0.51800940922E+03  0.10000000000E+02 0. -1.
</event>
<event>
 5    1  0.5525569E-010  0.3751422E+03  0.7957747E-01  0.3472587E+00
         13   -1    0    0    0    0  0.00000000000E+00  0.00000000000E+00  0.14999999963E+04  0.15000000000E+04  0.10566000000E+00 0. -1.
        994   -1    0    0    0    0 -0.00000000000E+00 -0.00000000000E+00  0.11368683772E-12  0.17120000000E+03  0.17120000000E+03 0.  0.
         13    1    1    2    0    0  0.68170609147E+01 -0.44906170976E+02  0.20940312780E+03  0.21427253116E+03  0.10566000000E+00 0. -1.
        994    1    1    2    0    0  0.74847766436E+02 -0.32403306025E+01  0.25920782660E+02  0.18866376138E+03  0.17120000000E+03 0.  0.
        998    1    1    2    0    0 -0.81664827350E+02  0.48146501578E+02  0.12646760858E+04  0.12682637075E+04  0.10000000000E+02 0.  1.
</event>
<event>
 5    1  0.5525569E-010  0.3523432E+03  0.7957747E-01  0.3581194E+00
         13   -1    0    0    0    0  0.00000000000E+00  0.00000000000E+00  0.14999999963E+04  0.15000000000E+04  0.10566000000E+00 0. -1.
        994   -1    0    0    0    0 -0.00000000000E+00 -0.00000000000E+00  0.11368683772E-12  0.17120000000E+03  0.17120000000E+03 0.  0.
         13    1    1    2    0    0  0.20783382120E+03 -0.16973050419E+03  0.88522916330E+03  0.92500487783E+03  0.10566000000E+00 0. -1.
        994    1    1    2    0    0 -0.25659490590E+03  0.12711793554E+03  0.39592721444E+03  0.51775256098E+03  0.17120000000E+03 0.  0.
        998    1    1    2    0    0  0.48761084699E+02  0.42612568646E+02  0.21884361854E+03  0.22844256119E+03  0.10000000000E+02 0. -1.
</event>
<event>
 5    1  0.5525569E-010  0.3881031E+03  0.7957747E-01  0.3416617E+00
         13   -1    0    0    0    0  0.00000000000E+00  0.00000000000E+00  0.14999999963E+04  0.15000000000E+04  0.10566000000E+00 0.  1.
        994   -1    0    0    0    0 -0.00000000000E+00 -0.00000000000E+00  0.11368683772E-12  0.17120000000E+03  0.17120000000E+03 0.  0.
         13    1    1    2    0    0 -0.14394411852E+03  0.87683876136E+02  0.57569871828E+03  0.59986448202E+03  0.10566000000E+00 0.  1.
        994    1    1    2    0    0  0.26925440006E+03 -0.16301886292E+03  0.45182961460E+03  0.57665632941E+03  0.17120000000E+03 0.  0.
        998    1    1    2    0    0 -0.12531028154E+03  0.75334986789E+02  0.47247166340E+03  0.49467918857E+03  0.10000000000E+02 0.  0.
</event>
<event>
 5    1  0.6285837E-010  0.3866652E+03  0.7957747E-01  0.3422640E+00
         13   -1    0    0    0    0  0.00000000000E+00  0.00000000000E+00  0.14999999963E+04  0.15000000000E+04  0.10566000000E+00 0. -1.
        994   -1    0    0    0    0 -0.00000000000E+00 -0.00000000000E+00  0.11368683772E-12  0.17120000000E+03  0.17120000000E+03 0.  0.
         13    1    1    2    0    0 -0.21047446748E+03 -0.77247696098E+02  0.11972453131E+04  0.12180570836E+04  0.10566000000E+00 0. -1.
        994    1    1    2    0    0  0.21814446547E+03  0.84288849161E+02  0.20664226066E+03  0.35595235889E+03  0.17120000000E+03 0.  0.
        998    1    1    2    0    0 -0.76699979859E+01 -0.70411530632E+01  0.96112422532E+02  0.97190557517E+02  0.10000000000E+02 0. -1.
</event>
<event>
 5    1  0.5525569E-010  0.4003178E+03  0.7957747E-01  0.3367197E+00
         13   -1    0    0    0    0  0.00000000000E+00  0.00000000000E+00  0.14999999963E+04  0.15000000000E+04  0.10566000000E+00 0. -1.
        994   -1    0    0    0    0 -0.00000000000E+00 -0.00000000000E+00  0.11368683772E-12  0.17120000000E+03  0.17120000000E+03 0.  0.
         13    1    1    2    0    0 -0.12521413473E+02 -0.11782846152E+03  0.37569825655E+03  0.39394101497E+03  0.10566000000E+00 0. -1.
        994    1    1    2    0    0 -0.15967636115E+03  0.28474876860E+02  0.14060762638E+03  0.27456748445E+03  0.17120000000E+03 0.  0.
        998    1    1    2    0    0  0.17219777463E+03  0.89353584664E+02  0.98369411335E+03  0.10026915006E+04  0.10000000000E+02 0. -1.
</event>
<event>
 5    1  0.5525569E-010  0.3877566E+03  0.7957747E-01  0.3418065E+00
         13   -1    0    0    0    0  0.00000000000E+00  0.00000000000E+00  0.14999999963E+04  0.15000000000E+04  0.10566000000E+00 0. -1.
        994   -1    0    0    0    0 -0.00000000000E+00 -0.00000000000E+00  0.11368683772E-12  0.17120000000E+03  0.17120000000E+03 0.  0.
         13    1    1    2    0    0  0.34060252879E+02  0.76533711815E+02  0.36424417330E+03  0.37375304522E+03  0.10566000000E+00 0. -1.
        994    1    1    2    0    0 -0.10154967856E+03 -0.22732384518E+03  0.23819111050E+03  0.38475045539E+03  0.17120000000E+03 0.  0.
        998    1    1    2    0    0  0.67489425685E+02  0.15079013336E+03  0.89756471248E+03  0.91269649938E+03  0.10000000000E+02 0. -1.
</event>
<event>
 5    1  0.5525569E-010  0.3850135E+03  0.7957747E-01  0.3429615E+00
         13   -1    0    0    0    0  0.00000000000E+00  0.00000000000E+00  0.14999999963E+04  0.15000000000E+04  0.10566000000E+00 0.  1.
        994   -1    0    0    0    0 -0.00000000000E+00 -0.00000000000E+00  0.11368683772E-12  0.17120000000E+03  0.17120000000E+03 0.  0.
         13    1    1    2    0    0  0.27018090194E+03  0.18925518429E+03  0.50799654875E+03  0.60570269048E+03  0.10566000000E+00 0.  1.
        994    1    1    2    0    0 -0.27314323655E+03 -0.19190158938E+03  0.98012317819E+03  0.10494685951E+04  0.17120000000E+03 0.  0.
        998    1    1    2    0    0  0.29623346084E+01  0.26464050941E+01  0.11880269337E+02  0.16028714414E+02  0.10000000000E+02 0.  0.
</event>
<event>
 5    1  0.5525569E-010  0.3858581E+03  0.7957747E-01  0.3426041E+00
         13   -1    0    0    0    0  0.00000000000E+00  0.00000000000E+00  0.14999999963E+04  0.15000000000E+04  0.10566000000E+00 0. -1.
        994   -1    0    0    0    0 -0.00000000000E+00 -0.00000000000E+00  0.11368683772E-12  0.17120000000E+03  0.17120000000E+03 0.  0.
         13    1    1    2    0    0  0.84884390922E+02  0.50193206441E+02  0.42770913986E+03  0.43893033306E+03  0.10566000000E+00 0. -1.
        994    1    1    2    0    0 -0.24348455565E+03 -0.19109557762E+03  0.43579430577E+03  0.56127387750E+03  0.17120000000E+03 0.  0.
        998    1    1    2    0    0  0.15860016473E+03  0.14090237118E+03  0.63649655065E+03  0.67099578944E+03  0.10000000000E+02 0. -1.
</event>
<event>
 5    1  0.5525569E-010  0.3828083E+03  0.7957747E-01  0.3439021E+00
         13   -1    0    0    0    0  0.00000000000E+00  0.00000000000E+00  0.14999999963E+04  0.15000000000E+04  0.10566000000E+00 0. -1.
        994   -1    0    0    0    0 -0.00000000000E+00 -0.00000000000E+00  0.11368683772E-12  0.17120000000E+03  0.17120000000E+03 0.  0.
         13    1    1    2    0    0  0.14307558821E+02 -0.18216663916E+03  0.71408541251E+03  0.73709387339E+03  0.10566000000E+00 0. -1.
        994    1    1    2    0    0 -0.89259199559E+02  0.27541073818E+03  0.36470498673E+03  0.49612241106E+03  0.17120000000E+03 0.  0.
        998    1    1    2    0    0  0.74951640737E+02 -0.93244099021E+02  0.42120959703E+03  0.43798371554E+03  0.10000000000E+02 0. -1.
</event>
<event>
 5    1  0.5525569E-010  0.3851558E+03  0.7957747E-01  0.3429012E+00
         13   -1    0    0    0    0  0.00000000000E+00  0.00000000000E+00  0.14999999963E+04  0.15000000000E+04  0.10566000000E+00 0. -1.
        994   -1    0    0    0    0 -0.00000000000E+00 -0.00000000000E+00  0.11368683772E-12  0.17120000000E+03  0.17120000000E+03 0.  0.
         13    1    1    2    0    0 -0.15463078687E+02  0.43075628732E+01  0.88269267668E+02  0.89716980997E+02  0.10566000000E+00 0. -1.
        994    1    1    2    0    0 -0.88441972775E+01 -0.85045220068E+02  0.25964339375E+02  0.19311782984E+03  0.17120000000E+03 0.  0.
        998    1    1    2    0    0  0.24307275965E+02  0.80737657194E+02  0.13857663892E+04  0.13883651892E+04  0.10000000000E+02 0. -1.
</event>
<event>
 5    1  0.5525569E-010  0.3704065E+03  0.7957747E-01  0.3494025E+00
         13   -1    0    0    0    0  0.00000000000E+00  0.00000000000E+00  0.14999999963E+04  0.15000000000E+04  0.10566000000E+00 0.  1.
        994   -1    0    0    0    0 -0.00000000000E+00 -0.00000000000E+00  0.11368683772E-12  0.17120000000E+03  0.17120000000E+03 0.  0.
         13    1    1    2    0    0 -0.14508734498E+03 -0.16381458541E+03  0.28358333777E+03  0.35819698029E+03  0.10566000000E+00 0.  1.
        994    1    1    2    0    0  0.23658248859E+03  0.22721716537E+03  0.79285920172E+03  0.87494803725E+03  0.17120000000E+03 0.  0.
        998    1    1    2    0    0 -0.91495143616E+02 -0.63402579953E+02  0.42355745679E+03  0.43805498245E+03  0.10000000000E+02 0. -1.
</event>
<event>
 5    1  0.5525569E-010  0.3853036E+03  0.7957747E-01  0.3428385E+00
         13   -1    0    0    0    0  0.00000000000E+00  0.00000000000E+00  0.14999999963E+04  0.15000000000E+04  0.10566000000E+00 0. -1.
        994   -1    0    0    0    0 -0.00000000000E+00 -0.00000000000E+00  0.11368683772E-12  0.17120000000E+03  0.17120000000E+03 0.  0.
         13    1    1    2    0    0 -0.68317620761E+02 -0.86770441502E+01  0.36755984026E+03  0.37395566012E+03  0.10566000000E+00 0. -1.
        994    1    1    2    0    0  0.15187692634E+03  0.27062228538E+02  0.84019677185E+02  0.24529107428E+03  0.17120000000E+03 0.  0.
        998    1    1    2    0    0 -0.83559305583E+02 -0.18385184388E+02  0.10484204788E+04  0.10519532656E+04  0.10000000000E+02 0. -1.
</event>
<event>
 5    1  0.5525569E-010  0.3837778E+03  0.7957747E-01  0.3434872E+00
         13   -1    0    0    0    0  0.00000000000E+00  0.00000000000E+00  0.14999999963E+04  0.15000000000E+04  0.10566000000E+00 0.  1.
        994   -1    0    0    0    0 -0.00000000000E+00 -0.00000000000E+00  0.11368683772E-12  0.17120000000E+03  0.17120000000E+03 0.  0.
         13    1    1    2    0    0 -0.11253954909E+03  0.57129412806E+02  0.51627437192E+03  0.53147733553E+03  0.10566000000E+00 0.  1.
        994    1    1    2    0    0  0.23326089690E+03 -0.20165369772E+03  0.43804535169E+03  0.56237712432E+03  0.17120000000E+03 0.  0.
        998    1    1    2    0    0 -0.12072134781E+03  0.14452428491E+03  0.54568027267E+03  0.57734554014E+03  0.10000000000E+02 0.  1.
</event>
<event>
 5    1  0.5525569E-010  0.3794727E+03  0.7957747E-01  0.3453458E+00
         13   -1    0    0    0    0  0.00000000000E+00  0.00000000000E+00  0.14999999963E+04  0.15000000000E+04  0.10566000000E+00 0. -1.
        994   -1    0    0    0    0 -0.00000000000E+00 -0.00000000000E+00  0.11368683772E-12  0.17120000000E+03  0.17120000000E+03 0.  0.
         13    1    1    2    0    0 -0.83879245597E+01  0.56091048598E+02  0.26043188051E+03  0.26653581103E+03  0.10566000000E+00 0. -1.
        994    1    1    2    0    0  0.12286684214E+03 -0.78145529547E+02  0.79026449071E+02  0.23823854503E+03  0.17120000000E+03 0.  0.
        998    1    1    2    0    0 -0.11447891758E+03  0.22054480949E+02  0.11605416667E+04  0.11664256439E+04  0.10000000000E+02 0. -1.
</event>
<event>
 5    1  0.5525569E-010  0.3861447E+03  0.7957747E-01  0.3424832E+00
         13   -1    0    0    0    0  0.00000000000E+00  0.00000000000E+00  0.14999999963E+04  0.15000000000E+04  0.10566000000E+00 0.  1.
        994   -1    0    0    0    0 -0.00000000000E+00 -0.00000000000E+00  0.11368683772E-12  0.17120000000E+03  0.17120000000E+03 0.  0.
         13    1    1    2    0    0  0.17492637701E+03 -0.27839152390E+03  0.57835870858E+03  0.66528180864E+03  0.10566000000E+00 0.  1.
        994    1    1    2    0    0 -0.17697864247E+03  0.29455015880E+03  0.88008316480E+03  0.96017553234E+03  0.17120000000E+03 0.  0.
        998    1    1    2    0    0  0.20522654576E+01 -0.16158634902E+02  0.41558122899E+02  0.45742659021E+02  0.10000000000E+02 0.  1.
</event>
<event>
 5    1  0.5525569E-010  0.3842133E+03  0.7957747E-01  0.3433016E+00
         13   -1    0    0    0    0  0.00000000000E+00  0.00000000000E+00  0.14999999963E+04  0.15000000000E+04  0.10566000000E+00 0.  1.
        994   -1    0    0    0    0 -0.00000000000E+00 -0.00000000000E+00  0.11368683772E-12  0.17120000000E+03  0.17120000000E+03 0.  0.
         13    1    1    2    0    0 -0.68742395301E+02 -0.19929999467E+02  0.35986881835E+03  0.36691729228E+03  0.10566000000E+00 0.  1.
        994    1    1    2    0    0  0.13766299091E+03  0.73169098971E+02  0.86756762350E+02  0.24726704577E+03  0.17120000000E+03 0.  0.
        998    1    1    2    0    0 -0.68920595604E+02 -0.53239099503E+02  0.10533744156E+04  0.10570156619E+04  0.10000000000E+02 0.  1.
</event>
<event>
 5    1  0.6614680E-010  0.3864999E+03  0.7957747E-01  0.3423336E+00
         13   -1    0    0    0    0  0.00000000000E+00  0.00000000000E+00  0.14999999963E+04  0.15000000000E+04  0.10566000000E+00 0. -1.
        994   -1    0    0    0    0 -0.00000000000E+00 -0.00000000000E+00  0.11368683772E-12  0.17120000000E+03  0.17120000000E+03 0.  0.
         13    1    1    2    0    0  0.85562952600E+02 -0.20430999688E+03  0.12326651658E+04  0.12524084860E+04  0.10566000000E+00 0. -1.
        994    1    1    2    0    0 -0.94886068327E+02  0.21180150776E+03  0.20320996091E+03  0.35279877107E+03  0.17120000000E+03 0.  0.
        998    1    1    2    0    0  0.93231157264E+01 -0.74915108799E+01  0.64124869614E+02  0.65992742974E+02  0.10000000000E+02 0.  0.
</event>
<event>
 5    1  0.5525569E-010  0.3859050E+03  0.7957747E-01  0.3425843E+00
         13   -1    0    0    0    0  0.00000000000E+00  0.00000000000E+00  0.14999999963E+04  0.15000000000E+04  0.10566000000E+00 0. -1.
        994   -1    0    0    0    0 -0.00000000000E+00 -0.00000000000E+00  0.11368683772E-12  0.17120000000E+03  0.17120000000E+03 0.  0.
         13    1    1    2    0    0  0.10009222171E+03  0.21921258127E+02  0.57239715585E+03  0.58149592397E+03  0.10566000000E+00 0. -1.
        994    1    1    2    0    0 -0.17540379516E+03 -0.78143679676E+02  0.13319771081E+03  0.28969638623E+03  0.17120000000E+03 0.  0.
        998    1    1    2    0    0  0.75311573442E+02  0.56222421549E+02  0.79440512962E+03  0.80000768981E+03  0.10000000000E+02 0. -1.
</event>
<event>
 5    1  0.5525569E-010  0.3855829E+03  0.7957747E-01  0.3427204E+00
         13   -1    0    0    0    0  0.00000000000E+00  0.00000000000E+00  0.14999999963E+04  0.15000000000E+04  0.10566000000E+00 0.  1.
        994   -1    0    0    0    0 -0.00000000000E+00 -0.00000000000E+00  0.11368683772E-12  0.17120000000E+03  0.17120000000E+03 0.  0.
         13    1    1    2    0    0 -0.17797441417E+03 -0.48514289456E+02  0.83661245362E+03  0.85670819834E+03  0.10566000000E+00 0.  1.
        994    1    1    2    0    0  0.25372019442E+03  0.30959980417E+02  0.25773659882E+03  0.40133533587E+03  0.17120000000E+03 0.  0.
        998    1    1    2    0    0 -0.75745780255E+02  0.17554309039E+02  0.40565094384E+03  0.41315646580E+03  0.10000000000E+02 0.  1.
</event>
<event>
 5    1  0.5525569E-010  0.3867175E+03  0.7957747E-01  0.3422421E+00
         13   -1    0    0    0    0  0.00000000000E+00  0.00000000000E+00  0.14999999963E+04  0.15000000000E+04  0.10566000000E+00 0. -1.
        994   -1    0    0    0    0 -0.00000000000E+00 -0.00000000000E+00  0.11368683772E-12  0.17120000000E+03  0.17120000000E+03 0.  0.
         13    1    1    2    0    0 -0.21652887925E+03 -0.64425398955E+02  0.11400824340E+04  0.11622492655E+04  0.10566000000E+00 0. -1.
        994    1    1    2    0    0  0.23297723520E+03  0.81071728253E+02  0.23452536552E+03  0.38100210540E+03  0.17120000000E+03 0.  0.
        998    1    1    2    0    0 -0.16448355955E+02 -0.16646329298E+02  0.12539219675E+03  0.12794862914E+03  0.10000000000E+02 0. -1.
</event>
<event>
 5    1  0.5525569E-010  0.3815753E+03  0.7957747E-01  0.3444328E+00
         13   -1    0    0    0    0  0.00000000000E+00  0.00000000000E+00  0.14999999963E+04  0.15000000000E+04  0.10566000000E+00 0. -1.
        994   -1    0    0    0    0 -0.00000000000E+00 -0.00000000000E+00  0.11368683772E-12  0.17120000000E+03  0.17120000000E+03 0.  0.
         13    1    1    2    0    0  0.59870297596E+02  0.94471291904E+02  0.51824288931E+03  0.53017448166E+03  0.10566000000E+00 0. -1.
        994    1    1    2    0    0 -0.18566803753E+03 -0.12148599867E+03  0.18945339390E+03  0.33828020411E+03  0.17120000000E+03 0.  0.
        998    1    1    2    0    0  0.12579773994E+03  0.27014706764E+02  0.79230371308E+03  0.80274531423E+03  0.10000000000E+02 0. -1.
</event>
<event>
 5    1  0.5525569E-010  0.3836473E+03  0.7957747E-01  0.3435429E+00
         13   -1    0    0    0    0  0.00000000000E+00  0.00000000000E+00  0.14999999963E+04  0.15000000000E+04  0.10566000000E+00 0.  1.
        994   -1    0    0    0    0 -0.00000000000E+00 -0.00000000000E+00  0.11368683772E-12  0.17120000000E+03  0.17120000000E+03 0.  0.
         13    1    1    2    0    0 -0.58203582080E+01 -0.17118918827E+02  0.72820891443E+02  0.75032175406E+02  0.10566000000E+00 0.  1.
        994    1    1    2    0    0  0.65046165862E+02 -0.11359270479E+02  0.16840570932E+02  0.18426361971E+03  0.17120000000E+03 0.  0.
        998    1    1    2    0    0 -0.59225807654E+02  0.28478189306E+02  0.14103385339E+04  0.14119042049E+04  0.10000000000E+02 0.  1.
</event>
<event>
 5    1  0.5525569E-010  0.3823678E+03  0.7957747E-01  0.3440913E+00
         13   -1    0    0    0    0  0.00000000000E+00  0.00000000000E+00  0.14999999963E+04  0.15000000000E+04  0.10566000000E+00 0. -1.
        994   -1    0    0    0    0 -0.00000000000E+00 -0.00000000000E+00  0.11368683772E-12  0.17120000000E+03  0.17120000000E+03 0.  0.
         13    1    1    2    0    0  0.11992007909E+03 -0.17763955284E+03  0.12913832895E+04  0.13090482984E+04  0.10566000000E+00 0. -1.
        994    1    1    2    0    0 -0.11601912372E+03  0.18349901515E+03  0.17708199081E+03  0.32832879420E+03  0.17120000000E+03 0.  0.
        998    1    1    2    0    0 -0.39009553651E+01 -0.58594623036E+01  0.31534716008E+02  0.33822907399E+02  0.10000000000E+02 0.  1.
</event>
<event>
 5    1  0.5525569E-010  0.3879725E+03  0.7957747E-01  0.3417162E+00
         13   -1    0    0    0    0  0.00000000000E+00  0.00000000000E+00  0.14999999963E+04  0.15000000000E+04  0.10566000000E+00 0.  1.
        994   -1    0    0    0    0 -0.00000000000E+00 -0.00000000000E+00  0.11368683772E-12  0.17120000000E+03  0.17120000000E+03 0.  0.
         13    1    1    2    0    0  0.15551530001E+02  0.12239776207E+03  0.71686346196E+03  0.72740380567E+03  0.10566000000E+00 0.  1.
        994    1    1    2    0    0 -0.14684596461E+02 -0.22014253378E+03  0.17896573371E+03  0.33168742272E+03  0.17120000000E+03 0.  0.
        998    1    1    2    0    0 -0.86693354039E+00  0.97744771709E+02  0.60417080061E+03  0.61210877161E+03  0.10000000000E+02 0.  0.
</event>
<event>
 5    1  0.5525569E-010  0.3870818E+03  0.7957747E-01  0.3420891E+00
         13   -1    0    0    0    0  0.00000000000E+00  0.00000000000E+00  0.14999999963E+04  0.15000000000E+04  0.10566000000E+00 0.  1.
        994   -1    0    0    0    0 -0.00000000000E+00 -0.00000000000E+00  0.11368683772E-12  0.17120000000E+03  0.17120000000E+03 0.  0.
         13    1    1    2    0    0 -0.23112076709E+03  0.15525711971E+03  0.91760586744E+03  0.95891716083E+03  0.10566000000E+00 0.  1.
        994    1    1    2    0    0  0.26424713933E+03 -0.16625738865E+03  0.44362156908E+03  0.56883882293E+03  0.17120000000E+03 0.  0.
        998    1    1    2    0    0 -0.33126372232E+02  0.11000268940E+02  0.13877255976E+03  0.14344401624E+03  0.10000000000E+02 0.  1.
</event>
<event>
 5    1  0.5525569E-010  0.3820964E+03  0.7957747E-01  0.3442081E+00
         13   -1    0    0    0    0  0.00000000000E+00  0.00000000000E+00  0.14999999963E+04  0.15000000000E+04  0.10566000000E+00 0. -1.
        994   -1    0    0    0    0 -0.00000000000E+00 -0.00000000000E+00  0.11368683772E-12  0.17120000000E+03  0.17120000000E+03 0.  0.
         13    1    1    2    0    0 -0.18845403534E+01 -0.63939776557E+02  0.23157575083E+03  0.24024817597E+03  0.10566000000E+00 0. -1.
        994    1    1    2    0    0  0.83350155306E+02 -0.10742293624E+03  0.88549171770E+02  0.23587566945E+03  0.17120000000E+03 0.  0.
        998    1    1    2    0    0 -0.81465614952E+02  0.17136271279E+03  0.11798750737E+04  0.11950761546E+04  0.10000000000E+02 0. -1.
</event>
<event>
 5    1  0.5525569E-010  0.3833135E+03  0.7957747E-01  0.3436856E+00
         13   -1    0    0    0    0  0.00000000000E+00  0.00000000000E+00  0.14999999963E+04  0.15000000000E+04  0.10566000000E+00 0.  1.
        994   -1    0    0    0    0 -0.00000000000E+00 -0.00000000000E+00  0.11368683772E-12  0.17120000000E+03  0.17120000000E+03 0.  0.
         13    1    1    2    0    0  0.15490574836E+03 -0.24408110686E+03  0.84178800945E+03  0.89004406723E+03  0.10566000000E+00 0.  1.
        994    1    1    2    0    0 -0.19497668085E+03  0.25529885808E+03  0.50791299349E+03  0.62488275858E+03  0.17120000000E+03 0.  0.
        998    1    1    2    0    0  0.40070932491E+02 -0.11217751218E+02  0.15029899334E+03  0.15627317419E+03  0.10000000000E+02 0.  1.
</event>
<event>
 5    1  0.5525569E-010  0.3880125E+03  0.7957747E-01  0.3416995E+00
         13   -1    0    0    0    0  0.00000000000E+00  0.00000000000E+00  0.14999999963E+04  0.15000000000E+04  0.10566000000E+00 0. -1.
        994   -1    0    0    0    0 -0.00000000000E+00 -0.00000000000E+00  0.11368683772E-12  0.17120000000E+03  0.17120000000E+03 0.  0.
         13    1    1    2    0    0  0.17851296512E+03  0.10267714117E+03  0.87279616576E+03  0.89676230528E+03  0.10566000000E+00 0. -1.
        994    1    1    2    0    0 -0.24437527804E+03 -0.13650747529E+03  0.32017427500E+03  0.45844800544E+03  0.17120000000E+03 0.  0.
        998    1    1    2    0    0  0.65862312917E+02  0.33830334118E+02  0.30702955552E+03  0.31598968928E+03  0.10000000000E+02 0.  0.
</event>
<event>
 5    1  0.5525569E-010  0.3325644E+03  0.7957747E-01  0.3687872E+00
         13   -1    0    0    0    0  0.00000000000E+00  0.00000000000E+00  0.14999999963E+04  0.15000000000E+04  0.10566000000E+00 0.  1.
        994   -1    0    0    0    0 -0.00000000000E+00 -0.00000000000E+00  0.11368683772E-12  0.17120000000E+03  0.17120000000E+03 0.  0.
         13    1    1    2    0    0  0.11151295657E+03  0.20829921462E+03  0.10276706914E+04  0.10544812770E+04  0.10566000000E+00 0.  1.
        994    1    1    2    0    0 -0.44394310699E+02 -0.14059797249E+03  0.12881191824E+03  0.26007805553E+03  0.17120000000E+03 0.  0.
        998    1    1    2    0    0 -0.67118645868E+02 -0.67701242133E+02  0.34351738662E+03  0.35664066751E+03  0.10000000000E+02 0.  1.
</event>
<event>
 5    1  0.5525569E-010  0.3841276E+03  0.7957747E-01  0.3433381E+00
         13   -1    0    0    0    0  0.00000000000E+00  0.00000000000E+00  0.14999999963E+04  0.15000000000E+04  0.10566000000E+00 0. -1.
        994   -1    0    0    0    0 -0.00000000000E+00 -0.00000000000E+00  0.11368683772E-12  0.17120000000E+03  0.17120000000E+03 0.  0.
         13    1    1    2    0    0 -0.26011188357E+02 -0.11459152087E+01  0.14450634122E+03  0.14683320080E+03  0.10566000000E+00 0. -1.
        994    1    1    2    0    0  0.34270587797E+02  0.59058009699E+02  0.17594652567E+02  0.18515219009E+03  0.17120000000E+03 0.  0.
        998    1    1    2    0    0 -0.82593994400E+01 -0.57912094490E+02  0.13378990025E+04  0.13392146091E+04  0.10000000000E+02 0. -1.
</event>
<event>
 5    1  0.5525569E-010  0.3758153E+03  0.7957747E-01  0.3469585E+00
         13   -1    0    0    0    0  0.00000000000E+00  0.00000000000E+00  0.14999999963E+04  0.15000000000E+04  0.10566000000E+00 0. -1.
        994   -1    0    0    0    0 -0.00000000000E+00 -0.00000000000E+00  0.11368683772E-12  0.17120000000E+03  0.17120000000E+03 0.  0.
         13    1    1    2    0    0  0.39755141099E+02  0.17311054359E+02  0.18541181618E+03  0.19041453881E+03  0.10566000000E+00 0. -1.
        994    1    1    2    0    0  0.39999140275E+02 -0.91654858594E+02  0.40952952037E+02  0.20245278118E+03  0.17120000000E+03 0.  0.
        998    1    1    2    0    0 -0.79754281374E+02  0.74343804234E+02  0.12736352281E+04  0.12783326800E+04  0.10000000000E+02 0. -1.
</event>
<event>
 5    1  0.5525569E-010  0.3850187E+03  0.7957747E-01  0.3429593E+00
         13   -1    0    0    0    0  0.00000000000E+00  0.00000000000E+00  0.14999999963E+04  0.15000000000E+04  0.10566000000E+00 0. -1.
        994   -1    0    0    0    0 -0.00000000000E+00 -0.00000000000E+00  0.11368683772E-12  0.17120000000E+03  0.17120000000E+03 0.  0.
         13    1    1    2    0    0 -0.46351061489E+02 -0.59676796929E+01  0.22702217205E+03  0.23178246669E+03  0.10566000000E+00 0. -1.
        994    1    1    2    0    0  0.13367558055E+03  0.63522012650E+02  0.77313855360E+02  0.23914656418E+03  0.17120000000E+03 0.  0.
        998    1    1    2    0    0 -0.87324519065E+02 -0.57554332957E+02  0.11956639689E+04  0.12002709691E+04  0.10000000000E+02 0. -1.
</event>
<event>
 5    1  0.5525569E-010  0.3778431E+03  0.7957747E-01  0.3460604E+00
         13   -1    0    0    0    0  0.00000000000E+00  0.00000000000E+00  0.14999999963E+04  0.15000000000E+04  0.10566000000E+00 0. -1.
        994   -1    0    0    0    0 -0.00000000000E+00 -0.00000000000E+00  0.11368683772E-12  0.17120000000E+03  0.17120000000E+03 0.  0.
         13    1    1    2    0    0  0.39001462546E+01 -0.13924920299E+03  0.61479750114E+03  0.63038205102E+03  0.10566000000E+00 0. -1.
        994    1    1    2    0    0  0.96968729771E+02  0.21577786942E+03  0.22535849482E+03  0.36886164706E+03  0.17120000000E+03 0.  0.
        998    1    1    2    0    0 -0.10086887603E+03 -0.76528666427E+02  0.65984400032E+03  0.67195630192E+03  0.10000000000E+02 0. -1.
</event>
<event>
 5    1  0.5525569E-010  0.3833936E+03  0.7957747E-01  0.3436514E+00
         13   -1    0    0    0    0  0.00000000000E+00  0.00000000000E+00  0.14999999963E+04  0.15000000000E+04  0.10566000000E+00 0. -1.
        994   -1    0    0    0    0 -0.00000000000E+00 -0.00000000000E+00  0.11368683772E-12  0.17120000000E+03  0.17120000000E+03 0.  0.
         13    1    1    2    0    0 -0.81486052690E+01 -0.73883626125E+01  0.19131533671E+02  0.22068403081E+02  0.10566000000E+00 0. -1.
        994    1    1    2    0    0  0.87147944993E+02  0.21265438241E+02  0.29502768026E+02  0.19551684455E+03  0.17120000000E+03 0.  0.
        998    1    1    2    0    0 -0.78999339724E+02 -0.13877075629E+02  0.14513656946E+04  0.14536147524E+04  0.10000000000E+02 0. -1.
</event>
<event>
 5    1  0.5525569E-010  0.3781655E+03  0.7957747E-01  0.3459185E+00
         13   -1    0    0    0    0  0.00000000000E+00  0.00000000000E+00  0.14999999963E+04  0.15000000000E+04  0.10566000000E+00 0. -1.
        994   -1    0    0    0    0 -0.00000000000E+00 -0.00000000000E+00  0.11368683772E-12  0.17120000000E+03  0.17120000000E+03 0.  0.
         13    1    1    2    0    0 -0.38112539286E+02 -0.11731621474E+02  0.18848627532E+03  0.19265846398E+03  0.10566000000E+00 0. -1.
        994    1    1    2    0    0 -0.34203151457E+01 -0.73519347424E+01  0.52832117142E+01  0.17147332687E+03  0.17120000000E+03 0.  0.
        998    1    1    2    0    0  0.41532854432E+02  0.19083556216E+02  0.13062305092E+04  0.13070682092E+04  0.10000000000E+02 0. -1.
</event>
<event>
 5    1  0.5525569E-010  0.3875583E+03  0.7957747E-01  0.3418894E+00
         13   -1    0    0    0    0  0.00000000000E+00  0.00000000000E+00  0.14999999963E+04  0.15000000000E+04  0.10566000000E+00 0.  1.
        994   -1    0    0    0    0 -0.00000000000E+00 -0.00000000000E+00  0.11368683772E-12  0.17120000000E+03  0.17120000000E+03 0.  0.
         13    1    1    2    0    0  0.19212401476E+02 -0.34770318548E+00  0.97965399379E+02  0.99832198751E+02  0.10566000000E+00 0.  1.
        994    1    1    2    0    0 -0.16300276297E+03 -0.22564515734E+02  0.94279410083E+02  0.25549384586E+03  0.17120000000E+03 0.  0.
        998    1    1    2    0    0  0.14379036149E+03  0.22912218919E+02  0.13077551868E+04  0.13158739554E+04  0.10000000000E+02 0.  1.
</event>
<event>
 5    1  0.5525569E-010  0.3865107E+03  0.7957747E-01  0.3423290E+00
         13   -1    0    0    0    0  0.00000000000E+00  0.00000000000E+00  0.14999999963E+04  0.15000000000E+04  0.10566000000E+00 0. -1.
        994   -1    0    0    0    0 -0.00000000000E+00 -0.00000000000E+00  0.11368683772E-12  0.17120000000E+03  0.17120000000E+03 0.  0.
         13    1    1    2    0    0 -0.92192365040E+02  0.23467882986E+02  0.53630163410E+03  0.54467387270E+03  0.10566000000E+00 0. -1.
        994    1    1    2    0    0  0.17403640896E+03 -0.64662424512E+02  0.12320874280E+03  0.28099774927E+03  0.17120000000E+03 0.  0.
        998    1    1    2    0    0 -0.81844043924E+02  0.41194541527E+02  0.84048961937E+03  0.84552837803E+03  0.10000000000E+02 0. -1.
</event>
<event>
 5    1  0.5525569E-010  0.3881091E+03  0.7957747E-01  0.3416592E+00
         13   -1    0    0    0    0  0.00000000000E+00  0.00000000000E+00  0.14999999963E+04  0.15000000000E+04  0.10566000000E+00 0.  1.
        994   -1    0    0    0    0 -0.00000000000E+00 -0.00000000000E+00  0.11368683772E-12  0.17120000000E+03  0.17120000000E+03 0.  0.
         13    1    1    2    0    0 -0.45308578550E+02 -0.13458560422E+03  0.77124612438E+03  0.78421090765E+03  0.10566000000E+00 0.  1.
        994    1    1    2    0    0  0.73285964987E+02  0.22811376003E+03  0.21669877647E+03  0.36561526213E+03  0.17120000000E+03 0.  0.
        998    1    1    2    0    0 -0.27977386437E+02 -0.93528155807E+02  0.51205509543E+03  0.52137383022E+03  0.10000000000E+02 0.  0.
</event>
<event>
 5    1  0.5525569E-010  0.3872168E+03  0.7957747E-01  0.3420324E+00
         13   -1    0    0    0    0  0.00000000000E+00  0.00000000000E+00  0.14999999963E+04  0.15000000000E+04  0.10566000000E+00 0.  1.
        994   -1    0    0    0    0 -0.00000000000E+00 -0.00000000000E+00  0.11368683772E-12  0.17120000000E+03  0.17120000000E+03 0.  0.
         13    1    1    2    0    0  0.44617961867E+02 -0.68829933484E+02  0.48948967976E+03  0.49631490006E+03  0.10566000000E+00 0.  1.
        994    1    1    2    0    0 -0.72916460408E+02  0.19783989952E+03  0.16230771931E+03  0.31640270509E+03  0.17120000000E+03 0.  0.
        998    1    1    2    0    0  0.28298498541E+02 -0.12900996604E+03  0.84820259721E+03  0.85848239485E+03  0.10000000000E+02 0.  1.
</event>
<event>
 5    1  0.5525569E-010  0.3730929E+03  0.7957747E-01  0.3481796E+00
         13   -1    0    0    0    0  0.00000000000E+00  0.00000000000E+00  0.14999999963E+04  0.15000000000E+04  0.10566000000E+00 0. -1.
        994   -1    0    0    0    0 -0.00000000000E+00 -0.00000000000E+00  0.11368683772E-12  0.17120000000E+03  0.17120000000E+03 0.  0.
         13    1    1    2    0    0 -0.45435413526E+02  0.33793920732E+02  0.34188152680E+03  0.34653916866E+03  0.10566000000E+00 0. -1.
        994    1    1    2    0    0 -0.72990906706E+02  0.71983377220E+02  0.50719874122E+02  0.20589129338E+03  0.17120000000E+03 0.  0.
        998    1    1    2    0    0  0.11842632023E+03 -0.10577729795E+03  0.11073985954E+04  0.11187695380E+04  0.10000000000E+02 0. -1.
</event>
<event>
 5    1  0.5525569E-010  0.3864983E+03  0.7957747E-01  0.3423343E+00
         13   -1    0    0    0    0  0.00000000000E+00  0.00000000000E+00  0.14999999963E+04  0.15000000000E+04  0.10566000000E+00 0.  1.
        994   -1    0    0    0    0 -0.00000000000E+00 -0.00000000000E+00  0.11368683772E-12  0.17120000000E+03  0.17120000000E+03 0.  0.
         13    1    1    2    0    0 -0.21326351606E+03  0.70162090784E+02  0.12276811877E+04  0.12480405266E+04  0.10566000000E+00 0.  1.
        994    1    1    2    0    0  0.22599001141E+03 -0.76365909745E+02  0.21676801194E+03  0.36496718815E+03  0.17120000000E+03 0.  0.
        998    1    1    2    0    0 -0.12726495356E+02  0.62038189609E+01  0.55550796676E+02  0.58192285271E+02  0.10000000000E+02 0.  0.
</event>
<event>
 5    1  0.5525569E-010  0.3823983E+03  0.7957747E-01  0.3440782E+00
         13   -1    0    0    0    0  0.00000000000E+00  0.00000000000E+00  0.14999999963E+04  0.15000000000E+04  0.10566000000E+00 0.  1.
        994   -1    0    0    0    0 -0.00000000000E+00 -0.00000000000E+00  0.11368683772E-12  0.17120000000E+03  0.17120000000E+03 0.  0.
         13    1    1    2    0    0 -0.77536874009E+01  0.68698332755E+01  0.19604084392E+02  0.22173082024E+02  0.10566000000E+00 0.  1.
        994    1    1    2    0    0  0.10267560587E+02  0.68902253160E+02  0.19193167573E+02  0.18582454351E+03  0.17120000000E+03 0.  0.
        998    1    1    2    0    0 -0.25138731859E+01 -0.75772086435E+02  0.14612027443E+04  0.14632023745E+04  0.10000000000E+02 0.  1.
</event>
<event>
 5    1  0.5525569E-010  0.3818063E+03  0.7957747E-01  0.3443331E+00
         13   -1    0    0    0    0  0.00000000000E+00  0.00000000000E+00  0.14999999963E+04  0.15000000000E+04  0.10566000000E+00 0. -1.
        994   -1    0    0    0    0 -0.00000000000E+00 -0.00000000000E+00  0.11368683772E-12  0.17120000000E+03  0.17120000000E+03 0.  0.
         13    1    1    2    0    0  0.27561422322E+02 -0.10169989847E+03  0.29453081884E+03  0.31281131015E+03  0.10566000000E+00 0. -1.
        994    1    1    2    0    0  0.21413050755E+03  0.19533857049E+03  0.46693739701E+03  0.57562922452E+03  0.17120000000E+03 0.  0.
        998    1    1    2    0    0 -0.24169192988E+03 -0.93638672018E+02  0.73853178043E+03  0.78275946533E+03  0.10000000000E+02 0. -1.
</event>
<event>
 5    1  0.5525569E-010  0.3874123E+03  0.7957747E-01  0.3419505E+00
         13   -1    0    0    0    0  0.00000000000E+00  0.00000000000E+00  0.14999999963E+04  0.15000000000E+04  0.10566000000E+00 0. -1.
        994   -1    0    0    0    0 -0.00000000000E+00 -0.00000000000E+00  0.11368683772E-12  0.17120000000E+03  0.17120000000E+03 0.  0.
         13    1    1    2    0    0 -0.13294807404E+03 -0.11593972259E+03  0.91271916347E+03  0.92960932235E+03  0.10566000000E+00 0. -1.
        994    1    1    2    0    0  0.16795337970E+03  0.16763222169E+03  0.21278513320E+03  0.36179531839E+03  0.17120000000E+03 0.  0.
        998    1    1    2    0    0 -0.35005305654E+02 -0.51692499099E+02  0.37449569961E+03  0.37979535926E+03  0.10000000000E+02 0.  0.
</event>
<event>
 5    1  0.5525569E-010  0.3852596E+03  0.7957747E-01  0.3428572E+00
         13   -1    0    0    0    0  0.00000000000E+00  0.00000000000E+00  0.14999999963E+04  0.15000000000E+04  0.10566000000E+00 0. -1.
        994   -1    0    0    0    0 -0.00000000000E+00 -0.00000000000E+00  0.11368683772E-12  0.17120000000E+03  0.17120000000E+03 0.  0.
         13    1    1    2    0    0 -0.36894647164E+02 -0.70347583220E+02  0.34987599862E+03  0.35878018762E+03  0.10566000000E+00 0. -1.
        994    1    1    2    0    0  0.40048877120E+02  0.28773990994E+03  0.36168943162E+03  0.49449656548E+03  0.17120000000E+03 0.  0.
        998    1    1    2    0    0 -0.31542299565E+01 -0.21739232672E+03  0.78843456604E+03  0.81792324689E+03  0.10000000000E+02 0. -1.
</event>
<event>
 5    1  0.5525569E-010  0.3816934E+03  0.7957747E-01  0.3443818E+00
         13   -1    0    0    0    0  0.00000000000E+00  0.00000000000E+00  0.14999999963E+04  0.15000000000E+04  0.10566000000E+00 0. -1.
        994   -1    0    0    0    0 -0.00000000000E+00 -0.00000000000E+00  0.11368683772E-12  0.17120000000E+03  0.17120000000E+03 0.  0.
         13    1    1    2    0    0 -0.87100715019E+02  0.16866544107E+03  0.81247108061E+03  0.83435234377E+03  0.10566000000E+00 0. -1.
        994    1    1    2    0    0  0.92744516699E+02 -0.28253105009E+03  0.39781461811E+03  0.52534869375E+03  0.17120000000E+03 0.  0.
        998    1    1    2    0    0 -0.56438016801E+01  0.11386560902E+03  0.28971429756E+03  0.31149896248E+03  0.10000000000E+02 0. -1.
</event>
<event>
 5    1  0.5525569E-010  0.3843961E+03  0.7957747E-01  0.3432237E+00
         13   -1    0    0    0    0  0.00000000000E+00  0.00000000000E+00  0.14999999963E+04  0.15000000000E+04  0.10566000000E+00 0. -1.
        994   -1    0    0    0    0 -0.00000000000E+00 -0.00000000000E+00  0.11368683772E-12  0.17120000000E+03  0.17120000000E+03 0.  0.
         13    1    1    2    0    0 -0.85179094837E+02 -0.24796696362E+02  0.53076117988E+03  0.53812433096E+03  0.10566000000E+00 0. -1.
        994    1    1    2    0    0  0.13893331876E+03  0.29048401235E+02  0.71405459620E+02  0.23356895414E+03  0.17120000000E+03 0.  0.
        998    1    1    2    0    0 -0.53754223925E+02 -0.42517048728E+01  0.89783335678E+03  0.89950671489E+03  0.10000000000E+02 0. -1.
</event>
<event>
 5    1  0.5525569E-010  0.3863269E+03  0.7957747E-01  0.3424064E+00
         13   -1    0    0    0    0  0.00000000000E+00  0.00000000000E+00  0.14999999963E+04  0.15000000000E+04  0.10566000000E+00 0.  1.
        994   -1    0    0    0    0 -0.00000000000E+00 -0.00000000000E+00  0.11368683772E-12  0.17120000000E+03  0.17120000000E+03 0.  0.
         13    1    1    2    0    0 -0.45664851126E+02  0.20150050359E+03  0.68593368027E+03  0.71637473187E+03  0.10566000000E+00 0.  1.
        994    1    1    2    0    0  0.71504693652E+02 -0.28725083642E+03  0.37875825293E+03  0.51028738805E+03  0.17120000000E+03 0.  0.
        998    1    1    2    0    0 -0.25839842526E+02  0.85750332829E+02  0.43530806308E+03  0.44453788008E+03  0.10000000000E+02 0.  1.
</event>
<event>
 5    1  0.5525569E-010  0.3876879E+03  0.7957747E-01  0.3418352E+00
         13   -1    0    0    0    0  0.00000000000E+00  0.00000000000E+00  0.14999999963E+04  0.15000000000E+04  0.10566000000E+00 0.  1.
        994   -1    0    0    0    0 -0.00000000000E+00 -0.00000000000E+00  0.11368683772E-12  0.17120000000E+03  0.17120000000E+03 0.  0.
         13    1    1    2    0    0  0.10397830804E+03  0.70248559955E+02  0.72244466362E+03  0.73326165308E+03  0.10566000000E+00 0.  1.
        994    1    1    2    0    0 -0.16880877497E+03 -0.12535504021E+03  0.16075628283E+03  0.31521787875E+03  0.17120000000E+03 0.  0.
        998    1    1    2    0    0  0.64830466933E+02  0.55106480256E+02  0.61679904983E+03  0.62272046817E+03  0.10000000000E+02 0. -1.
</event>
<event>
 5    1  0.5525569E-010  0.3798500E+03  0.7957747E-01  0.3451812E+00
         13   -1    0    0    0    0  0.00000000000E+00  0.00000000000E+00  0.14999999963E+04  0.15000000000E+04  0.10566000000E+00 0.  1.
        994   -1    0    0    0    0 -0.00000000000E+00 -0.00000000000E+00  0.11368683772E-12  0.17120000000E+03  0.17120000000E+03 0.  0.
         13    1    1    2    0    0 -0.32304923833E+03 -0.70968077655E+02  0.90185197199E+03  0.96059058344E+03  0.10566000000E+00 0.  1.
        994    1    1    2    0    0  0.31379080512E+03  0.81225276523E+02  0.57310919203E+03  0.68031301687E+03  0.17120000000E+03 0.  0.
        998    1    1    2    0    0  0.92584332080E+01 -0.10257198867E+02  0.25038832249E+02  0.30296399695E+02  0.10000000000E+02 0.  0.
</event>
<event>
 5    1  0.5525569E-010  0.3874748E+03  0.7957747E-01  0.3419244E+00
         13   -1    0    0    0    0  0.00000000000E+00  0.00000000000E+00  0.14999999963E+04  0.15000000000E+04  0.10566000000E+00 0. -1.
        994   -1    0    0    0    0 -0.00000000000E+00 -0.00000000000E+00  0.11368683772E-12  0.17120000000E+03  0.17120000000E+03 0.  0.
         13    1    1    2    0    0 -0.58262148429E+02  0.19326694068E+03  0.11317002835E+04  0.11495617126E+04  0.10566000000E+00 0. -1.
        994    1    1    2    0    0  0.68019659466E+02 -0.21507511254E+03  0.18896424459E+03  0.34044221807E+03  0.17120000000E+03 0.  0.
        998    1    1    2    0    0 -0.97575110370E+01  0.21808171863E+02  0.17933546823E+03  0.18119606935E+03  0.10000000000E+02 0.  1.
</event>
<event>
 5    1  0.5525569E-010  0.3874744E+03  0.7957747E-01  0.3419245E+00
         13   -1    0    0    0    0  0.00000000000E+00  0.00000000000E+00  0.14999999963E+04  0.15000000000E+04  0.10566000000E+00 0. -1.
        994   -1    0    0    0    0 -0.00000000000E+00 -0.00000000000E+00  0.11368683772E-12  0.17120000000E+03  0.17120000000E+03 0.  0.
         13    1    1    2    0    0 -0.30445972451E+02  0.12474080039E+02  0.16606615757E+03  0.16929424020E+03  0.10566000000E+00 0. -1.
        994    1    1    2    0    0  0.16085889434E+03 -0.10201566296E+03  0.12931910178E+03  0.28690703976E+03  0.17120000000E+03 0.  0.
        998    1    1    2    0    0 -0.13041292189E+03  0.89541582924E+02  0.12046147369E+04  0.12149987200E+04  0.10000000000E+02 0. -1.
</event>
<event>
 5    1  0.5525569E-010  0.3868900E+03  0.7957747E-01  0.3421696E+00
         13   -1    0    0    0    0  0.00000000000E+00  0.00000000000E+00  0.14999999963E+04  0.15000000000E+04  0.10566000000E+00 0.  1.
        994   -1    0    0    0    0 -0.00000000000E+00 -0.00000000000E+00  0.11368683772E-12  0.17120000000E+03  0.17120000000E+03 0.  0.
         13    1    1    2    0    0 -0.20954693611E+03  0.10475901955E+03  0.60045149407E+03  0.64453578528E+03  0.10566000000E+00 0.  1.
        994    1    1    2    0    0  0.30126190995E+03 -0.14130990571E+03  0.56484229904E+03  0.67755700175E+03  0.17120000000E+03 0.  0.
        998    1    1    2    0    0 -0.91714973845E+02  0.36550886158E+02  0.33470620317E+03  0.34910721297E+03  0.10000000000E+02 0.  1.
</event>
<event>
 5    1  0.5525569E-010  0.3868729E+03  0.7957747E-01  0.3421768E+00
         13   -1    0    0    0    0  0.00000000000E+00  0.00000000000E+00  0.14999999963E+04  0.15000000000E+04  0.10566000000E+00 0. -1.
        994   -1    0    0    0    0 -0.00000000000E+00 -0.00000000000E+00  0.11368683772E-12  0.17120000000E+03  0.17120000000E+03 0.  0.
         13    1    1    2    0    0  0.10420844881E+02  0.23069555910E+02  0.11887344499E+03  0.12153890532E+03  0.10566000000E+00 0. -1.
        994    1    1    2    0    0 -0.11727404823E+02 -0.17268906384E+03  0.10562965404E+03  0.26537917892E+03  0.17120000000E+03 0.  0.
        998    1    1    2    0    0  0.13065599414E+01  0.14961950793E+03  0.12754968973E+04  0.12842819158E+04  0.10000000000E+02 0.  1.
</event>
<event>
 5    1  0.5525569E-010  0.3776644E+03  0.7957747E-01  0.3461392E+00
         13   -1    0    0    0    0  0.00000000000E+00  0.00000000000E+00  0.14999999963E+04  0.15000000000E+04  0.10566000000E+00 0. -1.
        994   -1    0    0    0    0 -0.00000000000E+00 -0.00000000000E+00  0.11368683772E-12  0.17120000000E+03  0.17120000000E+03 0.  0.
         13    1    1    2    0    0 -0.10764152105E+02  0.36414284076E+02  0.12606688929E+03  0.13166145523E+03  0.10566000000E+00 0. -1.
        994    1    1    2    0    0 -0.10372183201E+03 -0.78187167443E+02  0.64443291171E+02  0.22435202108E+03  0.17120000000E+03 0.  0.
        998    1    1    2    0    0  0.11448598411E+03  0.41772883367E+02  0.13094898158E+04  0.13151865237E+04  0.10000000000E+02 0. -1.
</event>
<event>
 5    1  0.6247144E-010  0.3861826E+03  0.7957747E-01  0.3424672E+00
         13   -1    0    0    0    0  0.00000000000E+00  0.00000000000E+00  0.14999999963E+04  0.15000000000E+04  0.10566000000E+00 0. -1.
        994   -1    0    0    0    0 -0.00000000000E+00 -0.00000000000E+00  0.11368683772E-12  0.17120000000E+03  0.17120000000E+03 0.  0.
         13    1    1    2    0    0  0.10244951057E+02  0.80847260586E+01  0.68133905828E+02  0.69372632248E+02  0.10566000000E+00 0. -1.
        994    1    1    2    0    0  0.39006601889E+01 -0.67708328601E+02  0.16260387674E+02  0.18486068570E+03  0.17120000000E+03 0.  0.
        998    1    1    2    0    0 -0.14145611246E+02  0.59623602543E+02  0.14156057028E+04  0.14169666820E+04  0.10000000000E+02 0. -1.
</event>
<event>
 5    1  0.6536301E-010  0.3863683E+03  0.7957747E-01  0.3423890E+00
         13   -1    0    0    0    0  0.00000000000E+00  0.00000000000E+00  0.14999999963E+04  0.15000000000E+04  0.10566000000E+00 0.  1.
        994   -1    0    0    0    0 -0.00000000000E+00 -0.00000000000E+00  0.11368683772E-12  0.17120000000E+03  0.17120000000E+03 0.  0.
         13    1    1    2    0    0 -0.26834671881E+03 -0.11360448303E+03  0.10188593952E+04  0.10597124225E+04  0.10566000000E+00 0.  1.
        994    1    1    2    0    0  0.27956906735E+03  0.11652423324E+03  0.40544256567E+03  0.53425637517E+03  0.17120000000E+03 0.  0.
        998    1    1    2    0    0 -0.11222348538E+02 -0.29197502151E+01  0.75698035430E+02  0.77231202347E+02  0.10000000000E+02 0. -1.
</event>
<event>
 5    1  0.5525569E-010  0.3863918E+03  0.7957747E-01  0.3423791E+00
         13   -1    0    0    0    0  0.00000000000E+00  0.00000000000E+00  0.14999999963E+04  0.15000000000E+04  0.10566000000E+00 0. -1.
        994   -1    0    0    0    0 -0.00000000000E+00 -0.00000000000E+00  0.11368683772E-12  0.17120000000E+03  0.17120000000E+03 0.  0.
         13    1    1    2    0    0 -0.71953487428E+02 -0.43354318481E+01  0.26307654932E+03  0.27277349998E+03  0.10566000000E+00 0. -1.
        994    1    1    2    0    0  0.26154599129E+03 -0.50006785425E+02  0.28411347945E+03  0.42536677509E+03  0.17120000000E+03 0.  0.
        998    1    1    2    0    0 -0.18959250386E+03  0.54342217273E+02  0.95280996751E+03  0.97305972493E+03  0.10000000000E+02 0. -1.
</event>
<event>
 5    1  0.5525569E-010  0.3866351E+03  0.7957747E-01  0.3422767E+00
         13   -1    0    0    0    0  0.00000000000E+00  0.00000000000E+00  0.14999999963E+04  0.15000000000E+04  0.10566000000E+00 0.  1.
        994   -1    0    0    0    0 -0.00000000000E+00 -0.00000000000E+00  0.11368683772E-12  0.17120000000E+03  0.17120000000E+03 0.  0.
         13    1    1    2    0    0  0.38579298509E+02 -0.56247444735E+02  0.34373616000E+03  0.35043786350E+03  0.10566000000E+00 0.  1.
        994    1    1    2    0    0 -0.11148188719E+03  0.15183325244E+03  0.12701981578E+03  0.28447323480E+03  0.17120000000E+03 0.  0.
        998    1    1    2    0    0  0.72902588679E+02 -0.95585807706E+02  0.10292440205E+04  0.10362889017E+04  0.10000000000E+02 0.  1.
</event>
<event>
 5    1  0.5525569E-010  0.3872668E+03  0.7957747E-01  0.3420115E+00
         13   -1    0    0    0    0  0.00000000000E+00  0.00000000000E+00  0.14999999963E+04  0.15000000000E+04  0.10566000000E+00 0.  1.
        994   -1    0    0    0    0 -0.00000000000E+00 -0.00000000000E+00  0.11368683772E-12  0.17120000000E+03  0.17120000000E+03 0.  0.
         13    1    1    2    0    0  0.16369931963E+03 -0.19453466094E+03  0.10981821704E+04  0.11272290327E+04  0.10566000000E+00 0.  1.
        994    1    1    2    0    0 -0.17561415337E+03  0.20803553220E+03  0.29904418375E+03  0.43915370585E+03  0.17120000000E+03 0.  0.
        998    1    1    2    0    0  0.11914833747E+02 -0.13500871263E+02  0.10277364210E+03  0.10481726146E+03  0.10000000000E+02 0.  1.
</event>
<event>
 5    1  0.5525569E-010  0.3765984E+03  0.7957747E-01  0.3466105E+00
         13   -1    0    0    0    0  0.00000000000E+00  0.00000000000E+00  0.14999999963E+04  0.15000000000E+04  0.10566000000E+00 0. -1.
        994   -1    0    0    0    0 -0.00000000000E+00 -0.00000000000E+00  0.11368683772E-12  0.17120000000E+03  0.17120000000E+03 0.  0.
         13    1    1    2    0    0  0.10774164248E+03 -0.12802133571E+02  0.51144081364E+03  0.52282298454E+03  0.10566000000E+00 0. -1.
        994    1    1    2    0    0 -0.32161352738E+02  0.22300807399E+02  0.19972921501E+02  0.17674851121E+03  0.17120000000E+03 0.  0.
        998    1    1    2    0    0 -0.75580289739E+02 -0.94986738281E+01  0.96858626114E+03  0.97162850425E+03  0.10000000000E+02 0. -1.
</event>
<event>
 5    1  0.5525569E-010  0.3878011E+03  0.7957747E-01  0.3417879E+00
         13   -1    0    0    0    0  0.00000000000E+00  0.00000000000E+00  0.14999999963E+04  0.15000000000E+04  0.10566000000E+00 0. -1.
        994   -1    0    0    0    0 -0.00000000000E+00 -0.00000000000E+00  0.11368683772E-12  0.17120000000E+03  0.17120000000E+03 0.  0.
         13    1    1    2    0    0 -0.79194961960E+02 -0.42279941695E+01  0.39174719610E+03  0.39969437668E+03  0.10566000000E+00 0. -1.
        994    1    1    2    0    0  0.25489311750E+03  0.48732469437E+02  0.26370519915E+03  0.40767048824E+03  0.17120000000E+03 0.  0.
        998    1    1    2    0    0 -0.17569815554E+03 -0.44504475268E+02  0.84454760104E+03  0.86383513508E+03  0.10000000000E+02 0. -1.
</event>
<event>
 5    1  0.5525569E-010  0.3859628E+03  0.7957747E-01  0.3425599E+00
         13   -1    0    0    0    0  0.00000000000E+00  0.00000000000E+00  0.14999999963E+04  0.15000000000E+04  0.10566000000E+00 0.  1.
        994   -1    0    0    0    0 -0.00000000000E+00 -0.00000000000E+00  0.11368683772E-12  0.17120000000E+03  0.17120000000E+03 0.  0.
         13    1    1    2    0    0 -0.94738874962E+02  0.18807297037E+03  0.11940993379E+04  0.12125263447E+04  0.10566000000E+00 0.  1.
        994    1    1    2    0    0  0.89754576184E+02 -0.20222250322E+03  0.18261592727E+03  0.33407759824E+03  0.17120000000E+03 0.  0.
        998    1    1    2    0    0  0.49842987777E+01  0.14149532850E+02  0.12328473112E+03  0.12459605709E+03  0.10000000000E+02 0. -1.
</event>
<event>
 5    1  0.5525569E-010  0.3876544E+03  0.7957747E-01  0.3418492E+00
         13   -1    0    0    0    0  0.00000000000E+00  0.00000000000E+00  0.14999999963E+04  0.15000000000E+04  0.10566000000E+00 0.  1.
        994   -1    0    0    0    0 -0.00000000000E+00 -0.00000000000E+00  0.11368683772E-12  0.17120000000E+03  0.17120000000E+03 0.  0.
         13    1    1    2    0    0 -0.63212136535E+02 -0.14127618937E+03  0.79393972537E+03  0.80888505647E+03  0.10566000000E+00 0.  1.
        994    1    1    2    0    0  0.81208449007E+02  0.22811395620E+03  0.22289061170E+03  0.37097230892E+03  0.17120000000E+03 0.  0.
        998    1    1    2    0    0 -0.17996312472E+02 -0.86837766825E+02  0.48316965920E+03  0.49134263461E+03  0.10000000000E+02 0.  1.
</event>
<event>
 5    1  0.5525569E-010  0.3860160E+03  0.7957747E-01  0.3425375E+00
         13   -1    0    0    0    0  0.00000000000E+00  0.00000000000E+00  0.14999999963E+04  0.15000000000E+04  0.10566000000E+00 0. -1.
        994   -1    0    0    0    0 -0.00000000000E+00 -0.00000000000E+00  0.11368683772E-12  0.17120000000E+03  0.17120000000E+03 0.  0.
         13    1    1    2    0    0 -0.11675739999E+02 -0.64866402045E+01  0.59045740919E+02  0.60537674966E+02  0.10566000000E+00 0. -1.
        994    1    1    2    0    0  0.25142866042E+02  0.72197680026E+02  0.20524295131E+02  0.18861430329E+03  0.17120000000E+03 0.  0.
        998    1    1    2    0    0 -0.13467126043E+02 -0.65711039821E+02  0.14204299602E+04  0.14220480217E+04  0.10000000000E+02 0. -1.
</event>
<event>
 5    1  0.5525569E-010  0.3645348E+03  0.7957747E-01  0.3521391E+00
         13   -1    0    0    0    0  0.00000000000E+00  0.00000000000E+00  0.14999999963E+04  0.15000000000E+04  0.10566000000E+00 0.  1.
        994   -1    0    0    0    0 -0.00000000000E+00 -0.00000000000E+00  0.11368683772E-12  0.17120000000E+03  0.17120000000E+03 0.  0.
         13    1    1    2    0    0 -0.33775569432E+02 -0.28023363991E+03  0.10702952906E+04  0.11068892005E+04  0.10566000000E+00 0.  1.
        994    1    1    2    0    0  0.24534256142E+02  0.28427929586E+03  0.43624960882E+03  0.54867094782E+03  0.17120000000E+03 0.  0.
        998    1    1    2    0    0  0.92413132905E+01 -0.40456559503E+01 -0.65449031194E+01  0.15639851669E+02  0.10000000000E+02 0.  1.
</event>
<event>
 5    1  0.5525569E-010  0.3856680E+03  0.7957747E-01  0.3426844E+00
         13   -1    0    0    0    0  0.00000000000E+00  0.00000000000E+00  0.14999999963E+04  0.15000000000E+04  0.10566000000E+00 0.  1.
        994   -1    0    0    0    0 -0.00000000000E+00 -0.00000000000E+00  0.11368683772E-12  0.17120000000E+03  0.17120000000E+03 0.  0.
         13    1    1    2    0    0 -0.19220937648E+02 -0.38098742661E+02  0.17117845041E+03  0.17641720915E+03  0.10566000000E+00 0.  1.
        994    1    1    2    0    0  0.48898405853E+01  0.22120333846E+03  0.18300802471E+03  0.33429957313E+03  0.17120000000E+03 0.  0.
        998    1    1    2    0    0  0.14331097063E+02 -0.18310459579E+03  0.11458135212E+04  0.11604832177E+04  0.10000000000E+02 0.  1.
</event>
<event>
 5    1  0.5525569E-010  0.3821770E+03  0.7957747E-01  0.3441734E+00
         13   -1    0    0    0    0  0.00000000000E+00  0.00000000000E+00  0.14999999963E+04  0.15000000000E+04  0.10566000000E+00 0.  1.
        994   -1    0    0    0    0 -0.00000000000E+00 -0.00000000000E+00  0.11368683772E-12  0.17120000000E+03  0.17120000000E+03 0.  0.
         13    1    1    2    0    0  0.17199354802E+03 -0.11068140863E+03  0.12124845770E+04  0.12296141734E+04  0.10566000000E+00 0.  1.
        994    1    1    2    0    0 -0.20241920490E+03  0.10276150329E+03  0.19880310409E+03  0.34693742269E+03  0.17120000000E+03 0.  0.
        998    1    1    2    0    0  0.30425656879E+02  0.79199053321E+01  0.88712315176E+02  0.94648403900E+02  0.10000000000E+02 0. -1.
</event>
<event>
 5    1  0.5525569E-010  0.3828760E+03  0.7957747E-01  0.3438730E+00
         13   -1    0    0    0    0  0.00000000000E+00  0.00000000000E+00  0.14999999963E+04  0.15000000000E+04  0.10566000000E+00 0.  1.
        994   -1    0    0    0    0 -0.00000000000E+00 -0.00000000000E+00  0.11368683772E-12  0.17120000000E+03  0.17120000000E+03 0.  0.
         13    1    1    2    0    0 -0.17618856203E+03 -0.43773507967E+01  0.86905563929E+03  0.88674646091E+03  0.10566000000E+00 0.  1.
        994    1    1    2    0    0  0.21688758950E+03 -0.31921841730E+02  0.18268859782E+03  0.33278190190E+03  0.17120000000E+03 0.  0.
        998    1    1    2    0    0 -0.40699027463E+02  0.36299192527E+02  0.44825575917E+03  0.45167163719E+03  0.10000000000E+02 0.  1.
</event>
<event>
 5    1  0.5525569E-010  0.3833368E+03  0.7957747E-01  0.3436757E+00
         13   -1    0    0    0    0  0.00000000000E+00  0.00000000000E+00  0.14999999963E+04  0.15000000000E+04  0.10566000000E+00 0. -1.
        994   -1    0    0    0    0 -0.00000000000E+00 -0.00000000000E+00  0.11368683772E-12  0.17120000000E+03  0.17120000000E+03 0.  0.
         13    1    1    2    0    0  0.15153116675E+02 -0.16117327399E+01  0.34743735135E+02  0.37938804971E+02  0.10566000000E+00 0. -1.
        994    1    1    2    0    0 -0.83460007045E+02  0.13354589800E+02  0.26449054632E+02  0.19275090230E+03  0.17120000000E+03 0.  0.
        998    1    1    2    0    0  0.68306890370E+02 -0.11742857060E+02  0.14388072065E+04  0.14405102927E+04  0.10000000000E+02 0. -1.
</event>
<event>
 5    1  0.5525569E-010  0.3876770E+03  0.7957747E-01  0.3418398E+00
         13   -1    0    0    0    0  0.00000000000E+00  0.00000000000E+00  0.14999999963E+04  0.15000000000E+04  0.10566000000E+00 0.  1.
        994   -1    0    0    0    0 -0.00000000000E+00 -0.00000000000E+00  0.11368683772E-12  0.17120000000E+03  0.17120000000E+03 0.  0.
         13    1    1    2    0    0  0.13953897943E+03 -0.52661805895E+02  0.78240149418E+03  0.79649011409E+03  0.10566000000E+00 0.  1.
        994    1    1    2    0    0 -0.21124175859E+03  0.89954146805E+02  0.19659806409E+03  0.34738317159E+03  0.17120000000E+03 0.  0.
        998    1    1    2    0    0  0.71702779165E+02 -0.37292340910E+02  0.52100043801E+03  0.52732671432E+03  0.10000000000E+02 0.  1.
</event>
<event>
 5    1  0.5525569E-010  0.3848369E+03  0.7957747E-01  0.3430364E+00
         13   -1    0    0    0    0  0.00000000000E+00  0.00000000000E+00  0.14999999963E+04  0.15000000000E+04  0.10566000000E+00 0.  1.
        994   -1    0    0    0    0 -0.00000000000E+00 -0.00000000000E+00  0.11368683772E-12  0.17120000000E+03  0.17120000000E+03 0.  0.
         13    1    1    2    0    0 -0.10127611961E+03 -0.17101206094E+03  0.11638172622E+04  0.11806661715E+04  0.10566000000E+00 0.  1.
        994    1    1    2    0    0  0.94381142339E+02  0.20440362585E+03  0.19154518169E+03  0.34159572438E+03  0.17120000000E+03 0.  0.
        998    1    1    2    0    0  0.68949772704E+01 -0.33391564909E+02  0.14463755235E+03  0.14893810416E+03  0.10000000000E+02 0. -1.
</event>
<event>
 5    1  0.5525569E-010  0.3830343E+03  0.7957747E-01  0.3438052E+00
         13   -1    0    0    0    0  0.00000000000E+00  0.00000000000E+00  0.14999999963E+04  0.15000000000E+04  0.10566000000E+00 0. -1.
        994   -1    0    0    0    0 -0.00000000000E+00 -0.00000000000E+00  0.11368683772E-12  0.17120000000E+03  0.17120000000E+03 0.  0.
         13    1    1    2    0    0  0.97798871665E+02 -0.11494258938E+03  0.89620342153E+03  0.90882176584E+03  0.10566000000E+00 0. -1.
        994    1    1    2    0    0 -0.19249799022E+03  0.14697785973E+03  0.23002328620E+03  0.37533734118E+03  0.17120000000E+03 0.  0.
        998    1    1    2    0    0  0.94699118554E+02 -0.32035270350E+02  0.37377328855E+03  0.38704089298E+03  0.10000000000E+02 0. -1.
</event>
<event>
 5    1  0.5525569E-010  0.3872588E+03  0.7957747E-01  0.3420149E+00
         13   -1    0    0    0    0  0.00000000000E+00  0.00000000000E+00  0.14999999963E+04  0.15000000000E+04  0.10566000000E+00 0. -1.
        994   -1    0    0    0    0 -0.00000000000E+00 -0.00000000000E+00  0.11368683772E-12  0.17120000000E+03  0.17120000000E+03 0.  0.
         13    1    1    2    0    0 -0.10479917206E+02  0.23733303384E+03  0.58192075789E+03  0.62854480925E+03  0.10566000000E+00 0. -1.
        994    1    1    2    0    0  0.20141045214E+02 -0.33736590412E+03  0.60637374060E+03  0.71499648128E+03  0.17120000000E+03 0.  0.
        998    1    1    2    0    0 -0.96611280079E+01  0.10003287027E+03  0.31170549780E+03  0.32765870946E+03  0.10000000000E+02 0.  0.
</event>
<event>
 5    1  0.5525569E-010  0.3782452E+03  0.7957747E-01  0.3458835E+00
         13   -1    0    0    0    0  0.00000000000E+00  0.00000000000E+00  0.14999999963E+04  0.15000000000E+04  0.10566000000E+00 0.  1.
        994   -1    0    0    0    0 -0.00000000000E+00 -0.00000000000E+00  0.11368683772E-12  0.17120000000E+03  0.17120000000E+03 0.  0.
         13    1    1    2    0    0  0.51491560096E+02 -0.15513622672E+02  0.13062805982E+03  0.14126483789E+03  0.10566000000E+00 0.  1.
        994    1    1    2    0    0  0.11814361821E+03  0.18536203021E+03  0.21800960331E+03  0.35377199423E+03  0.17120000000E+03 0.  0.
        998    1    1    2    0    0 -0.16963517830E+03 -0.16984840754E+03  0.11513623332E+04  0.11761631679E+04  0.10000000000E+02 0.  1.
</event>
<event>
 5    1  0.5525569E-010  0.3852024E+03  0.7957747E-01  0.3428814E+00
         13   -1    0    0    0    0  0.00000000000E+00  0.00000000000E+00  0.14999999963E+04  0.15000000000E+04  0.10566000000E+00 0.  1.
        994   -1    0    0    0    0 -0.00000000000E+00 -0.00000000000E+00  0.11368683772E-12  0.17120000000E+03  0.17120000000E+03 0.  0.
         13    1    1    2    0    0  0.13000134585E+03 -0.80611250492E+02  0.90795873893E+03  0.92075382507E+03  0.10566000000E+00 0.  1.
        994    1    1    2    0    0 -0.17310492424E+03  0.80634177971E+02  0.13230398865E+03  0.28858442589E+03  0.17120000000E+03 0.  0.
        998    1    1    2    0    0  0.43103578389E+02 -0.22927479169E-01  0.45973726870E+03  0.46186174904E+03  0.10000000000E+02 0.  1.
</event>
<event>
 5    1  0.5525569E-010  0.3848773E+03  0.7957747E-01  0.3430193E+00
         13   -1    0    0    0    0  0.00000000000E+00  0.00000000000E+00  0.14999999963E+04  0.15000000000E+04  0.10566000000E+00 0. -1.
        994   -1    0    0    0    0 -0.00000000000E+00 -0.00000000000E+00  0.11368683772E-12  0.17120000000E+03  0.17120000000E+03 0.  0.
         13    1    1    2    0    0  0.32648290670E+02  0.15362321662E+01  0.18017071186E+03  0.18311135265E+03  0.10566000000E+00 0. -1.
        994    1    1    2    0    0 -0.99119700824E+02  0.79663242429E+02  0.56837415447E+02  0.22070541244E+03  0.17120000000E+03 0.  0.
        998    1    1    2    0    0  0.66471410154E+02 -0.81199474596E+02  0.12629918690E+04  0.12673832349E+04  0.10000000000E+02 0. -1.
</event>
<event>
 5    1  0.5525569E-010  0.3765390E+03  0.7957747E-01  0.3466368E+00
         13   -1    0    0    0    0  0.00000000000E+00  0.00000000000E+00  0.14999999963E+04  0.15000000000E+04  0.10566000000E+00 0.  1.
        994   -1    0    0    0    0 -0.00000000000E+00 -0.00000000000E+00  0.11368683772E-12  0.17120000000E+03  0.17120000000E+03 0.  0.
         13    1    1    2    0    0  0.10077351302E+03 -0.36377868003E+02  0.56696567300E+03  0.57699977099E+03  0.10566000000E+00 0.  1.
        994    1    1    2    0    0 -0.97193252255E+01  0.14660233074E+03  0.96325063734E+02  0.24530525181E+03  0.17120000000E+03 0.  0.
        998    1    1    2    0    0 -0.91054187791E+02 -0.11022446274E+03  0.83670925955E+03  0.84889497720E+03  0.10000000000E+02 0.  1.
</event>
<event>
 5    1  0.5525569E-010  0.3848034E+03  0.7957747E-01  0.3430506E+00
         13   -1    0    0    0    0  0.00000000000E+00  0.00000000000E+00  0.14999999963E+04  0.15000000000E+04  0.10566000000E+00 0.  1.
        994   -1    0    0    0    0 -0.00000000000E+00 -0.00000000000E+00  0.11368683772E-12  0.17120000000E+03  0.17120000000E+03 0.  0.
         13    1    1    2    0    0 -0.13231924887E+03 -0.21517595857E+03  0.10481038387E+04  0.10781144395E+04  0.10566000000E+00 0.  1.
        994    1    1    2    0    0  0.13069001934E+03  0.23378581292E+03  0.29150463671E+03  0.43130045294E+03  0.17120000000E+03 0.  0.
        998    1    1    2    0    0  0.16292295224E+01 -0.18609854347E+02  0.16039152083E+03  0.16178510754E+03  0.10000000000E+02 0.  1.
</event>
<event>
 5    1  0.5525569E-010  0.3833920E+03  0.7957747E-01  0.3436521E+00
         13   -1    0    0    0    0  0.00000000000E+00  0.00000000000E+00  0.14999999963E+04  0.15000000000E+04  0.10566000000E+00 0.  1.
        994   -1    0    0    0    0 -0.00000000000E+00 -0.00000000000E+00  0.11368683772E-12  0.17120000000E+03  0.17120000000E+03 0.  0.
         13    1    1    2    0    0  0.99242321291E+01  0.19898285932E+02  0.85372465022E+02  0.88220752175E+02  0.10566000000E+00 0.  1.
        994    1    1    2    0    0  0.51901124850E+02 -0.81479388146E+02  0.33920077014E+02  0.19948089903E+03  0.17120000000E+03 0.  0.
        998    1    1    2    0    0 -0.61825356979E+02  0.61581102215E+02  0.13807074542E+04  0.13834983488E+04  0.10000000000E+02 0.  1.
</event>
<event>
 5    1  0.8809462E-010  0.3865976E+03  0.7957747E-01  0.3422925E+00
         13   -1    0    0    0    0  0.00000000000E+00  0.00000000000E+00  0.14999999963E+04  0.15000000000E+04  0.10566000000E+00 0.  1.
        994   -1    0    0    0    0 -0.00000000000E+00 -0.00000000000E+00  0.11368683772E-12  0.17120000000E+03  0.17120000000E+03 0.  0.
         13    1    1    2    0    0 -0.91998244013E+00  0.18925715938E+02  0.11331599459E+03  0.11488931580E+03  0.10566000000E+00 0.  1.
        994    1    1    2    0    0  0.28115041156E+02 -0.76554749894E+02  0.22909309924E+02  0.19101141786E+03  0.17120000000E+03 0.  0.
        998    1    1    2    0    0 -0.27195058716E+02  0.57629033956E+02  0.13637746918E+04  0.13652992663E+04  0.10000000000E+02 0.  1.
</event>
<event>
 5    1  0.5525569E-010  0.3880712E+03  0.7957747E-01  0.3416751E+00
         13   -1    0    0    0    0  0.00000000000E+00  0.00000000000E+00  0.14999999963E+04  0.15000000000E+04  0.10566000000E+00 0. -1.
        994   -1    0    0    0    0 -0.00000000000E+00 -0.00000000000E+00  0.11368683772E-12  0.17120000000E+03  0.17120000000E+03 0.  0.
         13    1    1    2    0    0  0.93051692938E+02 -0.48424704600E+01  0.50718339552E+03  0.51567147966E+03  0.10566000000E+00 0. -1.
        994    1    1    2    0    0 -0.22439572697E+03  0.92396297709E+01  0.18629864217E+03  0.33831263221E+03  0.17120000000E+03 0.  0.
        998    1    1    2    0    0  0.13134403403E+03 -0.43971593109E+01  0.80651795859E+03  0.81721588813E+03  0.10000000000E+02 0.  1.
</event>
<event>
 5    1  0.5525569E-010  0.3873373E+03  0.7957747E-01  0.3419820E+00
         13   -1    0    0    0    0  0.00000000000E+00  0.00000000000E+00  0.14999999963E+04  0.15000000000E+04  0.10566000000E+00 0. -1.
        994   -1    0    0    0    0 -0.00000000000E+00 -0.00000000000E+00  0.11368683772E-12  0.17120000000E+03  0.17120000000E+03 0.  0.
         13    1    1    2    0    0 -0.12625580146E+03 -0.93601949840E+02  0.92941999747E+03  0.94261518940E+03  0.10566000000E+00 0. -1.
        994    1    1    2    0    0  0.19612568573E+03  0.12956636813E+03  0.20819181568E+03  0.35763948394E+03  0.17120000000E+03 0.  0.
        998    1    1    2    0    0 -0.69869884272E+02 -0.35964418285E+02  0.36238818312E+03  0.37094532667E+03  0.10000000000E+02 0. -1.
</event>
<event>
 5    1  0.5525569E-010  0.3847516E+03  0.7957747E-01  0.3430726E+00
         13   -1    0    0    0    0  0.00000000000E+00  0.00000000000E+00  0.14999999963E+04  0.15000000000E+04  0.10566000000E+00 0.  1.
        994   -1    0    0    0    0 -0.00000000000E+00 -0.00000000000E+00  0.11368683772E-12  0.17120000000E+03  0.17120000000E+03 0.  0.
         13    1    1    2    0    0 -0.28655904448E+02  0.25829781487E+01  0.14077009961E+03  0.14368042575E+03  0.10566000000E+00 0.  1.
        994    1    1    2    0    0  0.83137809943E+02  0.19105884864E+02  0.26082637229E+02  0.19304578276E+03  0.17120000000E+03 0.  0.
        998    1    1    2    0    0 -0.54481905495E+02 -0.21688863012E+02  0.13331472594E+04  0.13344737915E+04  0.10000000000E+02 0.  1.
</event>
<event>
 5    1  0.5525569E-010  0.3861633E+03  0.7957747E-01  0.3424753E+00
         13   -1    0    0    0    0  0.00000000000E+00  0.00000000000E+00  0.14999999963E+04  0.15000000000E+04  0.10566000000E+00 0.  1.
        994   -1    0    0    0    0 -0.00000000000E+00 -0.00000000000E+00  0.11368683772E-12  0.17120000000E+03  0.17120000000E+03 0.  0.
         13    1    1    2    0    0 -0.97940891453E+02 -0.20930309642E+03  0.12161700917E+04  0.12379296860E+04  0.10566000000E+00 0.  1.
        994    1    1    2    0    0  0.10616366362E+03  0.22171061024E+03  0.23341393508E+03  0.37976021811E+03  0.17120000000E+03 0.  0.
        998    1    1    2    0    0 -0.82227721715E+01 -0.12407513813E+02  0.50415969471E+02  0.53510095859E+02  0.10000000000E+02 0.  0.
</event>
<event>
 5    1  0.5525569E-010  0.3687392E+03  0.7957747E-01  0.3501705E+00
         13   -1    0    0    0    0  0.00000000000E+00  0.00000000000E+00  0.14999999963E+04  0.15000000000E+04  0.10566000000E+00 0. -1.
        994   -1    0    0    0    0 -0.00000000000E+00 -0.00000000000E+00  0.11368683772E-12  0.17120000000E+03  0.17120000000E+03 0.  0.
         13    1    1    2    0    0 -0.32035323559E+02 -0.32527626021E+02  0.64631875347E+02  0.79130265291E+02  0.10566000000E+00 0. -1.
        994    1    1    2    0    0  0.21342386480E+03 -0.14016382477E+02  0.19177136583E+03  0.33441277158E+03  0.17120000000E+03 0.  0.
        998    1    1    2    0    0 -0.18138854124E+03  0.46544008498E+02  0.12435967551E+04  0.12576569631E+04  0.10000000000E+02 0. -1.
</event>
<event>
 5    1  0.5525569E-010  0.3841418E+03  0.7957747E-01  0.3433320E+00
         13   -1    0    0    0    0  0.00000000000E+00  0.00000000000E+00  0.14999999963E+04  0.15000000000E+04  0.10566000000E+00 0.  1.
        994   -1    0    0    0    0 -0.00000000000E+00 -0.00000000000E+00  0.11368683772E-12  0.17120000000E+03  0.17120000000E+03 0.  0.
         13    1    1    2    0    0 -0.19335672491E+03  0.86084833217E+02  0.12015438664E+04  0.12200430712E+04  0.10566000000E+00 0.  1.
        994    1    1    2    0    0  0.19753127265E+03 -0.10988994283E+03  0.19423036236E+03  0.34369939900E+03  0.17120000000E+03 0.  0.
        998    1    1    2    0    0 -0.41745477456E+01  0.23805109613E+02  0.10422576755E+03  0.10745752981E+03  0.10000000000E+02 0.  1.
</event>
<event>
 5    1  0.5525569E-010  0.3873542E+03  0.7957747E-01  0.3419749E+00
         13   -1    0    0    0    0  0.00000000000E+00  0.00000000000E+00  0.14999999963E+04  0.15000000000E+04  0.10566000000E+00 0.  1.
        994   -1    0    0    0    0 -0.00000000000E+00 -0.00000000000E+00  0.11368683772E-12  0.17120000000E+03  0.17120000000E+03 0.  0.
         13    1    1    2    0    0 -0.12606301878E+03 -0.18668268669E+03  0.10159278243E+04  0.10406015883E+04  0.10566000000E+00 0.  1.
        994    1    1    2    0    0  0.15007188598E+03  0.21330464791E+03  0.26781693105E+03  0.41116394825E+03  0.17120000000E+03 0.  0.
        998    1    1    2    0    0 -0.24008867207E+02 -0.26621961220E+02  0.21625524097E+03  0.21943446350E+03  0.10000000000E+02 0.  0.
</event>
<event>
 5    1  0.5525569E-010  0.3587721E+03  0.7957747E-01  0.3549139E+00
         13   -1    0    0    0    0  0.00000000000E+00  0.00000000000E+00  0.14999999963E+04  0.15000000000E+04  0.10566000000E+00 0. -1.
        994   -1    0    0    0    0 -0.00000000000E+00 -0.00000000000E+00  0.11368683772E-12  0.17120000000E+03  0.17120000000E+03 0.  0.
         13    1    1    2    0    0  0.14213884380E+03  0.16050628193E+03  0.11350537468E+04  0.11551245547E+04  0.10566000000E+00 0. -1.
        994    1    1    2    0    0 -0.17994387071E+03 -0.11945364911E+03  0.19688030881E+03  0.33870380407E+03  0.17120000000E+03 0.  0.
        998    1    1    2    0    0  0.37805026909E+02 -0.41052632819E+02  0.16806594065E+03  0.17737164127E+03  0.10000000000E+02 0.  1.
</event>
<event>
 5    1  0.5525569E-010  0.3778260E+03  0.7957747E-01  0.3460680E+00
         13   -1    0    0    0    0  0.00000000000E+00  0.00000000000E+00  0.14999999963E+04  0.15000000000E+04  0.10566000000E+00 0. -1.
        994   -1    0    0    0    0 -0.00000000000E+00 -0.00000000000E+00  0.11368683772E-12  0.17120000000E+03  0.17120000000E+03 0.  0.
         13    1    1    2    0    0  0.27251601338E+01  0.24371605070E+03  0.10375578292E+04  0.10658007318E+04  0.10566000000E+00 0. -1.
        994    1    1    2    0    0 -0.45792469307E+02 -0.27355248759E+03  0.33575263380E+03  0.46793929608E+03  0.17120000000E+03 0.  0.
        998    1    1    2    0    0  0.43067309173E+02  0.29836436894E+02  0.12668953331E+03  0.13745997213E+03  0.10000000000E+02 0. -1.
</event>
<event>
 5    1  0.5525569E-010  0.3813107E+03  0.7957747E-01  0.3445471E+00
         13   -1    0    0    0    0  0.00000000000E+00  0.00000000000E+00  0.14999999963E+04  0.15000000000E+04  0.10566000000E+00 0.  1.
        994   -1    0    0    0    0 -0.00000000000E+00 -0.00000000000E+00  0.11368683772E-12  0.17120000000E+03  0.17120000000E+03 0.  0.
         13    1    1    2    0    0  0.14778171499E+02 -0.22560552417E+02  0.13060660182E+03  0.13336217035E+03  0.10566000000E+00 0.  1.
        994    1    1    2    0    0 -0.10064530962E+02 -0.28130825514E+02  0.64498113378E+01  0.17390709644E+03  0.17120000000E+03 0.  0.
        998    1    1    2    0    0 -0.47136405376E+01  0.50691377931E+02  0.13629435831E+04  0.13639307332E+04  0.10000000000E+02 0.  1.
</event>
<event>
 5    1  0.5525569E-010  0.3692932E+03  0.7957747E-01  0.3499146E+00
         13   -1    0    0    0    0  0.00000000000E+00  0.00000000000E+00  0.14999999963E+04  0.15000000000E+04  0.10566000000E+00 0. -1.
        994   -1    0    0    0    0 -0.00000000000E+00 -0.00000000000E+00  0.11368683772E-12  0.17120000000E+03  0.17120000000E+03 0.  0.
         13    1    1    2    0    0  0.90766191604E+01 -0.95141116655E+02  0.55839607969E+03  0.56651602808E+03  0.10566000000E+00 0. -1.
        994    1    1    2    0    0  0.12322970063E+03  0.94822883008E+02  0.98785798139E+02  0.25148561027E+03  0.17120000000E+03 0.  0.
        998    1    1    2    0    0 -0.13230631980E+03  0.31823364687E+00  0.84281811845E+03  0.85319836165E+03  0.10000000000E+02 0. -1.
</event>
<event>
 5    1  0.5525569E-010  0.3805862E+03  0.7957747E-01  0.3448610E+00
         13   -1    0    0    0    0  0.00000000000E+00  0.00000000000E+00  0.14999999963E+04  0.15000000000E+04  0.10566000000E+00 0. -1.
        994   -1    0    0    0    0 -0.00000000000E+00 -0.00000000000E+00  0.11368683772E-12  0.17120000000E+03  0.17120000000E+03 0.  0.
         13    1    1    2    0    0  0.32122262434E+02 -0.19575353924E+01  0.11429935924E+03  0.11874353193E+03  0.10566000000E+00 0. -1.
        994    1    1    2    0    0 -0.60375910660E+02 -0.88122776479E+02  0.42898021733E+02  0.20630209546E+03  0.17120000000E+03 0.  0.
        998    1    1    2    0    0  0.28253648226E+02  0.90080311871E+02  0.13428026153E+04  0.13461543726E+04  0.10000000000E+02 0. -1.
</event>
<event>
 5    1  0.5525569E-010  0.3840014E+03  0.7957747E-01  0.3433918E+00
         13   -1    0    0    0    0  0.00000000000E+00  0.00000000000E+00  0.14999999963E+04  0.15000000000E+04  0.10566000000E+00 0.  1.
        994   -1    0    0    0    0 -0.00000000000E+00 -0.00000000000E+00  0.11368683772E-12  0.17120000000E+03  0.17120000000E+03 0.  0.
         13    1    1    2    0    0 -0.16585975484E+03 -0.10955129884E+03  0.10730689081E+04  0.10913238924E+04  0.10566000000E+00 0.  1.
        994    1    1    2    0    0  0.20373839421E+03  0.97966583821E+02  0.19447097139E+03  0.34385343322E+03  0.17120000000E+03 0.  0.
        998    1    1    2    0    0 -0.37878639373E+02  0.11584715016E+02  0.23246011677E+03  0.23602267440E+03  0.10000000000E+02 0.  1.
</event>
<event>
 5    1  0.5525569E-010  0.3872587E+03  0.7957747E-01  0.3420149E+00
         13   -1    0    0    0    0  0.00000000000E+00  0.00000000000E+00  0.14999999963E+04  0.15000000000E+04  0.10566000000E+00 0. -1.
        994   -1    0    0    0    0 -0.00000000000E+00 -0.00000000000E+00  0.11368683772E-12  0.17120000000E+03  0.17120000000E+03 0.  0.
         13    1    1    2    0    0 -0.84291036046E+00  0.27812584141E+02  0.15773798623E+03  0.16017344911E+03  0.10566000000E+00 0. -1.
        994    1    1    2    0    0 -0.47746078940E+01 -0.14449642432E+03  0.71996131883E+02  0.23536120438E+03  0.17120000000E+03 0.  0.
        998    1    1    2    0    0  0.56175182545E+01  0.11668384017E+03  0.12702658782E+04  0.12756653465E+04  0.10000000000E+02 0. -1.
</event>
<event>
 5    1  0.5525569E-010  0.3889021E+03  0.7957747E-01  0.3413290E+00
         13   -1    0    0    0    0  0.00000000000E+00  0.00000000000E+00  0.14999999963E+04  0.15000000000E+04  0.10566000000E+00 0.  1.
        994   -1    0    0    0    0 -0.00000000000E+00 -0.00000000000E+00  0.11368683772E-12  0.17120000000E+03  0.17120000000E+03 0.  0.
         13    1    1    2    0    0  0.11803729492E+01  0.65609779695E+02  0.27310263290E+03  0.28087558764E+03  0.10566000000E+00 0.  1.
        994    1    1    2    0    0 -0.26143895420E+03  0.73965105652E+02  0.40467327607E+03  0.51661500559E+03  0.17120000000E+03 0.  0.
        998    1    1    2    0    0  0.26025858126E+03 -0.13957488535E+03  0.82222408731E+03  0.87370940677E+03  0.10000000000E+02 0.  1.
</event>
<event>
 5    1  0.6191528E-010  0.3868203E+03  0.7957747E-01  0.3421988E+00
         13   -1    0    0    0    0  0.00000000000E+00  0.00000000000E+00  0.14999999963E+04  0.15000000000E+04  0.10566000000E+00 0. -1.
        994   -1    0    0    0    0 -0.00000000000E+00 -0.00000000000E+00  0.11368683772E-12  0.17120000000E+03  0.17120000000E+03 0.  0.
         13    1    1    2    0    0 -0.19111736399E+02  0.19440310795E+01  0.11323449833E+03  0.11485251630E+03  0.10566000000E+00 0. -1.
        994    1    1    2    0    0  0.89742979602E+02 -0.36440079530E+02  0.32023697587E+02  0.19929033843E+03  0.17120000000E+03 0.  0.
        998    1    1    2    0    0 -0.70631243203E+02  0.34496048450E+02  0.13547418004E+04  0.13570571453E+04  0.10000000000E+02 0. -1.
</event>
<event>
 5    1  0.5525569E-010  0.3881295E+03  0.7957747E-01  0.3416507E+00
         13   -1    0    0    0    0  0.00000000000E+00  0.00000000000E+00  0.14999999963E+04  0.15000000000E+04  0.10566000000E+00 0. -1.
        994   -1    0    0    0    0 -0.00000000000E+00 -0.00000000000E+00  0.11368683772E-12  0.17120000000E+03  0.17120000000E+03 0.  0.
         13    1    1    2    0    0  0.27679248155E+02  0.13107454319E+03  0.74428137411E+03  0.75624166221E+03  0.10566000000E+00 0. -1.
        994    1    1    2    0    0 -0.44592358701E+02 -0.22879809754E+03  0.20306244945E+03  0.35338484159E+03  0.17120000000E+03 0.  0.
        998    1    1    2    0    0  0.16913110546E+02  0.97723554347E+02  0.55265617273E+03  0.56157349620E+03  0.10000000000E+02 0.  0.
</event>
<event>
 5    1  0.5525569E-010  0.3863424E+03  0.7957747E-01  0.3423999E+00
         13   -1    0    0    0    0  0.00000000000E+00  0.00000000000E+00  0.14999999963E+04  0.15000000000E+04  0.10566000000E+00 0. -1.
        994   -1    0    0    0    0 -0.00000000000E+00 -0.00000000000E+00  0.11368683772E-12  0.17120000000E+03  0.17120000000E+03 0.  0.
         13    1    1    2    0    0  0.19494917921E+03 -0.95385478705E+02  0.12659640391E+04  0.12844331557E+04  0.10566000000E+00 0. -1.
        994    1    1    2    0    0 -0.20181140337E+03  0.96975351325E+02  0.18719239040E+03  0.33835261536E+03  0.17120000000E+03 0.  0.
        998    1    1    2    0    0  0.68622241571E+01 -0.15898726206E+01  0.46843566788E+02  0.48414228950E+02  0.10000000000E+02 0. -1.
</event>
<event>
 5    1  0.5525569E-010  0.3857753E+03  0.7957747E-01  0.3426391E+00
         13   -1    0    0    0    0  0.00000000000E+00  0.00000000000E+00  0.14999999963E+04  0.15000000000E+04  0.10566000000E+00 0.  1.
        994   -1    0    0    0    0 -0.00000000000E+00 -0.00000000000E+00  0.11368683772E-12  0.17120000000E+03  0.17120000000E+03 0.  0.
         13    1    1    2    0    0  0.22036732332E+02 -0.93878385675E+01  0.11913517662E+03  0.12151934232E+03  0.10566000000E+00 0.  1.
        994    1    1    2    0    0 -0.97166368313E+02  0.99502185613E+01  0.33192551893E+02  0.19987870192E+03  0.17120000000E+03 0.  0.
        998    1    1    2    0    0  0.75129635982E+02 -0.56237999379E+00  0.13476722678E+04  0.13498019558E+04  0.10000000000E+02 0.  1.
</event>
<event>
 5    1  0.6711635E-010  0.3871351E+03  0.7957747E-01  0.3420667E+00
         13   -1    0    0    0    0  0.00000000000E+00  0.00000000000E+00  0.14999999963E+04  0.15000000000E+04  0.10566000000E+00 0. -1.
        994   -1    0    0    0    0 -0.00000000000E+00 -0.00000000000E+00  0.11368683772E-12  0.17120000000E+03  0.17120000000E+03 0.  0.
         13    1    1    2    0    0  0.11145300653E+03  0.15020895763E+03  0.10744669604E+04  0.10906254003E+04  0.10566000000E+00 0. -1.
        994    1    1    2    0    0 -0.12385287801E+03 -0.17633103449E+03  0.17057243956E+03  0.32378475297E+03  0.17120000000E+03 0.  0.
        998    1    1    2    0    0  0.12399871478E+02  0.26122076864E+02  0.25496059629E+03  0.25678984670E+03  0.10000000000E+02 0.  1.
</event>
<event>
 5    1  0.5558454E-010  0.3858288E+03  0.7957747E-01  0.3426165E+00
         13   -1    0    0    0    0  0.00000000000E+00  0.00000000000E+00  0.14999999963E+04  0.15000000000E+04  0.10566000000E+00 0.  1.
        994   -1    0    0    0    0 -0.00000000000E+00 -0.00000000000E+00  0.11368683772E-12  0.17120000000E+03  0.17120000000E+03 0.  0.
         13    1    1    2    0    0  0.24682380922E+00  0.15113367462E+02  0.81242885955E+02  0.82637113214E+02  0.10566000000E+00 0.  1.
        994    1    1    2    0    0 -0.66795029622E+02 -0.35482850355E+02  0.20211850205E+02  0.18825134140E+03  0.17120000000E+03 0.  0.
        998    1    1    2    0    0  0.66548205813E+02  0.20369482894E+02  0.13985452601E+04  0.14003115454E+04  0.10000000000E+02 0.  1.
</event>
<event>
 5    1  0.5525569E-010  0.3801164E+03  0.7957747E-01  0.3450652E+00
         13   -1    0    0    0    0  0.00000000000E+00  0.00000000000E+00  0.14999999963E+04  0.15000000000E+04  0.10566000000E+00 0. -1.
        994   -1    0    0    0    0 -0.00000000000E+00 -0.00000000000E+00  0.11368683772E-12  0.17120000000E+03  0.17120000000E+03 0.  0.
         13    1    1    2    0    0  0.70999022672E+01  0.29502223360E+02  0.14558032579E+03  0.14870922035E+03  0.10566000000E+00 0. -1.
        994    1    1    2    0    0  0.83172434424E+02 -0.59259210776E+01  0.27669038778E+02  0.19242605358E+03  0.17120000000E+03 0.  0.
        998    1    1    2    0    0 -0.90272336691E+02 -0.23576302282E+02  0.13267506317E+04  0.13300647261E+04  0.10000000000E+02 0. -1.
</event>
<event>
 5    1  0.5525569E-010  0.3881416E+03  0.7957747E-01  0.3416456E+00
         13   -1    0    0    0    0  0.00000000000E+00  0.00000000000E+00  0.14999999963E+04  0.15000000000E+04  0.10566000000E+00 0. -1.
        994   -1    0    0    0    0 -0.00000000000E+00 -0.00000000000E+00  0.11368683772E-12  0.17120000000E+03  0.17120000000E+03 0.  0.
         13    1    1    2    0    0  0.63017956259E+02  0.85850114350E+02  0.42766287702E+03  0.44072332873E+03  0.10566000000E+00 0. -1.
        994    1    1    2    0    0 -0.17788874733E+03 -0.22384263602E+03  0.33884717725E+03  0.47526495942E+03  0.17120000000E+03 0.  0.
        998    1    1    2    0    0  0.11487079107E+03  0.13799252167E+03  0.73348994201E+03  0.75521171185E+03  0.10000000000E+02 0.  0.
</event>
<event>
 5    1  0.5525569E-010  0.3874923E+03  0.7957747E-01  0.3419170E+00
         13   -1    0    0    0    0  0.00000000000E+00  0.00000000000E+00  0.14999999963E+04  0.15000000000E+04  0.10566000000E+00 0.  1.
        994   -1    0    0    0    0 -0.00000000000E+00 -0.00000000000E+00  0.11368683772E-12  0.17120000000E+03  0.17120000000E+03 0.  0.
         13    1    1    2    0    0  0.50724457542E+02 -0.97332726954E+02  0.58763046813E+03  0.59779278063E+03  0.10566000000E+00 0.  1.
        994    1    1    2    0    0 -0.14066695377E+03  0.21330388856E+03  0.25424589215E+03  0.39904405074E+03  0.17120000000E+03 0.  0.
        998    1    1    2    0    0  0.89942496224E+02 -0.11597116161E+03  0.65812363599E+03  0.67436316863E+03  0.10000000000E+02 0.  1.
</event>
<event>
 5    1  0.5525569E-010  0.3856785E+03  0.7957747E-01  0.3426800E+00
         13   -1    0    0    0    0  0.00000000000E+00  0.00000000000E+00  0.14999999963E+04  0.15000000000E+04  0.10566000000E+00 0.  1.
        994   -1    0    0    0    0 -0.00000000000E+00 -0.00000000000E+00  0.11368683772E-12  0.17120000000E+03  0.17120000000E+03 0.  0.
         13    1    1    2    0    0  0.19770635545E+03  0.77570633676E+02  0.12442566572E+04  0.12622518157E+04  0.10566000000E+00 0.  1.
        994    1    1    2    0    0 -0.21420313613E+03 -0.74497206760E+02  0.19367449638E+03  0.34387798401E+03  0.17120000000E+03 0.  0.
        998    1    1    2    0    0  0.16496780677E+02 -0.30734269165E+01  0.62068842721E+02  0.65070200264E+02  0.10000000000E+02 0. -1.
</event>
<event>
 5    1  0.5525569E-010  0.3818065E+03  0.7957747E-01  0.3443330E+00
         13   -1    0    0    0    0  0.00000000000E+00  0.00000000000E+00  0.14999999963E+04  0.15000000000E+04  0.10566000000E+00 0.  1.
        994   -1    0    0    0    0 -0.00000000000E+00 -0.00000000000E+00  0.11368683772E-12  0.17120000000E+03  0.17120000000E+03 0.  0.
         13    1    1    2    0    0 -0.15582724871E+02 -0.18774523318E+02  0.14088268407E+03  0.14297987927E+03  0.10566000000E+00 0.  1.
        994    1    1    2    0    0  0.26754428361E+02 -0.70211771638E+02  0.22217157470E+02  0.18827781176E+03  0.17120000000E+03 0.  0.
        998    1    1    2    0    0 -0.11171703490E+02  0.88986294956E+02  0.13369001547E+04  0.13399423090E+04  0.10000000000E+02 0.  1.
</event>
<event>
 5    1  0.5525569E-010  0.3879304E+03  0.7957747E-01  0.3417338E+00
         13   -1    0    0    0    0  0.00000000000E+00  0.00000000000E+00  0.14999999963E+04  0.15000000000E+04  0.10566000000E+00 0. -1.
        994   -1    0    0    0    0 -0.00000000000E+00 -0.00000000000E+00  0.11368683772E-12  0.17120000000E+03  0.17120000000E+03 0.  0.
         13    1    1    2    0    0  0.77778604119E+02 -0.11981749576E+03  0.83202187109E+03  0.84419556306E+03  0.10566000000E+00 0. -1.
        994    1    1    2    0    0 -0.12310984093E+03  0.19873859756E+03  0.20472227509E+03  0.35478685575E+03  0.17120000000E+03 0.  0.
        998    1    1    2    0    0  0.45331236810E+02 -0.78921101800E+02  0.46325585010E+03  0.47221758119E+03  0.10000000000E+02 0.  0.
</event>
<event>
 5    1  0.5525569E-010  0.3847535E+03  0.7957747E-01  0.3430718E+00
         13   -1    0    0    0    0  0.00000000000E+00  0.00000000000E+00  0.14999999963E+04  0.15000000000E+04  0.10566000000E+00 0.  1.
        994   -1    0    0    0    0 -0.00000000000E+00 -0.00000000000E+00  0.11368683772E-12  0.17120000000E+03  0.17120000000E+03 0.  0.
         13    1    1    2    0    0 -0.19973066313E+02  0.19374755921E+03  0.11153748280E+04  0.11322535309E+04  0.10566000000E+00 0.  1.
        994    1    1    2    0    0  0.50234919419E+02 -0.21867256728E+03  0.19014589851E+03  0.34030301429E+03  0.17120000000E+03 0.  0.
        998    1    1    2    0    0 -0.30261853105E+02  0.24925008076E+02  0.19447926975E+03  0.19864345482E+03  0.10000000000E+02 0.  0.
</event>
<event>
 5    1  0.5525569E-010  0.3793645E+03  0.7957747E-01  0.3453930E+00
         13   -1    0    0    0    0  0.00000000000E+00  0.00000000000E+00  0.14999999963E+04  0.15000000000E+04  0.10566000000E+00 0.  1.
        994   -1    0    0    0    0 -0.00000000000E+00 -0.00000000000E+00  0.11368683772E-12  0.17120000000E+03  0.17120000000E+03 0.  0.
         13    1    1    2    0    0  0.71317327798E+02 -0.16908534220E+03  0.93824595495E+03  0.95602379538E+03  0.10566000000E+00 0.  1.
        994    1    1    2    0    0 -0.12171675964E+03  0.16947769964E+03  0.16764011655E+03  0.31772678346E+03  0.17120000000E+03 0.  0.
        998    1    1    2    0    0  0.50399431839E+02 -0.39235744106E+00  0.39411392478E+03  0.39744942116E+03  0.10000000000E+02 0.  1.
</event>
<event>
 5    1  0.5525569E-010  0.3748925E+03  0.7957747E-01  0.3473704E+00
         13   -1    0    0    0    0  0.00000000000E+00  0.00000000000E+00  0.14999999963E+04  0.15000000000E+04  0.10566000000E+00 0.  1.
        994   -1    0    0    0    0 -0.00000000000E+00 -0.00000000000E+00  0.11368683772E-12  0.17120000000E+03  0.17120000000E+03 0.  0.
         13    1    1    2    0    0 -0.14747580334E+03  0.11496771684E+03  0.11215729126E+04  0.11370543074E+04  0.10566000000E+00 0.  1.
        994    1    1    2    0    0  0.19729751008E+03 -0.82163259819E+02  0.18245919986E+03  0.32905608695E+03  0.17120000000E+03 0.  0.
        998    1    1    2    0    0 -0.49821706747E+02 -0.32804457018E+02  0.19596788383E+03  0.20508960568E+03  0.10000000000E+02 0.  1.
</event>
<event>
 5    1  0.5525569E-010  0.3861117E+03  0.7957747E-01  0.3424971E+00
         13   -1    0    0    0    0  0.00000000000E+00  0.00000000000E+00  0.14999999963E+04  0.15000000000E+04  0.10566000000E+00 0. -1.
        994   -1    0    0    0    0 -0.00000000000E+00 -0.00000000000E+00  0.11368683772E-12  0.17120000000E+03  0.17120000000E+03 0.  0.
         13    1    1    2    0    0 -0.45904901907E+00  0.12379865436E+03  0.66562812035E+03  0.67704292575E+03  0.10566000000E+00 0. -1.
        994    1    1    2    0    0 -0.25801824562E+02 -0.20155001433E+03  0.15061799384E+03  0.30542325140E+03  0.17120000000E+03 0.  0.
        998    1    1    2    0    0  0.26260873581E+02  0.77751359967E+02  0.68375388209E+03  0.68873382285E+03  0.10000000000E+02 0. -1.
</event>
<event>
 5    1  0.5525569E-010  0.3738152E+03  0.7957747E-01  0.3478539E+00
         13   -1    0    0    0    0  0.00000000000E+00  0.00000000000E+00  0.14999999963E+04  0.15000000000E+04  0.10566000000E+00 0.  1.
        994   -1    0    0    0    0 -0.00000000000E+00 -0.00000000000E+00  0.11368683772E-12  0.17120000000E+03  0.17120000000E+03 0.  0.
         13    1    1    2    0    0  0.24883893323E+02  0.34139071117E+02  0.24520763778E+03  0.24882017827E+03  0.10566000000E+00 0.  1.
        994    1    1    2    0    0  0.89875131905E+02  0.17062994053E+02  0.36410587395E+02  0.19749393909E+03  0.17120000000E+03 0.  0.
        998    1    1    2    0    0 -0.11475902523E+03 -0.51202065170E+02  0.12183817711E+04  0.12248858826E+04  0.10000000000E+02 0.  1.
</event>
<event>
 5    1  0.5525569E-010  0.3825498E+03  0.7957747E-01  0.3440131E+00
         13   -1    0    0    0    0  0.00000000000E+00  0.00000000000E+00  0.14999999963E+04  0.15000000000E+04  0.10566000000E+00 0.  1.
        994   -1    0    0    0    0 -0.00000000000E+00 -0.00000000000E+00  0.11368683772E-12  0.17120000000E+03  0.17120000000E+03 0.  0.
         13    1    1    2    0    0  0.13597010359E+03 -0.21949428734E+03  0.43241349809E+03  0.50363385087E+03  0.10566000000E+00 0.  1.
        994    1    1    2    0    0 -0.19872669741E+03  0.27818752790E+03  0.80695896057E+03  0.89295733660E+03  0.17120000000E+03 0.  0.
        998    1    1    2    0    0  0.62756593823E+02 -0.58693240555E+02  0.26062753762E+03  0.27460881253E+03  0.10000000000E+02 0. -1.
</event>
<event>
 5    1  0.5525569E-010  0.3758602E+03  0.7957747E-01  0.3469385E+00
         13   -1    0    0    0    0  0.00000000000E+00  0.00000000000E+00  0.14999999963E+04  0.15000000000E+04  0.10566000000E+00 0.  1.
        994   -1    0    0    0    0 -0.00000000000E+00 -0.00000000000E+00  0.11368683772E-12  0.17120000000E+03  0.17120000000E+03 0.  0.
         13    1    1    2    0    0  0.15938988529E+02 -0.78050808033E+02  0.28097546159E+03  0.29204999772E+03  0.10566000000E+00 0.  1.
        994    1    1    2    0    0 -0.18472392862E+03  0.12774153939E+03  0.20259480527E+03  0.34755564419E+03  0.17120000000E+03 0.  0.
        998    1    1    2    0    0  0.16878494009E+03 -0.49690731357E+02  0.10164297294E+04  0.10315943581E+04  0.10000000000E+02 0.  1.
</event>
<event>
 5    1  0.5525569E-010  0.3837373E+03  0.7957747E-01  0.3435045E+00
         13   -1    0    0    0    0  0.00000000000E+00  0.00000000000E+00  0.14999999963E+04  0.15000000000E+04  0.10566000000E+00 0. -1.
        994   -1    0    0    0    0 -0.00000000000E+00 -0.00000000000E+00  0.11368683772E-12  0.17120000000E+03  0.17120000000E+03 0.  0.
         13    1    1    2    0    0  0.24576881555E+03 -0.17906213139E+03  0.90095837038E+03  0.95088987475E+03  0.10566000000E+00 0. -1.
        994    1    1    2    0    0 -0.26450135093E+03  0.17670748274E+03  0.48758193633E+03  0.60682129473E+03  0.17120000000E+03 0.  0.
        998    1    1    2    0    0  0.18732535387E+02  0.23546486507E+01  0.11145968957E+03  0.11348883052E+03  0.10000000000E+02 0.  1.
</event>
<event>
 5    1  0.5525569E-010  0.3859339E+03  0.7957747E-01  0.3425721E+00
         13   -1    0    0    0    0  0.00000000000E+00  0.00000000000E+00  0.14999999963E+04  0.15000000000E+04  0.10566000000E+00 0. -1.
        994   -1    0    0    0    0 -0.00000000000E+00 -0.00000000000E+00  0.11368683772E-12  0.17120000000E+03  0.17120000000E+03 0.  0.
         13    1    1    2    0    0 -0.12542636213E+03 -0.23057135457E+02  0.61742684323E+03  0.63045961149E+03  0.10566000000E+00 0. -1.
        994    1    1    2    0    0  0.20920807451E+03  0.68198597552E+02  0.18039243580E+03  0.33206917659E+03  0.17120000000E+03 0.  0.
        998    1    1    2    0    0 -0.83781712377E+02 -0.45141462095E+02  0.70218071724E+03  0.70867121192E+03  0.10000000000E+02 0.  1.
</event>
<event>
 5    1  0.5525569E-010  0.3875505E+03  0.7957747E-01  0.3418927E+00
         13   -1    0    0    0    0  0.00000000000E+00  0.00000000000E+00  0.14999999963E+04  0.15000000000E+04  0.10566000000E+00 0. -1.
        994   -1    0    0    0    0 -0.00000000000E+00 -0.00000000000E+00  0.11368683772E-12  0.17120000000E+03  0.17120000000E+03 0.  0.
         13    1    1    2    0    0 -0.45361309845E+02 -0.23902707750E+03  0.10615493988E+04  0.10890724170E+04  0.10566000000E+00 0. -1.
        994    1    1    2    0    0  0.55115160971E+02  0.27045549905E+03  0.30941734247E+03  0.44858933308E+03  0.17120000000E+03 0.  0.
        998    1    1    2    0    0 -0.97538511265E+01 -0.31428421553E+02  0.12903325506E+03  0.13353824997E+03  0.10000000000E+02 0.  0.
</event>
<event>
 5    1  0.5525569E-010  0.3829643E+03  0.7957747E-01  0.3438352E+00
         13   -1    0    0    0    0  0.00000000000E+00  0.00000000000E+00  0.14999999963E+04  0.15000000000E+04  0.10566000000E+00 0. -1.
        994   -1    0    0    0    0 -0.00000000000E+00 -0.00000000000E+00  0.11368683772E-12  0.17120000000E+03  0.17120000000E+03 0.  0.
         13    1    1    2    0    0  0.16399869125E+02  0.26503646605E+02  0.17835665321E+03  0.18105939881E+03  0.10566000000E+00 0. -1.
        994    1    1    2    0    0  0.56563250693E+02 -0.77841116749E+02  0.33924291864E+02  0.19929610725E+03  0.17120000000E+03 0.  0.
        998    1    1    2    0    0 -0.72963119818E+02  0.51337470144E+02  0.12877190512E+04  0.12908444939E+04  0.10000000000E+02 0. -1.
</event>
<event>
 5    1  0.5525569E-010  0.3855728E+03  0.7957747E-01  0.3427247E+00
         13   -1    0    0    0    0  0.00000000000E+00  0.00000000000E+00  0.14999999963E+04  0.15000000000E+04  0.10566000000E+00 0. -1.
        994   -1    0    0    0    0 -0.00000000000E+00 -0.00000000000E+00  0.11368683772E-12  0.17120000000E+03  0.17120000000E+03 0.  0.
         13    1    1    2    0    0 -0.17280156228E+01  0.19107535629E+02  0.93768930795E+02  0.95711584995E+02  0.10566000000E+00 0. -1.
        994    1    1    2    0    0  0.37838908741E+02 -0.59931077953E+02  0.18013214896E+02  0.18616506931E+03  0.17120000000E+03 0.  0.
        998    1    1    2    0    0 -0.36110893118E+02  0.40823542324E+02  0.13882178506E+04  0.13893233457E+04  0.10000000000E+02 0. -1.
</event>
<event>
 5    1  0.5525569E-010  0.3879148E+03  0.7957747E-01  0.3417403E+00
         13   -1    0    0    0    0  0.00000000000E+00  0.00000000000E+00  0.14999999963E+04  0.15000000000E+04  0.10566000000E+00 0.  1.
        994   -1    0    0    0    0 -0.00000000000E+00 -0.00000000000E+00  0.11368683772E-12  0.17120000000E+03  0.17120000000E+03 0.  0.
         13    1    1    2    0    0 -0.92382715419E+01 -0.14498031227E+03  0.79502925902E+03  0.80819315171E+03  0.10566000000E+00 0.  1.
        994    1    1    2    0    0  0.62918054852E+01  0.24321769277E+03  0.22506589636E+03  0.37303958315E+03  0.17120000000E+03 0.  0.
        998    1    1    2    0    0  0.29464660567E+01 -0.98237380500E+02  0.47990484090E+03  0.48996726514E+03  0.10000000000E+02 0.  0.
</event>
<event>
 5    1  0.5525569E-010  0.3854488E+03  0.7957747E-01  0.3427771E+00
         13   -1    0    0    0    0  0.00000000000E+00  0.00000000000E+00  0.14999999963E+04  0.15000000000E+04  0.10566000000E+00 0. -1.
        994   -1    0    0    0    0 -0.00000000000E+00 -0.00000000000E+00  0.11368683772E-12  0.17120000000E+03  0.17120000000E+03 0.  0.
         13    1    1    2    0    0 -0.16142462196E+03 -0.14399795860E+03  0.11139789304E+04  0.11347873762E+04  0.10566000000E+00 0. -1.
        994    1    1    2    0    0  0.18117976254E+03  0.14449150606E+03  0.20395106849E+03  0.35300053826E+03  0.17120000000E+03 0.  0.
        998    1    1    2    0    0 -0.19755140583E+02 -0.49354746108E+00  0.18206999741E+03  0.18341208555E+03  0.10000000000E+02 0.  1.
</event>
<event>
 5    1  0.5525569E-010  0.3867112E+03  0.7957747E-01  0.3422447E+00
         13   -1    0    0    0    0  0.00000000000E+00  0.00000000000E+00  0.14999999963E+04  0.15000000000E+04  0.10566000000E+00 0. -1.
        994   -1    0    0    0    0 -0.00000000000E+00 -0.00000000000E+00  0.11368683772E-12  0.17120000000E+03  0.17120000000E+03 0.  0.
         13    1    1    2    0    0 -0.52995633822E+01  0.98642732905E+01  0.44600128266E+02  0.45984474173E+02  0.10566000000E+00 0. -1.
        994    1    1    2    0    0  0.13387531105E+03 -0.52288570167E+02  0.71522469906E+02  0.23469468929E+03  0.17120000000E+03 0.  0.
        998    1    1    2    0    0 -0.12857574767E+03  0.42424296877E+02  0.13838773981E+04  0.13905208365E+04  0.10000000000E+02 0. -1.
</event>
<event>
 5    1  0.5525569E-010  0.3800138E+03  0.7957747E-01  0.3451098E+00
         13   -1    0    0    0    0  0.00000000000E+00  0.00000000000E+00  0.14999999963E+04  0.15000000000E+04  0.10566000000E+00 0. -1.
        994   -1    0    0    0    0 -0.00000000000E+00 -0.00000000000E+00  0.11368683772E-12  0.17120000000E+03  0.17120000000E+03 0.  0.
         13    1    1    2    0    0 -0.27299435235E+02 -0.53395995346E+02  0.28753224657E+03  0.29371958645E+03  0.10566000000E+00 0. -1.
        994    1    1    2    0    0 -0.35574198081E+02  0.12805936351E+03  0.65631826225E+02  0.22645463291E+03  0.17120000000E+03 0.  0.
        998    1    1    2    0    0  0.62873633316E+02 -0.74663368162E+02  0.11468359235E+04  0.11510257806E+04  0.10000000000E+02 0. -1.
</event>
<event>
 5    1  0.5525569E-010  0.3838842E+03  0.7957747E-01  0.3434418E+00
         13   -1    0    0    0    0  0.00000000000E+00  0.00000000000E+00  0.14999999963E+04  0.15000000000E+04  0.10566000000E+00 0. -1.
        994   -1    0    0    0    0 -0.00000000000E+00 -0.00000000000E+00  0.11368683772E-12  0.17120000000E+03  0.17120000000E+03 0.  0.
         13    1    1    2    0    0  0.19808300364E+03 -0.58065079617E+02  0.12324132289E+04  0.12495802527E+04  0.10566000000E+00 0. -1.
        994    1    1    2    0    0 -0.20673994614E+03  0.43648802422E+02  0.16696462244E+03  0.31911322196E+03  0.17120000000E+03 0.  0.
        998    1    1    2    0    0  0.86569425067E+01  0.14416277195E+02  0.10062214489E+03  0.10250652537E+03  0.10000000000E+02 0. -1.
</event>
<event>
 5    1  0.5525569E-010  0.3848802E+03  0.7957747E-01  0.3430181E+00
         13   -1    0    0    0    0  0.00000000000E+00  0.00000000000E+00  0.14999999963E+04  0.15000000000E+04  0.10566000000E+00 0. -1.
        994   -1    0    0    0    0 -0.00000000000E+00 -0.00000000000E+00  0.11368683772E-12  0.17120000000E+03  0.17120000000E+03 0.  0.
         13    1    1    2    0    0  0.30127289661E+02 -0.99845139600E+01  0.16454605527E+03  0.16757911437E+03  0.10566000000E+00 0. -1.
        994    1    1    2    0    0 -0.90857885906E+02  0.91883114089E+00  0.29340083258E+02  0.19602622316E+03  0.17120000000E+03 0.  0.
        998    1    1    2    0    0  0.60730596246E+02  0.90656828191E+01  0.13061138577E+04  0.13075946625E+04  0.10000000000E+02 0. -1.
</event>
<event>
 5    1  0.5525569E-010  0.3693978E+03  0.7957747E-01  0.3498663E+00
         13   -1    0    0    0    0  0.00000000000E+00  0.00000000000E+00  0.14999999963E+04  0.15000000000E+04  0.10566000000E+00 0.  1.
        994   -1    0    0    0    0 -0.00000000000E+00 -0.00000000000E+00  0.11368683772E-12  0.17120000000E+03  0.17120000000E+03 0.  0.
         13    1    1    2    0    0  0.73546047878E+01 -0.30270621557E+02  0.88194441469E+02  0.93534332793E+02  0.10566000000E+00 0.  1.
        994    1    1    2    0    0  0.78166779051E+02 -0.13517949505E+03  0.99508404919E+02  0.25218030034E+03  0.17120000000E+03 0.  0.
        998    1    1    2    0    0 -0.85521383839E+02  0.16545011660E+03  0.13122971499E+04  0.13254853669E+04  0.10000000000E+02 0.  1.
</event>
<event>
 5    1  0.5525569E-010  0.3867676E+03  0.7957747E-01  0.3422210E+00
         13   -1    0    0    0    0  0.00000000000E+00  0.00000000000E+00  0.14999999963E+04  0.15000000000E+04  0.10566000000E+00 0.  1.
        994   -1    0    0    0    0 -0.00000000000E+00 -0.00000000000E+00  0.11368683772E-12  0.17120000000E+03  0.17120000000E+03 0.  0.
         13    1    1    2    0    0  0.85207383627E+01  0.19462368990E+02  0.11746690290E+03  0.11937282450E+03  0.10566000000E+00 0.  1.
        994    1    1    2    0    0 -0.28360989318E+02 -0.10433205524E+03  0.39955777199E+02  0.20638659743E+03  0.17120000000E+03 0.  0.
        998    1    1    2    0    0  0.19840250955E+02  0.84869686248E+02  0.13425773162E+04  0.13454405781E+04  0.10000000000E+02 0.  1.
</event>
<event>
 5    1  0.5525569E-010  0.3518120E+03  0.7957747E-01  0.3583896E+00
         13   -1    0    0    0    0  0.00000000000E+00  0.00000000000E+00  0.14999999963E+04  0.15000000000E+04  0.10566000000E+00 0.  1.
        994   -1    0    0    0    0 -0.00000000000E+00 -0.00000000000E+00  0.11368683772E-12  0.17120000000E+03  0.17120000000E+03 0.  0.
         13    1    1    2    0    0  0.12724190096E+03  0.19087032437E+03  0.11638747000E+04  0.11862656998E+04  0.10566000000E+00 0.  1.
        994    1    1    2    0    0 -0.12712704165E+03 -0.11934648225E+03  0.15357292540E+03  0.28861557643E+03  0.17120000000E+03 0.  0.
        998    1    1    2    0    0 -0.11485930864E+00 -0.71523842120E+02  0.18255237084E+03  0.19631872372E+03  0.10000000000E+02 0.  1.
</event>
<event>
 5    1  0.5525569E-010  0.3856701E+03  0.7957747E-01  0.3426835E+00
         13   -1    0    0    0    0  0.00000000000E+00  0.00000000000E+00  0.14999999963E+04  0.15000000000E+04  0.10566000000E+00 0. -1.
        994   -1    0    0    0    0 -0.00000000000E+00 -0.00000000000E+00  0.11368683772E-12  0.17120000000E+03  0.17120000000E+03 0.  0.
         13    1    1    2    0    0 -0.24050404367E+03  0.11031344797E+03  0.11296443656E+04  0.11602187965E+04  0.10566000000E+00 0. -1.
        994    1    1    2    0    0  0.25671249066E+03 -0.11330294349E+03  0.32759756683E+03  0.46407808142E+03  0.17120000000E+03 0.  0.
        998    1    1    2    0    0 -0.16208446993E+02  0.29894955236E+01  0.42758063819E+02  0.46903122060E+02  0.10000000000E+02 0.  0.
</event>
<event>
 5    1  0.6735135E-010  0.3874842E+03  0.7957747E-01  0.3419204E+00
         13   -1    0    0    0    0  0.00000000000E+00  0.00000000000E+00  0.14999999963E+04  0.15000000000E+04  0.10566000000E+00 0.  1.
        994   -1    0    0    0    0 -0.00000000000E+00 -0.00000000000E+00  0.11368683772E-12  0.17120000000E+03  0.17120000000E+03 0.  0.
         13    1    1    2    0    0  0.13107248834E+03  0.12555508207E+03  0.10684267234E+04  0.10837341696E+04  0.10566000000E+00 0.  1.
        994    1    1    2    0    0 -0.15358628535E+03 -0.14799676690E+03  0.16626043921E+03  0.32006837349E+03  0.17120000000E+03 0.  0.
        998    1    1    2    0    0  0.22513797007E+02  0.22441684831E+02  0.26531283365E+03  0.26739745693E+03  0.10000000000E+02 0.  0.
</event>
<event>
 5    1  0.5525569E-010  0.4158220E+03  0.7957747E-01  0.3308622E+00
         13   -1    0    0    0    0  0.00000000000E+00  0.00000000000E+00  0.14999999963E+04  0.15000000000E+04  0.10566000000E+00 0.  1.
        994   -1    0    0    0    0 -0.00000000000E+00 -0.00000000000E+00  0.11368683772E-12  0.17120000000E+03  0.17120000000E+03 0.  0.
         13    1    1    2    0    0  0.84064630792E+02  0.11977567688E+03  0.41544815305E+03  0.44046595097E+03  0.10566000000E+00 0.  1.
        994    1    1    2    0    0 -0.90679278965E+02  0.41283193179E+02  0.80563478235E+02  0.21383860198E+03  0.17120000000E+03 0.  0.
        998    1    1    2    0    0  0.66146481732E+01 -0.16105887006E+03  0.10039883650E+04  0.10168954470E+04  0.10000000000E+02 0.  1.
</event>
<event>
 5    1  0.5525569E-010  0.3825713E+03  0.7957747E-01  0.3440039E+00
         13   -1    0    0    0    0  0.00000000000E+00  0.00000000000E+00  0.14999999963E+04  0.15000000000E+04  0.10566000000E+00 0.  1.
        994   -1    0    0    0    0 -0.00000000000E+00 -0.00000000000E+00  0.11368683772E-12  0.17120000000E+03  0.17120000000E+03 0.  0.
         13    1    1    2    0    0  0.25222714029E+03 -0.75831917859E+02  0.99409908038E+03  0.10283977843E+04  0.10566000000E+00 0.  1.
        994    1    1    2    0    0 -0.26168114498E+03  0.10330786399E+03  0.33726008961E+03  0.47138449746E+03  0.17120000000E+03 0.  0.
        998    1    1    2    0    0  0.94540046982E+01 -0.27475946133E+02  0.16864082628E+03  0.17141771819E+03  0.10000000000E+02 0.  1.
</event>
<event>
 5    1  0.5525569E-010  0.3878232E+03  0.7957747E-01  0.3417786E+00
         13   -1    0    0    0    0  0.00000000000E+00  0.00000000000E+00  0.14999999963E+04  0.15000000000E+04  0.10566000000E+00 0. -1.
        994   -1    0    0    0    0 -0.00000000000E+00 -0.00000000000E+00  0.11368683772E-12  0.17120000000E+03  0.17120000000E+03 0.  0.
         13    1    1    2    0    0  0.71718193447E+01  0.77434524147E+01  0.45345510354E+02  0.46557733207E+02  0.10566000000E+00 0. -1.
        994    1    1    2    0    0 -0.92401339052E+02 -0.17766423952E+03  0.14402108482E+03  0.30025672738E+03  0.17120000000E+03 0.  0.
        998    1    1    2    0    0  0.85229519707E+02  0.16992078710E+03  0.13106334011E+04  0.13243855394E+04  0.10000000000E+02 0. -1.
</event>
<event>
 5    1  0.5525569E-010  0.3859481E+03  0.7957747E-01  0.3425661E+00
         13   -1    0    0    0    0  0.00000000000E+00  0.00000000000E+00  0.14999999963E+04  0.15000000000E+04  0.10566000000E+00 0. -1.
        994   -1    0    0    0    0 -0.00000000000E+00 -0.00000000000E+00  0.11368683772E-12  0.17120000000E+03  0.17120000000E+03 0.  0.
         13    1    1    2    0    0  0.31459151163E+02 -0.49138925800E+01  0.72369128332E+02  0.79064065363E+02  0.10566000000E+00 0. -1.
        994    1    1    2    0    0 -0.26559954659E+03  0.12199421870E+03  0.36612425229E+03  0.49878062980E+03  0.17120000000E+03 0.  0.
        998    1    1    2    0    0  0.23414039543E+03 -0.11708032612E+03  0.10615066157E+04  0.10933553048E+04  0.10000000000E+02 0. -1.
</event>
<event>
 5    1  0.5525569E-010  0.3875017E+03  0.7957747E-01  0.3419131E+00
         13   -1    0    0    0    0  0.00000000000E+00  0.00000000000E+00  0.14999999963E+04  0.15000000000E+04  0.10566000000E+00 0.  1.
        994   -1    0    0    0    0 -0.00000000000E+00 -0.00000000000E+00  0.11368683772E-12  0.17120000000E+03  0.17120000000E+03 0.  0.
         13    1    1    2    0    0  0.13670012380E+03  0.61549320899E+02  0.78283398264E+03  0.79705978338E+03  0.10566000000E+00 0.  1.
        994    1    1    2    0    0 -0.21532952244E+03 -0.80547751456E+02  0.19743938780E+03  0.34806105119E+03  0.17120000000E+03 0.  0.
        998    1    1    2    0    0  0.78629398636E+02  0.18998430557E+02  0.51972662584E+03  0.52607916543E+03  0.10000000000E+02 0. -1.
</event>
<event>
 5    1  0.5525569E-010  0.3847239E+03  0.7957747E-01  0.3430844E+00
         13   -1    0    0    0    0  0.00000000000E+00  0.00000000000E+00  0.14999999963E+04  0.15000000000E+04  0.10566000000E+00 0.  1.
        994   -1    0    0    0    0 -0.00000000000E+00 -0.00000000000E+00  0.11368683772E-12  0.17120000000E+03  0.17120000000E+03 0.  0.
         13    1    1    2    0    0  0.79047924421E+02  0.18646967102E+02  0.38985794124E+03  0.39822796141E+03  0.10566000000E+00 0.  1.
        994    1    1    2    0    0 -0.17407997675E+03 -0.23225655390E+02  0.11091245783E+03  0.26917333203E+03  0.17120000000E+03 0.  0.
        998    1    1    2    0    0  0.95032052329E+02  0.45786882887E+01  0.99922959720E+03  0.10037987066E+04  0.10000000000E+02 0.  1.
</event>
<event>
 5    1  0.5525569E-010  0.3876077E+03  0.7957747E-01  0.3418687E+00
         13   -1    0    0    0    0  0.00000000000E+00  0.00000000000E+00  0.14999999963E+04  0.15000000000E+04  0.10566000000E+00 0. -1.
        994   -1    0    0    0    0 -0.00000000000E+00 -0.00000000000E+00  0.11368683772E-12  0.17120000000E+03  0.17120000000E+03 0.  0.
         13    1    1    2    0    0  0.78258219216E+02  0.13773288506E+03  0.88393611700E+03  0.89801880081E+03  0.10566000000E+00 0. -1.
        994    1    1    2    0    0 -0.12075804034E+03 -0.18684190731E+03  0.18285972530E+03  0.33502167358E+03  0.17120000000E+03 0.  0.
        998    1    1    2    0    0  0.42499821124E+02  0.49109022242E+02  0.43320415397E+03  0.43815952561E+03  0.10000000000E+02 0. -1.
</event>
<event>
 5    1  0.5525569E-010  0.3776037E+03  0.7957747E-01  0.3461659E+00
         13   -1    0    0    0    0  0.00000000000E+00  0.00000000000E+00  0.14999999963E+04  0.15000000000E+04  0.10566000000E+00 0. -1.
        994   -1    0    0    0    0 -0.00000000000E+00 -0.00000000000E+00  0.11368683772E-12  0.17120000000E+03  0.17120000000E+03 0.  0.
         13    1    1    2    0    0  0.12619699516E+03 -0.15895133626E+03  0.83657311230E+03  0.86084016651E+03  0.10566000000E+00 0. -1.
        994    1    1    2    0    0 -0.19192816512E+03  0.15046429126E+03  0.24263126102E+03  0.38425940761E+03  0.17120000000E+03 0.  0.
        998    1    1    2    0    0  0.65731169959E+02  0.84870450012E+01  0.42079562296E+03  0.42610042589E+03  0.10000000000E+02 0. -1.
</event>
<event>
 5    1  0.5525569E-010  0.3879691E+03  0.7957747E-01  0.3417177E+00
         13   -1    0    0    0    0  0.00000000000E+00  0.00000000000E+00  0.14999999963E+04  0.15000000000E+04  0.10566000000E+00 0. -1.
        994   -1    0    0    0    0 -0.00000000000E+00 -0.00000000000E+00  0.11368683772E-12  0.17120000000E+03  0.17120000000E+03 0.  0.
         13    1    1    2    0    0  0.66719075743E+01 -0.11322930084E+02  0.46506055575E+02  0.48327502165E+02  0.10566000000E+00 0. -1.
        994    1    1    2    0    0 -0.22240259925E+03  0.20096433616E+03  0.38815265342E+03  0.51944345497E+03  0.17120000000E+03 0.  0.
        998    1    1    2    0    0  0.21573069168E+03 -0.18964140607E+03  0.10653412873E+04  0.11034290429E+04  0.10000000000E+02 0. -1.
</event>
<event>
 5    1  0.5525569E-010  0.3742912E+03  0.7957747E-01  0.3476399E+00
         13   -1    0    0    0    0  0.00000000000E+00  0.00000000000E+00  0.14999999963E+04  0.15000000000E+04  0.10566000000E+00 0.  1.
        994   -1    0    0    0    0 -0.00000000000E+00 -0.00000000000E+00  0.11368683772E-12  0.17120000000E+03  0.17120000000E+03 0.  0.
         13    1    1    2    0    0 -0.73951465502E+02  0.29317517996E+02  0.11773678098E+03  0.14209256445E+03  0.10566000000E+00 0.  1.
        994    1    1    2    0    0  0.20453637838E+03 -0.70882390415E+02  0.20485054807E+03  0.34370427753E+03  0.17120000000E+03 0.  0.
        998    1    1    2    0    0 -0.13058491287E+03  0.41564872419E+02  0.11774126672E+04  0.11854031580E+04  0.10000000000E+02 0.  1.
</event>
<event>
 5    1  0.5525569E-010  0.3402872E+03  0.7957747E-01  0.3644682E+00
         13   -1    0    0    0    0  0.00000000000E+00  0.00000000000E+00  0.14999999963E+04  0.15000000000E+04  0.10566000000E+00 0.  1.
        994   -1    0    0    0    0 -0.00000000000E+00 -0.00000000000E+00  0.11368683772E-12  0.17120000000E+03  0.17120000000E+03 0.  0.
         13    1    1    2    0    0  0.22612596355E+03 -0.22663281442E+02  0.11356833535E+04  0.11581982846E+04  0.10566000000E+00 0.  1.
        994    1    1    2    0    0 -0.24175578446E+03  0.48939806187E+02  0.37381008286E+03  0.47946259707E+03  0.17120000000E+03 0.  0.
        998    1    1    2    0    0  0.15629820906E+02 -0.26276524745E+02 -0.94934401211E+01  0.33539118348E+02  0.10000000000E+02 0.  1.
</event>
<event>
 5    1  0.5525569E-010  0.3813520E+03  0.7957747E-01  0.3445293E+00
         13   -1    0    0    0    0  0.00000000000E+00  0.00000000000E+00  0.14999999963E+04  0.15000000000E+04  0.10566000000E+00 0. -1.
        994   -1    0    0    0    0 -0.00000000000E+00 -0.00000000000E+00  0.11368683772E-12  0.17120000000E+03  0.17120000000E+03 0.  0.
         13    1    1    2    0    0 -0.89353445413E+01  0.31233120665E+02  0.17372471249E+03  0.17673606056E+03  0.10566000000E+00 0. -1.
        994    1    1    2    0    0 -0.29464793629E+02 -0.11329531395E+02  0.67758238832E+01  0.17421792139E+03  0.17120000000E+03 0.  0.
        998    1    1    2    0    0  0.38400138171E+02 -0.19903589270E+02  0.13194994599E+04  0.13202460180E+04  0.10000000000E+02 0. -1.
</event>
<event>
 5    1  0.5525569E-010  0.3732489E+03  0.7957747E-01  0.3481092E+00
         13   -1    0    0    0    0  0.00000000000E+00  0.00000000000E+00  0.14999999963E+04  0.15000000000E+04  0.10566000000E+00 0.  1.
        994   -1    0    0    0    0 -0.00000000000E+00 -0.00000000000E+00  0.11368683772E-12  0.17120000000E+03  0.17120000000E+03 0.  0.
         13    1    1    2    0    0  0.37710745860E+02  0.46582544456E+02  0.23435995814E+03  0.24190211852E+03  0.10566000000E+00 0.  1.
        994    1    1    2    0    0 -0.11217953451E+03  0.30071660983E+02  0.55208906424E+02  0.21411682817E+03  0.17120000000E+03 0.  0.
        998    1    1    2    0    0  0.74468788652E+02 -0.76654205439E+02  0.12104311317E+04  0.12151810533E+04  0.10000000000E+02 0.  1.
</event>
<event>
 5    1  0.5525569E-010  0.3739662E+03  0.7957747E-01  0.3477859E+00
         13   -1    0    0    0    0  0.00000000000E+00  0.00000000000E+00  0.14999999963E+04  0.15000000000E+04  0.10566000000E+00 0. -1.
        994   -1    0    0    0    0 -0.00000000000E+00 -0.00000000000E+00  0.11368683772E-12  0.17120000000E+03  0.17120000000E+03 0.  0.
         13    1    1    2    0    0  0.67609972389E+02  0.23790551177E+02  0.31516749798E+03  0.32321457523E+03  0.10566000000E+00 0. -1.
        994    1    1    2    0    0  0.47210459574E+02 -0.34714091238E+02  0.25327515578E+02  0.18271512983E+03  0.17120000000E+03 0.  0.
        998    1    1    2    0    0 -0.11482043196E+03  0.10923540060E+02  0.11595049827E+04  0.11652702949E+04  0.10000000000E+02 0. -1.
</event>
<event>
 5    1  0.5525569E-010  0.3838579E+03  0.7957747E-01  0.3434531E+00
         13   -1    0    0    0    0  0.00000000000E+00  0.00000000000E+00  0.14999999963E+04  0.15000000000E+04  0.10566000000E+00 0.  1.
        994   -1    0    0    0    0 -0.00000000000E+00 -0.00000000000E+00  0.11368683772E-12  0.17120000000E+03  0.17120000000E+03 0.  0.
         13    1    1    2    0    0  0.24136424252E+02  0.64139608764E+01  0.11643882716E+03  0.11908701652E+03  0.10566000000E+00 0.  1.
        994    1    1    2    0    0 -0.31074697507E+02 -0.65599122424E+02  0.19788530854E+02  0.18700242683E+03  0.17120000000E+03 0.  0.
        998    1    1    2    0    0  0.69382732549E+01  0.59185161547E+02  0.13637726383E+04  0.13651105566E+04  0.10000000000E+02 0.  1.
</event>
<event>
 5    1  0.5525569E-010  0.3852179E+03  0.7957747E-01  0.3428749E+00
         13   -1    0    0    0    0  0.00000000000E+00  0.00000000000E+00  0.14999999963E+04  0.15000000000E+04  0.10566000000E+00 0. -1.
        994   -1    0    0    0    0 -0.00000000000E+00 -0.00000000000E+00  0.11368683772E-12  0.17120000000E+03  0.17120000000E+03 0.  0.
         13    1    1    2    0    0  0.22952102331E+03 -0.48789308090E+01  0.40471010907E+03  0.46528914415E+03  0.10566000000E+00 0. -1.
        994    1    1    2    0    0 -0.34505781569E+03  0.37004343265E+01  0.77924076490E+03  0.86925496781E+03  0.17120000000E+03 0.  0.
        998    1    1    2    0    0  0.11553679237E+03  0.11784964826E+01  0.31604912230E+03  0.33665588804E+03  0.10000000000E+02 0.  1.
</event>
<event>
 5    1  0.5525569E-010  0.3881979E+03  0.7957747E-01  0.3416222E+00
         13   -1    0    0    0    0  0.00000000000E+00  0.00000000000E+00  0.14999999963E+04  0.15000000000E+04  0.10566000000E+00 0.  1.
        994   -1    0    0    0    0 -0.00000000000E+00 -0.00000000000E+00  0.11368683772E-12  0.17120000000E+03  0.17120000000E+03 0.  0.
         13    1    1    2    0    0  0.83206971584E+02 -0.98694708296E+01  0.39544048427E+03  0.40422022999E+03  0.10566000000E+00 0.  1.
        994    1    1    2    0    0 -0.26137044764E+03  0.31034116592E+02  0.27252072414E+03  0.41575787711E+03  0.17120000000E+03 0.  0.
        998    1    1    2    0    0  0.17816347605E+03 -0.21164645762E+02  0.83203878787E+03  0.85122189290E+03  0.10000000000E+02 0.  0.
</event>
<event>
 5    1  0.5525569E-010  0.3868348E+03  0.7957747E-01  0.3421928E+00
         13   -1    0    0    0    0  0.00000000000E+00  0.00000000000E+00  0.14999999963E+04  0.15000000000E+04  0.10566000000E+00 0. -1.
        994   -1    0    0    0    0 -0.00000000000E+00 -0.00000000000E+00  0.11368683772E-12  0.17120000000E+03  0.17120000000E+03 0.  0.
         13    1    1    2    0    0  0.58105464319E+02 -0.24070486080E+03  0.10885954607E+04  0.11164027782E+04  0.10566000000E+00 0. -1.
        994    1    1    2    0    0 -0.70213634683E+02  0.26837688652E+03  0.31512885114E+03  0.45340019909E+03  0.17120000000E+03 0.  0.
        998    1    1    2    0    0  0.12108170364E+02 -0.27672025713E+02  0.96275684423E+02  0.10139702268E+03  0.10000000000E+02 0. -1.
</event>
<event>
 5    1  0.5525569E-010  0.3685152E+03  0.7957747E-01  0.3502743E+00
         13   -1    0    0    0    0  0.00000000000E+00  0.00000000000E+00  0.14999999963E+04  0.15000000000E+04  0.10566000000E+00 0.  1.
        994   -1    0    0    0    0 -0.00000000000E+00 -0.00000000000E+00  0.11368683772E-12  0.17120000000E+03  0.17120000000E+03 0.  0.
         13    1    1    2    0    0  0.94125176031E+02 -0.34871076923E+02  0.46075189771E+03  0.47155897105E+03  0.10566000000E+00 0.  1.
        994    1    1    2    0    0 -0.12660501099E+03 -0.79344838571E+02  0.92359959188E+02  0.24528398700E+03  0.17120000000E+03 0.  0.
        998    1    1    2    0    0  0.32479834959E+02  0.11421591549E+03  0.94688813938E+03  0.95435704195E+03  0.10000000000E+02 0.  1.
</event>
<event>
 5    1  0.5525569E-010  0.3817275E+03  0.7957747E-01  0.3443671E+00
         13   -1    0    0    0    0  0.00000000000E+00  0.00000000000E+00  0.14999999963E+04  0.15000000000E+04  0.10566000000E+00 0. -1.
        994   -1    0    0    0    0 -0.00000000000E+00 -0.00000000000E+00  0.11368683772E-12  0.17120000000E+03  0.17120000000E+03 0.  0.
         13    1    1    2    0    0  0.66445435840E+02  0.74703117404E+02  0.42287106772E+03  0.43452905860E+03  0.10566000000E+00 0. -1.
        994    1    1    2    0    0 -0.94855868972E+02 -0.15747288168E+03  0.12520294350E+03  0.28067875125E+03  0.17120000000E+03 0.  0.
        998    1    1    2    0    0  0.28410433132E+02  0.82769764276E+02  0.95192598506E+03  0.95599219015E+03  0.10000000000E+02 0. -1.
</event>
<event>
 5    1  0.5525569E-010  0.3816687E+03  0.7957747E-01  0.3443925E+00
         13   -1    0    0    0    0  0.00000000000E+00  0.00000000000E+00  0.14999999963E+04  0.15000000000E+04  0.10566000000E+00 0. -1.
        994   -1    0    0    0    0 -0.00000000000E+00 -0.00000000000E+00  0.11368683772E-12  0.17120000000E+03  0.17120000000E+03 0.  0.
         13    1    1    2    0    0 -0.26424871627E+02 -0.55414859449E+02  0.31549825192E+03  0.32141598998E+03  0.10566000000E+00 0. -1.
        994    1    1    2    0    0 -0.24633262145E+02  0.13513827386E+03  0.68797104174E+02  0.23002528602E+03  0.17120000000E+03 0.  0.
        998    1    1    2    0    0  0.51058133773E+02 -0.79723414416E+02  0.11157046402E+04  0.11197587240E+04  0.10000000000E+02 0. -1.
</event>
<event>
 5    1  0.5525569E-010  0.3863733E+03  0.7957747E-01  0.3423868E+00
         13   -1    0    0    0    0  0.00000000000E+00  0.00000000000E+00  0.14999999963E+04  0.15000000000E+04  0.10566000000E+00 0. -1.
        994   -1    0    0    0    0 -0.00000000000E+00 -0.00000000000E+00  0.11368683772E-12  0.17120000000E+03  0.17120000000E+03 0.  0.
         13    1    1    2    0    0  0.25232516374E+03 -0.69564746405E+02  0.11391189254E+04  0.11688024553E+04  0.10566000000E+00 0. -1.
        994    1    1    2    0    0 -0.25958737385E+03  0.75867829841E+02  0.29572226577E+03  0.43577818984E+03  0.17120000000E+03 0.  0.
        998    1    1    2    0    0  0.72622101084E+01 -0.63030834361E+01  0.65158805146E+02  0.66619354880E+02  0.10000000000E+02 0.  1.
</event>
<event>
 5    1  0.5525569E-010  0.3874095E+03  0.7957747E-01  0.3419517E+00
         13   -1    0    0    0    0  0.00000000000E+00  0.00000000000E+00  0.14999999963E+04  0.15000000000E+04  0.10566000000E+00 0. -1.
        994   -1    0    0    0    0 -0.00000000000E+00 -0.00000000000E+00  0.11368683772E-12  0.17120000000E+03  0.17120000000E+03 0.  0.
         13    1    1    2    0    0  0.16235450072E+03 -0.10229333490E+03  0.10518645153E+04  0.10692248968E+04  0.10566000000E+00 0. -1.
        994    1    1    2    0    0 -0.19411823517E+03  0.13740692556E+03  0.21392321495E+03  0.36281556515E+03  0.17120000000E+03 0.  0.
        998    1    1    2    0    0  0.31763734452E+02 -0.35113590654E+02  0.23421226605E+03  0.23915953806E+03  0.10000000000E+02 0. -1.
</event>
<event>
 5    1  0.5525569E-010  0.3296989E+03  0.7957747E-01  0.3704438E+00
         13   -1    0    0    0    0  0.00000000000E+00  0.00000000000E+00  0.14999999963E+04  0.15000000000E+04  0.10566000000E+00 0.  1.
        994   -1    0    0    0    0 -0.00000000000E+00 -0.00000000000E+00  0.11368683772E-12  0.17120000000E+03  0.17120000000E+03 0.  0.
         13    1    1    2    0    0 -0.16043377861E+03 -0.16872107300E+03  0.87272496565E+03  0.90324674072E+03  0.10566000000E+00 0.  1.
        994    1    1    2    0    0  0.25872613209E+03  0.11880582876E+03  0.46235190589E+03  0.56932658576E+03  0.17120000000E+03 0.  0.
        998    1    1    2    0    0 -0.98292353475E+02  0.49915244242E+02  0.16492312474E+03  0.19862667352E+03  0.10000000000E+02 0.  1.
</event>
<event>
 5    1  0.5525569E-010  0.2921863E+03  0.7957747E-01  0.3953431E+00
         13   -1    0    0    0    0  0.00000000000E+00  0.00000000000E+00  0.14999999963E+04  0.15000000000E+04  0.10566000000E+00 0. -1.
        994   -1    0    0    0    0 -0.00000000000E+00 -0.00000000000E+00  0.11368683772E-12  0.17120000000E+03  0.17120000000E+03 0.  0.
         13    1    1    2    0    0 -0.20344591512E+03 -0.47805263909E+02  0.39464509268E+03  0.44656505011E+03  0.10566000000E+00 0. -1.
        994    1    1    2    0    0  0.21644117513E+03  0.19561989014E+03  0.51740871567E+03  0.61817080387E+03  0.17120000000E+03 0.  0.
        998    1    1    2    0    0 -0.12995260004E+02 -0.14781462623E+03  0.58794618793E+03  0.60646414602E+03  0.10000000000E+02 0. -1.
</event>
<event>
 5    1  0.5525569E-010  0.3824199E+03  0.7957747E-01  0.3440689E+00
         13   -1    0    0    0    0  0.00000000000E+00  0.00000000000E+00  0.14999999963E+04  0.15000000000E+04  0.10566000000E+00 0. -1.
        994   -1    0    0    0    0 -0.00000000000E+00 -0.00000000000E+00  0.11368683772E-12  0.17120000000E+03  0.17120000000E+03 0.  0.
         13    1    1    2    0    0 -0.16041517133E+02  0.25894313028E+03  0.10247692655E+04  0.10571002477E+04  0.10566000000E+00 0. -1.
        994    1    1    2    0    0 -0.11874435291E+02 -0.28173242203E+03  0.33975942005E+03  0.47356104501E+03  0.17120000000E+03 0.  0.
        998    1    1    2    0    0  0.27915952424E+02  0.22789291752E+02  0.13547131075E+03  0.14053870732E+03  0.10000000000E+02 0. -1.
</event>
<event>
 5    1  0.5525569E-010  0.3877994E+03  0.7957747E-01  0.3417886E+00
         13   -1    0    0    0    0  0.00000000000E+00  0.00000000000E+00  0.14999999963E+04  0.15000000000E+04  0.10566000000E+00 0.  1.
        994   -1    0    0    0    0 -0.00000000000E+00 -0.00000000000E+00  0.11368683772E-12  0.17120000000E+03  0.17120000000E+03 0.  0.
         13    1    1    2    0    0 -0.18143343053E+03 -0.53486653864E+02  0.95536379452E+03  0.97390908349E+03  0.10566000000E+00 0.  1.
        994    1    1    2    0    0  0.23366931956E+03  0.65040316813E+02  0.22358727633E+03  0.37166154476E+03  0.17120000000E+03 0.  0.
        998    1    1    2    0    0 -0.52235889029E+02 -0.11553662949E+02  0.32104892543E+03  0.32562937176E+03  0.10000000000E+02 0.  1.
</event>
<event>
 5    1  0.5525569E-010  0.3876464E+03  0.7957747E-01  0.3418525E+00
         13   -1    0    0    0    0  0.00000000000E+00  0.00000000000E+00  0.14999999963E+04  0.15000000000E+04  0.10566000000E+00 0.  1.
        994   -1    0    0    0    0 -0.00000000000E+00 -0.00000000000E+00  0.11368683772E-12  0.17120000000E+03  0.17120000000E+03 0.  0.
         13    1    1    2    0    0 -0.15847748092E+02  0.16368504918E+03  0.95209520031E+03  0.96619316291E+03  0.10566000000E+00 0.  1.
        994    1    1    2    0    0  0.10383944077E+02 -0.21766266594E+03  0.17435402400E+03  0.32740438013E+03  0.17120000000E+03 0.  0.
        998    1    1    2    0    0  0.54638040148E+01  0.53977616768E+02  0.37355077196E+03  0.37760245696E+03  0.10000000000E+02 0.  1.
</event>
<event>
 5    1  0.7949894E-010  0.3868400E+03  0.7957747E-01  0.3421906E+00
         13   -1    0    0    0    0  0.00000000000E+00  0.00000000000E+00  0.14999999963E+04  0.15000000000E+04  0.10566000000E+00 0. -1.
        994   -1    0    0    0    0 -0.00000000000E+00 -0.00000000000E+00  0.11368683772E-12  0.17120000000E+03  0.17120000000E+03 0.  0.
         13    1    1    2    0    0 -0.44693955553E+01 -0.97692968703E+01  0.58679379112E+02  0.59654801609E+02  0.10566000000E+00 0. -1.
        994    1    1    2    0    0  0.21607311439E+02  0.43142095982E+02  0.83675174498E+01  0.17806620033E+03  0.17120000000E+03 0.  0.
        998    1    1    2    0    0 -0.17137915884E+02 -0.33372799112E+02  0.14329530997E+04  0.14334789981E+04  0.10000000000E+02 0. -1.
</event>
<event>
 5    1  0.5525569E-010  0.3336818E+03  0.7957747E-01  0.3681494E+00
         13   -1    0    0    0    0  0.00000000000E+00  0.00000000000E+00  0.14999999963E+04  0.15000000000E+04  0.10566000000E+00 0.  1.
        994   -1    0    0    0    0 -0.00000000000E+00 -0.00000000000E+00  0.11368683772E-12  0.17120000000E+03  0.17120000000E+03 0.  0.
         13    1    1    2    0    0  0.12599748186E+03  0.14636778133E+03  0.11565732208E+04  0.11725871051E+04  0.10566000000E+00 0.  1.
        994    1    1    2    0    0 -0.18311750434E+03 -0.14523671672E+03  0.32990334702E+03  0.43905737969E+03  0.17120000000E+03 0.  0.
        998    1    1    2    0    0  0.57120022480E+02 -0.11310646125E+01  0.13523428477E+02  0.59555515220E+02  0.10000000000E+02 0. -1.
</event>
<event>
 5    1  0.5525569E-010  0.3846252E+03  0.7957747E-01  0.3431263E+00
         13   -1    0    0    0    0  0.00000000000E+00  0.00000000000E+00  0.14999999963E+04  0.15000000000E+04  0.10566000000E+00 0.  1.
        994   -1    0    0    0    0 -0.00000000000E+00 -0.00000000000E+00  0.11368683772E-12  0.17120000000E+03  0.17120000000E+03 0.  0.
         13    1    1    2    0    0 -0.16817209252E+03  0.55633210797E+02  0.73385788460E+03  0.75493331679E+03  0.10566000000E+00 0.  1.
        994    1    1    2    0    0  0.24294451039E+03 -0.53547796332E+02  0.24274903884E+03  0.38746088509E+03  0.17120000000E+03 0.  0.
        998    1    1    2    0    0 -0.74772417872E+02 -0.20854144653E+01  0.52339307284E+03  0.52880579812E+03  0.10000000000E+02 0.  1.
</event>
<event>
 5    1  0.5525569E-010  0.3861187E+03  0.7957747E-01  0.3424941E+00
         13   -1    0    0    0    0  0.00000000000E+00  0.00000000000E+00  0.14999999963E+04  0.15000000000E+04  0.10566000000E+00 0.  1.
        994   -1    0    0    0    0 -0.00000000000E+00 -0.00000000000E+00  0.11368683772E-12  0.17120000000E+03  0.17120000000E+03 0.  0.
         13    1    1    2    0    0 -0.66983649150E+02 -0.94055942358E+02  0.45208387643E+03  0.46659744109E+03  0.10566000000E+00 0.  1.
        994    1    1    2    0    0  0.19172995348E+03  0.18202953746E+03  0.27947451070E+03  0.42108261624E+03  0.17120000000E+03 0.  0.
        998    1    1    2    0    0 -0.12474630433E+03 -0.87973595104E+02  0.76844160915E+03  0.78351994267E+03  0.10000000000E+02 0.  1.
</event>
<event>
 5    1  0.5525569E-010  0.3692904E+03  0.7957747E-01  0.3499158E+00
         13   -1    0    0    0    0  0.00000000000E+00  0.00000000000E+00  0.14999999963E+04  0.15000000000E+04  0.10566000000E+00 0.  1.
        994   -1    0    0    0    0 -0.00000000000E+00 -0.00000000000E+00  0.11368683772E-12  0.17120000000E+03  0.17120000000E+03 0.  0.
         13    1    1    2    0    0 -0.42601010660E+02  0.12428210848E+02  0.24653029431E+03  0.25049252226E+03  0.10566000000E+00 0.  1.
        994    1    1    2    0    0 -0.11641567082E+03 -0.18387351069E+03  0.20005349351E+03  0.34160344935E+03  0.17120000000E+03 0.  0.
        998    1    1    2    0    0  0.15901668148E+03  0.17144529984E+03  0.10534162085E+04  0.10791040284E+04  0.10000000000E+02 0.  1.
</event>
<event>
 5    1  0.5525569E-010  0.3835099E+03  0.7957747E-01  0.3436017E+00
         13   -1    0    0    0    0  0.00000000000E+00  0.00000000000E+00  0.14999999963E+04  0.15000000000E+04  0.10566000000E+00 0. -1.
        994   -1    0    0    0    0 -0.00000000000E+00 -0.00000000000E+00  0.11368683772E-12  0.17120000000E+03  0.17120000000E+03 0.  0.
         13    1    1    2    0    0 -0.69212805173E+02  0.46234393392E+01  0.34644504193E+03  0.35332133651E+03  0.10566000000E+00 0. -1.
        994    1    1    2    0    0  0.15150836223E+03  0.49281276999E+02  0.91337750386E+02  0.25106862157E+03  0.17120000000E+03 0.  0.
        998    1    1    2    0    0 -0.82295557061E+02 -0.53904716338E+02  0.10622172040E+04  0.10668100419E+04  0.10000000000E+02 0. -1.
</event>
<event>
 5    1  0.5773706E-010  0.3866764E+03  0.7957747E-01  0.3422593E+00
         13   -1    0    0    0    0  0.00000000000E+00  0.00000000000E+00  0.14999999963E+04  0.15000000000E+04  0.10566000000E+00 0. -1.
        994   -1    0    0    0    0 -0.00000000000E+00 -0.00000000000E+00  0.11368683772E-12  0.17120000000E+03  0.17120000000E+03 0.  0.
         13    1    1    2    0    0 -0.20765469465E+03 -0.86205631116E+01  0.11075176788E+04  0.11268496822E+04  0.10566000000E+00 0. -1.
        994    1    1    2    0    0  0.22872325062E+03  0.18362536287E+02  0.19765727852E+03  0.34789272465E+03  0.17120000000E+03 0.  0.
        998    1    1    2    0    0 -0.21068555969E+02 -0.97419731752E+01  0.19482503894E+03  0.19645759311E+03  0.10000000000E+02 0.  1.
</event>
<event>
 5    1  0.5525569E-010  0.3859149E+03  0.7957747E-01  0.3425801E+00
         13   -1    0    0    0    0  0.00000000000E+00  0.00000000000E+00  0.14999999963E+04  0.15000000000E+04  0.10566000000E+00 0. -1.
        994   -1    0    0    0    0 -0.00000000000E+00 -0.00000000000E+00  0.11368683772E-12  0.17120000000E+03  0.17120000000E+03 0.  0.
         13    1    1    2    0    0  0.10457097790E+02  0.17962003084E+01  0.45939980174E+02  0.47149445088E+02  0.10566000000E+00 0. -1.
        994    1    1    2    0    0 -0.89684656460E+01 -0.71806965582E+02  0.18539407476E+02  0.18678817765E+03  0.17120000000E+03 0.  0.
        998    1    1    2    0    0 -0.14886321445E+01  0.70010765273E+02  0.14355206086E+04  0.14372623773E+04  0.10000000000E+02 0. -1.
</event>
<event>
 5    1  0.5525569E-010  0.3817400E+03  0.7957747E-01  0.3443617E+00
         13   -1    0    0    0    0  0.00000000000E+00  0.00000000000E+00  0.14999999963E+04  0.15000000000E+04  0.10566000000E+00 0. -1.
        994   -1    0    0    0    0 -0.00000000000E+00 -0.00000000000E+00  0.11368683772E-12  0.17120000000E+03  0.17120000000E+03 0.  0.
         13    1    1    2    0    0  0.55933361444E+02 -0.10118957854E+03  0.39886345085E+03  0.41528295813E+03  0.10566000000E+00 0. -1.
        994    1    1    2    0    0 -0.11148957504E+03  0.19791349906E+03  0.19969273166E+03  0.34754324268E+03  0.17120000000E+03 0.  0.
        998    1    1    2    0    0  0.55556213595E+02 -0.96723920526E+02  0.90144381377E+03  0.90837379919E+03  0.10000000000E+02 0. -1.
</event>
<event>
 5    1  0.5525569E-010  0.3867026E+03  0.7957747E-01  0.3422483E+00
         13   -1    0    0    0    0  0.00000000000E+00  0.00000000000E+00  0.14999999963E+04  0.15000000000E+04  0.10566000000E+00 0. -1.
        994   -1    0    0    0    0 -0.00000000000E+00 -0.00000000000E+00  0.11368683772E-12  0.17120000000E+03  0.17120000000E+03 0.  0.
         13    1    1    2    0    0 -0.84751857193E+02  0.75832062136E+02  0.65298688061E+03  0.66281615578E+03  0.10566000000E+00 0. -1.
        994    1    1    2    0    0  0.19428309110E+03 -0.11235817750E+03  0.18775296903E+03  0.33901459691E+03  0.17120000000E+03 0.  0.
        998    1    1    2    0    0 -0.10953123391E+03  0.36526115361E+02  0.65926014663E+03  0.66936924731E+03  0.10000000000E+02 0. -1.
</event>
<event>
 5    1  0.5525569E-010  0.3704837E+03  0.7957747E-01  0.3493671E+00
         13   -1    0    0    0    0  0.00000000000E+00  0.00000000000E+00  0.14999999963E+04  0.15000000000E+04  0.10566000000E+00 0.  1.
        994   -1    0    0    0    0 -0.00000000000E+00 -0.00000000000E+00  0.11368683772E-12  0.17120000000E+03  0.17120000000E+03 0.  0.
         13    1    1    2    0    0 -0.25470666384E+02 -0.10574697553E+03  0.61942173483E+03  0.62889941518E+03  0.10566000000E+00 0.  1.
        994    1    1    2    0    0  0.14842462540E+03  0.59248792062E+02  0.10685280179E+03  0.25742426078E+03  0.17120000000E+03 0.  0.
        998    1    1    2    0    0 -0.12295395902E+03  0.46498183466E+02  0.77372545966E+03  0.78487632404E+03  0.10000000000E+02 0.  1.
</event>
<event>
 5    1  0.5525569E-010  0.2279100E+03  0.7957747E-01  0.4598779E+00
         13   -1    0    0    0    0  0.00000000000E+00  0.00000000000E+00  0.14999999963E+04  0.15000000000E+04  0.10566000000E+00 0.  1.
        994   -1    0    0    0    0 -0.00000000000E+00 -0.00000000000E+00  0.11368683772E-12  0.17120000000E+03  0.17120000000E+03 0.  0.
         13    1    1    2    0    0 -0.22022018672E+02 -0.16501607924E+03  0.20531121501E+03  0.26432552258E+03  0.10566000000E+00 0.  1.
        994    1    1    2    0    0  0.22507837052E+03  0.12292064720E+02  0.52751721509E+03  0.59866118961E+03  0.17120000000E+03 0.  0.
        998    1    1    2    0    0 -0.20305635185E+03  0.15272401452E+03  0.76717156618E+03  0.80821328781E+03  0.10000000000E+02 0.  1.
</event>
<event>
 5    1  0.5525569E-010  0.3842321E+03  0.7957747E-01  0.3432936E+00
         13   -1    0    0    0    0  0.00000000000E+00  0.00000000000E+00  0.14999999963E+04  0.15000000000E+04  0.10566000000E+00 0. -1.
        994   -1    0    0    0    0 -0.00000000000E+00 -0.00000000000E+00  0.11368683772E-12  0.17120000000E+03  0.17120000000E+03 0.  0.
         13    1    1    2    0    0 -0.33683031336E+03  0.46927222607E+02  0.66811324992E+03  0.74968803518E+03  0.10566000000E+00 0. -1.
        994    1    1    2    0    0  0.34134522238E+03 -0.41456865823E+02  0.80367903003E+03  0.89075510432E+03  0.17120000000E+03 0.  0.
        998    1    1    2    0    0 -0.45149090198E+01 -0.54703567835E+01  0.28207716334E+02  0.30756860496E+02  0.10000000000E+02 0.  1.
</event>
<event>
 5    1  0.5525569E-010  0.3881933E+03  0.7957747E-01  0.3416241E+00
         13   -1    0    0    0    0  0.00000000000E+00  0.00000000000E+00  0.14999999963E+04  0.15000000000E+04  0.10566000000E+00 0. -1.
        994   -1    0    0    0    0 -0.00000000000E+00 -0.00000000000E+00  0.11368683772E-12  0.17120000000E+03  0.17120000000E+03 0.  0.
         13    1    1    2    0    0  0.96342249429E+02 -0.30854294415E+02  0.42375011265E+03  0.43565810637E+03  0.10566000000E+00 0. -1.
        994    1    1    2    0    0 -0.26839276803E+03  0.83795498971E+02  0.32363260427E+03  0.46163174298E+03  0.17120000000E+03 0.  0.
        998    1    1    2    0    0  0.17205051860E+03 -0.52941204556E+02  0.75261727936E+03  0.77391015066E+03  0.10000000000E+02 0.  0.
</event>
<event>
 5    1  0.5525569E-010  0.3864438E+03  0.7957747E-01  0.3423572E+00
         13   -1    0    0    0    0  0.00000000000E+00  0.00000000000E+00  0.14999999963E+04  0.15000000000E+04  0.10566000000E+00 0.  1.
        994   -1    0    0    0    0 -0.00000000000E+00 -0.00000000000E+00  0.11368683772E-12  0.17120000000E+03  0.17120000000E+03 0.  0.
         13    1    1    2    0    0  0.15744447851E+02  0.85927371920E+02  0.45099009599E+03  0.45937291902E+03  0.10566000000E+00 0.  1.
        994    1    1    2    0    0 -0.10850789796E+03 -0.21802931206E+03  0.22781946576E+03  0.37486249988E+03  0.17120000000E+03 0.  0.
        998    1    1    2    0    0  0.92763450105E+02  0.13210194014E+03  0.82119043452E+03  0.83696458110E+03  0.10000000000E+02 0.  1.
</event>
<event>
 5    1  0.5525569E-010  0.3857077E+03  0.7957747E-01  0.3426676E+00
         13   -1    0    0    0    0  0.00000000000E+00  0.00000000000E+00  0.14999999963E+04  0.15000000000E+04  0.10566000000E+00 0. -1.
        994   -1    0    0    0    0 -0.00000000000E+00 -0.00000000000E+00  0.11368683772E-12  0.17120000000E+03  0.17120000000E+03 0.  0.
         13    1    1    2    0    0 -0.18714027192E+03  0.45078964611E+01  0.97746011523E+03  0.99522363845E+03  0.10566000000E+00 0. -1.
        994    1    1    2    0    0  0.21830376972E+03 -0.18884117309E+01  0.17745358844E+03  0.32933162317E+03  0.17120000000E+03 0.  0.
        998    1    1    2    0    0 -0.31163497798E+02 -0.26194847301E+01  0.34508629262E+03  0.34664473838E+03  0.10000000000E+02 0. -1.
</event>
<event>
 5    1  0.5525569E-010  0.3858397E+03  0.7957747E-01  0.3426119E+00
         13   -1    0    0    0    0  0.00000000000E+00  0.00000000000E+00  0.14999999963E+04  0.15000000000E+04  0.10566000000E+00 0. -1.
        994   -1    0    0    0    0 -0.00000000000E+00 -0.00000000000E+00  0.11368683772E-12  0.17120000000E+03  0.17120000000E+03 0.  0.
         13    1    1    2    0    0 -0.41819155675E+02 -0.55888333518E+02  0.38816530112E+03  0.39439150569E+03  0.10566000000E+00 0. -1.
        994    1    1    2    0    0  0.67614872938E+02  0.15370710321E+03  0.99903593288E+02  0.25978416536E+03  0.17120000000E+03 0.  0.
        998    1    1    2    0    0 -0.25795717263E+02 -0.97818769696E+02  0.10119311019E+04  0.10170243289E+04  0.10000000000E+02 0. -1.
</event>
<event>
 5    1  0.5525569E-010  0.3742378E+03  0.7957747E-01  0.3476639E+00
         13   -1    0    0    0    0  0.00000000000E+00  0.00000000000E+00  0.14999999963E+04  0.15000000000E+04  0.10566000000E+00 0. -1.
        994   -1    0    0    0    0 -0.00000000000E+00 -0.00000000000E+00  0.11368683772E-12  0.17120000000E+03  0.17120000000E+03 0.  0.
         13    1    1    2    0    0  0.56468401974E+02 -0.19621547863E+03  0.82614306043E+03  0.85100033017E+03  0.10566000000E+00 0. -1.
        994    1    1    2    0    0 -0.15757238495E+03  0.24414379274E+03  0.39396924611E+03  0.51861011841E+03  0.17120000000E+03 0.  0.
        998    1    1    2    0    0  0.10110398297E+03 -0.47928314112E+02  0.27988768973E+03  0.30158955142E+03  0.10000000000E+02 0. -1.
</event>
<event>
 5    1  0.5525569E-010  0.3879676E+03  0.7957747E-01  0.3417183E+00
         13   -1    0    0    0    0  0.00000000000E+00  0.00000000000E+00  0.14999999963E+04  0.15000000000E+04  0.10566000000E+00 0.  1.
        994   -1    0    0    0    0 -0.00000000000E+00 -0.00000000000E+00  0.11368683772E-12  0.17120000000E+03  0.17120000000E+03 0.  0.
         13    1    1    2    0    0 -0.46861553695E+01  0.12559112457E+03  0.45220421221E+03  0.46934395845E+03  0.10566000000E+00 0.  1.
        994    1    1    2    0    0  0.32617894356E+02 -0.30301946686E+03  0.40808861465E+03  0.53733646976E+03  0.17120000000E+03 0.  0.
        998    1    1    2    0    0 -0.27931738987E+02  0.17742834229E+03  0.63970716942E+03  0.66451957180E+03  0.10000000000E+02 0. -1.
</event>
<event>
 5    1  0.5525569E-010  0.3838483E+03  0.7957747E-01  0.3434571E+00
         13   -1    0    0    0    0  0.00000000000E+00  0.00000000000E+00  0.14999999963E+04  0.15000000000E+04  0.10566000000E+00 0.  1.
        994   -1    0    0    0    0 -0.00000000000E+00 -0.00000000000E+00  0.11368683772E-12  0.17120000000E+03  0.17120000000E+03 0.  0.
         13    1    1    2    0    0 -0.45430312699E+02 -0.14938243320E+03  0.64726179982E+03  0.66582796076E+03  0.10566000000E+00 0.  1.
        994    1    1    2    0    0  0.72146736312E+02  0.21993563892E+03  0.20560428031E+03  0.35377874005E+03  0.17120000000E+03 0.  0.
        998    1    1    2    0    0 -0.26716423613E+02 -0.70553205721E+02  0.64713391614E+03  0.65159329919E+03  0.10000000000E+02 0.  1.
</event>
<event>
 5    1  0.5525569E-010  0.3729549E+03  0.7957747E-01  0.3482420E+00
         13   -1    0    0    0    0  0.00000000000E+00  0.00000000000E+00  0.14999999963E+04  0.15000000000E+04  0.10566000000E+00 0.  1.
        994   -1    0    0    0    0 -0.00000000000E+00 -0.00000000000E+00  0.11368683772E-12  0.17120000000E+03  0.17120000000E+03 0.  0.
         13    1    1    2    0    0 -0.40540775813E+02 -0.13937560234E+02  0.23565912531E+03  0.23952670957E+03  0.10566000000E+00 0.  1.
        994    1    1    2    0    0 -0.57121416353E+02 -0.61323146415E+02  0.32168510017E+02  0.19330710677E+03  0.17120000000E+03 0.  0.
        998    1    1    2    0    0  0.97662192166E+02  0.75260706649E+02  0.12321723609E+04  0.12383661837E+04  0.10000000000E+02 0.  1.
</event>
<event>
 5    1  0.5525569E-010  0.3874431E+03  0.7957747E-01  0.3419377E+00
         13   -1    0    0    0    0  0.00000000000E+00  0.00000000000E+00  0.14999999963E+04  0.15000000000E+04  0.10566000000E+00 0. -1.
        994   -1    0    0    0    0 -0.00000000000E+00 -0.00000000000E+00  0.11368683772E-12  0.17120000000E+03  0.17120000000E+03 0.  0.
         13    1    1    2    0    0 -0.74761240841E+02 -0.79986058416E+02  0.44365334831E+03  0.45696314654E+03  0.10566000000E+00 0. -1.
        994    1    1    2    0    0  0.19720071882E+03  0.17646538208E+03  0.27766429310E+03  0.42004172916E+03  0.17120000000E+03 0.  0.
        998    1    1    2    0    0 -0.12243947798E+03 -0.96479323661E+02  0.77868235487E+03  0.79419512429E+03  0.10000000000E+02 0.  0.
</event>
<event>
 5    1  0.5525569E-010  0.3843593E+03  0.7957747E-01  0.3432394E+00
         13   -1    0    0    0    0  0.00000000000E+00  0.00000000000E+00  0.14999999963E+04  0.15000000000E+04  0.10566000000E+00 0.  1.
        994   -1    0    0    0    0 -0.00000000000E+00 -0.00000000000E+00  0.11368683772E-12  0.17120000000E+03  0.17120000000E+03 0.  0.
         13    1    1    2    0    0  0.38349172630E+02 -0.16340632928E+02  0.23904182088E+03  0.24264929141E+03  0.10566000000E+00 0.  1.
        994    1    1    2    0    0 -0.10729312776E+03 -0.15331253539E+02  0.41670761532E+02  0.20686409782E+03  0.17120000000E+03 0.  0.
        998    1    1    2    0    0  0.68943955126E+02  0.31671886467E+02  0.12192874139E+04  0.12216866108E+04  0.10000000000E+02 0. -1.
</event>
<event>
 5    1  0.5525569E-010  0.3046454E+03  0.7957747E-01  0.3863403E+00
         13   -1    0    0    0    0  0.00000000000E+00  0.00000000000E+00  0.14999999963E+04  0.15000000000E+04  0.10566000000E+00 0.  1.
        994   -1    0    0    0    0 -0.00000000000E+00 -0.00000000000E+00  0.11368683772E-12  0.17120000000E+03  0.17120000000E+03 0.  0.
         13    1    1    2    0    0  0.17836127386E+03  0.75755948458E+02  0.10115733685E+04  0.10299671833E+04  0.10566000000E+00 0.  1.
        994    1    1    2    0    0 -0.33055710939E+02 -0.34827242073E+02  0.61255847224E+02  0.18806205262E+03  0.17120000000E+03 0.  0.
        998    1    1    2    0    0 -0.14530556292E+03 -0.40928706384E+02  0.42717078057E+03  0.45317076405E+03  0.10000000000E+02 0.  1.
</event>
<event>
 5    1  0.5525569E-010  0.3854243E+03  0.7957747E-01  0.3427875E+00
         13   -1    0    0    0    0  0.00000000000E+00  0.00000000000E+00  0.14999999963E+04  0.15000000000E+04  0.10566000000E+00 0.  1.
        994   -1    0    0    0    0 -0.00000000000E+00 -0.00000000000E+00  0.11368683772E-12  0.17120000000E+03  0.17120000000E+03 0.  0.
         13    1    1    2    0    0  0.66556048985E+01 -0.47464249759E+02  0.14064916912E+03  0.14859122458E+03  0.10566000000E+00 0.  1.
        994    1    1    2    0    0 -0.85505315654E+02  0.23786903750E+03  0.25102548892E+03  0.39524179194E+03  0.17120000000E+03 0.  0.
        998    1    1    2    0    0  0.78849710756E+02 -0.19040478774E+03  0.11083253382E+04  0.11273669835E+04  0.10000000000E+02 0.  1.
</event>
<event>
 5    1  0.5525569E-010  0.3877657E+03  0.7957747E-01  0.3418027E+00
         13   -1    0    0    0    0  0.00000000000E+00  0.00000000000E+00  0.14999999963E+04  0.15000000000E+04  0.10566000000E+00 0.  1.
        994   -1    0    0    0    0 -0.00000000000E+00 -0.00000000000E+00  0.11368683772E-12  0.17120000000E+03  0.17120000000E+03 0.  0.
         13    1    1    2    0    0 -0.13346235372E+02 -0.23297500760E+01  0.66320494631E+02  0.67690242326E+02  0.10566000000E+00 0.  1.
        994    1    1    2    0    0  0.18324287642E+03 -0.21384057840E+02  0.12033486294E+03  0.27897159162E+03  0.17120000000E+03 0.  0.
        998    1    1    2    0    0 -0.16989664105E+03  0.23713807916E+02  0.13133446387E+04  0.13245381661E+04  0.10000000000E+02 0.  1.
</event>
<event>
 5    1  0.5525569E-010  0.3868098E+03  0.7957747E-01  0.3422033E+00
         13   -1    0    0    0    0  0.00000000000E+00  0.00000000000E+00  0.14999999963E+04  0.15000000000E+04  0.10566000000E+00 0. -1.
        994   -1    0    0    0    0 -0.00000000000E+00 -0.00000000000E+00  0.11368683772E-12  0.17120000000E+03  0.17120000000E+03 0.  0.
         13    1    1    2    0    0  0.29018528373E+03  0.34723293626E+02  0.91754361321E+03  0.96296391382E+03  0.10566000000E+00 0. -1.
        994    1    1    2    0    0 -0.31524289861E+03 -0.47327711737E+02  0.47734064844E+03  0.59898374943E+03  0.17120000000E+03 0.  0.
        998    1    1    2    0    0  0.25057614878E+02  0.12604418112E+02  0.10511573462E+03  0.10925233675E+03  0.10000000000E+02 0. -1.
</event>
<event>
 5    1  0.5525569E-010  0.3841185E+03  0.7957747E-01  0.3433419E+00
         13   -1    0    0    0    0  0.00000000000E+00  0.00000000000E+00  0.14999999963E+04  0.15000000000E+04  0.10566000000E+00 0. -1.
        994   -1    0    0    0    0 -0.00000000000E+00 -0.00000000000E+00  0.11368683772E-12  0.17120000000E+03  0.17120000000E+03 0.  0.
         13    1    1    2    0    0 -0.25492369031E+03  0.79787289673E+02  0.11536164293E+04  0.11841380733E+04  0.10566000000E+00 0. -1.
        994    1    1    2    0    0  0.25836535469E+03 -0.90851661812E+02  0.31038779691E+03  0.44794721277E+03  0.17120000000E+03 0.  0.
        998    1    1    2    0    0 -0.34416643828E+01  0.11064372139E+02  0.35995770059E+02  0.39114713941E+02  0.10000000000E+02 0. -1.
</event>
<event>
 5    1  0.5525569E-010  0.3791380E+03  0.7957747E-01  0.3454920E+00
         13   -1    0    0    0    0  0.00000000000E+00  0.00000000000E+00  0.14999999963E+04  0.15000000000E+04  0.10566000000E+00 0.  1.
        994   -1    0    0    0    0 -0.00000000000E+00 -0.00000000000E+00  0.11368683772E-12  0.17120000000E+03  0.17120000000E+03 0.  0.
         13    1    1    2    0    0 -0.46724922582E+01  0.22017125942E+02  0.41965039108E+02  0.47619971546E+02  0.10566000000E+00 0.  1.
        994    1    1    2    0    0 -0.62097199040E+02 -0.10092646464E+03  0.53183878135E+02  0.21489573818E+03  0.17120000000E+03 0.  0.
        998    1    1    2    0    0  0.66769691298E+02  0.78909338694E+02  0.14048510790E+04  0.14086842903E+04  0.10000000000E+02 0.  1.
</event>
<event>
 5    1  0.5525569E-010  0.3860105E+03  0.7957747E-01  0.3425398E+00
         13   -1    0    0    0    0  0.00000000000E+00  0.00000000000E+00  0.14999999963E+04  0.15000000000E+04  0.10566000000E+00 0.  1.
        994   -1    0    0    0    0 -0.00000000000E+00 -0.00000000000E+00  0.11368683772E-12  0.17120000000E+03  0.17120000000E+03 0.  0.
         13    1    1    2    0    0  0.15612092442E+02  0.17114575363E+02  0.13014517885E+03  0.13219086527E+03  0.10566000000E+00 0.  1.
        994    1    1    2    0    0 -0.17154700761E+02 -0.99425758054E+02  0.35238994230E+02  0.20181920582E+03  0.17120000000E+03 0.  0.
        998    1    1    2    0    0  0.15426083192E+01  0.82311182690E+02  0.13346158232E+04  0.13371899289E+04  0.10000000000E+02 0.  1.
</event>
<event>
 5    1  0.5525569E-010  0.3777949E+03  0.7957747E-01  0.3460816E+00
         13   -1    0    0    0    0  0.00000000000E+00  0.00000000000E+00  0.14999999963E+04  0.15000000000E+04  0.10566000000E+00 0. -1.
        994   -1    0    0    0    0 -0.00000000000E+00 -0.00000000000E+00  0.11368683772E-12  0.17120000000E+03  0.17120000000E+03 0.  0.
         13    1    1    2    0    0 -0.11575518005E+02 -0.24385090431E+02  0.10179937600E+03  0.10531737449E+03  0.10566000000E+00 0. -1.
        994    1    1    2    0    0  0.10234997931E+03 -0.10361563227E+03  0.80372068130E+02  0.23870657061E+03  0.17120000000E+03 0.  0.
        998    1    1    2    0    0 -0.90774461303E+02  0.12800072270E+03  0.13178285522E+04  0.13271760549E+04  0.10000000000E+02 0. -1.
</event>
<event>
 5    1  0.5525569E-010  0.3874871E+03  0.7957747E-01  0.3419192E+00
         13   -1    0    0    0    0  0.00000000000E+00  0.00000000000E+00  0.14999999963E+04  0.15000000000E+04  0.10566000000E+00 0. -1.
        994   -1    0    0    0    0 -0.00000000000E+00 -0.00000000000E+00  0.11368683772E-12  0.17120000000E+03  0.17120000000E+03 0.  0.
         13    1    1    2    0    0 -0.15832053656E+03  0.79497635158E+02  0.92189327087E+03  0.93876114126E+03  0.10566000000E+00 0. -1.
        994    1    1    2    0    0  0.21640622297E+03 -0.12595776867E+03  0.24194056554E+03  0.38799702329E+03  0.17120000000E+03 0.  0.
        998    1    1    2    0    0 -0.58085686406E+02  0.46460133507E+02  0.33616615987E+03  0.34444183545E+03  0.10000000000E+02 0.  0.
</event>
<event>
 5    1  0.5525569E-010  0.3874454E+03  0.7957747E-01  0.3419367E+00
         13   -1    0    0    0    0  0.00000000000E+00  0.00000000000E+00  0.14999999963E+04  0.15000000000E+04  0.10566000000E+00 0.  1.
        994   -1    0    0    0    0 -0.00000000000E+00 -0.00000000000E+00  0.11368683772E-12  0.17120000000E+03  0.17120000000E+03 0.  0.
         13    1    1    2    0    0 -0.15147764084E+03  0.88225901406E+02  0.95630896644E+03  0.97224283788E+03  0.10566000000E+00 0.  1.
        994    1    1    2    0    0  0.20669170074E+03 -0.13300380414E+03  0.23135902260E+03  0.37848105422E+03  0.17120000000E+03 0.  0.
        998    1    1    2    0    0 -0.55214059902E+02  0.44777902734E+02  0.31233200724E+03  0.32047610789E+03  0.10000000000E+02 0.  1.
</event>
<event>
 5    1  0.5525569E-010  0.3878562E+03  0.7957747E-01  0.3417648E+00
         13   -1    0    0    0    0  0.00000000000E+00  0.00000000000E+00  0.14999999963E+04  0.15000000000E+04  0.10566000000E+00 0.  1.
        994   -1    0    0    0    0 -0.00000000000E+00 -0.00000000000E+00  0.11368683772E-12  0.17120000000E+03  0.17120000000E+03 0.  0.
         13    1    1    2    0    0 -0.19507783184E+03 -0.12580027805E+02  0.10044328401E+04  0.10232785344E+04  0.10566000000E+00 0.  1.
        994    1    1    2    0    0  0.24119026086E+03  0.17735139202E+02  0.22194033140E+03  0.37020835728E+03  0.17120000000E+03 0.  0.
        998    1    1    2    0    0 -0.46112429022E+02 -0.51551113968E+01  0.27362682477E+03  0.27771310829E+03  0.10000000000E+02 0.  0.
</event>
<event>
 5    1  0.5525569E-010  0.3817923E+03  0.7957747E-01  0.3443391E+00
         13   -1    0    0    0    0  0.00000000000E+00  0.00000000000E+00  0.14999999963E+04  0.15000000000E+04  0.10566000000E+00 0. -1.
        994   -1    0    0    0    0 -0.00000000000E+00 -0.00000000000E+00  0.11368683772E-12  0.17120000000E+03  0.17120000000E+03 0.  0.
         13    1    1    2    0    0  0.28756761862E+03  0.99350819700E+02  0.10395525914E+04  0.10831598783E+04  0.10566000000E+00 0. -1.
        994    1    1    2    0    0 -0.29340099737E+03 -0.92583989117E+02  0.43904862811E+03  0.56278688519E+03  0.17120000000E+03 0.  0.
        998    1    1    2    0    0  0.58333787493E+01 -0.67668305825E+01  0.21398776811E+02  0.25253236481E+02  0.10000000000E+02 0.  1.
</event>
<event>
 5    1  0.5525569E-010  0.3866100E+03  0.7957747E-01  0.3422873E+00
         13   -1    0    0    0    0  0.00000000000E+00  0.00000000000E+00  0.14999999963E+04  0.15000000000E+04  0.10566000000E+00 0.  1.
        994   -1    0    0    0    0 -0.00000000000E+00 -0.00000000000E+00  0.11368683772E-12  0.17120000000E+03  0.17120000000E+03 0.  0.
         13    1    1    2    0    0 -0.13792229518E+03 -0.79155836487E+02  0.85828365006E+03  0.87289119659E+03  0.10566000000E+00 0.  1.
        994    1    1    2    0    0  0.22119327705E+03  0.88990526561E+02  0.21634680999E+03  0.36463839872E+03  0.17120000000E+03 0.  0.
        998    1    1    2    0    0 -0.83270981868E+02 -0.98346900744E+01  0.42536953624E+03  0.43367040469E+03  0.10000000000E+02 0.  1.
</event>
<event>
 5    1  0.5525569E-010  0.3864692E+03  0.7957747E-01  0.3423465E+00
         13   -1    0    0    0    0  0.00000000000E+00  0.00000000000E+00  0.14999999963E+04  0.15000000000E+04  0.10566000000E+00 0.  1.
        994   -1    0    0    0    0 -0.00000000000E+00 -0.00000000000E+00  0.11368683772E-12  0.17120000000E+03  0.17120000000E+03 0.  0.
         13    1    1    2    0    0 -0.21874567879E+02  0.74124969027E+01  0.95048283004E+02  0.97814258144E+02  0.10566000000E+00 0.  1.
        994    1    1    2    0    0  0.13591879327E+03 -0.77961745665E+02  0.85854435733E+02  0.24745176557E+03  0.17120000000E+03 0.  0.
        998    1    1    2    0    0 -0.11404422539E+03  0.70549248762E+02  0.13190972775E+04  0.13259339763E+04  0.10000000000E+02 0.  1.
</event>
<event>
 5    1  0.5525569E-010  0.3789353E+03  0.7957747E-01  0.3455807E+00
         13   -1    0    0    0    0  0.00000000000E+00  0.00000000000E+00  0.14999999963E+04  0.15000000000E+04  0.10566000000E+00 0. -1.
        994   -1    0    0    0    0 -0.00000000000E+00 -0.00000000000E+00  0.11368683772E-12  0.17120000000E+03  0.17120000000E+03 0.  0.
         13    1    1    2    0    0 -0.11377314709E+03 -0.84874736443E+02  0.56569326692E+03  0.58322974315E+03  0.10566000000E+00 0. -1.
        994    1    1    2    0    0  0.18977983046E+03  0.86861905178E+02  0.16825352381E+03  0.31808813699E+03  0.17120000000E+03 0.  0.
        998    1    1    2    0    0 -0.76006683367E+02 -0.19871687348E+01  0.76605320555E+03  0.76988211986E+03  0.10000000000E+02 0. -1.
</event>
<event>
 5    1  0.5525569E-010  0.3863527E+03  0.7957747E-01  0.3423955E+00
         13   -1    0    0    0    0  0.00000000000E+00  0.00000000000E+00  0.14999999963E+04  0.15000000000E+04  0.10566000000E+00 0. -1.
        994   -1    0    0    0    0 -0.00000000000E+00 -0.00000000000E+00  0.11368683772E-12  0.17120000000E+03  0.17120000000E+03 0.  0.
         13    1    1    2    0    0  0.11767570174E+02 -0.49298870503E+01  0.53771289250E+02  0.55264294131E+02  0.10566000000E+00 0. -1.
        994    1    1    2    0    0 -0.52378134970E+02  0.88684104515E+02  0.36498788816E+02  0.20310081487E+03  0.17120000000E+03 0.  0.
        998    1    1    2    0    0  0.40610564796E+02 -0.83754217465E+02  0.14097299182E+04  0.14128348910E+04  0.10000000000E+02 0. -1.
</event>
<event>
 5    1  0.5525569E-010  0.2775805E+03  0.7957747E-01  0.4070330E+00
         13   -1    0    0    0    0  0.00000000000E+00  0.00000000000E+00  0.14999999963E+04  0.15000000000E+04  0.10566000000E+00 0. -1.
        994   -1    0    0    0    0 -0.00000000000E+00 -0.00000000000E+00  0.11368683772E-12  0.17120000000E+03  0.17120000000E+03 0.  0.
         13    1    1    2    0    0  0.98189233399E+02  0.99863075355E+02  0.71967888814E+03  0.73317901809E+03  0.10566000000E+00 0. -1.
        994    1    1    2    0    0 -0.10019619399E+03  0.55754849357E+02  0.80801733705E+02  0.22132835491E+03  0.17120000000E+03 0.  0.
        998    1    1    2    0    0  0.20069605933E+01 -0.15561792471E+03  0.69951937444E+03  0.71669262700E+03  0.10000000000E+02 0. -1.
</event>
<event>
 5    1  0.5525569E-010  0.3880686E+03  0.7957747E-01  0.3416761E+00
         13   -1    0    0    0    0  0.00000000000E+00  0.00000000000E+00  0.14999999963E+04  0.15000000000E+04  0.10566000000E+00 0.  1.
        994   -1    0    0    0    0 -0.00000000000E+00 -0.00000000000E+00  0.11368683772E-12  0.17120000000E+03  0.17120000000E+03 0.  0.
         13    1    1    2    0    0 -0.10877703870E+02  0.10171736498E+02  0.75865178587E+02  0.77313162857E+02  0.10566000000E+00 0.  1.
        994    1    1    2    0    0  0.15094665469E+03 -0.13419308069E+03  0.14651488128E+03  0.30260324833E+03  0.17120000000E+03 0.  0.
        998    1    1    2    0    0 -0.14006895082E+03  0.12402134419E+03  0.12776199364E+04  0.12912835888E+04  0.10000000000E+02 0.  1.
</event>
<event>
 5    1  0.5525569E-010  0.3817630E+03  0.7957747E-01  0.3443518E+00
         13   -1    0    0    0    0  0.00000000000E+00  0.00000000000E+00  0.14999999963E+04  0.15000000000E+04  0.10566000000E+00 0. -1.
        994   -1    0    0    0    0 -0.00000000000E+00 -0.00000000000E+00  0.11368683772E-12  0.17120000000E+03  0.17120000000E+03 0.  0.
         13    1    1    2    0    0 -0.16054128429E+03 -0.66153105883E+02  0.55536727653E+03  0.58187847561E+03  0.10566000000E+00 0. -1.
        994    1    1    2    0    0  0.27125248248E+03  0.60220179593E+02  0.32794894155E+03  0.46267086308E+03  0.17120000000E+03 0.  0.
        998    1    1    2    0    0 -0.11071119819E+03  0.59329262905E+01  0.61668377820E+03  0.62665066131E+03  0.10000000000E+02 0. -1.
</event>
<event>
 5    1  0.5525569E-010  0.3858232E+03  0.7957747E-01  0.3426188E+00
         13   -1    0    0    0    0  0.00000000000E+00  0.00000000000E+00  0.14999999963E+04  0.15000000000E+04  0.10566000000E+00 0.  1.
        994   -1    0    0    0    0 -0.00000000000E+00 -0.00000000000E+00  0.11368683772E-12  0.17120000000E+03  0.17120000000E+03 0.  0.
         13    1    1    2    0    0  0.43623315807E+00  0.40713586816E+02  0.20438806592E+03  0.20840412449E+03  0.10566000000E+00 0.  1.
        994    1    1    2    0    0  0.58998795435E+02 -0.14922611458E+03  0.90792011978E+02  0.25159872928E+03  0.17120000000E+03 0.  0.
        998    1    1    2    0    0 -0.59435028593E+02  0.10851252777E+03  0.12048199184E+04  0.12111971462E+04  0.10000000000E+02 0.  1.
</event>
<event>
 5    1  0.5525569E-010  0.3822412E+03  0.7957747E-01  0.3441457E+00
         13   -1    0    0    0    0  0.00000000000E+00  0.00000000000E+00  0.14999999963E+04  0.15000000000E+04  0.10566000000E+00 0. -1.
        994   -1    0    0    0    0 -0.00000000000E+00 -0.00000000000E+00  0.11368683772E-12  0.17120000000E+03  0.17120000000E+03 0.  0.
         13    1    1    2    0    0  0.18930147709E+03  0.82629079341E+02  0.10050001388E+04  0.10260058012E+04  0.10566000000E+00 0. -1.
        994    1    1    2    0    0 -0.23783227867E+03 -0.57287980047E+02  0.23687275234E+03  0.38113546967E+03  0.17120000000E+03 0.  0.
        998    1    1    2    0    0  0.48530801587E+02 -0.25341099294E+02  0.25812710511E+03  0.26405872909E+03  0.10000000000E+02 0. -1.
</event>
<event>
 5    1  0.5525569E-010  0.3611227E+03  0.7957747E-01  0.3537711E+00
         13   -1    0    0    0    0  0.00000000000E+00  0.00000000000E+00  0.14999999963E+04  0.15000000000E+04  0.10566000000E+00 0.  1.
        994   -1    0    0    0    0 -0.00000000000E+00 -0.00000000000E+00  0.11368683772E-12  0.17120000000E+03  0.17120000000E+03 0.  0.
         13    1    1    2    0    0  0.67332932154E+02 -0.26849502456E+03  0.92121011516E+03  0.96189988533E+03  0.10566000000E+00 0.  1.
        994    1    1    2    0    0 -0.31723717008E+02  0.28598202205E+03  0.38050647127E+03  0.50683994104E+03  0.17120000000E+03 0.  0.
        998    1    1    2    0    0 -0.35609215146E+02 -0.17486997488E+02  0.19828340985E+03  0.20246017363E+03  0.10000000000E+02 0.  1.
</event>
<event>
 5    1  0.5525569E-010  0.3844894E+03  0.7957747E-01  0.3431840E+00
         13   -1    0    0    0    0  0.00000000000E+00  0.00000000000E+00  0.14999999963E+04  0.15000000000E+04  0.10566000000E+00 0. -1.
        994   -1    0    0    0    0 -0.00000000000E+00 -0.00000000000E+00  0.11368683772E-12  0.17120000000E+03  0.17120000000E+03 0.  0.
         13    1    1    2    0    0  0.70310980030E+01  0.10583788194E+02  0.40049373104E+02  0.42016858066E+02  0.10566000000E+00 0. -1.
        994    1    1    2    0    0 -0.13883678829E+03  0.50268114107E+02  0.77349867653E+02  0.23894555678E+03  0.17120000000E+03 0.  0.
        998    1    1    2    0    0  0.13180569029E+03 -0.60851902301E+02  0.13826007555E+04  0.13902375852E+04  0.10000000000E+02 0. -1.
</event>
<event>
 5    1  0.5525569E-010  0.3873584E+03  0.7957747E-01  0.3419731E+00
         13   -1    0    0    0    0  0.00000000000E+00  0.00000000000E+00  0.14999999963E+04  0.15000000000E+04  0.10566000000E+00 0.  1.
        994   -1    0    0    0    0 -0.00000000000E+00 -0.00000000000E+00  0.11368683772E-12  0.17120000000E+03  0.17120000000E+03 0.  0.
         13    1    1    2    0    0  0.11292324953E+02 -0.47897997525E+01  0.67327991641E+02  0.68436309128E+02  0.10566000000E+00 0.  1.
        994    1    1    2    0    0 -0.11167874876E+03  0.75071837649E+01  0.42473012124E+02  0.20890643238E+03  0.17120000000E+03 0.  0.
        998    1    1    2    0    0  0.10038642380E+03 -0.27173840124E+01  0.13901989925E+04  0.13938572585E+04  0.10000000000E+02 0.  1.
</event>
<event>
 5    1  0.5525569E-010  0.3842557E+03  0.7957747E-01  0.3432835E+00
         13   -1    0    0    0    0  0.00000000000E+00  0.00000000000E+00  0.14999999963E+04  0.15000000000E+04  0.10566000000E+00 0. -1.
        994   -1    0    0    0    0 -0.00000000000E+00 -0.00000000000E+00  0.11368683772E-12  0.17120000000E+03  0.17120000000E+03 0.  0.
         13    1    1    2    0    0  0.81085351862E+02 -0.21695112982E+03  0.12254064127E+04  0.12471020466E+04  0.10566000000E+00 0. -1.
        994    1    1    2    0    0 -0.88944388208E+02  0.23052293404E+03  0.23936863371E+03  0.38426385481E+03  0.17120000000E+03 0.  0.
        998    1    1    2    0    0  0.78590363457E+01 -0.13571804221E+02  0.35224949842E+02  0.39834098628E+02  0.10000000000E+02 0.  1.
</event>
<event>
 5    1  0.5525569E-010  0.3868572E+03  0.7957747E-01  0.3421834E+00
         13   -1    0    0    0    0  0.00000000000E+00  0.00000000000E+00  0.14999999963E+04  0.15000000000E+04  0.10566000000E+00 0.  1.
        994   -1    0    0    0    0 -0.00000000000E+00 -0.00000000000E+00  0.11368683772E-12  0.17120000000E+03  0.17120000000E+03 0.  0.
         13    1    1    2    0    0  0.10072647742E+02  0.29702206003E+01  0.46967296548E+02  0.48127108287E+02  0.10566000000E+00 0.  1.
        994    1    1    2    0    0 -0.91438828045E+02  0.17798783126E+02  0.29609349091E+02  0.19713956860E+03  0.17120000000E+03 0.  0.
        998    1    1    2    0    0  0.81366180303E+02 -0.20769003726E+02  0.14234233506E+04  0.14259333231E+04  0.10000000000E+02 0.  1.
</event>
<event>
 5    1  0.5525569E-010  0.3862983E+03  0.7957747E-01  0.3424185E+00
         13   -1    0    0    0    0  0.00000000000E+00  0.00000000000E+00  0.14999999963E+04  0.15000000000E+04  0.10566000000E+00 0. -1.
        994   -1    0    0    0    0 -0.00000000000E+00 -0.00000000000E+00  0.11368683772E-12  0.17120000000E+03  0.17120000000E+03 0.  0.
         13    1    1    2    0    0  0.17094990504E+01  0.12187571721E+02  0.62112992650E+02  0.63320567839E+02  0.10566000000E+00 0. -1.
        994    1    1    2    0    0  0.61858479721E+02 -0.55241638410E+02  0.23844457777E+02  0.19171882613E+03  0.17120000000E+03 0.  0.
        998    1    1    2    0    0 -0.63567978772E+02  0.43054066689E+02  0.14140425459E+04  0.14161606060E+04  0.10000000000E+02 0. -1.
</event>
<event>
 5    1  0.9602932E-010  0.3872648E+03  0.7957747E-01  0.3420123E+00
         13   -1    0    0    0    0  0.00000000000E+00  0.00000000000E+00  0.14999999963E+04  0.15000000000E+04  0.10566000000E+00 0.  1.
        994   -1    0    0    0    0 -0.00000000000E+00 -0.00000000000E+00  0.11368683772E-12  0.17120000000E+03  0.17120000000E+03 0.  0.
         13    1    1    2    0    0 -0.15460644352E+03  0.13207651663E+03  0.12276735736E+04  0.12443993623E+04  0.10566000000E+00 0.  1.
        994    1    1    2    0    0  0.16321749334E+03 -0.14222361794E+03  0.17223298593E+03  0.32533236709E+03  0.17120000000E+03 0.  0.
        998    1    1    2    0    0 -0.86110498225E+01  0.10147101315E+02  0.10009343678E+03  0.10146827056E+03  0.10000000000E+02 0.  1.
</event>
<event>
 5    1  0.5525569E-010  0.3861043E+03  0.7957747E-01  0.3425002E+00
         13   -1    0    0    0    0  0.00000000000E+00  0.00000000000E+00  0.14999999963E+04  0.15000000000E+04  0.10566000000E+00 0.  1.
        994   -1    0    0    0    0 -0.00000000000E+00 -0.00000000000E+00  0.11368683772E-12  0.17120000000E+03  0.17120000000E+03 0.  0.
         13    1    1    2    0    0 -0.12661139570E+02 -0.73167025965E+01  0.52019785379E+02  0.54036171468E+02  0.10566000000E+00 0.  1.
        994    1    1    2    0    0  0.12751543989E+03  0.12854048594E+02  0.56891651148E+02  0.22129508342E+03  0.17120000000E+03 0.  0.
        998    1    1    2    0    0 -0.11485430032E+03 -0.55373459979E+01  0.13910885598E+04  0.13958687451E+04  0.10000000000E+02 0.  1.
</event>
<event>
 5    1  0.5525569E-010  0.3875796E+03  0.7957747E-01  0.3418805E+00
         13   -1    0    0    0    0  0.00000000000E+00  0.00000000000E+00  0.14999999963E+04  0.15000000000E+04  0.10566000000E+00 0. -1.
        994   -1    0    0    0    0 -0.00000000000E+00 -0.00000000000E+00  0.11368683772E-12  0.17120000000E+03  0.17120000000E+03 0.  0.
         13    1    1    2    0    0 -0.17728193061E+03 -0.16107624064E+03  0.10419734007E+04  0.10691506054E+04  0.10566000000E+00 0. -1.
        994    1    1    2    0    0  0.19788254050E+03  0.18811351026E+03  0.30064213683E+03  0.44072590917E+03  0.17120000000E+03 0.  0.
        998    1    1    2    0    0 -0.20600609889E+02 -0.27037269625E+02  0.15738445879E+03  0.16132348541E+03  0.10000000000E+02 0.  0.
</event>
<event>
 5    1  0.5525569E-010  0.3877702E+03  0.7957747E-01  0.3418008E+00
         13   -1    0    0    0    0  0.00000000000E+00  0.00000000000E+00  0.14999999963E+04  0.15000000000E+04  0.10566000000E+00 0.  1.
        994   -1    0    0    0    0 -0.00000000000E+00 -0.00000000000E+00  0.11368683772E-12  0.17120000000E+03  0.17120000000E+03 0.  0.
         13    1    1    2    0    0  0.15053411858E+03  0.76421651701E+02  0.91320466652E+03  0.92867839633E+03  0.10566000000E+00 0.  1.
        994    1    1    2    0    0 -0.20236435447E+03 -0.11618005469E+03  0.20404594283E+03  0.35410919764E+03  0.17120000000E+03 0.  0.
        998    1    1    2    0    0  0.51830235890E+02  0.39758402988E+02  0.38274938693E+03  0.38841240603E+03  0.10000000000E+02 0.  1.
</event>
<event>
 5    1  0.5525569E-010  0.3855238E+03  0.7957747E-01  0.3427454E+00
         13   -1    0    0    0    0  0.00000000000E+00  0.00000000000E+00  0.14999999963E+04  0.15000000000E+04  0.10566000000E+00 0.  1.
        994   -1    0    0    0    0 -0.00000000000E+00 -0.00000000000E+00  0.11368683772E-12  0.17120000000E+03  0.17120000000E+03 0.  0.
         13    1    1    2    0    0 -0.62127707935E+02  0.16261873701E+03  0.91695168060E+03  0.93333011386E+03  0.10566000000E+00 0.  1.
        994    1    1    2    0    0  0.88582264103E+02 -0.19445398549E+03  0.16926127751E+03  0.32189748376E+03  0.17120000000E+03 0.  0.
        998    1    1    2    0    0 -0.26454556167E+02  0.31835248474E+02  0.41378703817E+03  0.41597240238E+03  0.10000000000E+02 0.  1.
</event>
<event>
 5    1  0.5525569E-010  0.3780130E+03  0.7957747E-01  0.3459856E+00
         13   -1    0    0    0    0  0.00000000000E+00  0.00000000000E+00  0.14999999963E+04  0.15000000000E+04  0.10566000000E+00 0. -1.
        994   -1    0    0    0    0 -0.00000000000E+00 -0.00000000000E+00  0.11368683772E-12  0.17120000000E+03  0.17120000000E+03 0.  0.
         13    1    1    2    0    0 -0.95566232882E+01  0.39070580564E+02  0.92364859409E+02  0.10074282968E+03  0.10566000000E+00 0. -1.
        994    1    1    2    0    0 -0.58974758718E+01 -0.14606294811E+03  0.80788447048E+02  0.23917645831E+03  0.17120000000E+03 0.  0.
        998    1    1    2    0    0  0.15454099160E+02  0.10699236754E+03  0.13268466898E+04  0.13312807120E+04  0.10000000000E+02 0. -1.
</event>
<event>
 5    1  0.5525569E-010  0.3827460E+03  0.7957747E-01  0.3439288E+00
         13   -1    0    0    0    0  0.00000000000E+00  0.00000000000E+00  0.14999999963E+04  0.15000000000E+04  0.10566000000E+00 0. -1.
        994   -1    0    0    0    0 -0.00000000000E+00 -0.00000000000E+00  0.11368683772E-12  0.17120000000E+03  0.17120000000E+03 0.  0.
         13    1    1    2    0    0  0.12847358622E+03  0.16134021319E+03  0.11639880523E+04  0.11821185743E+04  0.10566000000E+00 0. -1.
        994    1    1    2    0    0 -0.15758701710E+03 -0.15407829134E+03  0.18507678247E+03  0.33486809826E+03  0.17120000000E+03 0.  0.
        998    1    1    2    0    0  0.29113430881E+02 -0.72619218422E+01  0.15093516151E+03  0.15421332739E+03  0.10000000000E+02 0. -1.
</event>
<event>
 5    1  0.5525569E-010  0.3773607E+03  0.7957747E-01  0.3462732E+00
         13   -1    0    0    0    0  0.00000000000E+00  0.00000000000E+00  0.14999999963E+04  0.15000000000E+04  0.10566000000E+00 0. -1.
        994   -1    0    0    0    0 -0.00000000000E+00 -0.00000000000E+00  0.11368683772E-12  0.17120000000E+03  0.17120000000E+03 0.  0.
         13    1    1    2    0    0 -0.14849745527E+03 -0.35244447282E+02  0.84426849558E+03  0.85795277788E+03  0.10566000000E+00 0. -1.
        994    1    1    2    0    0  0.16383618936E+03  0.12032362744E+03  0.16058510348E+03  0.31051101064E+03  0.17120000000E+03 0.  0.
        998    1    1    2    0    0 -0.15338734095E+02 -0.85079180154E+02  0.49514639722E+03  0.50273621148E+03  0.10000000000E+02 0.  1.
</event>
<event>
 5    1  0.6898577E-010  0.3860421E+03  0.7957747E-01  0.3425265E+00
         13   -1    0    0    0    0  0.00000000000E+00  0.00000000000E+00  0.14999999963E+04  0.15000000000E+04  0.10566000000E+00 0.  1.
        994   -1    0    0    0    0 -0.00000000000E+00 -0.00000000000E+00  0.11368683772E-12  0.17120000000E+03  0.17120000000E+03 0.  0.
         13    1    1    2    0    0 -0.57756862887E+01 -0.84410693022E+01  0.48302805461E+02  0.49373903862E+02  0.10566000000E+00 0.  1.
        994    1    1    2    0    0 -0.38790526186E+02  0.36374479243E+02  0.10437400924E+02  0.17957223338E+03  0.17120000000E+03 0.  0.
        998    1    1    2    0    0  0.44566212474E+02 -0.27933409941E+02  0.14412597899E+04  0.14422538628E+04  0.10000000000E+02 0.  1.
</event>
<event>
 5    1  0.5525569E-010  0.3852213E+03  0.7957747E-01  0.3428734E+00
         13   -1    0    0    0    0  0.00000000000E+00  0.00000000000E+00  0.14999999963E+04  0.15000000000E+04  0.10566000000E+00 0. -1.
        994   -1    0    0    0    0 -0.00000000000E+00 -0.00000000000E+00  0.11368683772E-12  0.17120000000E+03  0.17120000000E+03 0.  0.
         13    1    1    2    0    0  0.14824196260E+03 -0.12244177786E+02  0.79589459713E+03  0.80967513255E+03  0.10566000000E+00 0. -1.
        994    1    1    2    0    0 -0.19852893218E+03  0.35722390359E+02  0.14916364688E+03  0.30372530293E+03  0.17120000000E+03 0.  0.
        998    1    1    2    0    0  0.50286969581E+02 -0.23478212573E+02  0.55494175227E+03  0.55779956452E+03  0.10000000000E+02 0. -1.
</event>
<event>
 5    1  0.5525569E-010  0.3771637E+03  0.7957747E-01  0.3463602E+00
         13   -1    0    0    0    0  0.00000000000E+00  0.00000000000E+00  0.14999999963E+04  0.15000000000E+04  0.10566000000E+00 0.  1.
        994   -1    0    0    0    0 -0.00000000000E+00 -0.00000000000E+00  0.11368683772E-12  0.17120000000E+03  0.17120000000E+03 0.  0.
         13    1    1    2    0    0  0.93391720039E+02  0.84598537891E+02  0.18717964418E+03  0.22564387061E+03  0.10566000000E+00 0.  1.
        994    1    1    2    0    0 -0.32191655420E+03 -0.85936632228E+02  0.86739787047E+03  0.94483007907E+03  0.17120000000E+03 0.  0.
        998    1    1    2    0    0  0.22852483416E+03  0.13380943367E+01  0.44542248163E+03  0.50072605031E+03  0.10000000000E+02 0.  1.
</event>
<event>
 5    1  0.5525569E-010  0.3875752E+03  0.7957747E-01  0.3418823E+00
         13   -1    0    0    0    0  0.00000000000E+00  0.00000000000E+00  0.14999999963E+04  0.15000000000E+04  0.10566000000E+00 0. -1.
        994   -1    0    0    0    0 -0.00000000000E+00 -0.00000000000E+00  0.11368683772E-12  0.17120000000E+03  0.17120000000E+03 0.  0.
         13    1    1    2    0    0 -0.24994126374E+03  0.45843190311E+02  0.59297553732E+03  0.64512962453E+03  0.10566000000E+00 0. -1.
        994    1    1    2    0    0  0.34241168552E+03 -0.48003536889E+02  0.70552135686E+03  0.80412681022E+03  0.17120000000E+03 0.  0.
        998    1    1    2    0    0 -0.92470421777E+02  0.21603465784E+01  0.20150310210E+03  0.22194356525E+03  0.10000000000E+02 0.  0.
</event>
<event>
 5    1  0.5525569E-010  0.3881060E+03  0.7957747E-01  0.3416605E+00
         13   -1    0    0    0    0  0.00000000000E+00  0.00000000000E+00  0.14999999963E+04  0.15000000000E+04  0.10566000000E+00 0. -1.
        994   -1    0    0    0    0 -0.00000000000E+00 -0.00000000000E+00  0.11368683772E-12  0.17120000000E+03  0.17120000000E+03 0.  0.
         13    1    1    2    0    0 -0.91913687826E+02 -0.99162093131E+02  0.75062422825E+03  0.76270439223E+03  0.10566000000E+00 0. -1.
        994    1    1    2    0    0  0.15923181833E+03  0.17592780561E+03  0.21178377152E+03  0.36120239567E+03  0.17120000000E+03 0.  0.
        998    1    1    2    0    0 -0.67318130503E+02 -0.76765712481E+02  0.53759199650E+03  0.54729321210E+03  0.10000000000E+02 0. -1.
</event>
<event>
 5    1  0.5525569E-010  0.3852571E+03  0.7957747E-01  0.3428583E+00
         13   -1    0    0    0    0  0.00000000000E+00  0.00000000000E+00  0.14999999963E+04  0.15000000000E+04  0.10566000000E+00 0.  1.
        994   -1    0    0    0    0 -0.00000000000E+00 -0.00000000000E+00  0.11368683772E-12  0.17120000000E+03  0.17120000000E+03 0.  0.
         13    1    1    2    0    0 -0.20806827783E+02 -0.15000025624E+02  0.12371302987E+03  0.12634417191E+03  0.10566000000E+00 0.  1.
        994    1    1    2    0    0  0.76727876351E+02  0.40022055032E+02  0.26509880943E+02  0.19365212544E+03  0.17120000000E+03 0.  0.
        998    1    1    2    0    0 -0.55921048568E+02 -0.25022029408E+02  0.13497770855E+04  0.13512037027E+04  0.10000000000E+02 0.  1.
</event>
<event>
 5    1  0.5525569E-010  0.3830184E+03  0.7957747E-01  0.3438120E+00
         13   -1    0    0    0    0  0.00000000000E+00  0.00000000000E+00  0.14999999963E+04  0.15000000000E+04  0.10566000000E+00 0.  1.
        994   -1    0    0    0    0 -0.00000000000E+00 -0.00000000000E+00  0.11368683772E-12  0.17120000000E+03  0.17120000000E+03 0.  0.
         13    1    1    2    0    0  0.22640476954E+02  0.10780633050E+02  0.87316639875E+02  0.90846133703E+02  0.10566000000E+00 0.  1.
        994    1    1    2    0    0 -0.11303232252E+03  0.53040160965E+02  0.56054021504E+02  0.21918270446E+03  0.17120000000E+03 0.  0.
        998    1    1    2    0    0  0.90391845567E+02 -0.63820794015E+02  0.13566293349E+04  0.13611711618E+04  0.10000000000E+02 0.  1.
</event>
<event>
 5    1  0.5525569E-010  0.3876119E+03  0.7957747E-01  0.3418670E+00
         13   -1    0    0    0    0  0.00000000000E+00  0.00000000000E+00  0.14999999963E+04  0.15000000000E+04  0.10566000000E+00 0.  1.
        994   -1    0    0    0    0 -0.00000000000E+00 -0.00000000000E+00  0.11368683772E-12  0.17120000000E+03  0.17120000000E+03 0.  0.
         13    1    1    2    0    0 -0.14410021361E+03 -0.85892884606E+02  0.82816343553E+03  0.84498351837E+03  0.10566000000E+00 0.  1.
        994    1    1    2    0    0  0.20296711645E+03  0.14052320165E+03  0.23355568597E+03  0.38052610818E+03  0.17120000000E+03 0.  0.
        998    1    1    2    0    0 -0.58866902842E+02 -0.54630317041E+02  0.43828087478E+03  0.44569037345E+03  0.10000000000E+02 0.  1.
</event>
<event>
 5    1  0.5525569E-010  0.3862253E+03  0.7957747E-01  0.3424492E+00
         13   -1    0    0    0    0  0.00000000000E+00  0.00000000000E+00  0.14999999963E+04  0.15000000000E+04  0.10566000000E+00 0. -1.
        994   -1    0    0    0    0 -0.00000000000E+00 -0.00000000000E+00  0.11368683772E-12  0.17120000000E+03  0.17120000000E+03 0.  0.
         13    1    1    2    0    0  0.12399765853E+01 -0.23482950968E+02  0.12061262288E+03  0.12288369497E+03  0.10566000000E+00 0. -1.
        994    1    1    2    0    0  0.25735143844E+02  0.10634621478E+03  0.41269839636E+02  0.20732692708E+03  0.17120000000E+03 0.  0.
        998    1    1    2    0    0 -0.26975120430E+02 -0.82863263816E+02  0.13381175338E+04  0.13409893780E+04  0.10000000000E+02 0. -1.
</event>
<event>
 5    1  0.5525569E-010  0.3869650E+03  0.7957747E-01  0.3421381E+00
         13   -1    0    0    0    0  0.00000000000E+00  0.00000000000E+00  0.14999999963E+04  0.15000000000E+04  0.10566000000E+00 0.  1.
        994   -1    0    0    0    0 -0.00000000000E+00 -0.00000000000E+00  0.11368683772E-12  0.17120000000E+03  0.17120000000E+03 0.  0.
         13    1    1    2    0    0 -0.18659045561E+03 -0.12761679892E+03  0.12199079461E+04  0.12406762083E+04  0.10566000000E+00 0.  1.
        994    1    1    2    0    0  0.19655237504E+03  0.13442223598E+03  0.21518759162E+03  0.36375446835E+03  0.17120000000E+03 0.  0.
        998    1    1    2    0    0 -0.99619194302E+01 -0.68054370552E+01  0.64904458512E+02  0.66769323398E+02  0.10000000000E+02 0.  1.
</event>
<event>
 5    1  0.5525569E-010  0.3834048E+03  0.7957747E-01  0.3436466E+00
         13   -1    0    0    0    0  0.00000000000E+00  0.00000000000E+00  0.14999999963E+04  0.15000000000E+04  0.10566000000E+00 0. -1.
        994   -1    0    0    0    0 -0.00000000000E+00 -0.00000000000E+00  0.11368683772E-12  0.17120000000E+03  0.17120000000E+03 0.  0.
         13    1    1    2    0    0  0.21800913558E+02 -0.44147928980E+02  0.24268656261E+03  0.24763097201E+03  0.10566000000E+00 0. -1.
        994    1    1    2    0    0 -0.11558432760E+03  0.73499627433E+02  0.67136780402E+02  0.22930050000E+03  0.17120000000E+03 0.  0.
        998    1    1    2    0    0  0.93783414038E+02 -0.29351698453E+02  0.11901766533E+04  0.11942685280E+04  0.10000000000E+02 0. -1.
</event>
<event>
 5    1  0.5525569E-010  0.3852629E+03  0.7957747E-01  0.3428558E+00
         13   -1    0    0    0    0  0.00000000000E+00  0.00000000000E+00  0.14999999963E+04  0.15000000000E+04  0.10566000000E+00 0. -1.
        994   -1    0    0    0    0 -0.00000000000E+00 -0.00000000000E+00  0.11368683772E-12  0.17120000000E+03  0.17120000000E+03 0.  0.
         13    1    1    2    0    0  0.73571883051E+02  0.59419547310E+02  0.31566795645E+03  0.32952962609E+03  0.10566000000E+00 0. -1.
        994    1    1    2    0    0 -0.16293742700E+03 -0.25265662719E+03  0.39983380939E+03  0.52873480263E+03  0.17120000000E+03 0.  0.
        998    1    1    2    0    0  0.89365543949E+02  0.19323707988E+03  0.78449823044E+03  0.81293557128E+03  0.10000000000E+02 0. -1.
</event>
<event>
 5    1  0.5525569E-010  0.3844720E+03  0.7957747E-01  0.3431915E+00
         13   -1    0    0    0    0  0.00000000000E+00  0.00000000000E+00  0.14999999963E+04  0.15000000000E+04  0.10566000000E+00 0.  1.
        994   -1    0    0    0    0 -0.00000000000E+00 -0.00000000000E+00  0.11368683772E-12  0.17120000000E+03  0.17120000000E+03 0.  0.
         13    1    1    2    0    0 -0.99408175982E+01 -0.59411208338E+01  0.54563574303E+02  0.55779132084E+02  0.10566000000E+00 0.  1.
        994    1    1    2    0    0 -0.84250846205E+02  0.17456705520E+02  0.26672999370E+02  0.19345239867E+03  0.17120000000E+03 0.  0.
        998    1    1    2    0    0  0.94191663803E+02 -0.11515584686E+02  0.14187634226E+04  0.14219684693E+04  0.10000000000E+02 0.  1.
</event>
<event>
 5    1  0.5525569E-010  0.3860413E+03  0.7957747E-01  0.3425268E+00
         13   -1    0    0    0    0  0.00000000000E+00  0.00000000000E+00  0.14999999963E+04  0.15000000000E+04  0.10566000000E+00 0. -1.
        994   -1    0    0    0    0 -0.00000000000E+00 -0.00000000000E+00  0.11368683772E-12  0.17120000000E+03  0.17120000000E+03 0.  0.
         13    1    1    2    0    0  0.21459055372E+03  0.49407767298E+02  0.11209284488E+04  0.11423531992E+04  0.10566000000E+00 0. -1.
        994    1    1    2    0    0 -0.23412773820E+03 -0.71710535947E+02  0.23142839510E+03  0.37792425275E+03  0.17120000000E+03 0.  0.
        998    1    1    2    0    0  0.19537184479E+02  0.22302768649E+02  0.14764315238E+03  0.15092254806E+03  0.10000000000E+02 0.  1.
</event>
<event>
 5    1  0.5525569E-010  0.3852479E+03  0.7957747E-01  0.3428621E+00
         13   -1    0    0    0    0  0.00000000000E+00  0.00000000000E+00  0.14999999963E+04  0.15000000000E+04  0.10566000000E+00 0.  1.
        994   -1    0    0    0    0 -0.00000000000E+00 -0.00000000000E+00  0.11368683772E-12  0.17120000000E+03  0.17120000000E+03 0.  0.
         13    1    1    2    0    0 -0.68200824495E+02  0.48360272046E+02  0.43501886601E+03  0.44298024033E+03  0.10566000000E+00 0.  1.
        994    1    1    2    0    0  0.15015928749E+03 -0.83653181363E+02  0.10550218127E+03  0.26454832569E+03  0.17120000000E+03 0.  0.
        998    1    1    2    0    0 -0.81958462993E+02  0.35292909318E+02  0.95947894900E+03  0.96367143398E+03  0.10000000000E+02 0.  1.
</event>
<event>
 5    1  0.5525569E-010  0.3820314E+03  0.7957747E-01  0.3442361E+00
         13   -1    0    0    0    0  0.00000000000E+00  0.00000000000E+00  0.14999999963E+04  0.15000000000E+04  0.10566000000E+00 0. -1.
        994   -1    0    0    0    0 -0.00000000000E+00 -0.00000000000E+00  0.11368683772E-12  0.17120000000E+03  0.17120000000E+03 0.  0.
         13    1    1    2    0    0 -0.63049739350E+02 -0.61832534725E+02  0.37697113519E+03  0.38717667791E+03  0.10566000000E+00 0. -1.
        994    1    1    2    0    0  0.19950412919E+03  0.67584125788E+02  0.16799130388E+03  0.31921784067E+03  0.17120000000E+03 0.  0.
        998    1    1    2    0    0 -0.13645438984E+03 -0.57515910629E+01  0.95503755721E+03  0.96480548142E+03  0.10000000000E+02 0. -1.
</event>
<event>
 5    1  0.5525569E-010  0.3817762E+03  0.7957747E-01  0.3443461E+00
         13   -1    0    0    0    0  0.00000000000E+00  0.00000000000E+00  0.14999999963E+04  0.15000000000E+04  0.10566000000E+00 0.  1.
        994   -1    0    0    0    0 -0.00000000000E+00 -0.00000000000E+00  0.11368683772E-12  0.17120000000E+03  0.17120000000E+03 0.  0.
         13    1    1    2    0    0 -0.19175206978E+03  0.13756675364E+03  0.99605166102E+03  0.10236270759E+04  0.10566000000E+00 0.  1.
        994    1    1    2    0    0  0.23031551683E+03 -0.12353189690E+03  0.27957258413E+03  0.41925605141E+03  0.17120000000E+03 0.  0.
        998    1    1    2    0    0 -0.38563447056E+02 -0.14034856738E+02  0.22437575113E+03  0.22831687268E+03  0.10000000000E+02 0. -1.
</event>
<event>
 5    1  0.5525569E-010  0.3881103E+03  0.7957747E-01  0.3416587E+00
         13   -1    0    0    0    0  0.00000000000E+00  0.00000000000E+00  0.14999999963E+04  0.15000000000E+04  0.10566000000E+00 0. -1.
        994   -1    0    0    0    0 -0.00000000000E+00 -0.00000000000E+00  0.11368683772E-12  0.17120000000E+03  0.17120000000E+03 0.  0.
         13    1    1    2    0    0  0.62930565891E+01  0.14281158214E+03  0.81900993208E+03  0.83139162286E+03  0.10566000000E+00 0. -1.
        994    1    1    2    0    0 -0.10050154242E+02 -0.22988881420E+03  0.19704141845E+03  0.34797217285E+03  0.17120000000E+03 0.  0.
        998    1    1    2    0    0  0.37570976529E+01  0.87077232055E+02  0.48394864576E+03  0.49183620429E+03  0.10000000000E+02 0.  0.
</event>
<event>
 5    1  0.5525569E-010  0.3840421E+03  0.7957747E-01  0.3433745E+00
         13   -1    0    0    0    0  0.00000000000E+00  0.00000000000E+00  0.14999999963E+04  0.15000000000E+04  0.10566000000E+00 0. -1.
        994   -1    0    0    0    0 -0.00000000000E+00 -0.00000000000E+00  0.11368683772E-12  0.17120000000E+03  0.17120000000E+03 0.  0.
         13    1    1    2    0    0 -0.13477805355E+03  0.46648533757E+02  0.43538659727E+03  0.45815140474E+03  0.10566000000E+00 0. -1.
        994    1    1    2    0    0  0.29259422843E+03 -0.16873242877E+03  0.63664442000E+03  0.74074798180E+03  0.17120000000E+03 0.  0.
        998    1    1    2    0    0 -0.15781617489E+03  0.12208389501E+03  0.42796897901E+03  0.47230061345E+03  0.10000000000E+02 0. -1.
</event>
<event>
 5    1  0.5525569E-010  0.3851389E+03  0.7957747E-01  0.3429083E+00
         13   -1    0    0    0    0  0.00000000000E+00  0.00000000000E+00  0.14999999963E+04  0.15000000000E+04  0.10566000000E+00 0.  1.
        994   -1    0    0    0    0 -0.00000000000E+00 -0.00000000000E+00  0.11368683772E-12  0.17120000000E+03  0.17120000000E+03 0.  0.
         13    1    1    2    0    0 -0.99122365588E+02  0.22497916540E+03  0.91979562151E+03  0.95208448403E+03  0.10566000000E+00 0.  1.
        994    1    1    2    0    0  0.12350950634E+03 -0.25211483123E+03  0.32926263263E+03  0.46533837960E+03  0.17120000000E+03 0.  0.
        998    1    1    2    0    0 -0.24387140755E+02  0.27135665830E+02  0.25094174215E+03  0.25377713637E+03  0.10000000000E+02 0.  0.
</event>
<event>
 5    1  0.5525569E-010  0.3853591E+03  0.7957747E-01  0.3428151E+00
         13   -1    0    0    0    0  0.00000000000E+00  0.00000000000E+00  0.14999999963E+04  0.15000000000E+04  0.10566000000E+00 0. -1.
        994   -1    0    0    0    0 -0.00000000000E+00 -0.00000000000E+00  0.11368683772E-12  0.17120000000E+03  0.17120000000E+03 0.  0.
         13    1    1    2    0    0 -0.17386712082E+03 -0.23402665904E+02  0.10283009934E+04  0.10431588588E+04  0.10566000000E+00 0. -1.
        994    1    1    2    0    0  0.20154434094E+03  0.80527576967E+01  0.14899457835E+03  0.30363430743E+03  0.17120000000E+03 0.  0.
        998    1    1    2    0    0 -0.27677220118E+02  0.15349908207E+02  0.32270442454E+03  0.32440683380E+03  0.10000000000E+02 0. -1.
</event>
<event>
 5    1  0.5525569E-010  0.3831667E+03  0.7957747E-01  0.3437485E+00
         13   -1    0    0    0    0  0.00000000000E+00  0.00000000000E+00  0.14999999963E+04  0.15000000000E+04  0.10566000000E+00 0. -1.
        994   -1    0    0    0    0 -0.00000000000E+00 -0.00000000000E+00  0.11368683772E-12  0.17120000000E+03  0.17120000000E+03 0.  0.
         13    1    1    2    0    0 -0.28426582754E+02  0.60770365067E+01  0.60636250586E+02  0.67244085457E+02  0.10566000000E+00 0. -1.
        994    1    1    2    0    0  0.18432099159E+03 -0.19307958754E+03  0.29224341780E+03  0.43124193942E+03  0.17120000000E+03 0.  0.
        998    1    1    2    0    0 -0.15589440883E+03  0.18700255103E+03  0.11471203279E+04  0.11727139751E+04  0.10000000000E+02 0. -1.
</event>
<event>
 5    1  0.5525569E-010  0.3853654E+03  0.7957747E-01  0.3428124E+00
         13   -1    0    0    0    0  0.00000000000E+00  0.00000000000E+00  0.14999999963E+04  0.15000000000E+04  0.10566000000E+00 0.  1.
        994   -1    0    0    0    0 -0.00000000000E+00 -0.00000000000E+00  0.11368683772E-12  0.17120000000E+03  0.17120000000E+03 0.  0.
         13    1    1    2    0    0  0.63424015820E+02  0.86099068875E+02  0.62208164036E+03  0.63120617383E+03  0.10566000000E+00 0.  1.
        994    1    1    2    0    0 -0.11007997981E+03 -0.12870734205E+03  0.10213947553E+03  0.26158190747E+03  0.17120000000E+03 0.  0.
        998    1    1    2    0    0  0.46655963991E+02  0.42608273176E+02  0.77577888039E+03  0.77841191870E+03  0.10000000000E+02 0.  1.
</event>
<event>
 5    1  0.5525569E-010  0.3870973E+03  0.7957747E-01  0.3420826E+00
         13   -1    0    0    0    0  0.00000000000E+00  0.00000000000E+00  0.14999999963E+04  0.15000000000E+04  0.10566000000E+00 0.  1.
        994   -1    0    0    0    0 -0.00000000000E+00 -0.00000000000E+00  0.11368683772E-12  0.17120000000E+03  0.17120000000E+03 0.  0.
         13    1    1    2    0    0 -0.22940800770E+03  0.73975238645E+02  0.11081718769E+04  0.11340834580E+04  0.10566000000E+00 0.  1.
        994    1    1    2    0    0  0.24915641969E+03 -0.89144089173E+02  0.27829706809E+03  0.42045723708E+03  0.17120000000E+03 0.  0.
        998    1    1    2    0    0 -0.19748411996E+02  0.15168850528E+02  0.11353105132E+03  0.11665930489E+03  0.10000000000E+02 0.  1.
</event>
<event>
 5    1  0.5525569E-010  0.3862036E+03  0.7957747E-01  0.3424583E+00
         13   -1    0    0    0    0  0.00000000000E+00  0.00000000000E+00  0.14999999963E+04  0.15000000000E+04  0.10566000000E+00 0.  1.
        994   -1    0    0    0    0 -0.00000000000E+00 -0.00000000000E+00  0.11368683772E-12  0.17120000000E+03  0.17120000000E+03 0.  0.
         13    1    1    2    0    0 -0.13920164882E+03 -0.14467866758E+03  0.10846225789E+04  0.11030481249E+04  0.10566000000E+00 0.  1.
        994    1    1    2    0    0  0.14499517259E+03  0.17502578507E+03  0.19395900740E+03  0.34436486764E+03  0.17120000000E+03 0.  0.
        998    1    1    2    0    0 -0.57935237704E+01 -0.30347117485E+02  0.22141840995E+03  0.22378700749E+03  0.10000000000E+02 0.  1.
</event>
<event>
 5    1  0.5525569E-010  0.3816817E+03  0.7957747E-01  0.3443869E+00
         13   -1    0    0    0    0  0.00000000000E+00  0.00000000000E+00  0.14999999963E+04  0.15000000000E+04  0.10566000000E+00 0. -1.
        994   -1    0    0    0    0 -0.00000000000E+00 -0.00000000000E+00  0.11368683772E-12  0.17120000000E+03  0.17120000000E+03 0.  0.
         13    1    1    2    0    0  0.16031884689E+02 -0.93143863727E+01  0.10255763636E+03  0.10422024304E+03  0.10566000000E+00 0. -1.
        994    1    1    2    0    0  0.96752813510E+02 -0.16486955077E+02  0.36001871694E+02  0.20059536728E+03  0.17120000000E+03 0.  0.
        998    1    1    2    0    0 -0.11278469820E+03  0.25801341450E+02  0.13614404882E+04  0.13663843897E+04  0.10000000000E+02 0. -1.
</event>
<event>
 5    1  0.5525569E-010  0.3869240E+03  0.7957747E-01  0.3421553E+00
         13   -1    0    0    0    0  0.00000000000E+00  0.00000000000E+00  0.14999999963E+04  0.15000000000E+04  0.10566000000E+00 0. -1.
        994   -1    0    0    0    0 -0.00000000000E+00 -0.00000000000E+00  0.11368683772E-12  0.17120000000E+03  0.17120000000E+03 0.  0.
         13    1    1    2    0    0 -0.26604488087E+03  0.11347976510E+03  0.85922610080E+03  0.90660191880E+03  0.10566000000E+00 0. -1.
        994    1    1    2    0    0  0.29656699594E+03 -0.13979086800E+03  0.53000547730E+03  0.64630388814E+03  0.17120000000E+03 0.  0.
        998    1    1    2    0    0 -0.30522115070E+02  0.26311102897E+02  0.11076841818E+03  0.11829419305E+03  0.10000000000E+02 0.  0.
</event>
<event>
 5    1  0.5525569E-010  0.3866859E+03  0.7957747E-01  0.3422553E+00
         13   -1    0    0    0    0  0.00000000000E+00  0.00000000000E+00  0.14999999963E+04  0.15000000000E+04  0.10566000000E+00 0. -1.
        994   -1    0    0    0    0 -0.00000000000E+00 -0.00000000000E+00  0.11368683772E-12  0.17120000000E+03  0.17120000000E+03 0.  0.
         13    1    1    2    0    0  0.10607161098E+03 -0.12769773994E+03  0.72119186289E+03  0.74005108857E+03  0.10566000000E+00 0. -1.
        994    1    1    2    0    0 -0.14175521260E+03  0.22071765622E+03  0.27295593748E+03  0.41548189836E+03  0.17120000000E+03 0.  0.
        998    1    1    2    0    0  0.35683601621E+02 -0.93019916274E+02  0.50585219592E+03  0.51566701306E+03  0.10000000000E+02 0. -1.
</event>
<event>
 5    1  0.5525569E-010  0.3810198E+03  0.7957747E-01  0.3446730E+00
         13   -1    0    0    0    0  0.00000000000E+00  0.00000000000E+00  0.14999999963E+04  0.15000000000E+04  0.10566000000E+00 0. -1.
        994   -1    0    0    0    0 -0.00000000000E+00 -0.00000000000E+00  0.11368683772E-12  0.17120000000E+03  0.17120000000E+03 0.  0.
         13    1    1    2    0    0  0.17132633912E+03 -0.10445704658E+03  0.10774274316E+04  0.10959534071E+04  0.10566000000E+00 0. -1.
        994    1    1    2    0    0 -0.20529879690E+03  0.80262502055E+02  0.18736774144E+03  0.33616331712E+03  0.17120000000E+03 0.  0.
        998    1    1    2    0    0  0.33972457773E+02  0.24194544527E+02  0.23520482327E+03  0.23908327579E+03  0.10000000000E+02 0. -1.
</event>
<event>
 5    1  0.5525569E-010  0.3876135E+03  0.7957747E-01  0.3418663E+00
         13   -1    0    0    0    0  0.00000000000E+00  0.00000000000E+00  0.14999999963E+04  0.15000000000E+04  0.10566000000E+00 0. -1.
        994   -1    0    0    0    0 -0.00000000000E+00 -0.00000000000E+00  0.11368683772E-12  0.17120000000E+03  0.17120000000E+03 0.  0.
         13    1    1    2    0    0 -0.10880307731E+02 -0.16663800654E+03  0.81532202743E+03  0.83224793535E+03  0.10566000000E+00 0. -1.
        994    1    1    2    0    0  0.19971228572E+02  0.24071740041E+03  0.22164860903E+03  0.36983950940E+03  0.17120000000E+03 0.  0.
        998    1    1    2    0    0 -0.90909208405E+01 -0.74079393871E+02  0.46302935982E+03  0.46911255525E+03  0.10000000000E+02 0.  1.
</event>
<event>
 5    1  0.5525569E-010  0.3848350E+03  0.7957747E-01  0.3430372E+00
         13   -1    0    0    0    0  0.00000000000E+00  0.00000000000E+00  0.14999999963E+04  0.15000000000E+04  0.10566000000E+00 0. -1.
        994   -1    0    0    0    0 -0.00000000000E+00 -0.00000000000E+00  0.11368683772E-12  0.17120000000E+03  0.17120000000E+03 0.  0.
         13    1    1    2    0    0 -0.36794042154E+02  0.43415438763E+02  0.27733510388E+03  0.28311388675E+03  0.10566000000E+00 0. -1.
        994    1    1    2    0    0  0.75859430846E+02 -0.13114232704E+03  0.81286357060E+02  0.24263115017E+03  0.17120000000E+03 0.  0.
        998    1    1    2    0    0 -0.39065388692E+02  0.87726888273E+02  0.11413785353E+04  0.11454549631E+04  0.10000000000E+02 0. -1.
</event>
<event>
 5    1  0.5525569E-010  0.3784379E+03  0.7957747E-01  0.3457988E+00
         13   -1    0    0    0    0  0.00000000000E+00  0.00000000000E+00  0.14999999963E+04  0.15000000000E+04  0.10566000000E+00 0. -1.
        994   -1    0    0    0    0 -0.00000000000E+00 -0.00000000000E+00  0.11368683772E-12  0.17120000000E+03  0.17120000000E+03 0.  0.
         13    1    1    2    0    0 -0.42204167881E+02  0.10872719228E+03  0.59187941755E+03  0.60326117910E+03  0.10566000000E+00 0. -1.
        994    1    1    2    0    0 -0.17248888182E+02 -0.17707073758E+03  0.11991560467E+03  0.27448271802E+03  0.17120000000E+03 0.  0.
        998    1    1    2    0    0  0.59453056063E+02  0.68343545296E+02  0.78820497406E+03  0.79345610288E+03  0.10000000000E+02 0.  1.
</event>
<event>
 5    1  0.5525569E-010  0.3877706E+03  0.7957747E-01  0.3418006E+00
         13   -1    0    0    0    0  0.00000000000E+00  0.00000000000E+00  0.14999999963E+04  0.15000000000E+04  0.10566000000E+00 0. -1.
        994   -1    0    0    0    0 -0.00000000000E+00 -0.00000000000E+00  0.11368683772E-12  0.17120000000E+03  0.17120000000E+03 0.  0.
         13    1    1    2    0    0  0.98815635965E+01 -0.53270472573E+02  0.26824560409E+03  0.27366239023E+03  0.10566000000E+00 0. -1.
        994    1    1    2    0    0 -0.60377829124E+02  0.21226127295E+03  0.17930709729E+03  0.33190481374E+03  0.17120000000E+03 0.  0.
        998    1    1    2    0    0  0.50496265528E+02 -0.15899080038E+03  0.10524472949E+04  0.10656327960E+04  0.10000000000E+02 0. -1.
</event>
<event>
 5    1  0.5525569E-010  0.3460859E+03  0.7957747E-01  0.3613573E+00
         13   -1    0    0    0    0  0.00000000000E+00  0.00000000000E+00  0.14999999963E+04  0.15000000000E+04  0.10566000000E+00 0. -1.
        994   -1    0    0    0    0 -0.00000000000E+00 -0.00000000000E+00  0.11368683772E-12  0.17120000000E+03  0.17120000000E+03 0.  0.
         13    1    1    2    0    0 -0.70672206973E+02  0.21300407768E+03  0.97956148441E+03  0.10049407997E+04  0.10566000000E+00 0. -1.
        994    1    1    2    0    0  0.14376145942E+03 -0.24756404043E+03  0.39957416213E+03  0.52050385433E+03  0.17120000000E+03 0.  0.
        998    1    1    2    0    0 -0.73089252451E+02  0.34559962749E+02  0.12086434974E+03  0.14575534600E+03  0.10000000000E+02 0. -1.
</event>
<event>
 5    1  0.5525569E-010  0.3843250E+03  0.7957747E-01  0.3432540E+00
         13   -1    0    0    0    0  0.00000000000E+00  0.00000000000E+00  0.14999999963E+04  0.15000000000E+04  0.10566000000E+00 0. -1.
        994   -1    0    0    0    0 -0.00000000000E+00 -0.00000000000E+00  0.11368683772E-12  0.17120000000E+03  0.17120000000E+03 0.  0.
         13    1    1    2    0    0 -0.26045069951E+03 -0.18552430427E+03  0.83334120400E+03  0.89258691890E+03  0.10566000000E+00 0. -1.
        994    1    1    2    0    0  0.28237664595E+03  0.18168560286E+03  0.61190810044E+03  0.71867043340E+03  0.17120000000E+03 0.  0.
        998    1    1    2    0    0 -0.21925946439E+02  0.38387014123E+01  0.54750691840E+02  0.59942647696E+02  0.10000000000E+02 0.  1.
</event>
<event>
 5    1  0.5525569E-010  0.3833250E+03  0.7957747E-01  0.3436807E+00
         13   -1    0    0    0    0  0.00000000000E+00  0.00000000000E+00  0.14999999963E+04  0.15000000000E+04  0.10566000000E+00 0.  1.
        994   -1    0    0    0    0 -0.00000000000E+00 -0.00000000000E+00  0.11368683772E-12  0.17120000000E+03  0.17120000000E+03 0.  0.
         13    1    1    2    0    0 -0.18618028805E+03 -0.45609212823E+02  0.86704688726E+03  0.88798289163E+03  0.10566000000E+00 0.  1.
        994    1    1    2    0    0  0.21898774984E+03  0.68330485768E+02  0.20208437539E+03  0.35038867653E+03  0.17120000000E+03 0.  0.
        998    1    1    2    0    0 -0.32807461786E+02 -0.22721272945E+02  0.43086873363E+03  0.43282843184E+03  0.10000000000E+02 0.  1.
</event>
<event>
 5    1  0.5525569E-010  0.3860166E+03  0.7957747E-01  0.3425372E+00
         13   -1    0    0    0    0  0.00000000000E+00  0.00000000000E+00  0.14999999963E+04  0.15000000000E+04  0.10566000000E+00 0. -1.
        994   -1    0    0    0    0 -0.00000000000E+00 -0.00000000000E+00  0.11368683772E-12  0.17120000000E+03  0.17120000000E+03 0.  0.
         13    1    1    2    0    0  0.13366803130E+02  0.11692750428E+03  0.69636383020E+03  0.70623884618E+03  0.10566000000E+00 0. -1.
        994    1    1    2    0    0 -0.42632151301E+02 -0.17800803611E+03  0.11994386296E+03  0.27784947635E+03  0.17120000000E+03 0.  0.
        998    1    1    2    0    0  0.29265348172E+02  0.61080531833E+02  0.68369230312E+03  0.68711167747E+03  0.10000000000E+02 0. -1.
</event>
<event>
 5    1  0.5525569E-010  0.3873221E+03  0.7957747E-01  0.3419883E+00
         13   -1    0    0    0    0  0.00000000000E+00  0.00000000000E+00  0.14999999963E+04  0.15000000000E+04  0.10566000000E+00 0. -1.
        994   -1    0    0    0    0 -0.00000000000E+00 -0.00000000000E+00  0.11368683772E-12  0.17120000000E+03  0.17120000000E+03 0.  0.
         13    1    1    2    0    0 -0.20020151223E+03 -0.10133698462E+02  0.93348499322E+03  0.95476572052E+03  0.10566000000E+00 0. -1.
        994    1    1    2    0    0  0.25360135559E+03  0.26360075573E+02  0.25320038238E+03  0.39803062040E+03  0.17120000000E+03 0.  0.
        998    1    1    2    0    0 -0.53399843355E+02 -0.16226377111E+02  0.31331462068E+03  0.31840365908E+03  0.10000000000E+02 0.  1.
</event>
<event>
 5    1  0.5525569E-010  0.3863946E+03  0.7957747E-01  0.3423779E+00
         13   -1    0    0    0    0  0.00000000000E+00  0.00000000000E+00  0.14999999963E+04  0.15000000000E+04  0.10566000000E+00 0.  1.
        994   -1    0    0    0    0 -0.00000000000E+00 -0.00000000000E+00  0.11368683772E-12  0.17120000000E+03  0.17120000000E+03 0.  0.
         13    1    1    2    0    0  0.85438739837E+02  0.15782638216E+03  0.10228018796E+04  0.10384279663E+04  0.10566000000E+00 0.  1.
        994    1    1    2    0    0 -0.11876006248E+03 -0.17948514972E+03  0.17098184009E+03  0.32382572636E+03  0.17120000000E+03 0.  0.
        998    1    1    2    0    0  0.33321322648E+02  0.21658767560E+02  0.30621627658E+03  0.30894630731E+03  0.10000000000E+02 0. -1.
</event>
<event>
 5    1  0.5525569E-010  0.4216965E+03  0.7957747E-01  0.3287539E+00
         13   -1    0    0    0    0  0.00000000000E+00  0.00000000000E+00  0.14999999963E+04  0.15000000000E+04  0.10566000000E+00 0. -1.
        994   -1    0    0    0    0 -0.00000000000E+00 -0.00000000000E+00  0.11368683772E-12  0.17120000000E+03  0.17120000000E+03 0.  0.
         13    1    1    2    0    0  0.92688908903E+02 -0.11977114836E+02  0.19744264829E+03  0.21844517766E+03  0.10566000000E+00 0. -1.
        994    1    1    2    0    0  0.14270447852E+03 -0.14474987817E+03  0.25742490432E+03  0.36999204962E+03  0.17120000000E+03 0.  0.
        998    1    1    2    0    0 -0.23539338742E+03  0.15672699300E+03  0.10451324437E+04  0.10827627727E+04  0.10000000000E+02 0. -1.
</event>
<event>
 5    1  0.5525569E-010  0.3873802E+03  0.7957747E-01  0.3419640E+00
         13   -1    0    0    0    0  0.00000000000E+00  0.00000000000E+00  0.14999999963E+04  0.15000000000E+04  0.10566000000E+00 0.  1.
        994   -1    0    0    0    0 -0.00000000000E+00 -0.00000000000E+00  0.11368683772E-12  0.17120000000E+03  0.17120000000E+03 0.  0.
         13    1    1    2    0    0  0.72812945285E+00 -0.17838771576E+03  0.88208747660E+03  0.89994501768E+03  0.10566000000E+00 0.  1.
        994    1    1    2    0    0 -0.20870725733E+02  0.24815876793E+03  0.23892787611E+03  0.38524580631E+03  0.17120000000E+03 0.  0.
        998    1    1    2    0    0  0.20142596280E+02 -0.69771052175E+02  0.37898464356E+03  0.38600917601E+03  0.10000000000E+02 0. -1.
</event>
<event>
 5    1  0.5525569E-010  0.3821259E+03  0.7957747E-01  0.3441954E+00
         13   -1    0    0    0    0  0.00000000000E+00  0.00000000000E+00  0.14999999963E+04  0.15000000000E+04  0.10566000000E+00 0. -1.
        994   -1    0    0    0    0 -0.00000000000E+00 -0.00000000000E+00  0.11368683772E-12  0.17120000000E+03  0.17120000000E+03 0.  0.
         13    1    1    2    0    0  0.59627481726E+01 -0.16824537296E+02  0.59847786990E+02  0.62453087935E+02  0.10566000000E+00 0. -1.
        994    1    1    2    0    0  0.79551388132E+02  0.86613722089E+01  0.24620255768E+02  0.19057554858E+03  0.17120000000E+03 0.  0.
        998    1    1    2    0    0 -0.85514136304E+02  0.81631650871E+01  0.14155319535E+04  0.14181713635E+04  0.10000000000E+02 0. -1.
</event>
<event>
 5    1  0.5525569E-010  0.3857564E+03  0.7957747E-01  0.3426470E+00
         13   -1    0    0    0    0  0.00000000000E+00  0.00000000000E+00  0.14999999963E+04  0.15000000000E+04  0.10566000000E+00 0.  1.
        994   -1    0    0    0    0 -0.00000000000E+00 -0.00000000000E+00  0.11368683772E-12  0.17120000000E+03  0.17120000000E+03 0.  0.
         13    1    1    2    0    0  0.21147764343E+03  0.14365223409E+03  0.11167605664E+04  0.11456495676E+04  0.10566000000E+00 0.  1.
        994    1    1    2    0    0 -0.21514474316E+03 -0.15741288462E+03  0.28615686079E+03  0.42692067850E+03  0.17120000000E+03 0.  0.
        998    1    1    2    0    0  0.36670997240E+01  0.13760650538E+02  0.97082569121E+02  0.98629753882E+02  0.10000000000E+02 0. -1.
</event>
<event>
 5    1  0.5737082E-010  0.3858045E+03  0.7957747E-01  0.3426267E+00
         13   -1    0    0    0    0  0.00000000000E+00  0.00000000000E+00  0.14999999963E+04  0.15000000000E+04  0.10566000000E+00 0. -1.
        994   -1    0    0    0    0 -0.00000000000E+00 -0.00000000000E+00  0.11368683772E-12  0.17120000000E+03  0.17120000000E+03 0.  0.
         13    1    1    2    0    0 -0.20027546311E+01  0.12493439674E+02  0.68678386013E+02  0.69834296234E+02  0.10566000000E+00 0. -1.
        994    1    1    2    0    0  0.51850951264E+02  0.17575922483E+01  0.10110245370E+02  0.17917384669E+03  0.17120000000E+03 0.  0.
        998    1    1    2    0    0 -0.49848196633E+02 -0.14251031923E+02  0.14212113649E+04  0.14221918571E+04  0.10000000000E+02 0. -1.
</event>
<event>
 5    1  0.5525569E-010  0.3868152E+03  0.7957747E-01  0.3422010E+00
         13   -1    0    0    0    0  0.00000000000E+00  0.00000000000E+00  0.14999999963E+04  0.15000000000E+04  0.10566000000E+00 0.  1.
        994   -1    0    0    0    0 -0.00000000000E+00 -0.00000000000E+00  0.11368683772E-12  0.17120000000E+03  0.17120000000E+03 0.  0.
         13    1    1    2    0    0 -0.22137730958E+02 -0.54990062061E+01  0.10512372431E+03  0.10757010169E+03  0.10566000000E+00 0.  1.
        994    1    1    2    0    0  0.16137173266E+03 -0.16061750492E+02  0.92008719984E+02  0.25312815032E+03  0.17120000000E+03 0.  0.
        998    1    1    2    0    0 -0.13923400171E+03  0.21560756698E+02  0.13028675520E+04  0.13105017480E+04  0.10000000000E+02 0.  1.
</event>
<event>
 5    1  0.8344233E-010  0.3865693E+03  0.7957747E-01  0.3423044E+00
         13   -1    0    0    0    0  0.00000000000E+00  0.00000000000E+00  0.14999999963E+04  0.15000000000E+04  0.10566000000E+00 0. -1.
        994   -1    0    0    0    0 -0.00000000000E+00 -0.00000000000E+00  0.11368683772E-12  0.17120000000E+03  0.17120000000E+03 0.  0.
         13    1    1    2    0    0  0.93860800916E+01 -0.60707818151E+01  0.47259929063E+02  0.48564029388E+02  0.10566000000E+00 0. -1.
        994    1    1    2    0    0 -0.59097022075E+02  0.46940838987E+02  0.19716395026E+02  0.18813313535E+03  0.17120000000E+03 0.  0.
        998    1    1    2    0    0  0.49710941983E+02 -0.40870057172E+02  0.14330236722E+04  0.14345028353E+04  0.10000000000E+02 0. -1.
</event>
<event>
 5    1  0.5525569E-010  0.3795078E+03  0.7957747E-01  0.3453304E+00
         13   -1    0    0    0    0  0.00000000000E+00  0.00000000000E+00  0.14999999963E+04  0.15000000000E+04  0.10566000000E+00 0.  1.
        994   -1    0    0    0    0 -0.00000000000E+00 -0.00000000000E+00  0.11368683772E-12  0.17120000000E+03  0.17120000000E+03 0.  0.
         13    1    1    2    0    0 -0.64177532606E+02  0.44947772837E+02  0.46532879333E+03  0.47187917419E+03  0.10566000000E+00 0.  1.
        994    1    1    2    0    0  0.40557927228E+02 -0.98997156482E+02  0.43710867014E+02  0.20655619659E+03  0.17120000000E+03 0.  0.
        998    1    1    2    0    0  0.23619605378E+02  0.54049383646E+02  0.99096033594E+03  0.99276462922E+03  0.10000000000E+02 0.  1.
</event>
<event>
 5    1  0.5525569E-010  0.3843709E+03  0.7957747E-01  0.3432345E+00
         13   -1    0    0    0    0  0.00000000000E+00  0.00000000000E+00  0.14999999963E+04  0.15000000000E+04  0.10566000000E+00 0. -1.
        994   -1    0    0    0    0 -0.00000000000E+00 -0.00000000000E+00  0.11368683772E-12  0.17120000000E+03  0.17120000000E+03 0.  0.
         13    1    1    2    0    0 -0.17847526317E+03 -0.11897283340E+03  0.12309098589E+04  0.12494587014E+04  0.10566000000E+00 0. -1.
        994    1    1    2    0    0  0.18306049324E+03  0.13931966498E+03  0.20196491356E+03  0.35074261153E+03  0.17120000000E+03 0.  0.
        998    1    1    2    0    0 -0.45852300713E+01 -0.20346831583E+02  0.67125223863E+02  0.70998687093E+02  0.10000000000E+02 0.  0.
</event>
<event>
 5    1  0.5525569E-010  0.3881597E+03  0.7957747E-01  0.3416381E+00
         13   -1    0    0    0    0  0.00000000000E+00  0.00000000000E+00  0.14999999963E+04  0.15000000000E+04  0.10566000000E+00 0. -1.
        994   -1    0    0    0    0 -0.00000000000E+00 -0.00000000000E+00  0.11368683772E-12  0.17120000000E+03  0.17120000000E+03 0.  0.
         13    1    1    2    0    0  0.70665281465E+02 -0.10652352378E+03  0.42919579369E+03  0.44782796207E+03  0.10566000000E+00 0. -1.
        994    1    1    2    0    0 -0.16780686475E+03  0.26200274688E+03  0.43479541258E+03  0.56139208583E+03  0.17120000000E+03 0.  0.
        998    1    1    2    0    0  0.97141583286E+02 -0.15547922310E+03  0.63600879001E+03  0.66197995210E+03  0.10000000000E+02 0. -1.
</event>
<event>
 5    1  0.5525569E-010  0.3855093E+03  0.7957747E-01  0.3427515E+00
         13   -1    0    0    0    0  0.00000000000E+00  0.00000000000E+00  0.14999999963E+04  0.15000000000E+04  0.10566000000E+00 0. -1.
        994   -1    0    0    0    0 -0.00000000000E+00 -0.00000000000E+00  0.11368683772E-12  0.17120000000E+03  0.17120000000E+03 0.  0.
         13    1    1    2    0    0 -0.11658882723E+02 -0.11702730322E+01  0.70105352448E+02  0.71077919857E+02  0.10566000000E+00 0. -1.
        994    1    1    2    0    0 -0.37364152943E+02  0.41249993066E+02  0.11614596022E+02  0.18039395969E+03  0.17120000000E+03 0.  0.
        998    1    1    2    0    0  0.49023035666E+02 -0.40079720034E+02  0.14182800478E+04  0.14197281204E+04  0.10000000000E+02 0. -1.
</event>
<event>
 5    1  0.5525569E-010  0.3849412E+03  0.7957747E-01  0.3429921E+00
         13   -1    0    0    0    0  0.00000000000E+00  0.00000000000E+00  0.14999999963E+04  0.15000000000E+04  0.10566000000E+00 0.  1.
        994   -1    0    0    0    0 -0.00000000000E+00 -0.00000000000E+00  0.11368683772E-12  0.17120000000E+03  0.17120000000E+03 0.  0.
         13    1    1    2    0    0 -0.39831985149E+01 -0.10451927998E+03  0.58132228867E+03  0.59065705805E+03  0.10566000000E+00 0.  1.
        994    1    1    2    0    0 -0.34842387704E+02  0.17966035241E+03  0.12091620709E+03  0.27824809675E+03  0.17120000000E+03 0.  0.
        998    1    1    2    0    0  0.38825586219E+02 -0.75141072430E+02  0.79776150052E+03  0.80229484519E+03  0.10000000000E+02 0.  1.
</event>
<event>
 5    1  0.5525569E-010  0.3813646E+03  0.7957747E-01  0.3445238E+00
         13   -1    0    0    0    0  0.00000000000E+00  0.00000000000E+00  0.14999999963E+04  0.15000000000E+04  0.10566000000E+00 0. -1.
        994   -1    0    0    0    0 -0.00000000000E+00 -0.00000000000E+00  0.11368683772E-12  0.17120000000E+03  0.17120000000E+03 0.  0.
         13    1    1    2    0    0  0.56306617106E+02  0.52763378648E+01  0.29671402207E+03  0.30205545340E+03  0.10566000000E+00 0. -1.
        994    1    1    2    0    0 -0.10414249907E+03  0.77487860655E+02  0.61716725206E+02  0.22353617790E+03  0.17120000000E+03 0.  0.
        998    1    1    2    0    0  0.47835881965E+02 -0.82764198520E+02  0.11415692490E+04  0.11456083687E+04  0.10000000000E+02 0. -1.
</event>
<event>
 5    1  0.5525569E-010  0.3863468E+03  0.7957747E-01  0.3423980E+00
         13   -1    0    0    0    0  0.00000000000E+00  0.00000000000E+00  0.14999999963E+04  0.15000000000E+04  0.10566000000E+00 0. -1.
        994   -1    0    0    0    0 -0.00000000000E+00 -0.00000000000E+00  0.11368683772E-12  0.17120000000E+03  0.17120000000E+03 0.  0.
         13    1    1    2    0    0 -0.10431226210E+02  0.69832724426E+00  0.51809616947E+02  0.52854003759E+02  0.10566000000E+00 0. -1.
        994    1    1    2    0    0  0.25286457467E+02  0.26197323247E+02  0.53158216803E+01  0.17510968744E+03  0.17120000000E+03 0.  0.
        998    1    1    2    0    0 -0.14855231257E+02 -0.26895650491E+02  0.14428745577E+04  0.14432363088E+04  0.10000000000E+02 0. -1.
</event>
<event>
 5    1  0.5525569E-010  0.3828167E+03  0.7957747E-01  0.3438985E+00
         13   -1    0    0    0    0  0.00000000000E+00  0.00000000000E+00  0.14999999963E+04  0.15000000000E+04  0.10566000000E+00 0.  1.
        994   -1    0    0    0    0 -0.00000000000E+00 -0.00000000000E+00  0.11368683772E-12  0.17120000000E+03  0.17120000000E+03 0.  0.
         13    1    1    2    0    0  0.41520296890E+02  0.22171655914E+02  0.22264858212E+03  0.22756959301E+03  0.10566000000E+00 0.  1.
        994    1    1    2    0    0 -0.59077116595E+02 -0.12198320244E+03  0.66151165564E+02  0.22815657801E+03  0.17120000000E+03 0.  0.
        998    1    1    2    0    0  0.17556819704E+02  0.99811546527E+02  0.12112002486E+04  0.12154738290E+04  0.10000000000E+02 0.  1.
</event>
<event>
 5    1  0.5525569E-010  0.3873059E+03  0.7957747E-01  0.3419951E+00
         13   -1    0    0    0    0  0.00000000000E+00  0.00000000000E+00  0.14999999963E+04  0.15000000000E+04  0.10566000000E+00 0.  1.
        994   -1    0    0    0    0 -0.00000000000E+00 -0.00000000000E+00  0.11368683772E-12  0.17120000000E+03  0.17120000000E+03 0.  0.
         13    1    1    2    0    0 -0.18772122643E+03  0.70862665694E+02  0.94233930646E+03  0.96346466251E+03  0.10566000000E+00 0.  1.
        994    1    1    2    0    0  0.25628697009E+03 -0.83385860824E+02  0.29123342857E+03  0.43216034378E+03  0.17120000000E+03 0.  0.
        998    1    1    2    0    0 -0.68565743657E+02  0.12523195130E+02  0.26642726125E+03  0.27557499371E+03  0.10000000000E+02 0.  1.
</event>
<event>
 5    1  0.5525569E-010  0.3879397E+03  0.7957747E-01  0.3417299E+00
         13   -1    0    0    0    0  0.00000000000E+00  0.00000000000E+00  0.14999999963E+04  0.15000000000E+04  0.10566000000E+00 0. -1.
        994   -1    0    0    0    0 -0.00000000000E+00 -0.00000000000E+00  0.11368683772E-12  0.17120000000E+03  0.17120000000E+03 0.  0.
         13    1    1    2    0    0 -0.13600812842E+03 -0.15396544858E+03  0.93274502235E+03  0.95510044406E+03  0.10566000000E+00 0. -1.
        994    1    1    2    0    0  0.17260923401E+03  0.20376302654E+03  0.28322551876E+03  0.42525222295E+03  0.17120000000E+03 0.  0.
        998    1    1    2    0    0 -0.36601105595E+02 -0.49797577967E+02  0.28402945517E+03  0.29084733299E+03  0.10000000000E+02 0.  1.
</event>
<event>
 5    1  0.5525569E-010  0.3357511E+03  0.7957747E-01  0.3669799E+00
         13   -1    0    0    0    0  0.00000000000E+00  0.00000000000E+00  0.14999999963E+04  0.15000000000E+04  0.10566000000E+00 0.  1.
        994   -1    0    0    0    0 -0.00000000000E+00 -0.00000000000E+00  0.11368683772E-12  0.17120000000E+03  0.17120000000E+03 0.  0.
         13    1    1    2    0    0 -0.19916826705E+03  0.73414617714E+02  0.11578729355E+04  0.11771692531E+04  0.10566000000E+00 0.  1.
        994    1    1    2    0    0  0.97775694380E+02 -0.60898946460E+02  0.96455428291E+02  0.22777589367E+03  0.17120000000E+03 0.  0.
        998    1    1    2    0    0  0.10139257267E+03 -0.12515671254E+02  0.24567163253E+03  0.26625485319E+03  0.10000000000E+02 0. -1.
</event>
<event>
 5    1  0.5525569E-010  0.3805927E+03  0.7957747E-01  0.3448582E+00
         13   -1    0    0    0    0  0.00000000000E+00  0.00000000000E+00  0.14999999963E+04  0.15000000000E+04  0.10566000000E+00 0. -1.
        994   -1    0    0    0    0 -0.00000000000E+00 -0.00000000000E+00  0.11368683772E-12  0.17120000000E+03  0.17120000000E+03 0.  0.
         13    1    1    2    0    0 -0.19706433883E+03  0.13543622463E+03  0.53701908537E+03  0.58784932916E+03  0.10566000000E+00 0. -1.
        994    1    1    2    0    0  0.23916712324E+03 -0.23053184077E+03  0.61131135698E+03  0.71648925855E+03  0.17120000000E+03 0.  0.
        998    1    1    2    0    0 -0.42102784410E+02  0.95095616145E+02  0.35166955393E+03  0.36686141228E+03  0.10000000000E+02 0.  1.
</event>
<event>
 5    1  0.5525569E-010  0.3875708E+03  0.7957747E-01  0.3418842E+00
         13   -1    0    0    0    0  0.00000000000E+00  0.00000000000E+00  0.14999999963E+04  0.15000000000E+04  0.10566000000E+00 0.  1.
        994   -1    0    0    0    0 -0.00000000000E+00 -0.00000000000E+00  0.11368683772E-12  0.17120000000E+03  0.17120000000E+03 0.  0.
         13    1    1    2    0    0  0.15959652833E+03  0.50981973178E+02  0.72519187562E+03  0.74429394803E+03  0.10566000000E+00 0.  1.
        994    1    1    2    0    0 -0.25980872763E+03 -0.62913134440E+02  0.28466990094E+03  0.42638601049E+03  0.17120000000E+03 0.  0.
        998    1    1    2    0    0  0.10021219930E+03  0.11931161262E+02  0.49013821972E+03  0.50052004149E+03  0.10000000000E+02 0.  1.
</event>
<event>
 5    1  0.7972453E-010  0.3868372E+03  0.7957747E-01  0.3421918E+00
         13   -1    0    0    0    0  0.00000000000E+00  0.00000000000E+00  0.14999999963E+04  0.15000000000E+04  0.10566000000E+00 0.  1.
        994   -1    0    0    0    0 -0.00000000000E+00 -0.00000000000E+00  0.11368683772E-12  0.17120000000E+03  0.17120000000E+03 0.  0.
         13    1    1    2    0    0 -0.20171504083E+03 -0.11387922109E+03  0.12089813897E+04  0.12309725612E+04  0.10566000000E+00 0.  1.
        994    1    1    2    0    0  0.20914969718E+03  0.12099146927E+03  0.22297690648E+03  0.37068945532E+03  0.17120000000E+03 0.  0.
        998    1    1    2    0    0 -0.74346563501E+01 -0.71122481784E+01  0.68041700085E+02  0.69537983431E+02  0.10000000000E+02 0.  0.
</event>
<event>
 5    1  0.5525569E-010  0.3779214E+03  0.7957747E-01  0.3460260E+00
         13   -1    0    0    0    0  0.00000000000E+00  0.00000000000E+00  0.14999999963E+04  0.15000000000E+04  0.10566000000E+00 0.  1.
        994   -1    0    0    0    0 -0.00000000000E+00 -0.00000000000E+00  0.11368683772E-12  0.17120000000E+03  0.17120000000E+03 0.  0.
         13    1    1    2    0    0  0.22028357766E+02 -0.67206060644E+02  0.12435570290E+03  0.14306031994E+03  0.10566000000E+00 0.  1.
        994    1    1    2    0    0  0.10077860822E+03  0.31163642528E+03  0.59017036328E+03  0.69633618830E+03  0.17120000000E+03 0.  0.
        998    1    1    2    0    0 -0.12280696598E+03 -0.24443036464E+03  0.78547393010E+03  0.83180349176E+03  0.10000000000E+02 0.  1.
</event>
<event>
 5    1  0.6833046E-010  0.3861796E+03  0.7957747E-01  0.3424685E+00
         13   -1    0    0    0    0  0.00000000000E+00  0.00000000000E+00  0.14999999963E+04  0.15000000000E+04  0.10566000000E+00 0.  1.
        994   -1    0    0    0    0 -0.00000000000E+00 -0.00000000000E+00  0.11368683772E-12  0.17120000000E+03  0.17120000000E+03 0.  0.
         13    1    1    2    0    0  0.11713923560E+02 -0.11249556505E+02  0.86094351220E+02  0.87612881489E+02  0.10566000000E+00 0.  1.
        994    1    1    2    0    0 -0.66567651370E+02  0.16987855416E+02  0.16663764621E+02  0.18522138238E+03  0.17120000000E+03 0.  0.
        998    1    1    2    0    0  0.54853727810E+02 -0.57382989105E+01  0.13972418804E+04  0.13983657361E+04  0.10000000000E+02 0.  1.
</event>
<event>
 5    1  0.5525569E-010  0.3875652E+03  0.7957747E-01  0.3418865E+00
         13   -1    0    0    0    0  0.00000000000E+00  0.00000000000E+00  0.14999999963E+04  0.15000000000E+04  0.10566000000E+00 0. -1.
        994   -1    0    0    0    0 -0.00000000000E+00 -0.00000000000E+00  0.11368683772E-12  0.17120000000E+03  0.17120000000E+03 0.  0.
         13    1    1    2    0    0  0.20468840103E+03  0.41513659312E+02  0.97087235033E+03  0.99308300621E+03  0.10566000000E+00 0. -1.
        994    1    1    2    0    0 -0.26070854318E+03 -0.40061293141E+02  0.27515749909E+03  0.41784559469E+03  0.17120000000E+03 0.  0.
        998    1    1    2    0    0  0.56020142152E+02 -0.14523661703E+01  0.25397014686E+03  0.26027139910E+03  0.10000000000E+02 0.  1.
</event>
<event>
 5    1  0.5525569E-010  0.4331422E+03  0.7957747E-01  0.3248070E+00
         13   -1    0    0    0    0  0.00000000000E+00  0.00000000000E+00  0.14999999963E+04  0.15000000000E+04  0.10566000000E+00 0.  1.
        994   -1    0    0    0    0 -0.00000000000E+00 -0.00000000000E+00  0.11368683772E-12  0.17120000000E+03  0.17120000000E+03 0.  0.
         13    1    1    2    0    0 -0.22842536080E+02  0.12735079520E+03  0.28748153278E+03  0.31525489583E+03  0.10566000000E+00 0.  1.
        994    1    1    2    0    0 -0.10607145211E+03  0.46650071643E+02  0.11367374934E+03  0.23592062951E+03  0.17120000000E+03 0.  0.
        998    1    1    2    0    0  0.12891398819E+03 -0.17400086685E+03  0.10988447142E+04  0.11200244747E+04  0.10000000000E+02 0.  1.
</event>
<event>
 5    1  0.5525569E-010  0.3671718E+03  0.7957747E-01  0.3508991E+00
         13   -1    0    0    0    0  0.00000000000E+00  0.00000000000E+00  0.14999999963E+04  0.15000000000E+04  0.10566000000E+00 0. -1.
        994   -1    0    0    0    0 -0.00000000000E+00 -0.00000000000E+00  0.11368683772E-12  0.17120000000E+03  0.17120000000E+03 0.  0.
         13    1    1    2    0    0 -0.23658734732E+03  0.39593674247E+02  0.11211309485E+04  0.11465059297E+04  0.10566000000E+00 0. -1.
        994    1    1    2    0    0  0.27221135120E+03 -0.47756000544E+02  0.33887793376E+03  0.46960339575E+03  0.17120000000E+03 0.  0.
        998    1    1    2    0    0 -0.35624003875E+02  0.81623262969E+01  0.39991113969E+02  0.55090674521E+02  0.10000000000E+02 0. -1.
</event>
<event>
 5    1  0.5525569E-010  0.3862586E+03  0.7957747E-01  0.3424352E+00
         13   -1    0    0    0    0  0.00000000000E+00  0.00000000000E+00  0.14999999963E+04  0.15000000000E+04  0.10566000000E+00 0.  1.
        994   -1    0    0    0    0 -0.00000000000E+00 -0.00000000000E+00  0.11368683772E-12  0.17120000000E+03  0.17120000000E+03 0.  0.
         13    1    1    2    0    0 -0.21706674756E+03  0.67023391209E+02  0.12430510558E+04  0.12636399987E+04  0.10566000000E+00 0.  1.
        994    1    1    2    0    0  0.22147218330E+03 -0.68897991148E+02  0.20324823814E+03  0.35272673200E+03  0.17120000000E+03 0.  0.
        998    1    1    2    0    0 -0.44054357416E+01  0.18745999381E+01  0.53700702302E+02  0.54833269251E+02  0.10000000000E+02 0.  1.
</event>
<event>
 5    1  0.5525569E-010  0.3876575E+03  0.7957747E-01  0.3418479E+00
         13   -1    0    0    0    0  0.00000000000E+00  0.00000000000E+00  0.14999999963E+04  0.15000000000E+04  0.10566000000E+00 0. -1.
        994   -1    0    0    0    0 -0.00000000000E+00 -0.00000000000E+00  0.11368683772E-12  0.17120000000E+03  0.17120000000E+03 0.  0.
         13    1    1    2    0    0 -0.98106674464E+02 -0.65619206026E+02  0.56315044176E+03  0.57538615815E+03  0.10566000000E+00 0. -1.
        994    1    1    2    0    0  0.19158340036E+03  0.14549064431E+03  0.21944868848E+03  0.36788434833E+03  0.17120000000E+03 0.  0.
        998    1    1    2    0    0 -0.93476725893E+02 -0.79871438280E+02  0.71740086604E+03  0.72792949352E+03  0.10000000000E+02 0. -1.
</event>
<event>
 5    1  0.5525569E-010  0.3842159E+03  0.7957747E-01  0.3433004E+00
         13   -1    0    0    0    0  0.00000000000E+00  0.00000000000E+00  0.14999999963E+04  0.15000000000E+04  0.10566000000E+00 0. -1.
        994   -1    0    0    0    0 -0.00000000000E+00 -0.00000000000E+00  0.11368683772E-12  0.17120000000E+03  0.17120000000E+03 0.  0.
         13    1    1    2    0    0  0.20561233859E+02  0.14643592229E+02  0.13340745870E+03  0.13577466749E+03  0.10566000000E+00 0. -1.
        994    1    1    2    0    0 -0.76896668872E+02  0.31172056158E+02  0.25059305005E+02  0.19189112417E+03  0.17120000000E+03 0.  0.
        998    1    1    2    0    0  0.56335435013E+02 -0.45815648388E+02  0.13415332326E+04  0.13435342083E+04  0.10000000000E+02 0. -1.
</event>
<event>
 5    1  0.5525569E-010  0.3772968E+03  0.7957747E-01  0.3463014E+00
         13   -1    0    0    0    0  0.00000000000E+00  0.00000000000E+00  0.14999999963E+04  0.15000000000E+04  0.10566000000E+00 0. -1.
        994   -1    0    0    0    0 -0.00000000000E+00 -0.00000000000E+00  0.11368683772E-12  0.17120000000E+03  0.17120000000E+03 0.  0.
         13    1    1    2    0    0  0.77226350619E+02 -0.98094898660E+02  0.73935287104E+03  0.74981944324E+03  0.10566000000E+00 0. -1.
        994    1    1    2    0    0 -0.17910177590E+03  0.70645570672E+02  0.14291389220E+03  0.29462189900E+03  0.17120000000E+03 0.  0.
        998    1    1    2    0    0  0.10187542528E+03  0.27449327989E+02  0.61773323303E+03  0.62675865776E+03  0.10000000000E+02 0. -1.
</event>
<event>
 5    1  0.5525569E-010  0.3845329E+03  0.7957747E-01  0.3431656E+00
         13   -1    0    0    0    0  0.00000000000E+00  0.00000000000E+00  0.14999999963E+04  0.15000000000E+04  0.10566000000E+00 0.  1.
        994   -1    0    0    0    0 -0.00000000000E+00 -0.00000000000E+00  0.11368683772E-12  0.17120000000E+03  0.17120000000E+03 0.  0.
         13    1    1    2    0    0  0.11733056933E+03 -0.77292901267E+02  0.59149480128E+03  0.60795293090E+03  0.10566000000E+00 0.  1.
        994    1    1    2    0    0 -0.23982397983E+03  0.85578759355E+02  0.25714022437E+03  0.40033710838E+03  0.17120000000E+03 0.  0.
        998    1    1    2    0    0  0.12249341051E+03 -0.82858580881E+01  0.65136497063E+03  0.66290996072E+03  0.10000000000E+02 0. -1.
</event>
<event>
 5    1  0.5525569E-010  0.3858883E+03  0.7957747E-01  0.3425914E+00
         13   -1    0    0    0    0  0.00000000000E+00  0.00000000000E+00  0.14999999963E+04  0.15000000000E+04  0.10566000000E+00 0.  1.
        994   -1    0    0    0    0 -0.00000000000E+00 -0.00000000000E+00  0.11368683772E-12  0.17120000000E+03  0.17120000000E+03 0.  0.
         13    1    1    2    0    0 -0.83487669845E+02 -0.25020932831E+03  0.97506443357E+03  0.10101116571E+04  0.10566000000E+00 0.  1.
        994    1    1    2    0    0  0.10311071906E+03  0.27118300947E+03  0.35866434144E+03  0.49205852785E+03  0.17120000000E+03 0.  0.
        998    1    1    2    0    0 -0.19623049211E+02 -0.20973681156E+02  0.16627122127E+03  0.16902981507E+03  0.10000000000E+02 0. -1.
</event>
<event>
 5    1  0.5525569E-010  0.3836867E+03  0.7957747E-01  0.3435261E+00
         13   -1    0    0    0    0  0.00000000000E+00  0.00000000000E+00  0.14999999963E+04  0.15000000000E+04  0.10566000000E+00 0. -1.
        994   -1    0    0    0    0 -0.00000000000E+00 -0.00000000000E+00  0.11368683772E-12  0.17120000000E+03  0.17120000000E+03 0.  0.
         13    1    1    2    0    0  0.58111518549E+02 -0.14055932496E+03  0.65505049887E+03  0.67247679488E+03  0.10566000000E+00 0. -1.
        994    1    1    2    0    0 -0.57634064249E+02  0.22134676455E+03  0.20021981200E+03  0.34887460305E+03  0.17120000000E+03 0.  0.
        998    1    1    2    0    0 -0.47745430091E+00 -0.80787439588E+02  0.64472968541E+03  0.64984860206E+03  0.10000000000E+02 0.  1.
</event>
<event>
 5    1  0.5525569E-010  0.3809601E+03  0.7957747E-01  0.3446989E+00
         13   -1    0    0    0    0  0.00000000000E+00  0.00000000000E+00  0.14999999963E+04  0.15000000000E+04  0.10566000000E+00 0.  1.
        994   -1    0    0    0    0 -0.00000000000E+00 -0.00000000000E+00  0.11368683772E-12  0.17120000000E+03  0.17120000000E+03 0.  0.
         13    1    1    2    0    0 -0.48972389702E+02 -0.68009246059E+01  0.22026513675E+03  0.22574607230E+03  0.10566000000E+00 0.  1.
        994    1    1    2    0    0  0.11704871288E+03  0.19130408173E+03  0.19496343517E+03  0.34295456540E+03  0.17120000000E+03 0.  0.
        998    1    1    2    0    0 -0.68076323180E+02 -0.18450315712E+03  0.10847714244E+04  0.11024993623E+04  0.10000000000E+02 0.  1.
</event>
<event>
 5    1  0.5525569E-010  0.3860624E+03  0.7957747E-01  0.3425179E+00
         13   -1    0    0    0    0  0.00000000000E+00  0.00000000000E+00  0.14999999963E+04  0.15000000000E+04  0.10566000000E+00 0.  1.
        994   -1    0    0    0    0 -0.00000000000E+00 -0.00000000000E+00  0.11368683772E-12  0.17120000000E+03  0.17120000000E+03 0.  0.
         13    1    1    2    0    0 -0.95888493359E+02 -0.61006145981E+02  0.66736771669E+03  0.67697565204E+03  0.10566000000E+00 0.  1.
        994    1    1    2    0    0  0.14613314908E+03  0.10255703576E+03  0.11362922926E+03  0.27220191877E+03  0.17120000000E+03 0.  0.
        998    1    1    2    0    0 -0.50244655716E+02 -0.41550889777E+02  0.71900305033E+03  0.72202242919E+03  0.10000000000E+02 0.  1.
</event>
<event>
 5    1  0.5525569E-010  0.3857801E+03  0.7957747E-01  0.3426370E+00
         13   -1    0    0    0    0  0.00000000000E+00  0.00000000000E+00  0.14999999963E+04  0.15000000000E+04  0.10566000000E+00 0.  1.
        994   -1    0    0    0    0 -0.00000000000E+00 -0.00000000000E+00  0.11368683772E-12  0.17120000000E+03  0.17120000000E+03 0.  0.
         13    1    1    2    0    0 -0.13182594065E+01 -0.12308484251E+02  0.42254053145E+02  0.44030134722E+02  0.10566000000E+00 0.  1.
        994    1    1    2    0    0  0.74093426952E+02  0.74114954494E+02  0.38138979980E+02  0.20432054275E+03  0.17120000000E+03 0.  0.
        998    1    1    2    0    0 -0.72775167545E+02 -0.61806470243E+02  0.14196069632E+04  0.14228493225E+04  0.10000000000E+02 0.  1.
</event>
<event>
 5    1  0.5525569E-010  0.3752497E+03  0.7957747E-01  0.3472107E+00
         13   -1    0    0    0    0  0.00000000000E+00  0.00000000000E+00  0.14999999963E+04  0.15000000000E+04  0.10566000000E+00 0.  1.
        994   -1    0    0    0    0 -0.00000000000E+00 -0.00000000000E+00  0.11368683772E-12  0.17120000000E+03  0.17120000000E+03 0.  0.
         13    1    1    2    0    0 -0.89968089119E+02  0.19016529331E+03  0.12695002558E+04  0.12868131203E+04  0.10566000000E+00 0.  1.
        994    1    1    2    0    0  0.11399558392E+03 -0.18616364848E+03  0.19061312268E+03  0.33659278024E+03  0.17120000000E+03 0.  0.
        998    1    1    2    0    0 -0.24027494806E+02 -0.40016448326E+01  0.39886617807E+02  0.47794099511E+02  0.10000000000E+02 0.  0.
</event>
<event>
 5    1  0.5525569E-010  0.3818682E+03  0.7957747E-01  0.3443064E+00
         13   -1    0    0    0    0  0.00000000000E+00  0.00000000000E+00  0.14999999963E+04  0.15000000000E+04  0.10566000000E+00 0. -1.
        994   -1    0    0    0    0 -0.00000000000E+00 -0.00000000000E+00  0.11368683772E-12  0.17120000000E+03  0.17120000000E+03 0.  0.
         13    1    1    2    0    0  0.10177899780E+03  0.49678953885E+02  0.64790527501E+03  0.65772959444E+03  0.10566000000E+00 0. -1.
        994    1    1    2    0    0 -0.11715506089E+03 -0.12801165110E+03  0.11070126032E+03  0.26772467228E+03  0.17120000000E+03 0.  0.
        998    1    1    2    0    0  0.15376063094E+02  0.78332697211E+02  0.74139346095E+03  0.74574573329E+03  0.10000000000E+02 0. -1.
</event>
<event>
 5    1  0.5525569E-010  0.3859596E+03  0.7957747E-01  0.3425612E+00
         13   -1    0    0    0    0  0.00000000000E+00  0.00000000000E+00  0.14999999963E+04  0.15000000000E+04  0.10566000000E+00 0.  1.
        994   -1    0    0    0    0 -0.00000000000E+00 -0.00000000000E+00  0.11368683772E-12  0.17120000000E+03  0.17120000000E+03 0.  0.
         13    1    1    2    0    0  0.12806119732E+02 -0.48004943534E+01  0.74005036228E+02  0.75258208853E+02  0.10566000000E+00 0.  1.
        994    1    1    2    0    0 -0.32343604500E+01  0.81417644260E+02  0.23231659113E+02  0.19101948558E+03  0.17120000000E+03 0.  0.
        998    1    1    2    0    0 -0.95717592820E+01 -0.76617149906E+02  0.14027633009E+04  0.14049223056E+04  0.10000000000E+02 0.  1.
</event>
<event>
 5    1  0.5525569E-010  0.3843318E+03  0.7957747E-01  0.3432511E+00
         13   -1    0    0    0    0  0.00000000000E+00  0.00000000000E+00  0.14999999963E+04  0.15000000000E+04  0.10566000000E+00 0.  1.
        994   -1    0    0    0    0 -0.00000000000E+00 -0.00000000000E+00  0.11368683772E-12  0.17120000000E+03  0.17120000000E+03 0.  0.
         13    1    1    2    0    0  0.71376131215E+02 -0.42642342128E+02  0.48533866961E+03  0.49240893253E+03  0.10566000000E+00 0.  1.
        994    1    1    2    0    0 -0.15860245002E+03  0.31020645962E+02  0.93393520144E+02  0.25327614817E+03  0.17120000000E+03 0.  0.
        998    1    1    2    0    0  0.87226318802E+02  0.11621696166E+02  0.92126780652E+03  0.92551491930E+03  0.10000000000E+02 0.  1.
</event>
<event>
 5    1  0.5525569E-010  0.3868356E+03  0.7957747E-01  0.3421924E+00
         13   -1    0    0    0    0  0.00000000000E+00  0.00000000000E+00  0.14999999963E+04  0.15000000000E+04  0.10566000000E+00 0.  1.
        994   -1    0    0    0    0 -0.00000000000E+00 -0.00000000000E+00  0.11368683772E-12  0.17120000000E+03  0.17120000000E+03 0.  0.
         13    1    1    2    0    0 -0.12688916576E+03 -0.10102751919E+03  0.90764296246E+03  0.92202124622E+03  0.10566000000E+00 0.  1.
        994    1    1    2    0    0  0.19882447540E+03  0.12264858742E+03  0.20588442982E+03  0.35534727585E+03  0.17120000000E+03 0.  0.
        998    1    1    2    0    0 -0.71935309641E+02 -0.21621068227E+02  0.38647260400E+03  0.39383147792E+03  0.10000000000E+02 0.  1.
</event>
<event>
 5    1  0.5525569E-010  0.3569764E+03  0.7957747E-01  0.3557973E+00
         13   -1    0    0    0    0  0.00000000000E+00  0.00000000000E+00  0.14999999963E+04  0.15000000000E+04  0.10566000000E+00 0.  1.
        994   -1    0    0    0    0 -0.00000000000E+00 -0.00000000000E+00  0.11368683772E-12  0.17120000000E+03  0.17120000000E+03 0.  0.
         13    1    1    2    0    0 -0.50968876017E+02 -0.30026368122E+03  0.60269107587E+03  0.67527227744E+03  0.10566000000E+00 0.  1.
        994    1    1    2    0    0  0.99376604808E+02  0.30923786384E+03  0.67903167352E+03  0.77194379307E+03  0.17120000000E+03 0.  0.
        998    1    1    2    0    0 -0.48407728792E+02 -0.89741826206E+01  0.21827724689E+03  0.22398392949E+03  0.10000000000E+02 0.  1.
</event>
<event>
 5    1  0.5525569E-010  0.3866686E+03  0.7957747E-01  0.3422626E+00
         13   -1    0    0    0    0  0.00000000000E+00  0.00000000000E+00  0.14999999963E+04  0.15000000000E+04  0.10566000000E+00 0.  1.
        994   -1    0    0    0    0 -0.00000000000E+00 -0.00000000000E+00  0.11368683772E-12  0.17120000000E+03  0.17120000000E+03 0.  0.
         13    1    1    2    0    0 -0.20187949836E+03 -0.12640454882E+03  0.11770795598E+04  0.12009370271E+04  0.10566000000E+00 0.  1.
        994    1    1    2    0    0  0.21881868178E+03  0.13035990670E+03  0.25366354513E+03  0.39815820336E+03  0.17120000000E+03 0.  0.
        998    1    1    2    0    0 -0.16939183416E+02 -0.39553578847E+01  0.69256891386E+02  0.72104769573E+02  0.10000000000E+02 0.  0.
</event>
<event>
 5    1  0.5525569E-010  0.3877112E+03  0.7957747E-01  0.3418254E+00
         13   -1    0    0    0    0  0.00000000000E+00  0.00000000000E+00  0.14999999963E+04  0.15000000000E+04  0.10566000000E+00 0. -1.
        994   -1    0    0    0    0 -0.00000000000E+00 -0.00000000000E+00  0.11368683772E-12  0.17120000000E+03  0.17120000000E+03 0.  0.
         13    1    1    2    0    0 -0.10487453985E+03  0.14767343382E+03  0.93815419087E+03  0.95547862832E+03  0.10566000000E+00 0. -1.
        994    1    1    2    0    0  0.14747132026E+03 -0.20686185761E+03  0.25030312051E+03  0.39560170699E+03  0.17120000000E+03 0.  0.
        998    1    1    2    0    0 -0.42596780410E+02  0.59188423790E+02  0.31154268490E+03  0.32011966470E+03  0.10000000000E+02 0.  0.
</event>
<event>
 5    1  0.5533717E-010  0.3853252E+03  0.7957747E-01  0.3428294E+00
         13   -1    0    0    0    0  0.00000000000E+00  0.00000000000E+00  0.14999999963E+04  0.15000000000E+04  0.10566000000E+00 0. -1.
        994   -1    0    0    0    0 -0.00000000000E+00 -0.00000000000E+00  0.11368683772E-12  0.17120000000E+03  0.17120000000E+03 0.  0.
         13    1    1    2    0    0 -0.11711347414E+02 -0.19909177134E+01  0.55503621903E+02  0.56760748938E+02  0.10566000000E+00 0. -1.
        994    1    1    2    0    0  0.26278837887E+01 -0.68281848729E+02  0.16961566143E+02  0.18511199682E+03  0.17120000000E+03 0.  0.
        998    1    1    2    0    0  0.90834636256E+01  0.70272766442E+02  0.14275348082E+04  0.14293272542E+04  0.10000000000E+02 0. -1.
</event>
<event>
 5    1  0.5525569E-010  0.3862548E+03  0.7957747E-01  0.3424368E+00
         13   -1    0    0    0    0  0.00000000000E+00  0.00000000000E+00  0.14999999963E+04  0.15000000000E+04  0.10566000000E+00 0. -1.
        994   -1    0    0    0    0 -0.00000000000E+00 -0.00000000000E+00  0.11368683772E-12  0.17120000000E+03  0.17120000000E+03 0.  0.
         13    1    1    2    0    0  0.36793333692E+02 -0.21210446080E+03  0.10493533980E+04  0.10712070839E+04  0.10566000000E+00 0. -1.
        994    1    1    2    0    0 -0.53926707574E+02  0.23644562135E+03  0.22582579165E+03  0.37298974492E+03  0.17120000000E+03 0.  0.
        998    1    1    2    0    0  0.17133373882E+02 -0.24341160543E+02  0.22482080668E+03  0.22700317115E+03  0.10000000000E+02 0. -1.
</event>
<event>
 5    1  0.5525569E-010  0.3874077E+03  0.7957747E-01  0.3419525E+00
         13   -1    0    0    0    0  0.00000000000E+00  0.00000000000E+00  0.14999999963E+04  0.15000000000E+04  0.10566000000E+00 0. -1.
        994   -1    0    0    0    0 -0.00000000000E+00 -0.00000000000E+00  0.11368683772E-12  0.17120000000E+03  0.17120000000E+03 0.  0.
         13    1    1    2    0    0  0.17175968938E+03  0.16598228473E+03  0.11330656618E+04  0.11579677521E+04  0.10566000000E+00 0. -1.
        994    1    1    2    0    0 -0.18461545917E+03 -0.18263211898E+03  0.26485000762E+03  0.40852457109E+03  0.17120000000E+03 0.  0.
        998    1    1    2    0    0  0.12855769781E+02  0.16649834253E+02  0.10208432681E+03  0.10470767679E+03  0.10000000000E+02 0.  0.
</event>
<event>
 5    1  0.5525569E-010  0.3836626E+03  0.7957747E-01  0.3435364E+00
         13   -1    0    0    0    0  0.00000000000E+00  0.00000000000E+00  0.14999999963E+04  0.15000000000E+04  0.10566000000E+00 0. -1.
        994   -1    0    0    0    0 -0.00000000000E+00 -0.00000000000E+00  0.11368683772E-12  0.17120000000E+03  0.17120000000E+03 0.  0.
         13    1    1    2    0    0 -0.76804024701E+01  0.30847615498E+02  0.13257197340E+03  0.13633012602E+03  0.10566000000E+00 0. -1.
        994    1    1    2    0    0  0.18360843408E+02 -0.87736308274E+02  0.29302269187E+02  0.19545547662E+03  0.17120000000E+03 0.  0.
        998    1    1    2    0    0 -0.10680440938E+02  0.56888692776E+02  0.13381257537E+04  0.13394143974E+04  0.10000000000E+02 0. -1.
</event>
<event>
 5    1  0.5525569E-010  0.3816674E+03  0.7957747E-01  0.3443930E+00
         13   -1    0    0    0    0  0.00000000000E+00  0.00000000000E+00  0.14999999963E+04  0.15000000000E+04  0.10566000000E+00 0.  1.
        994   -1    0    0    0    0 -0.00000000000E+00 -0.00000000000E+00  0.11368683772E-12  0.17120000000E+03  0.17120000000E+03 0.  0.
         13    1    1    2    0    0 -0.29706319677E+02  0.21884832611E+01  0.16533715610E+03  0.16799893226E+03  0.10566000000E+00 0.  1.
        994    1    1    2    0    0  0.10175733844E+02 -0.13324994462E+03  0.65138902240E+02  0.22674128403E+03  0.17120000000E+03 0.  0.
        998    1    1    2    0    0  0.19530585833E+02  0.13106146136E+03  0.12695239379E+04  0.12764597837E+04  0.10000000000E+02 0.  1.
</event>
<event>
 5    1  0.5525569E-010  0.3881151E+03  0.7957747E-01  0.3416567E+00
         13   -1    0    0    0    0  0.00000000000E+00  0.00000000000E+00  0.14999999963E+04  0.15000000000E+04  0.10566000000E+00 0. -1.
        994   -1    0    0    0    0 -0.00000000000E+00 -0.00000000000E+00  0.11368683772E-12  0.17120000000E+03  0.17120000000E+03 0.  0.
         13    1    1    2    0    0  0.56521063466E+02 -0.40499724746E+02  0.28688104530E+03  0.29518740426E+03  0.10566000000E+00 0. -1.
        994    1    1    2    0    0 -0.21705558340E+03  0.16254997553E+03  0.29428937997E+03  0.43526003721E+03  0.17120000000E+03 0.  0.
        998    1    1    2    0    0  0.16053451994E+03 -0.12205025079E+03  0.91882957101E+03  0.94075255852E+03  0.10000000000E+02 0. -1.
</event>
<event>
 5    1  0.5525569E-010  0.3873100E+03  0.7957747E-01  0.3419934E+00
         13   -1    0    0    0    0  0.00000000000E+00  0.00000000000E+00  0.14999999963E+04  0.15000000000E+04  0.10566000000E+00 0. -1.
        994   -1    0    0    0    0 -0.00000000000E+00 -0.00000000000E+00  0.11368683772E-12  0.17120000000E+03  0.17120000000E+03 0.  0.
         13    1    1    2    0    0  0.16908036508E+03  0.37296408224E+02  0.10219183783E+04  0.10364826940E+04  0.10566000000E+00 0. -1.
        994    1    1    2    0    0 -0.20479937659E+03 -0.56535008762E+02  0.16500651340E+03  0.31886608683E+03  0.17120000000E+03 0.  0.
        998    1    1    2    0    0  0.35719011508E+02  0.19238600538E+02  0.31307510457E+03  0.31585121914E+03  0.10000000000E+02 0.  0.
</event>
<event>
 5    1  0.5525569E-010  0.3862292E+03  0.7957747E-01  0.3424476E+00
         13   -1    0    0    0    0  0.00000000000E+00  0.00000000000E+00  0.14999999963E+04  0.15000000000E+04  0.10566000000E+00 0.  1.
        994   -1    0    0    0    0 -0.00000000000E+00 -0.00000000000E+00  0.11368683772E-12  0.17120000000E+03  0.17120000000E+03 0.  0.
         13    1    1    2    0    0  0.51528357057E+02  0.11246120851E+02  0.30285404833E+03  0.30741215423E+03  0.10566000000E+00 0.  1.
        994    1    1    2    0    0 -0.13738680086E+03 -0.56443167494E+02  0.76955513927E+02  0.23935863329E+03  0.17120000000E+03 0.  0.
        998    1    1    2    0    0  0.85858443804E+02  0.45197046643E+02  0.11201904340E+04  0.11244292125E+04  0.10000000000E+02 0.  1.
</event>
<event>
 5    1  0.5525569E-010  0.3868251E+03  0.7957747E-01  0.3421968E+00
         13   -1    0    0    0    0  0.00000000000E+00  0.00000000000E+00  0.14999999963E+04  0.15000000000E+04  0.10566000000E+00 0.  1.
        994   -1    0    0    0    0 -0.00000000000E+00 -0.00000000000E+00  0.11368683772E-12  0.17120000000E+03  0.17120000000E+03 0.  0.
         13    1    1    2    0    0  0.98941486289E+01  0.39114061637E+01  0.60830690151E+02  0.61754168309E+02  0.10566000000E+00 0.  1.
        994    1    1    2    0    0 -0.38593168978E+02 -0.97369916802E+01  0.59232554957E+01  0.17586576317E+03  0.17120000000E+03 0.  0.
        998    1    1    2    0    0  0.28699020349E+02  0.58255855165E+01  0.14332460506E+04  0.14335800685E+04  0.10000000000E+02 0.  1.
</event>
<event>
 5    1  0.5525569E-010  0.3840961E+03  0.7957747E-01  0.3433515E+00
         13   -1    0    0    0    0  0.00000000000E+00  0.00000000000E+00  0.14999999963E+04  0.15000000000E+04  0.10566000000E+00 0.  1.
        994   -1    0    0    0    0 -0.00000000000E+00 -0.00000000000E+00  0.11368683772E-12  0.17120000000E+03  0.17120000000E+03 0.  0.
         13    1    1    2    0    0 -0.19871312744E+03 -0.47232793220E+02  0.10378131228E+04  0.10577211035E+04  0.10566000000E+00 0.  1.
        994    1    1    2    0    0  0.23261903931E+03  0.24398395394E+02  0.21032207739E+03  0.35812248657E+03  0.17120000000E+03 0.  0.
        998    1    1    2    0    0 -0.33905911873E+02  0.22834397825E+02  0.25186479613E+03  0.25535640997E+03  0.10000000000E+02 0. -1.
</event>
<event>
 5    1  0.5525569E-010  0.3854465E+03  0.7957747E-01  0.3427781E+00
         13   -1    0    0    0    0  0.00000000000E+00  0.00000000000E+00  0.14999999963E+04  0.15000000000E+04  0.10566000000E+00 0. -1.
        994   -1    0    0    0    0 -0.00000000000E+00 -0.00000000000E+00  0.11368683772E-12  0.17120000000E+03  0.17120000000E+03 0.  0.
         13    1    1    2    0    0 -0.15701025317E+02 -0.21383115643E+02  0.12426935303E+03  0.12706944202E+03  0.10566000000E+00 0. -1.
        994    1    1    2    0    0  0.27844916034E+02  0.10825063980E+03  0.43570776883E+02  0.20904878130E+03  0.17120000000E+03 0.  0.
        998    1    1    2    0    0 -0.12143890717E+02 -0.86867524159E+02  0.13321598664E+04  0.13350817767E+04  0.10000000000E+02 0. -1.
</event>
<event>
 5    1  0.5525569E-010  0.3810216E+03  0.7957747E-01  0.3446722E+00
         13   -1    0    0    0    0  0.00000000000E+00  0.00000000000E+00  0.14999999963E+04  0.15000000000E+04  0.10566000000E+00 0.  1.
        994   -1    0    0    0    0 -0.00000000000E+00 -0.00000000000E+00  0.11368683772E-12  0.17120000000E+03  0.17120000000E+03 0.  0.
         13    1    1    2    0    0 -0.29476393870E+02 -0.87094791521E+02  0.44523428125E+03  0.45462945007E+03  0.10566000000E+00 0.  1.
        994    1    1    2    0    0 -0.54790047168E+02  0.25096066567E+03  0.26908924722E+03  0.40951394110E+03  0.17120000000E+03 0.  0.
        998    1    1    2    0    0  0.84266441038E+02 -0.16386587415E+03  0.78567646781E+03  0.80705660883E+03  0.10000000000E+02 0.  1.
</event>
<event>
 5    1  0.5525569E-010  0.3857890E+03  0.7957747E-01  0.3426333E+00
         13   -1    0    0    0    0  0.00000000000E+00  0.00000000000E+00  0.14999999963E+04  0.15000000000E+04  0.10566000000E+00 0. -1.
        994   -1    0    0    0    0 -0.00000000000E+00 -0.00000000000E+00  0.11368683772E-12  0.17120000000E+03  0.17120000000E+03 0.  0.
         13    1    1    2    0    0 -0.87643120977E+02 -0.73487683167E+02  0.67584012496E+03  0.68544995579E+03  0.10566000000E+00 0. -1.
        994    1    1    2    0    0  0.14506296108E+03  0.10075496563E+03  0.11128837698E+03  0.26998031156E+03  0.17120000000E+03 0.  0.
        998    1    1    2    0    0 -0.57419840105E+02 -0.27267282467E+02  0.71287149434E+03  0.71576973265E+03  0.10000000000E+02 0. -1.
</event>
<event>
 5    1  0.5525569E-010  0.3880158E+03  0.7957747E-01  0.3416982E+00
         13   -1    0    0    0    0  0.00000000000E+00  0.00000000000E+00  0.14999999963E+04  0.15000000000E+04  0.10566000000E+00 0.  1.
        994   -1    0    0    0    0 -0.00000000000E+00 -0.00000000000E+00  0.11368683772E-12  0.17120000000E+03  0.17120000000E+03 0.  0.
         13    1    1    2    0    0  0.10898497188E+03 -0.29544983902E+01  0.58920215476E+03  0.59920417513E+03  0.10566000000E+00 0.  1.
        994    1    1    2    0    0 -0.24926539374E+03  0.10663582377E+02  0.23898657957E+03  0.38557875165E+03  0.17120000000E+03 0.  0.
        998    1    1    2    0    0  0.14028042186E+03 -0.77090839865E+01  0.67181126194E+03  0.68641707322E+03  0.10000000000E+02 0.  1.
</event>
<event>
 5    1  0.5525569E-010  0.3736129E+03  0.7957747E-01  0.3479450E+00
         13   -1    0    0    0    0  0.00000000000E+00  0.00000000000E+00  0.14999999963E+04  0.15000000000E+04  0.10566000000E+00 0. -1.
        994   -1    0    0    0    0 -0.00000000000E+00 -0.00000000000E+00  0.11368683772E-12  0.17120000000E+03  0.17120000000E+03 0.  0.
         13    1    1    2    0    0 -0.33395403674E+02  0.96489156579E+02  0.43935800549E+03  0.45106637924E+03  0.10566000000E+00 0. -1.
        994    1    1    2    0    0 -0.76049183214E+02 -0.18259028706E+03  0.15557336198E+03  0.30436031633E+03  0.17120000000E+03 0.  0.
        998    1    1    2    0    0  0.10944458689E+03  0.86101130485E+02  0.90506862880E+03  0.91577330443E+03  0.10000000000E+02 0. -1.
</event>
<event>
 5    1  0.5525569E-010  0.3880084E+03  0.7957747E-01  0.3417012E+00
         13   -1    0    0    0    0  0.00000000000E+00  0.00000000000E+00  0.14999999963E+04  0.15000000000E+04  0.10566000000E+00 0. -1.
        994   -1    0    0    0    0 -0.00000000000E+00 -0.00000000000E+00  0.11368683772E-12  0.17120000000E+03  0.17120000000E+03 0.  0.
         13    1    1    2    0    0  0.45706549301E+02  0.64879729027E+02  0.47249566821E+03  0.47911442843E+03  0.10566000000E+00 0. -1.
        994    1    1    2    0    0 -0.10782697471E+03 -0.19114091941E+03  0.17674939131E+03  0.32971395917E+03  0.17120000000E+03 0.  0.
        998    1    1    2    0    0  0.62120425406E+02  0.12626119038E+03  0.85075493676E+03  0.86237161239E+03  0.10000000000E+02 0. -1.
</event>
<event>
 5    1  0.5525569E-010  0.3879227E+03  0.7957747E-01  0.3417371E+00
         13   -1    0    0    0    0  0.00000000000E+00  0.00000000000E+00  0.14999999963E+04  0.15000000000E+04  0.10566000000E+00 0. -1.
        994   -1    0    0    0    0 -0.00000000000E+00 -0.00000000000E+00  0.11368683772E-12  0.17120000000E+03  0.17120000000E+03 0.  0.
         13    1    1    2    0    0  0.12686600946E+03 -0.44693840849E+02  0.79461560211E+03  0.80591965484E+03  0.10566000000E+00 0. -1.
        994    1    1    2    0    0 -0.20949891277E+03  0.60362940574E+02  0.17422387336E+03  0.32740934180E+03  0.17120000000E+03 0.  0.
        998    1    1    2    0    0  0.82632903316E+02 -0.15669099725E+02  0.53116052081E+03  0.53787100337E+03  0.10000000000E+02 0. -1.
</event>
<event>
 5    1  0.5525569E-010  0.3862323E+03  0.7957747E-01  0.3424463E+00
         13   -1    0    0    0    0  0.00000000000E+00  0.00000000000E+00  0.14999999963E+04  0.15000000000E+04  0.10566000000E+00 0.  1.
        994   -1    0    0    0    0 -0.00000000000E+00 -0.00000000000E+00  0.11368683772E-12  0.17120000000E+03  0.17120000000E+03 0.  0.
         13    1    1    2    0    0  0.83587015708E+02 -0.21730338915E+03  0.11582569160E+04  0.11814256839E+04  0.10566000000E+00 0.  1.
        994    1    1    2    0    0 -0.90347561974E+02  0.22509202685E+03  0.22592630450E+03  0.37307001698E+03  0.17120000000E+03 0.  0.
        998    1    1    2    0    0  0.67605462660E+01 -0.77886377007E+01  0.11581677583E+03  0.11670429909E+03  0.10000000000E+02 0.  1.
</event>
<event>
 5    1  0.5525569E-010  0.3846859E+03  0.7957747E-01  0.3431005E+00
         13   -1    0    0    0    0  0.00000000000E+00  0.00000000000E+00  0.14999999963E+04  0.15000000000E+04  0.10566000000E+00 0. -1.
        994   -1    0    0    0    0 -0.00000000000E+00 -0.00000000000E+00  0.11368683772E-12  0.17120000000E+03  0.17120000000E+03 0.  0.
         13    1    1    2    0    0 -0.78683217746E+02  0.20326221561E+01  0.43268471578E+03  0.43978546445E+03  0.10566000000E+00 0. -1.
        994    1    1    2    0    0  0.14905514468E+03  0.11326100746E+01  0.78717045585E+02  0.24025930206E+03  0.17120000000E+03 0.  0.
        998    1    1    2    0    0 -0.70371926937E+02 -0.31652322307E+01  0.98859823491E+03  0.99115523349E+03  0.10000000000E+02 0. -1.
</event>
<event>
 5    1  0.5525569E-010  0.3845752E+03  0.7957747E-01  0.3431476E+00
         13   -1    0    0    0    0  0.00000000000E+00  0.00000000000E+00  0.14999999963E+04  0.15000000000E+04  0.10566000000E+00 0.  1.
        994   -1    0    0    0    0 -0.00000000000E+00 -0.00000000000E+00  0.11368683772E-12  0.17120000000E+03  0.17120000000E+03 0.  0.
         13    1    1    2    0    0 -0.33009811278E+01 -0.24264408004E+02  0.10228889809E+03  0.10517931265E+03  0.10566000000E+00 0.  1.
        994    1    1    2    0    0 -0.61781927832E+02  0.98671109175E+02  0.47827116436E+02  0.21248498173E+03  0.17120000000E+03 0.  0.
        998    1    1    2    0    0  0.65082908960E+02 -0.74406701171E+02  0.13498839818E+04  0.13535357056E+04  0.10000000000E+02 0.  1.
</event>
<event>
 5    1  0.5525569E-010  0.3686947E+03  0.7957747E-01  0.3501912E+00
         13   -1    0    0    0    0  0.00000000000E+00  0.00000000000E+00  0.14999999963E+04  0.15000000000E+04  0.10566000000E+00 0.  1.
        994   -1    0    0    0    0 -0.00000000000E+00 -0.00000000000E+00  0.11368683772E-12  0.17120000000E+03  0.17120000000E+03 0.  0.
         13    1    1    2    0    0  0.10192495027E+03  0.17649829569E+03  0.12011754877E+04  0.12183443303E+04  0.10566000000E+00 0.  1.
        994    1    1    2    0    0 -0.87769873805E+02 -0.21301605744E+03  0.21121719792E+03  0.35637274892E+03  0.17120000000E+03 0.  0.
        998    1    1    2    0    0 -0.14155076463E+02  0.36517761750E+02  0.87607310680E+02  0.96482920756E+02  0.10000000000E+02 0.  0.
</event>
<event>
 5    1  0.5525569E-010  0.3802636E+03  0.7957747E-01  0.3450011E+00
         13   -1    0    0    0    0  0.00000000000E+00  0.00000000000E+00  0.14999999963E+04  0.15000000000E+04  0.10566000000E+00 0. -1.
        994   -1    0    0    0    0 -0.00000000000E+00 -0.00000000000E+00  0.11368683772E-12  0.17120000000E+03  0.17120000000E+03 0.  0.
         13    1    1    2    0    0  0.15491668660E+02 -0.84514134319E+02  0.26188453283E+03  0.27561957550E+03  0.10566000000E+00 0. -1.
        994    1    1    2    0    0  0.35362057778E+02  0.22832797604E+03  0.20979604867E+03  0.35596061834E+03  0.17120000000E+03 0.  0.
        998    1    1    2    0    0 -0.50853726438E+02 -0.14381384172E+03  0.10283194148E+04  0.10396198062E+04  0.10000000000E+02 0. -1.
</event>
<event>
 5    1  0.5525569E-010  0.3877265E+03  0.7957747E-01  0.3418190E+00
         13   -1    0    0    0    0  0.00000000000E+00  0.00000000000E+00  0.14999999963E+04  0.15000000000E+04  0.10566000000E+00 0.  1.
        994   -1    0    0    0    0 -0.00000000000E+00 -0.00000000000E+00  0.11368683772E-12  0.17120000000E+03  0.17120000000E+03 0.  0.
         13    1    1    2    0    0  0.38996014812E+02  0.21523693252E+03  0.10510007364E+04  0.10735223264E+04  0.10566000000E+00 0.  1.
        994    1    1    2    0    0 -0.44325860723E+02 -0.25752538746E+03  0.26845178257E+03  0.41189793236E+03  0.17120000000E+03 0.  0.
        998    1    1    2    0    0  0.53298459106E+01  0.42288454945E+02  0.18054747732E+03  0.18577974122E+03  0.10000000000E+02 0.  1.
</event>
<event>
 5    1  0.5525569E-010  0.3859963E+03  0.7957747E-01  0.3425458E+00
         13   -1    0    0    0    0  0.00000000000E+00  0.00000000000E+00  0.14999999963E+04  0.15000000000E+04  0.10566000000E+00 0.  1.
        994   -1    0    0    0    0 -0.00000000000E+00 -0.00000000000E+00  0.11368683772E-12  0.17120000000E+03  0.17120000000E+03 0.  0.
         13    1    1    2    0    0 -0.22362592318E+03 -0.14254698978E+03  0.80649725137E+03  0.84897940225E+03  0.10566000000E+00 0.  1.
        994    1    1    2    0    0  0.26612466101E+03  0.19302234163E+03  0.54147474134E+03  0.65618922201E+03  0.17120000000E+03 0.  0.
        998    1    1    2    0    0 -0.42498737838E+02 -0.50475351849E+02  0.15202800356E+03  0.16603137574E+03  0.10000000000E+02 0.  1.
</event>
<event>
 5    1  0.5525569E-010  0.3875179E+03  0.7957747E-01  0.3419063E+00
         13   -1    0    0    0    0  0.00000000000E+00  0.00000000000E+00  0.14999999963E+04  0.15000000000E+04  0.10566000000E+00 0.  1.
        994   -1    0    0    0    0 -0.00000000000E+00 -0.00000000000E+00  0.11368683772E-12  0.17120000000E+03  0.17120000000E+03 0.  0.
         13    1    1    2    0    0 -0.12219359232E+03  0.16989593991E+03  0.98359700621E+03  0.10056137361E+04  0.10566000000E+00 0.  1.
        994    1    1    2    0    0  0.16028966316E+03 -0.20245656042E+03  0.26095930183E+03  0.40508101929E+03  0.17120000000E+03 0.  0.
        998    1    1    2    0    0 -0.38096070841E+02  0.32560620513E+02  0.25544368824E+03  0.26050524463E+03  0.10000000000E+02 0.  0.
</event>
<event>
 5    1  0.5525569E-010  0.3812871E+03  0.7957747E-01  0.3445573E+00
         13   -1    0    0    0    0  0.00000000000E+00  0.00000000000E+00  0.14999999963E+04  0.15000000000E+04  0.10566000000E+00 0.  1.
        994   -1    0    0    0    0 -0.00000000000E+00 -0.00000000000E+00  0.11368683772E-12  0.17120000000E+03  0.17120000000E+03 0.  0.
         13    1    1    2    0    0 -0.74169976267E+02  0.99693161370E+02  0.55614935783E+03  0.56986141402E+03  0.10566000000E+00 0.  1.
        994    1    1    2    0    0 -0.61051301731E+02 -0.14197245060E+03  0.11008316696E+03  0.25556052477E+03  0.17120000000E+03 0.  0.
        998    1    1    2    0    0  0.13522127800E+03  0.42279289231E+02  0.83376747149E+03  0.84577806121E+03  0.10000000000E+02 0.  1.
</event>
<event>
 5    1  0.5525569E-010  0.3855834E+03  0.7957747E-01  0.3427202E+00
         13   -1    0    0    0    0  0.00000000000E+00  0.00000000000E+00  0.14999999963E+04  0.15000000000E+04  0.10566000000E+00 0.  1.
        994   -1    0    0    0    0 -0.00000000000E+00 -0.00000000000E+00  0.11368683772E-12  0.17120000000E+03  0.17120000000E+03 0.  0.
         13    1    1    2    0    0 -0.99320387017E+02  0.62855067963E+02  0.66494688963E+03  0.67525526732E+03  0.10566000000E+00 0.  1.
        994    1    1    2    0    0  0.22724466889E+03 -0.73724048898E+02  0.21888334200E+03  0.36646245692E+03  0.17120000000E+03 0.  0.
        998    1    1    2    0    0 -0.12792428187E+03  0.10868980935E+02  0.61616976464E+03  0.62948227576E+03  0.10000000000E+02 0.  1.
</event>
<event>
 5    1  0.5525569E-010  0.3880629E+03  0.7957747E-01  0.3416785E+00
         13   -1    0    0    0    0  0.00000000000E+00  0.00000000000E+00  0.14999999963E+04  0.15000000000E+04  0.10566000000E+00 0.  1.
        994   -1    0    0    0    0 -0.00000000000E+00 -0.00000000000E+00  0.11368683772E-12  0.17120000000E+03  0.17120000000E+03 0.  0.
         13    1    1    2    0    0 -0.11293922764E+02 -0.81012201340E+02  0.45398317761E+03  0.46129303721E+03  0.10566000000E+00 0.  1.
        994    1    1    2    0    0  0.13217967802E+02  0.23311539125E+03  0.20394485198E+03  0.35414748758E+03  0.17120000000E+03 0.  0.
        998    1    1    2    0    0 -0.19240450381E+01 -0.15210318991E+03  0.84207196669E+03  0.85575947521E+03  0.10000000000E+02 0.  0.
</event>
<event>
 5    1  0.5525569E-010  0.3735014E+03  0.7957747E-01  0.3479952E+00
         13   -1    0    0    0    0  0.00000000000E+00  0.00000000000E+00  0.14999999963E+04  0.15000000000E+04  0.10566000000E+00 0. -1.
        994   -1    0    0    0    0 -0.00000000000E+00 -0.00000000000E+00  0.11368683772E-12  0.17120000000E+03  0.17120000000E+03 0.  0.
         13    1    1    2    0    0  0.36671435252E+02  0.15510427627E+02  0.13031943959E+03  0.13626641196E+03  0.10566000000E+00 0. -1.
        994    1    1    2    0    0 -0.39558910954E+02  0.12529573809E+03  0.68939984309E+02  0.22655262271E+03  0.17120000000E+03 0.  0.
        998    1    1    2    0    0  0.28874757020E+01 -0.14080616571E+03  0.13007405724E+04  0.13083809653E+04  0.10000000000E+02 0. -1.
</event>
<event>
 5    1  0.5525569E-010  0.3748196E+03  0.7957747E-01  0.3474030E+00
         13   -1    0    0    0    0  0.00000000000E+00  0.00000000000E+00  0.14999999963E+04  0.15000000000E+04  0.10566000000E+00 0.  1.
        994   -1    0    0    0    0 -0.00000000000E+00 -0.00000000000E+00  0.11368683772E-12  0.17120000000E+03  0.17120000000E+03 0.  0.
         13    1    1    2    0    0  0.11985951997E+03 -0.27561878426E+03  0.96142574781E+03  0.10073090382E+04  0.10566000000E+00 0.  1.
        994    1    1    2    0    0 -0.10769503126E+03  0.28586224047E+03  0.43406709928E+03  0.55770881915E+03  0.17120000000E+03 0.  0.
        998    1    1    2    0    0 -0.12164488715E+02 -0.10243456209E+02  0.10450714919E+03  0.10618214262E+03  0.10000000000E+02 0.  1.
</event>
<event>
 5    1  0.5525569E-010  0.3820574E+03  0.7957747E-01  0.3442249E+00
         13   -1    0    0    0    0  0.00000000000E+00  0.00000000000E+00  0.14999999963E+04  0.15000000000E+04  0.10566000000E+00 0.  1.
        994   -1    0    0    0    0 -0.00000000000E+00 -0.00000000000E+00  0.11368683772E-12  0.17120000000E+03  0.17120000000E+03 0.  0.
         13    1    1    2    0    0 -0.10986422013E+03 -0.89355066195E+02  0.53775465815E+03  0.55608862445E+03  0.10566000000E+00 0.  1.
        994    1    1    2    0    0  0.14817017520E+03  0.19309108669E+03  0.23428369097E+03  0.37873058555E+03  0.17120000000E+03 0.  0.
        998    1    1    2    0    0 -0.38305955069E+02 -0.10373602050E+03  0.72796164716E+03  0.73638079000E+03  0.10000000000E+02 0.  1.
</event>
<event>
 5    1  0.5525569E-010  0.3852557E+03  0.7957747E-01  0.3428588E+00
         13   -1    0    0    0    0  0.00000000000E+00  0.00000000000E+00  0.14999999963E+04  0.15000000000E+04  0.10566000000E+00 0.  1.
        994   -1    0    0    0    0 -0.00000000000E+00 -0.00000000000E+00  0.11368683772E-12  0.17120000000E+03  0.17120000000E+03 0.  0.
         13    1    1    2    0    0  0.50200295777E+02 -0.96034129256E+02  0.54186674885E+03  0.55259588160E+03  0.10566000000E+00 0.  1.
        994    1    1    2    0    0 -0.10471944955E+03  0.16280363024E+03  0.13622313507E+03  0.29212560255E+03  0.17120000000E+03 0.  0.
        998    1    1    2    0    0  0.54519153777E+02 -0.66769500983E+02  0.82191011235E+03  0.82647851586E+03  0.10000000000E+02 0.  1.
</event>
<event>
 5    1  0.5525569E-010  0.3877406E+03  0.7957747E-01  0.3418132E+00
         13   -1    0    0    0    0  0.00000000000E+00  0.00000000000E+00  0.14999999963E+04  0.15000000000E+04  0.10566000000E+00 0.  1.
        994   -1    0    0    0    0 -0.00000000000E+00 -0.00000000000E+00  0.11368683772E-12  0.17120000000E+03  0.17120000000E+03 0.  0.
         13    1    1    2    0    0 -0.55957222029E+02 -0.18338688652E+03  0.10784783955E+04  0.10953892558E+04  0.10566000000E+00 0.  1.
        994    1    1    2    0    0  0.71556466050E+02  0.21596629549E+03  0.19239272930E+03  0.34363668446E+03  0.17120000000E+03 0.  0.
        998    1    1    2    0    0 -0.15599244022E+02 -0.32579408970E+02  0.22912887145E+03  0.23217405978E+03  0.10000000000E+02 0.  0.
</event>
<event>
 5    1  0.5525569E-010  0.3863513E+03  0.7957747E-01  0.3423961E+00
         13   -1    0    0    0    0  0.00000000000E+00  0.00000000000E+00  0.14999999963E+04  0.15000000000E+04  0.10566000000E+00 0. -1.
        994   -1    0    0    0    0 -0.00000000000E+00 -0.00000000000E+00  0.11368683772E-12  0.17120000000E+03  0.17120000000E+03 0.  0.
         13    1    1    2    0    0 -0.14367341169E+03 -0.21146944382E+03  0.10342713084E+04  0.10654006408E+04  0.10566000000E+00 0. -1.
        994    1    1    2    0    0  0.15843627211E+03  0.22618494821E+03  0.31240214978E+03  0.45073964359E+03  0.17120000000E+03 0.  0.
        998    1    1    2    0    0 -0.14762860415E+02 -0.14715504393E+02  0.15332653807E+03  0.15505971558E+03  0.10000000000E+02 0.  0.
</event>
<event>
 5    1  0.5525569E-010  0.3881760E+03  0.7957747E-01  0.3416313E+00
         13   -1    0    0    0    0  0.00000000000E+00  0.00000000000E+00  0.14999999963E+04  0.15000000000E+04  0.10566000000E+00 0.  1.
        994   -1    0    0    0    0 -0.00000000000E+00 -0.00000000000E+00  0.11368683772E-12  0.17120000000E+03  0.17120000000E+03 0.  0.
         13    1    1    2    0    0  0.27848099335E+02 -0.74126643167E+02  0.40711754995E+03  0.41474689450E+03  0.10566000000E+00 0.  1.
        994    1    1    2    0    0 -0.88601247575E+02  0.22409818019E+03  0.21958478133E+03  0.36823510374E+03  0.17120000000E+03 0.  0.
        998    1    1    2    0    0  0.60753148240E+02 -0.14997153702E+03  0.87329766501E+03  0.88821800176E+03  0.10000000000E+02 0.  0.
</event>
<event>
 5    1  0.5525569E-010  0.2601383E+03  0.7957747E-01  0.4229349E+00
         13   -1    0    0    0    0  0.00000000000E+00  0.00000000000E+00  0.14999999963E+04  0.15000000000E+04  0.10566000000E+00 0.  1.
        994   -1    0    0    0    0 -0.00000000000E+00 -0.00000000000E+00  0.11368683772E-12  0.17120000000E+03  0.17120000000E+03 0.  0.
         13    1    1    2    0    0  0.40296305835E+02 -0.21817516805E+03  0.73835198433E+03  0.77096553758E+03  0.10566000000E+00 0.  1.
        994    1    1    2    0    0 -0.51004135026E+02  0.94074212980E+01  0.97155578396E+02  0.20356465258E+03  0.17120000000E+03 0.  0.
        998    1    1    2    0    0  0.10707829192E+02  0.20876774675E+03  0.66449243356E+03  0.69666980984E+03  0.10000000000E+02 0. -1.
</event>
<event>
 5    1  0.5525569E-010  0.3767694E+03  0.7957747E-01  0.3465347E+00
         13   -1    0    0    0    0  0.00000000000E+00  0.00000000000E+00  0.14999999963E+04  0.15000000000E+04  0.10566000000E+00 0. -1.
        994   -1    0    0    0    0 -0.00000000000E+00 -0.00000000000E+00  0.11368683772E-12  0.17120000000E+03  0.17120000000E+03 0.  0.
         13    1    1    2    0    0 -0.30710850379E+02  0.45826607620E+01  0.12954931726E+03  0.13321859434E+03  0.10566000000E+00 0. -1.
        994    1    1    2    0    0 -0.36290343876E+02  0.11952942021E+03  0.60463013685E+02  0.22038486195E+03  0.17120000000E+03 0.  0.
        998    1    1    2    0    0  0.67001194256E+02 -0.12411208097E+03  0.13099876653E+04  0.13175965437E+04  0.10000000000E+02 0. -1.
</event>
<event>
 5    1  0.5525569E-010  0.3873728E+03  0.7957747E-01  0.3419671E+00
         13   -1    0    0    0    0  0.00000000000E+00  0.00000000000E+00  0.14999999963E+04  0.15000000000E+04  0.10566000000E+00 0. -1.
        994   -1    0    0    0    0 -0.00000000000E+00 -0.00000000000E+00  0.11368683772E-12  0.17120000000E+03  0.17120000000E+03 0.  0.
         13    1    1    2    0    0  0.13928867657E+03 -0.24661008038E+01  0.76852999447E+03  0.78105427509E+03  0.10566000000E+00 0. -1.
        994    1    1    2    0    0 -0.21906793794E+03 -0.15736463327E+02  0.17785023601E+03  0.33042176708E+03  0.17120000000E+03 0.  0.
        998    1    1    2    0    0  0.79779261373E+02  0.18202564131E+02  0.55361976580E+03  0.55972395783E+03  0.10000000000E+02 0. -1.
</event>
<event>
 5    1  0.5525569E-010  0.3834371E+03  0.7957747E-01  0.3436328E+00
         13   -1    0    0    0    0  0.00000000000E+00  0.00000000000E+00  0.14999999963E+04  0.15000000000E+04  0.10566000000E+00 0. -1.
        994   -1    0    0    0    0 -0.00000000000E+00 -0.00000000000E+00  0.11368683772E-12  0.17120000000E+03  0.17120000000E+03 0.  0.
         13    1    1    2    0    0  0.23838105972E+02 -0.10527504995E+03  0.40101153429E+03  0.41528466530E+03  0.10566000000E+00 0. -1.
        994    1    1    2    0    0 -0.16850171336E+02  0.22853521143E+03  0.20143079859E+03  0.34985150815E+03  0.17120000000E+03 0.  0.
        998    1    1    2    0    0 -0.69879346361E+01 -0.12326016148E+03  0.89755766341E+03  0.90606382655E+03  0.10000000000E+02 0. -1.
</event>
<event>
 5    1  0.5525569E-010  0.3866470E+03  0.7957747E-01  0.3422717E+00
         13   -1    0    0    0    0  0.00000000000E+00  0.00000000000E+00  0.14999999963E+04  0.15000000000E+04  0.10566000000E+00 0. -1.
        994   -1    0    0    0    0 -0.00000000000E+00 -0.00000000000E+00  0.11368683772E-12  0.17120000000E+03  0.17120000000E+03 0.  0.
         13    1    1    2    0    0 -0.14836385425E+03 -0.68205556329E+02  0.84460528565E+03  0.86024527367E+03  0.10566000000E+00 0. -1.
        994    1    1    2    0    0  0.20841153654E+03  0.79453505761E+02  0.18516039797E+03  0.33666309735E+03  0.17120000000E+03 0.  0.
        998    1    1    2    0    0 -0.60047682296E+02 -0.11247949432E+02  0.47023431266E+03  0.47429162898E+03  0.10000000000E+02 0. -1.
</event>
<event>
 5    1  0.5525569E-010  0.3811933E+03  0.7957747E-01  0.3445979E+00
         13   -1    0    0    0    0  0.00000000000E+00  0.00000000000E+00  0.14999999963E+04  0.15000000000E+04  0.10566000000E+00 0. -1.
        994   -1    0    0    0    0 -0.00000000000E+00 -0.00000000000E+00  0.11368683772E-12  0.17120000000E+03  0.17120000000E+03 0.  0.
         13    1    1    2    0    0  0.14762957230E+03  0.22023846841E+03  0.10241283865E+04  0.10578933958E+04  0.10566000000E+00 0. -1.
        994    1    1    2    0    0 -0.13165482018E+03 -0.24695882563E+03  0.33576495457E+03  0.46943497734E+03  0.17120000000E+03 0.  0.
        998    1    1    2    0    0 -0.15974752119E+02  0.26720357217E+02  0.14010665516E+03  0.14387162686E+03  0.10000000000E+02 0. -1.
</event>
<event>
 5    1  0.5525569E-010  0.3875960E+03  0.7957747E-01  0.3418736E+00
         13   -1    0    0    0    0  0.00000000000E+00  0.00000000000E+00  0.14999999963E+04  0.15000000000E+04  0.10566000000E+00 0.  1.
        994   -1    0    0    0    0 -0.00000000000E+00 -0.00000000000E+00  0.11368683772E-12  0.17120000000E+03  0.17120000000E+03 0.  0.
         13    1    1    2    0    0 -0.12009596463E+03 -0.15696149015E+03  0.51568619488E+03  0.55226100068E+03  0.10566000000E+00 0.  1.
        994    1    1    2    0    0  0.21409671741E+03  0.25649671629E+03  0.57040458961E+03  0.68286075134E+03  0.17120000000E+03 0.  0.
        998    1    1    2    0    0 -0.94000752778E+02 -0.99535226133E+02  0.41390921178E+03  0.43607824798E+03  0.10000000000E+02 0. -1.
</event>
<event>
 5    1  0.5525569E-010  0.3875015E+03  0.7957747E-01  0.3419132E+00
         13   -1    0    0    0    0  0.00000000000E+00  0.00000000000E+00  0.14999999963E+04  0.15000000000E+04  0.10566000000E+00 0. -1.
        994   -1    0    0    0    0 -0.00000000000E+00 -0.00000000000E+00  0.11368683772E-12  0.17120000000E+03  0.17120000000E+03 0.  0.
         13    1    1    2    0    0  0.52310499600E+02 -0.22012969729E+03  0.89714080386E+03  0.92523246004E+03  0.10566000000E+00 0. -1.
        994    1    1    2    0    0 -0.53191591717E+02  0.28128092492E+03  0.34152199118E+03  0.47738350895E+03  0.17120000000E+03 0.  0.
        998    1    1    2    0    0  0.88109211759E+00 -0.61151227637E+02  0.26133720124E+03  0.26858403101E+03  0.10000000000E+02 0. -1.
</event>
<event>
 5    1  0.7461651E-010  0.3867656E+03  0.7957747E-01  0.3422218E+00
         13   -1    0    0    0    0  0.00000000000E+00  0.00000000000E+00  0.14999999963E+04  0.15000000000E+04  0.10566000000E+00 0.  1.
        994   -1    0    0    0    0 -0.00000000000E+00 -0.00000000000E+00  0.11368683772E-12  0.17120000000E+03  0.17120000000E+03 0.  0.
         13    1    1    2    0    0  0.19767516194E+03 -0.52707876030E+02  0.12160476158E+04  0.12331364097E+04  0.10566000000E+00 0.  1.
        994    1    1    2    0    0 -0.21226917060E+03  0.48262497611E+02  0.17501214799E+03  0.32760671758E+03  0.17120000000E+03 0.  0.
        998    1    1    2    0    0  0.14594008651E+02  0.44453784195E+01  0.10894023252E+03  0.11045687276E+03  0.10000000000E+02 0.  1.
</event>
<event>
 5    1  0.5525569E-010  0.3826119E+03  0.7957747E-01  0.3439864E+00
         13   -1    0    0    0    0  0.00000000000E+00  0.00000000000E+00  0.14999999963E+04  0.15000000000E+04  0.10566000000E+00 0.  1.
        994   -1    0    0    0    0 -0.00000000000E+00 -0.00000000000E+00  0.11368683772E-12  0.17120000000E+03  0.17120000000E+03 0.  0.
         13    1    1    2    0    0 -0.14938966208E+03  0.79296053253E+01  0.73149232290E+03  0.74663322951E+03  0.10566000000E+00 0.  1.
        994    1    1    2    0    0  0.20034266612E+03  0.22210423272E+02  0.15177568429E+03  0.30491930918E+03  0.17120000000E+03 0.  0.
        998    1    1    2    0    0 -0.50953004040E+02 -0.30140028597E+02  0.61673198909E+03  0.61964746131E+03  0.10000000000E+02 0.  1.
</event>
<event>
 5    1  0.5525569E-010  0.3864397E+03  0.7957747E-01  0.3423589E+00
         13   -1    0    0    0    0  0.00000000000E+00  0.00000000000E+00  0.14999999963E+04  0.15000000000E+04  0.10566000000E+00 0. -1.
        994   -1    0    0    0    0 -0.00000000000E+00 -0.00000000000E+00  0.11368683772E-12  0.17120000000E+03  0.17120000000E+03 0.  0.
         13    1    1    2    0    0  0.53398614857E+02  0.17554287478E+03  0.10408749442E+04  0.10569235420E+04  0.10566000000E+00 0. -1.
        994    1    1    2    0    0 -0.87224240076E+02 -0.22344478906E+03  0.21971475901E+03  0.36758625810E+03  0.17120000000E+03 0.  0.
        998    1    1    2    0    0  0.33825625219E+02  0.47901914277E+02  0.23941029308E+03  0.24669019993E+03  0.10000000000E+02 0. -1.
</event>
<event>
 5    1  0.5525569E-010  0.3827614E+03  0.7957747E-01  0.3439222E+00
         13   -1    0    0    0    0  0.00000000000E+00  0.00000000000E+00  0.14999999963E+04  0.15000000000E+04  0.10566000000E+00 0. -1.
        994   -1    0    0    0    0 -0.00000000000E+00 -0.00000000000E+00  0.11368683772E-12  0.17120000000E+03  0.17120000000E+03 0.  0.
         13    1    1    2    0    0  0.11915755165E+02 -0.17289108300E+02  0.36935664979E+02  0.42487092139E+02  0.10566000000E+00 0. -1.
        994    1    1    2    0    0 -0.79887789922E+01  0.23416377361E+03  0.21309023375E+03  0.36001858449E+03  0.17120000000E+03 0.  0.
        998    1    1    2    0    0 -0.39269761723E+01 -0.21687466531E+03  0.12499740976E+04  0.12686943234E+04  0.10000000000E+02 0. -1.
</event>
<event>
 5    1  0.5525569E-010  0.3688133E+03  0.7957747E-01  0.3501362E+00
         13   -1    0    0    0    0  0.00000000000E+00  0.00000000000E+00  0.14999999963E+04  0.15000000000E+04  0.10566000000E+00 0. -1.
        994   -1    0    0    0    0 -0.00000000000E+00 -0.00000000000E+00  0.11368683772E-12  0.17120000000E+03  0.17120000000E+03 0.  0.
         13    1    1    2    0    0 -0.42713499853E+02  0.78252572024E+02  0.44019268805E+03  0.44912973835E+03  0.10566000000E+00 0. -1.
        994    1    1    2    0    0  0.21782442633E+03 -0.81375445664E+01  0.20009034724E+03  0.34184687712E+03  0.17120000000E+03 0.  0.
        998    1    1    2    0    0 -0.17511092648E+03 -0.70115027457E+02  0.85971696099E+03  0.88022338453E+03  0.10000000000E+02 0. -1.
</event>
<event>
 5    1  0.5525569E-010  0.3837362E+03  0.7957747E-01  0.3435050E+00
         13   -1    0    0    0    0  0.00000000000E+00  0.00000000000E+00  0.14999999963E+04  0.15000000000E+04  0.10566000000E+00 0. -1.
        994   -1    0    0    0    0 -0.00000000000E+00 -0.00000000000E+00  0.11368683772E-12  0.17120000000E+03  0.17120000000E+03 0.  0.
         13    1    1    2    0    0  0.14059540439E+03 -0.12262080230E+03  0.10493113379E+04  0.10657660268E+04  0.10566000000E+00 0. -1.
        994    1    1    2    0    0 -0.18468723240E+03  0.17467238495E+03  0.25744300735E+03  0.40025761443E+03  0.17120000000E+03 0.  0.
        998    1    1    2    0    0  0.44091828007E+02 -0.52051582652E+02  0.19324565106E+03  0.20517635879E+03  0.10000000000E+02 0. -1.
</event>
<event>
 5    1  0.5525569E-010  0.3859841E+03  0.7957747E-01  0.3425509E+00
         13   -1    0    0    0    0  0.00000000000E+00  0.00000000000E+00  0.14999999963E+04  0.15000000000E+04  0.10566000000E+00 0.  1.
        994   -1    0    0    0    0 -0.00000000000E+00 -0.00000000000E+00  0.11368683772E-12  0.17120000000E+03  0.17120000000E+03 0.  0.
         13    1    1    2    0    0  0.77469521241E+01  0.13286443343E+02  0.54646867995E+02  0.56770028974E+02  0.10566000000E+00 0.  1.
        994    1    1    2    0    0 -0.52340123039E+02 -0.10132774450E+03  0.45007266134E+02  0.21057515117E+03  0.17120000000E+03 0.  0.
        998    1    1    2    0    0  0.44593170915E+02  0.88041301153E+02  0.14003458621E+04  0.14038548199E+04  0.10000000000E+02 0.  1.
</event>
<event>
 5    1  0.5525569E-010  0.3851970E+03  0.7957747E-01  0.3428837E+00
         13   -1    0    0    0    0  0.00000000000E+00  0.00000000000E+00  0.14999999963E+04  0.15000000000E+04  0.10566000000E+00 0. -1.
        994   -1    0    0    0    0 -0.00000000000E+00 -0.00000000000E+00  0.11368683772E-12  0.17120000000E+03  0.17120000000E+03 0.  0.
         13    1    1    2    0    0  0.26461533900E+02 -0.84333285565E+01  0.96558980903E+02  0.10047378645E+03  0.10566000000E+00 0. -1.
        994    1    1    2    0    0 -0.15825354757E+03  0.18861653901E+02  0.90011627311E+02  0.25062218648E+03  0.17120000000E+03 0.  0.
        998    1    1    2    0    0  0.13179201367E+03 -0.10428325344E+02  0.13134293881E+04  0.13201040271E+04  0.10000000000E+02 0. -1.
</event>
<event>
 5    1  0.5525569E-010  0.3878786E+03  0.7957747E-01  0.3417555E+00
         13   -1    0    0    0    0  0.00000000000E+00  0.00000000000E+00  0.14999999963E+04  0.15000000000E+04  0.10566000000E+00 0. -1.
        994   -1    0    0    0    0 -0.00000000000E+00 -0.00000000000E+00  0.11368683772E-12  0.17120000000E+03  0.17120000000E+03 0.  0.
         13    1    1    2    0    0  0.21335742751E+02  0.13964221354E+03  0.78822253198E+03  0.80078082695E+03  0.10566000000E+00 0. -1.
        994    1    1    2    0    0 -0.40007048873E+02 -0.24002032443E+03  0.22519255109E+03  0.37313730069E+03  0.17120000000E+03 0.  0.
        998    1    1    2    0    0  0.18671306122E+02  0.10037811090E+03  0.48658491321E+03  0.49728187236E+03  0.10000000000E+02 0. -1.
</event>
<event>
 5    1  0.5525569E-010  0.3728576E+03  0.7957747E-01  0.3482860E+00
         13   -1    0    0    0    0  0.00000000000E+00  0.00000000000E+00  0.14999999963E+04  0.15000000000E+04  0.10566000000E+00 0. -1.
        994   -1    0    0    0    0 -0.00000000000E+00 -0.00000000000E+00  0.11368683772E-12  0.17120000000E+03  0.17120000000E+03 0.  0.
         13    1    1    2    0    0 -0.64942827464E+02  0.25462939875E+02  0.23564154435E+03  0.24574963018E+03  0.10566000000E+00 0. -1.
        994    1    1    2    0    0 -0.33791763318E+02 -0.12964229200E+03  0.78858691300E+02  0.23125124937E+03  0.17120000000E+03 0.  0.
        998    1    1    2    0    0  0.98734590782E+02  0.10417935212E+03  0.11854997606E+04  0.11941991204E+04  0.10000000000E+02 0. -1.
</event>
<event>
 5    1  0.5525569E-010  0.3872449E+03  0.7957747E-01  0.3420207E+00
         13   -1    0    0    0    0  0.00000000000E+00  0.00000000000E+00  0.14999999963E+04  0.15000000000E+04  0.10566000000E+00 0.  1.
        994   -1    0    0    0    0 -0.00000000000E+00 -0.00000000000E+00  0.11368683772E-12  0.17120000000E+03  0.17120000000E+03 0.  0.
         13    1    1    2    0    0 -0.23672863206E+03  0.10911751499E+03  0.10376409210E+04  0.10698811941E+04  0.10566000000E+00 0.  1.
        994    1    1    2    0    0  0.25689022194E+03 -0.12125341612E+03  0.33497667840E+03  0.47139557924E+03  0.17120000000E+03 0.  0.
        998    1    1    2    0    0 -0.20161589876E+02  0.12135901126E+02  0.12738239687E+03  0.12992322670E+03  0.10000000000E+02 0. -1.
</event>
<event>
 5    1  0.5525569E-010  0.3854299E+03  0.7957747E-01  0.3427851E+00
         13   -1    0    0    0    0  0.00000000000E+00  0.00000000000E+00  0.14999999963E+04  0.15000000000E+04  0.10566000000E+00 0. -1.
        994   -1    0    0    0    0 -0.00000000000E+00 -0.00000000000E+00  0.11368683772E-12  0.17120000000E+03  0.17120000000E+03 0.  0.
         13    1    1    2    0    0 -0.11068132735E+03 -0.80658043629E+02  0.78289246108E+03  0.79478090881E+03  0.10566000000E+00 0. -1.
        994    1    1    2    0    0  0.13917730575E+03  0.13140550297E+03  0.13274824353E+03  0.28908349106E+03  0.17120000000E+03 0.  0.
        998    1    1    2    0    0 -0.28495978392E+02 -0.50747459343E+02  0.58435929167E+03  0.58733560013E+03  0.10000000000E+02 0. -1.
</event>
<event>
 5    1  0.5525569E-010  0.3856857E+03  0.7957747E-01  0.3426769E+00
         13   -1    0    0    0    0  0.00000000000E+00  0.00000000000E+00  0.14999999963E+04  0.15000000000E+04  0.10566000000E+00 0.  1.
        994   -1    0    0    0    0 -0.00000000000E+00 -0.00000000000E+00  0.11368683772E-12  0.17120000000E+03  0.17120000000E+03 0.  0.
         13    1    1    2    0    0  0.46359650585E+00 -0.29836085419E+02  0.12601920098E+03  0.12950388834E+03  0.10566000000E+00 0.  1.
        994    1    1    2    0    0  0.46238691693E+02  0.14452140355E+03  0.80882126544E+02  0.24264338254E+03  0.17120000000E+03 0.  0.
        998    1    1    2    0    0 -0.46702288199E+02 -0.11468531813E+03  0.12930986688E+04  0.12990527291E+04  0.10000000000E+02 0.  1.
</event>
<event>
 5    1  0.5525569E-010  0.3856329E+03  0.7957747E-01  0.3426992E+00
         13   -1    0    0    0    0  0.00000000000E+00  0.00000000000E+00  0.14999999963E+04  0.15000000000E+04  0.10566000000E+00 0.  1.
        994   -1    0    0    0    0 -0.00000000000E+00 -0.00000000000E+00  0.11368683772E-12  0.17120000000E+03  0.17120000000E+03 0.  0.
         13    1    1    2    0    0 -0.12034655233E+02  0.23184940368E+02  0.13104584316E+03  0.13362409423E+03  0.10566000000E+00 0.  1.
        994    1    1    2    0    0  0.81021318956E+02 -0.67424809531E+02  0.38670242649E+02  0.20473247601E+03  0.17120000000E+03 0.  0.
        998    1    1    2    0    0 -0.68986663723E+02  0.44239869163E+02  0.13302839105E+04  0.13328434298E+04  0.10000000000E+02 0.  1.
</event>
<event>
 5    1  0.5525569E-010  0.3863720E+03  0.7957747E-01  0.3423874E+00
         13   -1    0    0    0    0  0.00000000000E+00  0.00000000000E+00  0.14999999963E+04  0.15000000000E+04  0.10566000000E+00 0.  1.
        994   -1    0    0    0    0 -0.00000000000E+00 -0.00000000000E+00  0.11368683772E-12  0.17120000000E+03  0.17120000000E+03 0.  0.
         13    1    1    2    0    0  0.57845586938E+02 -0.17173347059E+03  0.87637292066E+03  0.89491228848E+03  0.10566000000E+00 0.  1.
        994    1    1    2    0    0 -0.51559889147E+02  0.23900857905E+03  0.23010986951E+03  0.37688660771E+03  0.17120000000E+03 0.  0.
        998    1    1    2    0    0 -0.62856977902E+01 -0.67275108459E+02  0.39351720611E+03  0.39940110380E+03  0.10000000000E+02 0. -1.
</event>
<event>
 5    1  0.5525569E-010  0.3831807E+03  0.7957747E-01  0.3437425E+00
         13   -1    0    0    0    0  0.00000000000E+00  0.00000000000E+00  0.14999999963E+04  0.15000000000E+04  0.10566000000E+00 0.  1.
        994   -1    0    0    0    0 -0.00000000000E+00 -0.00000000000E+00  0.11368683772E-12  0.17120000000E+03  0.17120000000E+03 0.  0.
         13    1    1    2    0    0 -0.40888544308E+01  0.22751070252E+03  0.12815876205E+04  0.13016315449E+04  0.10566000000E+00 0.  1.
        994    1    1    2    0    0  0.30597391771E+01 -0.22983433020E+03  0.20378745998E+03  0.35167022931E+03  0.17120000000E+03 0.  0.
        998    1    1    2    0    0  0.10291152537E+01  0.23236276862E+01  0.14624915758E+02  0.17898225743E+02  0.10000000000E+02 0. -1.
</event>
<event>
 5    1  0.5525569E-010  0.3816800E+03  0.7957747E-01  0.3443876E+00
         13   -1    0    0    0    0  0.00000000000E+00  0.00000000000E+00  0.14999999963E+04  0.15000000000E+04  0.10566000000E+00 0. -1.
        994   -1    0    0    0    0 -0.00000000000E+00 -0.00000000000E+00  0.11368683772E-12  0.17120000000E+03  0.17120000000E+03 0.  0.
         13    1    1    2    0    0  0.15417913724E+03 -0.15032674616E+03  0.74881126325E+03  0.77915829978E+03  0.10566000000E+00 0. -1.
        994    1    1    2    0    0 -0.23864353606E+03  0.15860023612E+03  0.35716192561E+03  0.48885463413E+03  0.17120000000E+03 0.  0.
        998    1    1    2    0    0  0.84464398818E+02 -0.82734899590E+01  0.39402680742E+03  0.40318706610E+03  0.10000000000E+02 0. -1.
</event>
<event>
 5    1  0.5525569E-010  0.3876732E+03  0.7957747E-01  0.3418414E+00
         13   -1    0    0    0    0  0.00000000000E+00  0.00000000000E+00  0.14999999963E+04  0.15000000000E+04  0.10566000000E+00 0.  1.
        994   -1    0    0    0    0 -0.00000000000E+00 -0.00000000000E+00  0.11368683772E-12  0.17120000000E+03  0.17120000000E+03 0.  0.
         13    1    1    2    0    0  0.13012963368E+03 -0.11612507950E+03  0.85980086856E+03  0.87731197438E+03  0.10566000000E+00 0.  1.
        994    1    1    2    0    0 -0.17884348432E+03  0.18165478901E+03  0.25248932676E+03  0.39754717253E+03  0.17120000000E+03 0.  0.
        998    1    1    2    0    0  0.48713850635E+02 -0.65529709510E+02  0.38770980095E+03  0.39634085309E+03  0.10000000000E+02 0. -1.
</event>
<event>
 5    1  0.5525569E-010  0.3890833E+03  0.7957747E-01  0.3412537E+00
         13   -1    0    0    0    0  0.00000000000E+00  0.00000000000E+00  0.14999999963E+04  0.15000000000E+04  0.10566000000E+00 0. -1.
        994   -1    0    0    0    0 -0.00000000000E+00 -0.00000000000E+00  0.11368683772E-12  0.17120000000E+03  0.17120000000E+03 0.  0.
         13    1    1    2    0    0 -0.56867546800E+02 -0.72738728034E+02  0.39219170751E+03  0.40291337412E+03  0.10566000000E+00 0. -1.
        994    1    1    2    0    0 -0.52534545729E+02 -0.33754479340E+02  0.36177919698E+02  0.18578892659E+03  0.17120000000E+03 0.  0.
        998    1    1    2    0    0  0.10940209253E+03  0.10649320737E+03  0.10716303691E+04  0.10824976993E+04  0.10000000000E+02 0. -1.
</event>
<event>
 5    1  0.5525569E-010  0.3870219E+03  0.7957747E-01  0.3421142E+00
         13   -1    0    0    0    0  0.00000000000E+00  0.00000000000E+00  0.14999999963E+04  0.15000000000E+04  0.10566000000E+00 0.  1.
        994   -1    0    0    0    0 -0.00000000000E+00 -0.00000000000E+00  0.11368683772E-12  0.17120000000E+03  0.17120000000E+03 0.  0.
         13    1    1    2    0    0 -0.49666375565E+02 -0.16516870245E+03  0.95373259272E+03  0.96920241369E+03  0.10566000000E+00 0.  1.
        994    1    1    2    0    0  0.55959736134E+02  0.20902069086E+03  0.17233033361E+03  0.32531265754E+03  0.17120000000E+03 0.  0.
        998    1    1    2    0    0 -0.62933605690E+01 -0.43851988407E+02  0.37393706996E+03  0.37668492877E+03  0.10000000000E+02 0.  1.
</event>
<event>
 5    1  0.5525569E-010  0.3857942E+03  0.7957747E-01  0.3426311E+00
         13   -1    0    0    0    0  0.00000000000E+00  0.00000000000E+00  0.14999999963E+04  0.15000000000E+04  0.10566000000E+00 0. -1.
        994   -1    0    0    0    0 -0.00000000000E+00 -0.00000000000E+00  0.11368683772E-12  0.17120000000E+03  0.17120000000E+03 0.  0.
         13    1    1    2    0    0  0.25862037600E+02  0.19294867165E+02  0.19224021131E+03  0.19492933822E+03  0.10566000000E+00 0. -1.
        994    1    1    2    0    0 -0.42235773488E+02 -0.12372714444E+03  0.59464288137E+02  0.22346746608E+03  0.17120000000E+03 0.  0.
        998    1    1    2    0    0  0.16373735887E+02  0.10443227727E+03  0.12482954968E+04  0.12528031957E+04  0.10000000000E+02 0. -1.
</event>
<event>
 5    1  0.5525569E-010  0.3858092E+03  0.7957747E-01  0.3426247E+00
         13   -1    0    0    0    0  0.00000000000E+00  0.00000000000E+00  0.14999999963E+04  0.15000000000E+04  0.10566000000E+00 0. -1.
        994   -1    0    0    0    0 -0.00000000000E+00 -0.00000000000E+00  0.11368683772E-12  0.17120000000E+03  0.17120000000E+03 0.  0.
         13    1    1    2    0    0  0.10732948057E+02  0.81024635396E+01  0.68760872031E+02  0.70063648034E+02  0.10566000000E+00 0. -1.
        994    1    1    2    0    0  0.16513663861E+02 -0.63290457130E+02  0.15390028307E+02  0.18391486082E+03  0.17120000000E+03 0.  0.
        998    1    1    2    0    0 -0.27246611918E+02  0.55187993591E+02  0.14158490959E+04  0.14172214911E+04  0.10000000000E+02 0. -1.
</event>
<event>
 5    1  0.5525569E-010  0.3842281E+03  0.7957747E-01  0.3432952E+00
         13   -1    0    0    0    0  0.00000000000E+00  0.00000000000E+00  0.14999999963E+04  0.15000000000E+04  0.10566000000E+00 0.  1.
        994   -1    0    0    0    0 -0.00000000000E+00 -0.00000000000E+00  0.11368683772E-12  0.17120000000E+03  0.17120000000E+03 0.  0.
         13    1    1    2    0    0 -0.45522495571E+02  0.18702529917E+03  0.60357940147E+03  0.63352889845E+03  0.10566000000E+00 0.  1.
        994    1    1    2    0    0  0.94222376296E+02 -0.27723837135E+03  0.37278731987E+03  0.50400277440E+03  0.17120000000E+03 0.  0.
        998    1    1    2    0    0 -0.48699880724E+02  0.90213072180E+02  0.52363327495E+03  0.53366832715E+03  0.10000000000E+02 0.  1.
</event>
<event>
 5    1  0.5525569E-010  0.3738774E+03  0.7957747E-01  0.3478259E+00
         13   -1    0    0    0    0  0.00000000000E+00  0.00000000000E+00  0.14999999963E+04  0.15000000000E+04  0.10566000000E+00 0. -1.
        994   -1    0    0    0    0 -0.00000000000E+00 -0.00000000000E+00  0.11368683772E-12  0.17120000000E+03  0.17120000000E+03 0.  0.
         13    1    1    2    0    0  0.18410395773E+03 -0.16268342687E+03  0.69836851562E+03  0.74032341541E+03  0.10566000000E+00 0. -1.
        994    1    1    2    0    0 -0.27740594432E+03  0.13914414884E+03  0.49123326852E+03  0.60575136501E+03  0.17120000000E+03 0.  0.
        998    1    1    2    0    0  0.93301986596E+02  0.23539278037E+02  0.31039821213E+03  0.32512521958E+03  0.10000000000E+02 0. -1.
</event>
<event>
 5    1  0.5525569E-010  0.3877975E+03  0.7957747E-01  0.3417894E+00
         13   -1    0    0    0    0  0.00000000000E+00  0.00000000000E+00  0.14999999963E+04  0.15000000000E+04  0.10566000000E+00 0. -1.
        994   -1    0    0    0    0 -0.00000000000E+00 -0.00000000000E+00  0.11368683772E-12  0.17120000000E+03  0.17120000000E+03 0.  0.
         13    1    1    2    0    0  0.13693805058E+03 -0.11913648975E+03  0.73888656467E+03  0.76085405927E+03  0.10566000000E+00 0. -1.
        994    1    1    2    0    0 -0.21634363399E+03  0.17430931539E+03  0.31430056089E+03  0.45308121566E+03  0.17120000000E+03 0.  0.
        998    1    1    2    0    0  0.79405583419E+02 -0.55172825642E+02  0.44681287071E+03  0.45726472508E+03  0.10000000000E+02 0.  0.
</event>
<event>
 5    1  0.5525569E-010  0.3787502E+03  0.7957747E-01  0.3456618E+00
         13   -1    0    0    0    0  0.00000000000E+00  0.00000000000E+00  0.14999999963E+04  0.15000000000E+04  0.10566000000E+00 0.  1.
        994   -1    0    0    0    0 -0.00000000000E+00 -0.00000000000E+00  0.11368683772E-12  0.17120000000E+03  0.17120000000E+03 0.  0.
         13    1    1    2    0    0 -0.24346107341E+02  0.25241503406E+03  0.11758395553E+04  0.12028735400E+04  0.10566000000E+00 0.  1.
        994    1    1    2    0    0  0.40671420423E+02 -0.25742433093E+03  0.27662362817E+03  0.41683512599E+03  0.17120000000E+03 0.  0.
        998    1    1    2    0    0 -0.16325313082E+02  0.50092968641E+01  0.47536812830E+02  0.51491333993E+02  0.10000000000E+02 0.  1.
</event>
<event>
 5    1  0.5525569E-010  0.3874487E+03  0.7957747E-01  0.3419353E+00
         13   -1    0    0    0    0  0.00000000000E+00  0.00000000000E+00  0.14999999963E+04  0.15000000000E+04  0.10566000000E+00 0.  1.
        994   -1    0    0    0    0 -0.00000000000E+00 -0.00000000000E+00  0.11368683772E-12  0.17120000000E+03  0.17120000000E+03 0.  0.
         13    1    1    2    0    0  0.80500389163E+02  0.10463597749E+03  0.77952207271E+03  0.79062233300E+03  0.10566000000E+00 0.  1.
        994    1    1    2    0    0 -0.12444790392E+03 -0.15861561517E+03  0.14659043580E+03  0.30239773483E+03  0.17120000000E+03 0.  0.
        998    1    1    2    0    0  0.43947514754E+02  0.53979637675E+02  0.57388748778E+03  0.57817993217E+03  0.10000000000E+02 0.  1.
</event>
<event>
 5    1  0.5525569E-010  0.3874267E+03  0.7957747E-01  0.3419445E+00
         13   -1    0    0    0    0  0.00000000000E+00  0.00000000000E+00  0.14999999963E+04  0.15000000000E+04  0.10566000000E+00 0.  1.
        994   -1    0    0    0    0 -0.00000000000E+00 -0.00000000000E+00  0.11368683772E-12  0.17120000000E+03  0.17120000000E+03 0.  0.
         13    1    1    2    0    0  0.22321277785E+03  0.12173789681E+03  0.83321478883E+03  0.87114347567E+03  0.10566000000E+00 0.  1.
        994    1    1    2    0    0 -0.28475793346E+03 -0.14806267069E+03  0.48627247552E+03  0.60727258753E+03  0.17120000000E+03 0.  0.
        998    1    1    2    0    0  0.61545155611E+02  0.26324773875E+02  0.18051273194E+03  0.19278393680E+03  0.10000000000E+02 0.  0.
</event>
<event>
 5    1  0.5525569E-010  0.3841389E+03  0.7957747E-01  0.3433333E+00
         13   -1    0    0    0    0  0.00000000000E+00  0.00000000000E+00  0.14999999963E+04  0.15000000000E+04  0.10566000000E+00 0. -1.
        994   -1    0    0    0    0 -0.00000000000E+00 -0.00000000000E+00  0.11368683772E-12  0.17120000000E+03  0.17120000000E+03 0.  0.
         13    1    1    2    0    0  0.37480688184E+02  0.12975827451E+01  0.15351845053E+03  0.15803294443E+03  0.10566000000E+00 0. -1.
        994    1    1    2    0    0 -0.13293849216E+03  0.56173076779E+02  0.74069990195E+02  0.23584711298E+03  0.17120000000E+03 0.  0.
        998    1    1    2    0    0  0.95457803971E+02 -0.57470659524E+02  0.12724115556E+04  0.12773199426E+04  0.10000000000E+02 0. -1.
</event>
<event>
 5    1  0.5525569E-010  0.3830654E+03  0.7957747E-01  0.3437919E+00
         13   -1    0    0    0    0  0.00000000000E+00  0.00000000000E+00  0.14999999963E+04  0.15000000000E+04  0.10566000000E+00 0. -1.
        994   -1    0    0    0    0 -0.00000000000E+00 -0.00000000000E+00  0.11368683772E-12  0.17120000000E+03  0.17120000000E+03 0.  0.
         13    1    1    2    0    0  0.10965396320E+03 -0.81009794778E+02  0.41776219410E+03  0.43944492314E+03  0.10566000000E+00 0. -1.
        994    1    1    2    0    0 -0.25310643211E+03  0.12010236784E+03  0.33224656589E+03  0.46710241412E+03  0.17120000000E+03 0.  0.
        998    1    1    2    0    0  0.14345246892E+03 -0.39092573061E+02  0.74999123630E+03  0.76465266274E+03  0.10000000000E+02 0. -1.
</event>
<event>
 5    1  0.5525569E-010  0.3818303E+03  0.7957747E-01  0.3443227E+00
         13   -1    0    0    0    0  0.00000000000E+00  0.00000000000E+00  0.14999999963E+04  0.15000000000E+04  0.10566000000E+00 0. -1.
        994   -1    0    0    0    0 -0.00000000000E+00 -0.00000000000E+00  0.11368683772E-12  0.17120000000E+03  0.17120000000E+03 0.  0.
         13    1    1    2    0    0  0.41872056103E+02 -0.41645963344E+02  0.26988445047E+03  0.27627030806E+03  0.10566000000E+00 0. -1.
        994    1    1    2    0    0 -0.12276001418E+03  0.44987441586E+02  0.62263371771E+02  0.22423215302E+03  0.17120000000E+03 0.  0.
        998    1    1    2    0    0  0.80887958079E+02 -0.33414782422E+01  0.11678521740E+04  0.11706975389E+04  0.10000000000E+02 0. -1.
</event>
<event>
 5    1  0.5525569E-010  0.3839201E+03  0.7957747E-01  0.3434265E+00
         13   -1    0    0    0    0  0.00000000000E+00  0.00000000000E+00  0.14999999963E+04  0.15000000000E+04  0.10566000000E+00 0.  1.
        994   -1    0    0    0    0 -0.00000000000E+00 -0.00000000000E+00  0.11368683772E-12  0.17120000000E+03  0.17120000000E+03 0.  0.
         13    1    1    2    0    0  0.94831615758E+02 -0.38054842913E+02  0.61429763750E+03  0.62273815125E+03  0.10566000000E+00 0.  1.
        994    1    1    2    0    0 -0.15566751195E+03  0.15176947109E+03  0.17798489872E+03  0.32902038053E+03  0.17120000000E+03 0.  0.
        998    1    1    2    0    0  0.60835896194E+02 -0.11371462818E+03  0.70771746005E+03  0.71944146822E+03  0.10000000000E+02 0.  1.
</event>
<event>
 5    1  0.5525569E-010  0.3839019E+03  0.7957747E-01  0.3434343E+00
         13   -1    0    0    0    0  0.00000000000E+00  0.00000000000E+00  0.14999999963E+04  0.15000000000E+04  0.10566000000E+00 0. -1.
        994   -1    0    0    0    0 -0.00000000000E+00 -0.00000000000E+00  0.11368683772E-12  0.17120000000E+03  0.17120000000E+03 0.  0.
         13    1    1    2    0    0 -0.62763411558E+02 -0.26333070233E+02  0.35334167831E+03  0.35983750390E+03  0.10566000000E+00 0. -1.
        994    1    1    2    0    0  0.12644982787E+03  0.49688033691E+02  0.65683575614E+02  0.22821531887E+03  0.17120000000E+03 0.  0.
        998    1    1    2    0    0 -0.63686416309E+02 -0.23354963458E+02  0.10809747424E+04  0.10831471772E+04  0.10000000000E+02 0. -1.
</event>
<event>
 5    1  0.5525569E-010  0.3813457E+03  0.7957747E-01  0.3445320E+00
         13   -1    0    0    0    0  0.00000000000E+00  0.00000000000E+00  0.14999999963E+04  0.15000000000E+04  0.10566000000E+00 0. -1.
        994   -1    0    0    0    0 -0.00000000000E+00 -0.00000000000E+00  0.11368683772E-12  0.17120000000E+03  0.17120000000E+03 0.  0.
         13    1    1    2    0    0 -0.17425647328E+02  0.14259489371E+02  0.10173909258E+03  0.10420096134E+03  0.10566000000E+00 0. -1.
        994    1    1    2    0    0 -0.36163766639E+02  0.24641577476E+02  0.98551985040E+01  0.17697906739E+03  0.17120000000E+03 0.  0.
        998    1    1    2    0    0  0.53589413967E+02 -0.38901066848E+02  0.13884057052E+04  0.13900199713E+04  0.10000000000E+02 0. -1.
</event>
<event>
 5    1  0.5525569E-010  0.3815800E+03  0.7957747E-01  0.3444307E+00
         13   -1    0    0    0    0  0.00000000000E+00  0.00000000000E+00  0.14999999963E+04  0.15000000000E+04  0.10566000000E+00 0. -1.
        994   -1    0    0    0    0 -0.00000000000E+00 -0.00000000000E+00  0.11368683772E-12  0.17120000000E+03  0.17120000000E+03 0.  0.
         13    1    1    2    0    0 -0.29175494103E+02 -0.93591151680E+01  0.17530987125E+03  0.17796731334E+03  0.10566000000E+00 0. -1.
        994    1    1    2    0    0  0.14941424026E+02 -0.60724305544E+02  0.16453869058E+02  0.18300507436E+03  0.17120000000E+03 0.  0.
        998    1    1    2    0    0  0.14234070077E+02  0.70083420712E+02  0.13082362560E+04  0.13102276123E+04  0.10000000000E+02 0. -1.
</event>
<event>
 5    1  0.5525569E-010  0.3839426E+03  0.7957747E-01  0.3434169E+00
         13   -1    0    0    0    0  0.00000000000E+00  0.00000000000E+00  0.14999999963E+04  0.15000000000E+04  0.10566000000E+00 0.  1.
        994   -1    0    0    0    0 -0.00000000000E+00 -0.00000000000E+00  0.11368683772E-12  0.17120000000E+03  0.17120000000E+03 0.  0.
         13    1    1    2    0    0 -0.31168149468E+02 -0.62791649367E+02  0.34873705420E+03  0.35571307104E+03  0.10566000000E+00 0.  1.
        994    1    1    2    0    0  0.47318930668E+02  0.14048745416E+03  0.78404064122E+02  0.23965066920E+03  0.17120000000E+03 0.  0.
        998    1    1    2    0    0 -0.16150781199E+02 -0.77695804790E+02  0.10728588780E+04  0.10758362598E+04  0.10000000000E+02 0.  1.
</event>
<event>
 5    1  0.5525569E-010  0.3844279E+03  0.7957747E-01  0.3432102E+00
         13   -1    0    0    0    0  0.00000000000E+00  0.00000000000E+00  0.14999999963E+04  0.15000000000E+04  0.10566000000E+00 0.  1.
        994   -1    0    0    0    0 -0.00000000000E+00 -0.00000000000E+00  0.11368683772E-12  0.17120000000E+03  0.17120000000E+03 0.  0.
         13    1    1    2    0    0  0.22893050854E+02  0.59643074541E+02  0.33728883454E+03  0.34328582434E+03  0.10566000000E+00 0.  1.
        994    1    1    2    0    0 -0.68648703035E+02 -0.12065629797E+03  0.68221859401E+02  0.23072548357E+03  0.17120000000E+03 0.  0.
        998    1    1    2    0    0  0.45755652180E+02  0.61013223427E+02  0.10944893023E+04  0.10971886921E+04  0.10000000000E+02 0.  1.
</event>
<event>
 5    1  0.5525569E-010  0.3897305E+03  0.7957747E-01  0.3409854E+00
         13   -1    0    0    0    0  0.00000000000E+00  0.00000000000E+00  0.14999999963E+04  0.15000000000E+04  0.10566000000E+00 0.  1.
        994   -1    0    0    0    0 -0.00000000000E+00 -0.00000000000E+00  0.11368683772E-12  0.17120000000E+03  0.17120000000E+03 0.  0.
         13    1    1    2    0    0  0.37873158887E+02 -0.43247730801E+02  0.13489124764E+03  0.14663015460E+03  0.10566000000E+00 0.  1.
        994    1    1    2    0    0  0.20088503344E+03 -0.40773781304E+02  0.20377913668E+03  0.33593552127E+03  0.17120000000E+03 0.  0.
        998    1    1    2    0    0 -0.23875819233E+03  0.84021512105E+02  0.11613296120E+04  0.11886343241E+04  0.10000000000E+02 0.  1.
</event>
<event>
 5    1  0.5525569E-010  0.3873531E+03  0.7957747E-01  0.3419753E+00
         13   -1    0    0    0    0  0.00000000000E+00  0.00000000000E+00  0.14999999963E+04  0.15000000000E+04  0.10566000000E+00 0.  1.
        994   -1    0    0    0    0 -0.00000000000E+00 -0.00000000000E+00  0.11368683772E-12  0.17120000000E+03  0.17120000000E+03 0.  0.
         13    1    1    2    0    0  0.20469089436E+03  0.23207602698E+02  0.99870349242E+03  0.10197282148E+04  0.10566000000E+00 0.  1.
        994    1    1    2    0    0 -0.24490332433E+03 -0.36181055130E+02  0.23555726847E+03  0.38220854746E+03  0.17120000000E+03 0.  0.
        998    1    1    2    0    0  0.40212429973E+02  0.12973452432E+02  0.26573923538E+03  0.26926323777E+03  0.10000000000E+02 0.  1.
</event>
<event>
 5    1  0.5525569E-010  0.3979849E+03  0.7957747E-01  0.3376402E+00
         13   -1    0    0    0    0  0.00000000000E+00  0.00000000000E+00  0.14999999963E+04  0.15000000000E+04  0.10566000000E+00 0. -1.
        994   -1    0    0    0    0 -0.00000000000E+00 -0.00000000000E+00  0.11368683772E-12  0.17120000000E+03  0.17120000000E+03 0.  0.
         13    1    1    2    0    0 -0.46807301928E+02  0.87896466369E+02  0.26747918953E+03  0.28541520686E+03  0.10566000000E+00 0. -1.
        994    1    1    2    0    0 -0.18315509610E+03 -0.87710385182E+02  0.21261040209E+03  0.34022275640E+03  0.17120000000E+03 0.  0.
        998    1    1    2    0    0  0.22996239803E+03 -0.18608118692E+00  0.10199104047E+04  0.10455620367E+04  0.10000000000E+02 0. -1.
</event>
<event>
 5    1  0.5525569E-010  0.3853544E+03  0.7957747E-01  0.3428171E+00
         13   -1    0    0    0    0  0.00000000000E+00  0.00000000000E+00  0.14999999963E+04  0.15000000000E+04  0.10566000000E+00 0.  1.
        994   -1    0    0    0    0 -0.00000000000E+00 -0.00000000000E+00  0.11368683772E-12  0.17120000000E+03  0.17120000000E+03 0.  0.
         13    1    1    2    0    0  0.53478074757E+02  0.46342851895E+02  0.35404862743E+03  0.36105125141E+03  0.10566000000E+00 0.  1.
        994    1    1    2    0    0 -0.25494424666E+03 -0.88279308493E+02  0.29593080563E+03  0.43551611558E+03  0.17120000000E+03 0.  0.
        998    1    1    2    0    0  0.20146617190E+03  0.41936456598E+02  0.85002056323E+03  0.87463263301E+03  0.10000000000E+02 0.  1.
</event>
<event>
 5    1  0.5525569E-010  0.3878810E+03  0.7957747E-01  0.3417545E+00
         13   -1    0    0    0    0  0.00000000000E+00  0.00000000000E+00  0.14999999963E+04  0.15000000000E+04  0.10566000000E+00 0.  1.
        994   -1    0    0    0    0 -0.00000000000E+00 -0.00000000000E+00  0.11368683772E-12  0.17120000000E+03  0.17120000000E+03 0.  0.
         13    1    1    2    0    0 -0.17155931277E+03  0.19010735357E+01  0.68725755216E+03  0.70834960721E+03  0.10566000000E+00 0.  1.
        994    1    1    2    0    0  0.29624901629E+03 -0.55815202569E+01  0.37544681022E+03  0.50800037433E+03  0.17120000000E+03 0.  0.
        998    1    1    2    0    0 -0.12468970352E+03  0.36804467212E+01  0.43729563391E+03  0.45485001845E+03  0.10000000000E+02 0.  0.
</event>
<event>
 5    1  0.5525569E-010  0.3848447E+03  0.7957747E-01  0.3430331E+00
         13   -1    0    0    0    0  0.00000000000E+00  0.00000000000E+00  0.14999999963E+04  0.15000000000E+04  0.10566000000E+00 0.  1.
        994   -1    0    0    0    0 -0.00000000000E+00 -0.00000000000E+00  0.11368683772E-12  0.17120000000E+03  0.17120000000E+03 0.  0.
         13    1    1    2    0    0 -0.16398629697E+03  0.25524049064E+03  0.91835933740E+03  0.96717273401E+03  0.10566000000E+00 0.  1.
        994    1    1    2    0    0  0.18158862913E+03 -0.26145395108E+03  0.48372382151E+03  0.60384664797E+03  0.17120000000E+03 0.  0.
        998    1    1    2    0    0 -0.17602332159E+02  0.62134604369E+01  0.97916837366E+02  0.10018061802E+03  0.10000000000E+02 0.  1.
</event>
<event>
 5    1  0.5525569E-010  0.3849640E+03  0.7957747E-01  0.3429825E+00
         13   -1    0    0    0    0  0.00000000000E+00  0.00000000000E+00  0.14999999963E+04  0.15000000000E+04  0.10566000000E+00 0.  1.
        994   -1    0    0    0    0 -0.00000000000E+00 -0.00000000000E+00  0.11368683772E-12  0.17120000000E+03  0.17120000000E+03 0.  0.
         13    1    1    2    0    0 -0.19296074894E+02 -0.21592242114E+02  0.13452582690E+03  0.13760731337E+03  0.10566000000E+00 0.  1.
        994    1    1    2    0    0  0.97460824419E+02  0.45545917939E+02  0.40686321478E+02  0.20624708408E+03  0.17120000000E+03 0.  0.
        998    1    1    2    0    0 -0.78164749525E+02 -0.23953675825E+02  0.13247878479E+04  0.13273456025E+04  0.10000000000E+02 0.  1.
</event>
<event>
 5    1  0.5932955E-010  0.3870537E+03  0.7957747E-01  0.3421009E+00
         13   -1    0    0    0    0  0.00000000000E+00  0.00000000000E+00  0.14999999963E+04  0.15000000000E+04  0.10566000000E+00 0. -1.
        994   -1    0    0    0    0 -0.00000000000E+00 -0.00000000000E+00  0.11368683772E-12  0.17120000000E+03  0.17120000000E+03 0.  0.
         13    1    1    2    0    0  0.16901517291E+03 -0.16828546472E+03  0.11387343421E+04  0.11634440422E+04  0.10566000000E+00 0. -1.
        994    1    1    2    0    0 -0.18016194941E+03  0.17826037223E+03  0.24994320576E+03  0.39498877760E+03  0.17120000000E+03 0.  0.
        998    1    1    2    0    0  0.11146776499E+02 -0.99749075170E+01  0.11132244838E+03  0.11276718015E+03  0.10000000000E+02 0.  1.
</event>
<event>
 5    1  0.5525569E-010  0.3873766E+03  0.7957747E-01  0.3419655E+00
         13   -1    0    0    0    0  0.00000000000E+00  0.00000000000E+00  0.14999999963E+04  0.15000000000E+04  0.10566000000E+00 0.  1.
        994   -1    0    0    0    0 -0.00000000000E+00 -0.00000000000E+00  0.11368683772E-12  0.17120000000E+03  0.17120000000E+03 0.  0.
         13    1    1    2    0    0 -0.18599734397E+03  0.30344845463E+02  0.10002066598E+04  0.10178060695E+04  0.10566000000E+00 0.  1.
        994    1    1    2    0    0  0.22590179018E+03 -0.44371129882E+02  0.19824081292E+03  0.34872521543E+03  0.17120000000E+03 0.  0.
        998    1    1    2    0    0 -0.39904446205E+02  0.14026284420E+02  0.30155252356E+03  0.30466871508E+03  0.10000000000E+02 0.  1.
</event>
<event>
 5    1  0.5525569E-010  0.3874183E+03  0.7957747E-01  0.3419480E+00
         13   -1    0    0    0    0  0.00000000000E+00  0.00000000000E+00  0.14999999963E+04  0.15000000000E+04  0.10566000000E+00 0. -1.
        994   -1    0    0    0    0 -0.00000000000E+00 -0.00000000000E+00  0.11368683772E-12  0.17120000000E+03  0.17120000000E+03 0.  0.
         13    1    1    2    0    0  0.50413417372E+02  0.13455013245E+03  0.68468276463E+03  0.69959684829E+03  0.10566000000E+00 0. -1.
        994    1    1    2    0    0 -0.77480930916E+02 -0.26213511974E+03  0.30189067287E+03  0.44177543393E+03  0.17120000000E+03 0.  0.
        998    1    1    2    0    0  0.27067513543E+02  0.12758498729E+03  0.51342655878E+03  0.52982771778E+03  0.10000000000E+02 0. -1.
</event>
<event>
 5    1  0.5525569E-010  0.3810738E+03  0.7957747E-01  0.3446496E+00
         13   -1    0    0    0    0  0.00000000000E+00  0.00000000000E+00  0.14999999963E+04  0.15000000000E+04  0.10566000000E+00 0. -1.
        994   -1    0    0    0    0 -0.00000000000E+00 -0.00000000000E+00  0.11368683772E-12  0.17120000000E+03  0.17120000000E+03 0.  0.
         13    1    1    2    0    0  0.11527605729E+02  0.38907425787E+02  0.16722138585E+03  0.17207462487E+03  0.10566000000E+00 0. -1.
        994    1    1    2    0    0  0.75914698180E+02 -0.10951471374E+03  0.65196986529E+02  0.22653167765E+03  0.17120000000E+03 0.  0.
        998    1    1    2    0    0 -0.87442303910E+02  0.70607287948E+02  0.12675816239E+04  0.12725936975E+04  0.10000000000E+02 0. -1.
</event>
<event>
 5    1  0.5525569E-010  0.3706979E+03  0.7957747E-01  0.3492689E+00
         13   -1    0    0    0    0  0.00000000000E+00  0.00000000000E+00  0.14999999963E+04  0.15000000000E+04  0.10566000000E+00 0. -1.
        994   -1    0    0    0    0 -0.00000000000E+00 -0.00000000000E+00  0.11368683772E-12  0.17120000000E+03  0.17120000000E+03 0.  0.
         13    1    1    2    0    0 -0.43822084404E+01 -0.37728421547E+02  0.11771024900E+03  0.12368650462E+03  0.10566000000E+00 0. -1.
        994    1    1    2    0    0 -0.10316503888E+03 -0.12972481521E+03  0.11487922857E+03  0.26453398663E+03  0.17120000000E+03 0.  0.
        998    1    1    2    0    0  0.10754724732E+03  0.16745323676E+03  0.12674105187E+04  0.12829795087E+04  0.10000000000E+02 0. -1.
</event>
<event>
 5    1  0.5525569E-010  0.3861422E+03  0.7957747E-01  0.3424842E+00
         13   -1    0    0    0    0  0.00000000000E+00  0.00000000000E+00  0.14999999963E+04  0.15000000000E+04  0.10566000000E+00 0.  1.
        994   -1    0    0    0    0 -0.00000000000E+00 -0.00000000000E+00  0.11368683772E-12  0.17120000000E+03  0.17120000000E+03 0.  0.
         13    1    1    2    0    0  0.36738567439E+01  0.11305226656E+02  0.62127613976E+02  0.63254699079E+02  0.10566000000E+00 0.  1.
        994    1    1    2    0    0 -0.48934136114E+02 -0.70066937071E+01  0.91119881477E+01  0.17842676862E+03  0.17120000000E+03 0.  0.
        998    1    1    2    0    0  0.45260279370E+02 -0.42985329488E+01  0.14287603942E+04  0.14295185323E+04  0.10000000000E+02 0.  1.
</event>
<event>
 5    1  0.5525569E-010  0.3769497E+03  0.7957747E-01  0.3464549E+00
         13   -1    0    0    0    0  0.00000000000E+00  0.00000000000E+00  0.14999999963E+04  0.15000000000E+04  0.10566000000E+00 0. -1.
        994   -1    0    0    0    0 -0.00000000000E+00 -0.00000000000E+00  0.11368683772E-12  0.17120000000E+03  0.17120000000E+03 0.  0.
         13    1    1    2    0    0 -0.84205751915E+02  0.23522038764E+03  0.11810302944E+04  0.12071668513E+04  0.10566000000E+00 0. -1.
        994    1    1    2    0    0  0.98583533471E+02 -0.24663402684E+03  0.29610501034E+03  0.43305273745E+03  0.17120000000E+03 0.  0.
        998    1    1    2    0    0 -0.14377781555E+02  0.11413639200E+02  0.22864691552E+02  0.30980411263E+02  0.10000000000E+02 0. -1.
</event>
<event>
 5    1  0.5525569E-010  0.3857802E+03  0.7957747E-01  0.3426370E+00
         13   -1    0    0    0    0  0.00000000000E+00  0.00000000000E+00  0.14999999963E+04  0.15000000000E+04  0.10566000000E+00 0.  1.
        994   -1    0    0    0    0 -0.00000000000E+00 -0.00000000000E+00  0.11368683772E-12  0.17120000000E+03  0.17120000000E+03 0.  0.
         13    1    1    2    0    0  0.15071872158E+02  0.14991015410E+01  0.74243744957E+02  0.75773039170E+02  0.10566000000E+00 0.  1.
        994    1    1    2    0    0 -0.57647961532E+02  0.73142860413E+02  0.30230056737E+02  0.19722185941E+03  0.17120000000E+03 0.  0.
        998    1    1    2    0    0  0.42576089374E+02 -0.74641961954E+02  0.13955261946E+04  0.13982051014E+04  0.10000000000E+02 0.  1.
</event>
<event>
 5    1  0.5525569E-010  0.3876477E+03  0.7957747E-01  0.3418520E+00
         13   -1    0    0    0    0  0.00000000000E+00  0.00000000000E+00  0.14999999963E+04  0.15000000000E+04  0.10566000000E+00 0.  1.
        994   -1    0    0    0    0 -0.00000000000E+00 -0.00000000000E+00  0.11368683772E-12  0.17120000000E+03  0.17120000000E+03 0.  0.
         13    1    1    2    0    0 -0.83299497804E+02  0.14212287221E+03  0.72135258189E+03  0.73992383101E+03  0.10566000000E+00 0.  1.
        994    1    1    2    0    0  0.13450032792E+03 -0.22190476608E+03  0.26391015832E+03  0.40778680102E+03  0.17120000000E+03 0.  0.
        998    1    1    2    0    0 -0.51200830112E+02  0.79781893867E+02  0.51473725607E+03  0.52348936797E+03  0.10000000000E+02 0.  1.
</event>
<event>
 5    1  0.5525569E-010  0.3823496E+03  0.7957747E-01  0.3440991E+00
         13   -1    0    0    0    0  0.00000000000E+00  0.00000000000E+00  0.14999999963E+04  0.15000000000E+04  0.10566000000E+00 0.  1.
        994   -1    0    0    0    0 -0.00000000000E+00 -0.00000000000E+00  0.11368683772E-12  0.17120000000E+03  0.17120000000E+03 0.  0.
         13    1    1    2    0    0  0.85360131325E+02  0.18190403092E+02  0.36555432240E+03  0.37582870642E+03  0.10566000000E+00 0.  1.
        994    1    1    2    0    0 -0.18247860020E+03  0.28121975409E+01  0.12267551081E+03  0.27868453301E+03  0.17120000000E+03 0.  0.
        998    1    1    2    0    0  0.97118468876E+02 -0.21002600633E+02  0.10117701631E+04  0.10166867606E+04  0.10000000000E+02 0.  1.
</event>
<event>
 5    1  0.5525569E-010  0.3794754E+03  0.7957747E-01  0.3453446E+00
         13   -1    0    0    0    0  0.00000000000E+00  0.00000000000E+00  0.14999999963E+04  0.15000000000E+04  0.10566000000E+00 0. -1.
        994   -1    0    0    0    0 -0.00000000000E+00 -0.00000000000E+00  0.11368683772E-12  0.17120000000E+03  0.17120000000E+03 0.  0.
         13    1    1    2    0    0 -0.14350719658E+02  0.12781142150E+02  0.48067004754E+02  0.51766290764E+02  0.10566000000E+00 0. -1.
        994    1    1    2    0    0 -0.84537110892E+02 -0.44411822026E+02  0.35566566714E+02  0.19923190940E+03  0.17120000000E+03 0.  0.
        998    1    1    2    0    0  0.98887830550E+02  0.31630679875E+02  0.14163664248E+04  0.14202017998E+04  0.10000000000E+02 0. -1.
</event>
<event>
 5    1  0.5525569E-010  0.3815457E+03  0.7957747E-01  0.3444456E+00
         13   -1    0    0    0    0  0.00000000000E+00  0.00000000000E+00  0.14999999963E+04  0.15000000000E+04  0.10566000000E+00 0. -1.
        994   -1    0    0    0    0 -0.00000000000E+00 -0.00000000000E+00  0.11368683772E-12  0.17120000000E+03  0.17120000000E+03 0.  0.
         13    1    1    2    0    0 -0.10521103003E+03 -0.30648193479E+03  0.91398257088E+03  0.96972402684E+03  0.10566000000E+00 0. -1.
        994    1    1    2    0    0  0.99779951310E+02  0.31443414699E+03  0.56410835479E+03  0.67553870904E+03  0.17120000000E+03 0.  0.
        998    1    1    2    0    0  0.54310787188E+01 -0.79522121959E+01  0.21909070606E+02  0.25937264114E+02  0.10000000000E+02 0.  1.
</event>
<event>
 5    1  0.5525569E-010  0.3807345E+03  0.7957747E-01  0.3447966E+00
         13   -1    0    0    0    0  0.00000000000E+00  0.00000000000E+00  0.14999999963E+04  0.15000000000E+04  0.10566000000E+00 0. -1.
        994   -1    0    0    0    0 -0.00000000000E+00 -0.00000000000E+00  0.11368683772E-12  0.17120000000E+03  0.17120000000E+03 0.  0.
         13    1    1    2    0    0 -0.45122521952E+02 -0.27473279044E+02  0.23321430078E+03  0.23912286445E+03  0.10566000000E+00 0. -1.
        994    1    1    2    0    0  0.36463438470E+02  0.15018626489E+03  0.88016583552E+02  0.24686404252E+03  0.17120000000E+03 0.  0.
        998    1    1    2    0    0  0.86590834818E+01 -0.12271298585E+03  0.11787691119E+04  0.11852130930E+04  0.10000000000E+02 0. -1.
</event>
<event>
 5    1  0.5525569E-010  0.3856029E+03  0.7957747E-01  0.3427119E+00
         13   -1    0    0    0    0  0.00000000000E+00  0.00000000000E+00  0.14999999963E+04  0.15000000000E+04  0.10566000000E+00 0. -1.
        994   -1    0    0    0    0 -0.00000000000E+00 -0.00000000000E+00  0.11368683772E-12  0.17120000000E+03  0.17120000000E+03 0.  0.
         13    1    1    2    0    0  0.10926914861E+02 -0.30520327202E+01  0.59850962498E+02  0.60916838789E+02  0.10566000000E+00 0. -1.
        994    1    1    2    0    0  0.12101484740E+01 -0.60359546165E+02  0.13386675182E+02  0.18202577385E+03  0.17120000000E+03 0.  0.
        998    1    1    2    0    0 -0.12137063335E+02  0.63411578885E+02  0.14267623586E+04  0.14282573874E+04  0.10000000000E+02 0. -1.
</event>
<event>
 5    1  0.5525569E-010  0.3840194E+03  0.7957747E-01  0.3433842E+00
         13   -1    0    0    0    0  0.00000000000E+00  0.00000000000E+00  0.14999999963E+04  0.15000000000E+04  0.10566000000E+00 0. -1.
        994   -1    0    0    0    0 -0.00000000000E+00 -0.00000000000E+00  0.11368683772E-12  0.17120000000E+03  0.17120000000E+03 0.  0.
         13    1    1    2    0    0  0.15994887313E+02 -0.78047274516E+01  0.92134590344E+02  0.93837860657E+02  0.10566000000E+00 0. -1.
        994    1    1    2    0    0  0.42498211402E+02  0.59610852488E+02  0.20004707612E+02  0.18726766948E+03  0.17120000000E+03 0.  0.
        998    1    1    2    0    0 -0.58493098714E+02 -0.51806125036E+02  0.13878606983E+04  0.13900944699E+04  0.10000000000E+02 0. -1.
</event>
<event>
 5    1  0.5525569E-010  0.3842080E+03  0.7957747E-01  0.3433038E+00
         13   -1    0    0    0    0  0.00000000000E+00  0.00000000000E+00  0.14999999963E+04  0.15000000000E+04  0.10566000000E+00 0.  1.
        994   -1    0    0    0    0 -0.00000000000E+00 -0.00000000000E+00  0.11368683772E-12  0.17120000000E+03  0.17120000000E+03 0.  0.
         13    1    1    2    0    0  0.21435386136E+03 -0.11170973678E+03  0.81485428667E+03  0.84994950605E+03  0.10566000000E+00 0.  1.
        994    1    1    2    0    0 -0.26462348706E+03  0.12105613656E+03  0.36624315186E+03  0.49812013048E+03  0.17120000000E+03 0.  0.
        998    1    1    2    0    0  0.50269625698E+02 -0.93463997735E+01  0.31890255775E+03  0.32313036347E+03  0.10000000000E+02 0.  1.
</event>
<event>
 5    1  0.5525569E-010  0.3877698E+03  0.7957747E-01  0.3418009E+00
         13   -1    0    0    0    0  0.00000000000E+00  0.00000000000E+00  0.14999999963E+04  0.15000000000E+04  0.10566000000E+00 0.  1.
        994   -1    0    0    0    0 -0.00000000000E+00 -0.00000000000E+00  0.11368683772E-12  0.17120000000E+03  0.17120000000E+03 0.  0.
         13    1    1    2    0    0 -0.11569860732E+03 -0.13795332934E+03  0.86386930939E+03  0.88243270774E+03  0.10566000000E+00 0.  1.
        994    1    1    2    0    0  0.15450538547E+03  0.19681722490E+03  0.24107300818E+03  0.38734296099E+03  0.17120000000E+03 0.  0.
        998    1    1    2    0    0 -0.38806778144E+02 -0.58863895567E+02  0.39505767870E+03  0.40142433127E+03  0.10000000000E+02 0.  1.
</event>
<event>
 5    1  0.5525569E-010  0.3851340E+03  0.7957747E-01  0.3429104E+00
         13   -1    0    0    0    0  0.00000000000E+00  0.00000000000E+00  0.14999999963E+04  0.15000000000E+04  0.10566000000E+00 0.  1.
        994   -1    0    0    0    0 -0.00000000000E+00 -0.00000000000E+00  0.11368683772E-12  0.17120000000E+03  0.17120000000E+03 0.  0.
         13    1    1    2    0    0  0.26080135528E+03 -0.16319238695E+03  0.90142928757E+03  0.95248300443E+03  0.10566000000E+00 0.  1.
        994    1    1    2    0    0 -0.26854932421E+03  0.18561745587E+03  0.53100568611E+03  0.64641245203E+03  0.17120000000E+03 0.  0.
        998    1    1    2    0    0  0.77479689276E+01 -0.22425068914E+02  0.67565022602E+02  0.72304543547E+02  0.10000000000E+02 0.  1.
</event>
<event>
 5    1  0.5525569E-010  0.3854946E+03  0.7957747E-01  0.3427577E+00
         13   -1    0    0    0    0  0.00000000000E+00  0.00000000000E+00  0.14999999963E+04  0.15000000000E+04  0.10566000000E+00 0.  1.
        994   -1    0    0    0    0 -0.00000000000E+00 -0.00000000000E+00  0.11368683772E-12  0.17120000000E+03  0.17120000000E+03 0.  0.
         13    1    1    2    0    0 -0.82249361205E+02  0.16408264160E+03  0.10905062191E+04  0.11058444265E+04  0.10566000000E+00 0.  1.
        994    1    1    2    0    0  0.72824575899E+02 -0.19614790035E+03  0.16148148135E+03  0.31490177276E+03  0.17120000000E+03 0.  0.
        998    1    1    2    0    0  0.94247853064E+01  0.32065258741E+02  0.24801229586E+03  0.25045380072E+03  0.10000000000E+02 0.  1.
</event>
<event>
 5    1  0.5525569E-010  0.3857305E+03  0.7957747E-01  0.3426580E+00
         13   -1    0    0    0    0  0.00000000000E+00  0.00000000000E+00  0.14999999963E+04  0.15000000000E+04  0.10566000000E+00 0. -1.
        994   -1    0    0    0    0 -0.00000000000E+00 -0.00000000000E+00  0.11368683772E-12  0.17120000000E+03  0.17120000000E+03 0.  0.
         13    1    1    2    0    0 -0.27461798228E+01 -0.11967525328E+02  0.33440410374E+02  0.35623522792E+02  0.10566000000E+00 0. -1.
        994    1    1    2    0    0  0.12983625000E+02  0.12687102965E+03  0.56582134049E+02  0.22085246337E+03  0.17120000000E+03 0.  0.
        998    1    1    2    0    0 -0.10237445177E+02 -0.11490350432E+03  0.14099774519E+04  0.14147240138E+04  0.10000000000E+02 0. -1.
</event>
<event>
 5    1  0.5525569E-010  0.3865676E+03  0.7957747E-01  0.3423051E+00
         13   -1    0    0    0    0  0.00000000000E+00  0.00000000000E+00  0.14999999963E+04  0.15000000000E+04  0.10566000000E+00 0.  1.
        994   -1    0    0    0    0 -0.00000000000E+00 -0.00000000000E+00  0.11368683772E-12  0.17120000000E+03  0.17120000000E+03 0.  0.
         13    1    1    2    0    0  0.24760355233E+03  0.17736364905E+03  0.90881787648E+03  0.95849638858E+03  0.10566000000E+00 0.  1.
        994    1    1    2    0    0 -0.26195011544E+03 -0.19697987737E+03  0.53129555487E+03  0.64730467455E+03  0.17120000000E+03 0.  0.
        998    1    1    2    0    0  0.14346563105E+02  0.19616228315E+02  0.59886564925E+02  0.65398936878E+02  0.10000000000E+02 0.  0.
</event>
<event>
 5    1  0.5525569E-010  0.3855610E+03  0.7957747E-01  0.3427296E+00
         13   -1    0    0    0    0  0.00000000000E+00  0.00000000000E+00  0.14999999963E+04  0.15000000000E+04  0.10566000000E+00 0. -1.
        994   -1    0    0    0    0 -0.00000000000E+00 -0.00000000000E+00  0.11368683772E-12  0.17120000000E+03  0.17120000000E+03 0.  0.
         13    1    1    2    0    0 -0.16567328489E+02  0.14895854276E+03  0.82130968252E+03  0.83487288230E+03  0.10566000000E+00 0. -1.
        994    1    1    2    0    0  0.31868480912E+02 -0.19610178533E+03  0.14388812140E+03  0.29914000362E+03  0.17120000000E+03 0.  0.
        998    1    1    2    0    0 -0.15301152423E+02  0.47143242571E+02  0.53480219235E+03  0.53718711408E+03  0.10000000000E+02 0. -1.
</event>
<event>
 5    1  0.5525569E-010  0.3847482E+03  0.7957747E-01  0.3430741E+00
         13   -1    0    0    0    0  0.00000000000E+00  0.00000000000E+00  0.14999999963E+04  0.15000000000E+04  0.10566000000E+00 0.  1.
        994   -1    0    0    0    0 -0.00000000000E+00 -0.00000000000E+00  0.11368683772E-12  0.17120000000E+03  0.17120000000E+03 0.  0.
         13    1    1    2    0    0 -0.63132079777E+02 -0.16815399525E+03  0.10262175546E+04  0.10418175973E+04  0.10566000000E+00 0.  1.
        994    1    1    2    0    0  0.47018319199E+02  0.22616733237E+03  0.20340288100E+03  0.35219959763E+03  0.17120000000E+03 0.  0.
        998    1    1    2    0    0  0.16113760578E+02 -0.58013337122E+02  0.27037956069E+03  0.27718280503E+03  0.10000000000E+02 0. -1.
</event>
<event>
 5    1  0.5525569E-010  0.3879549E+03  0.7957747E-01  0.3417236E+00
         13   -1    0    0    0    0  0.00000000000E+00  0.00000000000E+00  0.14999999963E+04  0.15000000000E+04  0.10566000000E+00 0. -1.
        994   -1    0    0    0    0 -0.00000000000E+00 -0.00000000000E+00  0.11368683772E-12  0.17120000000E+03  0.17120000000E+03 0.  0.
         13    1    1    2    0    0  0.11995103650E+03  0.64922024839E+02  0.63004919173E+03  0.64464340192E+03  0.10566000000E+00 0. -1.
        994    1    1    2    0    0 -0.22847906544E+03 -0.11343644294E+03  0.25243320967E+03  0.39762101965E+03  0.17120000000E+03 0.  0.
        998    1    1    2    0    0  0.10852802893E+03  0.48514418097E+02  0.61751759488E+03  0.62893557843E+03  0.10000000000E+02 0. -1.
</event>
<event>
 5    1  0.5525569E-010  0.3751180E+03  0.7957747E-01  0.3472695E+00
         13   -1    0    0    0    0  0.00000000000E+00  0.00000000000E+00  0.14999999963E+04  0.15000000000E+04  0.10566000000E+00 0.  1.
        994   -1    0    0    0    0 -0.00000000000E+00 -0.00000000000E+00  0.11368683772E-12  0.17120000000E+03  0.17120000000E+03 0.  0.
         13    1    1    2    0    0  0.50857691702E+01 -0.20126509465E+02  0.40974239550E+02  0.45933004496E+02  0.10566000000E+00 0.  1.
        994    1    1    2    0    0  0.22345595368E+01 -0.97239079188E+02  0.39474847589E+02  0.20081866290E+03  0.17120000000E+03 0.  0.
        998    1    1    2    0    0 -0.73203287069E+01  0.11736558865E+03  0.14195509091E+04  0.14244483326E+04  0.10000000000E+02 0.  1.
</event>
<event>
 5    1  0.5525569E-010  0.3722832E+03  0.7957747E-01  0.3485463E+00
         13   -1    0    0    0    0  0.00000000000E+00  0.00000000000E+00  0.14999999963E+04  0.15000000000E+04  0.10566000000E+00 0. -1.
        994   -1    0    0    0    0 -0.00000000000E+00 -0.00000000000E+00  0.11368683772E-12  0.17120000000E+03  0.17120000000E+03 0.  0.
         13    1    1    2    0    0  0.84967037188E+02 -0.75953114402E+01  0.35716465166E+03  0.36721068302E+03  0.10566000000E+00 0. -1.
        994    1    1    2    0    0 -0.88889292204E+02  0.12548867055E+03  0.94146325774E+02  0.24863966570E+03  0.17120000000E+03 0.  0.
        998    1    1    2    0    0  0.39222550162E+01 -0.11789335911E+03  0.10486890188E+04  0.10553496513E+04  0.10000000000E+02 0. -1.
</event>
<event>
 5    1  0.7528958E-010  0.3875467E+03  0.7957747E-01  0.3418943E+00
         13   -1    0    0    0    0  0.00000000000E+00  0.00000000000E+00  0.14999999963E+04  0.15000000000E+04  0.10566000000E+00 0. -1.
        994   -1    0    0    0    0 -0.00000000000E+00 -0.00000000000E+00  0.11368683772E-12  0.17120000000E+03  0.17120000000E+03 0.  0.
         13    1    1    2    0    0  0.19074425563E+03 -0.42106825665E+02  0.11652335338E+04  0.11814929349E+04  0.10566000000E+00 0. -1.
        994    1    1    2    0    0 -0.21446690057E+03  0.42133013933E+02  0.17567449826E+03  0.32854560055E+03  0.17120000000E+03 0.  0.
        998    1    1    2    0    0  0.23722644938E+02 -0.26188268647E-01  0.15909196425E+03  0.16116146455E+03  0.10000000000E+02 0.  0.
</event>
<event>
 5    1  0.5525569E-010  0.3852423E+03  0.7957747E-01  0.3428645E+00
         13   -1    0    0    0    0  0.00000000000E+00  0.00000000000E+00  0.14999999963E+04  0.15000000000E+04  0.10566000000E+00 0.  1.
        994   -1    0    0    0    0 -0.00000000000E+00 -0.00000000000E+00  0.11368683772E-12  0.17120000000E+03  0.17120000000E+03 0.  0.
         13    1    1    2    0    0  0.18970773488E+03 -0.50624210575E+02  0.10674352260E+04  0.10853431753E+04  0.10566000000E+00 0.  1.
        994    1    1    2    0    0 -0.20781854221E+03  0.49703765410E+02  0.16959483282E+03  0.32207275281E+03  0.17120000000E+03 0.  0.
        998    1    1    2    0    0  0.18110807329E+02  0.92044516499E+00  0.26296993746E+03  0.26378407186E+03  0.10000000000E+02 0.  1.
</event>
<event>
 5    1  0.5525569E-010  0.3878050E+03  0.7957747E-01  0.3417862E+00
         13   -1    0    0    0    0  0.00000000000E+00  0.00000000000E+00  0.14999999963E+04  0.15000000000E+04  0.10566000000E+00 0. -1.
        994   -1    0    0    0    0 -0.00000000000E+00 -0.00000000000E+00  0.11368683772E-12  0.17120000000E+03  0.17120000000E+03 0.  0.
         13    1    1    2    0    0 -0.11147825931E+03 -0.74381414267E+02  0.68450528206E+03  0.69750088847E+03  0.10566000000E+00 0. -1.
        994    1    1    2    0    0  0.20073644224E+03  0.12125668549E+03  0.20641589628E+03  0.35625168808E+03  0.17120000000E+03 0.  0.
        998    1    1    2    0    0 -0.89258182926E+02 -0.46875271219E+02  0.60907881794E+03  0.61744742345E+03  0.10000000000E+02 0.  1.
</event>
<event>
 5    1  0.5525569E-010  0.3874217E+03  0.7957747E-01  0.3419466E+00
         13   -1    0    0    0    0  0.00000000000E+00  0.00000000000E+00  0.14999999963E+04  0.15000000000E+04  0.10566000000E+00 0. -1.
        994   -1    0    0    0    0 -0.00000000000E+00 -0.00000000000E+00  0.11368683772E-12  0.17120000000E+03  0.17120000000E+03 0.  0.
         13    1    1    2    0    0 -0.67658670220E+02  0.44462741757E+02  0.45438094602E+03  0.46153730763E+03  0.10566000000E+00 0. -1.
        994    1    1    2    0    0  0.15451522509E+03 -0.12563132960E+03  0.14267347015E+03  0.29887011367E+03  0.17120000000E+03 0.  0.
        998    1    1    2    0    0 -0.86856554874E+02  0.81168587840E+02  0.90294558011E+03  0.91079257870E+03  0.10000000000E+02 0.  0.
</event>
<event>
 5    1  0.5525569E-010  0.3845882E+03  0.7957747E-01  0.3431421E+00
         13   -1    0    0    0    0  0.00000000000E+00  0.00000000000E+00  0.14999999963E+04  0.15000000000E+04  0.10566000000E+00 0. -1.
        994   -1    0    0    0    0 -0.00000000000E+00 -0.00000000000E+00  0.11368683772E-12  0.17120000000E+03  0.17120000000E+03 0.  0.
         13    1    1    2    0    0  0.39845980184E+02 -0.13428491107E+03  0.69933347528E+03  0.71322328922E+03  0.10566000000E+00 0. -1.
        994    1    1    2    0    0 -0.53905514588E+02  0.19277399363E+03  0.14732888868E+03  0.30179936806E+03  0.17120000000E+03 0.  0.
        998    1    1    2    0    0  0.14059534404E+02 -0.58489082562E+02  0.65333763232E+03  0.65617734272E+03  0.10000000000E+02 0. -1.
</event>
<event>
 5    1  0.5525569E-010  0.3878390E+03  0.7957747E-01  0.3417720E+00
         13   -1    0    0    0    0  0.00000000000E+00  0.00000000000E+00  0.14999999963E+04  0.15000000000E+04  0.10566000000E+00 0. -1.
        994   -1    0    0    0    0 -0.00000000000E+00 -0.00000000000E+00  0.11368683772E-12  0.17120000000E+03  0.17120000000E+03 0.  0.
         13    1    1    2    0    0 -0.36558995598E+02 -0.70124235624E+02  0.44297314372E+03  0.44997687252E+03  0.10566000000E+00 0. -1.
        994    1    1    2    0    0  0.11362350284E+03  0.17876624001E+03  0.16327861994E+03  0.31754844779E+03  0.17120000000E+03 0.  0.
        998    1    1    2    0    0 -0.77064507246E+02 -0.10864200439E+03  0.89374823262E+03  0.90367467969E+03  0.10000000000E+02 0. -1.
</event>
<event>
 5    1  0.5525569E-010  0.3869106E+03  0.7957747E-01  0.3421609E+00
         13   -1    0    0    0    0  0.00000000000E+00  0.00000000000E+00  0.14999999963E+04  0.15000000000E+04  0.10566000000E+00 0.  1.
        994   -1    0    0    0    0 -0.00000000000E+00 -0.00000000000E+00  0.11368683772E-12  0.17120000000E+03  0.17120000000E+03 0.  0.
         13    1    1    2    0    0 -0.16650745476E+03 -0.16749009057E+03  0.91539415517E+03  0.94536983949E+03  0.10566000000E+00 0.  1.
        994    1    1    2    0    0  0.21002431906E+03  0.19194319827E+03  0.33723448723E+03  0.47327470388E+03  0.17120000000E+03 0.  0.
        998    1    1    2    0    0 -0.43516864301E+02 -0.24453107701E+02  0.24737135388E+03  0.25255545663E+03  0.10000000000E+02 0.  0.
</event>
<event>
 5    1  0.5525569E-010  0.2940961E+03  0.7957747E-01  0.3939091E+00
         13   -1    0    0    0    0  0.00000000000E+00  0.00000000000E+00  0.14999999963E+04  0.15000000000E+04  0.10566000000E+00 0.  1.
        994   -1    0    0    0    0 -0.00000000000E+00 -0.00000000000E+00  0.11368683772E-12  0.17120000000E+03  0.17120000000E+03 0.  0.
         13    1    1    2    0    0  0.18074598415E+03 -0.14918919982E+02  0.58163108905E+03  0.60925070363E+03  0.10566000000E+00 0.  1.
        994    1    1    2    0    0 -0.20977387407E+03  0.14042719775E+03  0.29151901997E+03  0.42192138499E+03  0.17120000000E+03 0.  0.
        998    1    1    2    0    0  0.29027889917E+02 -0.12550827777E+03  0.62684988726E+03  0.64002791138E+03  0.10000000000E+02 0.  1.
</event>
<event>
 5    1  0.5525569E-010  0.3796362E+03  0.7957747E-01  0.3452744E+00
         13   -1    0    0    0    0  0.00000000000E+00  0.00000000000E+00  0.14999999963E+04  0.15000000000E+04  0.10566000000E+00 0.  1.
        994   -1    0    0    0    0 -0.00000000000E+00 -0.00000000000E+00  0.11368683772E-12  0.17120000000E+03  0.17120000000E+03 0.  0.
         13    1    1    2    0    0 -0.10209587094E+03  0.58976203322E+02  0.69737212126E+03  0.70726914685E+03  0.10566000000E+00 0.  1.
        994    1    1    2    0    0  0.15343801460E+03 -0.18874039224E+02  0.88966822562E+02  0.24723266208E+03  0.17120000000E+03 0.  0.
        998    1    1    2    0    0 -0.51342143667E+02 -0.40102164099E+02  0.71366105246E+03  0.71669819107E+03  0.10000000000E+02 0.  1.
</event>
<event>
 5    1  0.5525569E-010  0.3718702E+03  0.7957747E-01  0.3487340E+00
         13   -1    0    0    0    0  0.00000000000E+00  0.00000000000E+00  0.14999999963E+04  0.15000000000E+04  0.10566000000E+00 0. -1.
        994   -1    0    0    0    0 -0.00000000000E+00 -0.00000000000E+00  0.11368683772E-12  0.17120000000E+03  0.17120000000E+03 0.  0.
         13    1    1    2    0    0  0.11911532819E+03  0.17195061375E+03  0.94542546791E+03  0.96828962687E+03  0.10566000000E+00 0. -1.
        994    1    1    2    0    0 -0.20391617711E+03 -0.15599394267E+03  0.28637485876E+03  0.42099396333E+03  0.17120000000E+03 0.  0.
        998    1    1    2    0    0  0.84800848918E+02 -0.15956671079E+02  0.26819966962E+03  0.28191640979E+03  0.10000000000E+02 0.  1.
</event>
<event>
 5    1  0.5525569E-010  0.3823958E+03  0.7957747E-01  0.3440792E+00
         13   -1    0    0    0    0  0.00000000000E+00  0.00000000000E+00  0.14999999963E+04  0.15000000000E+04  0.10566000000E+00 0.  1.
        994   -1    0    0    0    0 -0.00000000000E+00 -0.00000000000E+00  0.11368683772E-12  0.17120000000E+03  0.17120000000E+03 0.  0.
         13    1    1    2    0    0  0.94246479101E+02 -0.96446585703E+01  0.46862648807E+03  0.47810690724E+03  0.10566000000E+00 0.  1.
        994    1    1    2    0    0 -0.15547853957E+03  0.67111531550E+02  0.10472145709E+03  0.26259009408E+03  0.17120000000E+03 0.  0.
        998    1    1    2    0    0  0.61232060466E+02 -0.57466872980E+02  0.92665205112E+03  0.93050299868E+03  0.10000000000E+02 0.  1.
</event>
<event>
 5    1  0.5525569E-010  0.3792363E+03  0.7957747E-01  0.3454491E+00
         13   -1    0    0    0    0  0.00000000000E+00  0.00000000000E+00  0.14999999963E+04  0.15000000000E+04  0.10566000000E+00 0.  1.
        994   -1    0    0    0    0 -0.00000000000E+00 -0.00000000000E+00  0.11368683772E-12  0.17120000000E+03  0.17120000000E+03 0.  0.
         13    1    1    2    0    0  0.20030181101E+02  0.46276417157E+02  0.17743923841E+03  0.18446519843E+03  0.10566000000E+00 0.  1.
        994    1    1    2    0    0 -0.17181624906E+03 -0.57850517442E+02  0.12396152125E+03  0.27846616412E+03  0.17120000000E+03 0.  0.
        998    1    1    2    0    0  0.15178606796E+03  0.11574100285E+02  0.11985992366E+04  0.12082686374E+04  0.10000000000E+02 0.  1.
</event>
<event>
 5    1  0.5525569E-010  0.3877431E+03  0.7957747E-01  0.3418121E+00
         13   -1    0    0    0    0  0.00000000000E+00  0.00000000000E+00  0.14999999963E+04  0.15000000000E+04  0.10566000000E+00 0. -1.
        994   -1    0    0    0    0 -0.00000000000E+00 -0.00000000000E+00  0.11368683772E-12  0.17120000000E+03  0.17120000000E+03 0.  0.
         13    1    1    2    0    0  0.95907074836E+02 -0.16588091833E+03  0.11083708918E+04  0.11248114025E+04  0.10566000000E+00 0. -1.
        994    1    1    2    0    0 -0.11059689748E+03  0.19230694360E+03  0.18150930123E+03  0.33386928688E+03  0.17120000000E+03 0.  0.
        998    1    1    2    0    0  0.14689822645E+02 -0.26426025264E+02  0.21011980321E+03  0.21251931066E+03  0.10000000000E+02 0.  0.
</event>
<event>
 5    1  0.5525569E-010  0.3865080E+03  0.7957747E-01  0.3423302E+00
         13   -1    0    0    0    0  0.00000000000E+00  0.00000000000E+00  0.14999999963E+04  0.15000000000E+04  0.10566000000E+00 0. -1.
        994   -1    0    0    0    0 -0.00000000000E+00 -0.00000000000E+00  0.11368683772E-12  0.17120000000E+03  0.17120000000E+03 0.  0.
         13    1    1    2    0    0  0.13332706898E+03  0.16293505760E+03  0.11282266657E+04  0.11477017734E+04  0.10566000000E+00 0. -1.
        994    1    1    2    0    0 -0.14548354481E+03 -0.17379320453E+03  0.19231037000E+03  0.34301932622E+03  0.17120000000E+03 0.  0.
        998    1    1    2    0    0  0.12156475828E+02  0.10858146931E+02  0.17946296062E+03  0.18047890042E+03  0.10000000000E+02 0.  1.
</event>
<event>
 5    1  0.5525569E-010  0.3819693E+03  0.7957747E-01  0.3442628E+00
         13   -1    0    0    0    0  0.00000000000E+00  0.00000000000E+00  0.14999999963E+04  0.15000000000E+04  0.10566000000E+00 0. -1.
        994   -1    0    0    0    0 -0.00000000000E+00 -0.00000000000E+00  0.11368683772E-12  0.17120000000E+03  0.17120000000E+03 0.  0.
         13    1    1    2    0    0  0.32222617293E+02 -0.20122945609E+02  0.16224553945E+03  0.16663389883E+03  0.10566000000E+00 0. -1.
        994    1    1    2    0    0 -0.91763930250E+02 -0.60489297654E+01  0.31759596904E+02  0.19691450033E+03  0.17120000000E+03 0.  0.
        998    1    1    2    0    0  0.59541312957E+02  0.26171875374E+02  0.13059948599E+04  0.13076516008E+04  0.10000000000E+02 0. -1.
</event>
<event>
 5    1  0.5525569E-010  0.4135187E+03  0.7957747E-01  0.3317050E+00
         13   -1    0    0    0    0  0.00000000000E+00  0.00000000000E+00  0.14999999963E+04  0.15000000000E+04  0.10566000000E+00 0. -1.
        994   -1    0    0    0    0 -0.00000000000E+00 -0.00000000000E+00  0.11368683772E-12  0.17120000000E+03  0.17120000000E+03 0.  0.
         13    1    1    2    0    0 -0.65496218206E+02 -0.97633853498E+02  0.26875029204E+03  0.29334085052E+03  0.10566000000E+00 0. -1.
        994    1    1    2    0    0  0.19643139535E+03 -0.13790430217E+03  0.35715518823E+03  0.46311138846E+03  0.17120000000E+03 0.  0.
        998    1    1    2    0    0 -0.13093517714E+03  0.23553815567E+03  0.87409451601E+03  0.91474776103E+03  0.10000000000E+02 0. -1.
</event>
<event>
 5    1  0.5525569E-010  0.3847118E+03  0.7957747E-01  0.3430895E+00
         13   -1    0    0    0    0  0.00000000000E+00  0.00000000000E+00  0.14999999963E+04  0.15000000000E+04  0.10566000000E+00 0.  1.
        994   -1    0    0    0    0 -0.00000000000E+00 -0.00000000000E+00  0.11368683772E-12  0.17120000000E+03  0.17120000000E+03 0.  0.
         13    1    1    2    0    0 -0.14686584156E+02 -0.78134045411E+01  0.69351022226E+02  0.71318444265E+02  0.10566000000E+00 0.  1.
        994    1    1    2    0    0 -0.73577494653E+01  0.96708533324E+02  0.33376371564E+02  0.19957479569E+03  0.17120000000E+03 0.  0.
        998    1    1    2    0    0  0.22044333621E+02 -0.88895128783E+02  0.13972726025E+04  0.14003067600E+04  0.10000000000E+02 0.  1.
</event>
<event>
 5    1  0.5525569E-010  0.3848873E+03  0.7957747E-01  0.3430150E+00
         13   -1    0    0    0    0  0.00000000000E+00  0.00000000000E+00  0.14999999963E+04  0.15000000000E+04  0.10566000000E+00 0.  1.
        994   -1    0    0    0    0 -0.00000000000E+00 -0.00000000000E+00  0.11368683772E-12  0.17120000000E+03  0.17120000000E+03 0.  0.
         13    1    1    2    0    0 -0.84500019663E+02  0.25990614805E+03  0.10959569703E+04  0.11295189910E+04  0.10566000000E+00 0.  1.
        994    1    1    2    0    0  0.75777332524E+02 -0.27348249069E+03  0.33969674515E+03  0.47459266272E+03  0.17120000000E+03 0.  0.
        998    1    1    2    0    0  0.87226871386E+01  0.13576342638E+02  0.64346280794E+02  0.67088346249E+02  0.10000000000E+02 0.  1.
</event>
<event>
 5    1  0.5525569E-010  0.3877143E+03  0.7957747E-01  0.3418242E+00
         13   -1    0    0    0    0  0.00000000000E+00  0.00000000000E+00  0.14999999963E+04  0.15000000000E+04  0.10566000000E+00 0.  1.
        994   -1    0    0    0    0 -0.00000000000E+00 -0.00000000000E+00  0.11368683772E-12  0.17120000000E+03  0.17120000000E+03 0.  0.
         13    1    1    2    0    0  0.77470434562E+02 -0.47758945475E+02  0.45683571295E+03  0.46581269293E+03  0.10566000000E+00 0.  1.
        994    1    1    2    0    0 -0.18419095243E+03  0.13912009926E+03  0.19900914653E+03  0.34956371290E+03  0.17120000000E+03 0.  0.
        998    1    1    2    0    0  0.10672051787E+03 -0.91361153785E+02  0.84415513680E+03  0.85582359417E+03  0.10000000000E+02 0.  1.
</event>
<event>
 5    1  0.5525569E-010  0.3796551E+03  0.7957747E-01  0.3452661E+00
         13   -1    0    0    0    0  0.00000000000E+00  0.00000000000E+00  0.14999999963E+04  0.15000000000E+04  0.10566000000E+00 0.  1.
        994   -1    0    0    0    0 -0.00000000000E+00 -0.00000000000E+00  0.11368683772E-12  0.17120000000E+03  0.17120000000E+03 0.  0.
         13    1    1    2    0    0 -0.26442521422E+02  0.13370528170E+03  0.80774011940E+03  0.81915836134E+03  0.10566000000E+00 0.  1.
        994    1    1    2    0    0  0.12138579869E+03 -0.22183227059E+03  0.26125666942E+03  0.40188127068E+03  0.17120000000E+03 0.  0.
        998    1    1    2    0    0 -0.94943277272E+02  0.88126988890E+02  0.43100320746E+03  0.45016036799E+03  0.10000000000E+02 0.  1.
</event>
<event>
 5    1  0.5525569E-010  0.3706241E+03  0.7957747E-01  0.3493028E+00
         13   -1    0    0    0    0  0.00000000000E+00  0.00000000000E+00  0.14999999963E+04  0.15000000000E+04  0.10566000000E+00 0. -1.
        994   -1    0    0    0    0 -0.00000000000E+00 -0.00000000000E+00  0.11368683772E-12  0.17120000000E+03  0.17120000000E+03 0.  0.
         13    1    1    2    0    0  0.78661623573E+02 -0.12407484212E+02  0.38939603858E+03  0.39745551036E+03  0.10566000000E+00 0. -1.
        994    1    1    2    0    0 -0.52081424603E+02  0.16481068839E+03  0.12033256265E+03  0.27141187047E+03  0.17120000000E+03 0.  0.
        998    1    1    2    0    0 -0.26580198970E+02 -0.15240320417E+03  0.99027139505E+03  0.10023326192E+04  0.10000000000E+02 0. -1.
</event>
<event>
 5    1  0.5525569E-010  0.3848923E+03  0.7957747E-01  0.3430129E+00
         13   -1    0    0    0    0  0.00000000000E+00  0.00000000000E+00  0.14999999963E+04  0.15000000000E+04  0.10566000000E+00 0.  1.
        994   -1    0    0    0    0 -0.00000000000E+00 -0.00000000000E+00  0.11368683772E-12  0.17120000000E+03  0.17120000000E+03 0.  0.
         13    1    1    2    0    0 -0.11985921102E+03 -0.18502224335E+03  0.12412152213E+04  0.12606405903E+04  0.10566000000E+00 0.  1.
        994    1    1    2    0    0  0.12170044240E+03  0.20134203839E+03  0.21207995786E+03  0.36005133333E+03  0.17120000000E+03 0.  0.
        998    1    1    2    0    0 -0.18412313777E+01 -0.16319795043E+02  0.46704817084E+02  0.50508076404E+02  0.10000000000E+02 0.  0.
</event>
<event>
 5    1  0.6589607E-010  0.3865669E+03  0.7957747E-01  0.3423054E+00
         13   -1    0    0    0    0  0.00000000000E+00  0.00000000000E+00  0.14999999963E+04  0.15000000000E+04  0.10566000000E+00 0.  1.
        994   -1    0    0    0    0 -0.00000000000E+00 -0.00000000000E+00  0.11368683772E-12  0.17120000000E+03  0.17120000000E+03 0.  0.
         13    1    1    2    0    0  0.17011555211E+03 -0.18169414471E+03  0.10969474466E+04  0.11248314429E+04  0.10566000000E+00 0.  1.
        994    1    1    2    0    0 -0.18025097021E+03  0.19267085009E+03  0.27720333730E+03  0.41924169514E+03  0.17120000000E+03 0.  0.
        998    1    1    2    0    0  0.10135418092E+02 -0.10976705385E+02  0.12584921241E+03  0.12712686193E+03  0.10000000000E+02 0.  1.
</event>
<event>
 5    1  0.5525569E-010  0.3849045E+03  0.7957747E-01  0.3430077E+00
         13   -1    0    0    0    0  0.00000000000E+00  0.00000000000E+00  0.14999999963E+04  0.15000000000E+04  0.10566000000E+00 0.  1.
        994   -1    0    0    0    0 -0.00000000000E+00 -0.00000000000E+00  0.11368683772E-12  0.17120000000E+03  0.17120000000E+03 0.  0.
         13    1    1    2    0    0  0.96310867862E+02 -0.13922539545E+03  0.80958669557E+03  0.82709740830E+03  0.10566000000E+00 0.  1.
        994    1    1    2    0    0 -0.15588418870E+03  0.16947533583E+03  0.20168006427E+03  0.35072219500E+03  0.17120000000E+03 0.  0.
        998    1    1    2    0    0  0.59573320839E+02 -0.30249940388E+02  0.48873323644E+03  0.49338039670E+03  0.10000000000E+02 0.  1.
</event>
<event>
 5    1  0.5525569E-010  0.3858727E+03  0.7957747E-01  0.3425979E+00
         13   -1    0    0    0    0  0.00000000000E+00  0.00000000000E+00  0.14999999963E+04  0.15000000000E+04  0.10566000000E+00 0. -1.
        994   -1    0    0    0    0 -0.00000000000E+00 -0.00000000000E+00  0.11368683772E-12  0.17120000000E+03  0.17120000000E+03 0.  0.
         13    1    1    2    0    0 -0.20548329566E+03 -0.94759931574E+02  0.11821102093E+04  0.12035727595E+04  0.10566000000E+00 0. -1.
        994    1    1    2    0    0  0.22026801002E+03  0.89100998557E+02  0.21566109839E+03  0.36369786024E+03  0.17120000000E+03 0.  0.
        998    1    1    2    0    0 -0.14784714361E+02  0.56589330170E+01  0.10222868860E+03  0.10392938023E+03  0.10000000000E+02 0.  1.
</event>
<event>
 5    1  0.5525569E-010  0.3742683E+03  0.7957747E-01  0.3476501E+00
         13   -1    0    0    0    0  0.00000000000E+00  0.00000000000E+00  0.14999999963E+04  0.15000000000E+04  0.10566000000E+00 0. -1.
        994   -1    0    0    0    0 -0.00000000000E+00 -0.00000000000E+00  0.11368683772E-12  0.17120000000E+03  0.17120000000E+03 0.  0.
         13    1    1    2    0    0 -0.15978151673E+02 -0.28493420524E+02  0.51044346887E+02  0.60602911294E+02  0.10566000000E+00 0. -1.
        994    1    1    2    0    0  0.76421862752E+02  0.10455580356E+03  0.66549899459E+02  0.22474551449E+03  0.17120000000E+03 0.  0.
        998    1    1    2    0    0 -0.60443711079E+02 -0.76062383032E+02  0.13824057499E+04  0.13858515742E+04  0.10000000000E+02 0. -1.
</event>
<event>
 5    1  0.5525569E-010  0.3766239E+03  0.7957747E-01  0.3465992E+00
         13   -1    0    0    0    0  0.00000000000E+00  0.00000000000E+00  0.14999999963E+04  0.15000000000E+04  0.10566000000E+00 0.  1.
        994   -1    0    0    0    0 -0.00000000000E+00 -0.00000000000E+00  0.11368683772E-12  0.17120000000E+03  0.17120000000E+03 0.  0.
         13    1    1    2    0    0  0.38224062283E+02 -0.17071398547E+02  0.12865855639E+03  0.13529799290E+03  0.10566000000E+00 0.  1.
        994    1    1    2    0    0 -0.97950732811E+02 -0.71880501373E+02  0.57501507718E+02  0.21766261950E+03  0.17120000000E+03 0.  0.
        998    1    1    2    0    0  0.59726670528E+02  0.88951899920E+02  0.13138399322E+04  0.13182393876E+04  0.10000000000E+02 0.  1.
</event>
<event>
 5    1  0.5525569E-010  0.3818311E+03  0.7957747E-01  0.3443224E+00
         13   -1    0    0    0    0  0.00000000000E+00  0.00000000000E+00  0.14999999963E+04  0.15000000000E+04  0.10566000000E+00 0.  1.
        994   -1    0    0    0    0 -0.00000000000E+00 -0.00000000000E+00  0.11368683772E-12  0.17120000000E+03  0.17120000000E+03 0.  0.
         13    1    1    2    0    0 -0.83396743654E+00  0.56125104538E+02  0.26901417946E+03  0.27480786520E+03  0.10566000000E+00 0.  1.
        994    1    1    2    0    0 -0.80927435971E+02 -0.11445078599E+03  0.71511045886E+02  0.23253279767E+03  0.17120000000E+03 0.  0.
        998    1    1    2    0    0  0.81761403408E+02  0.58325681453E+02  0.11594747709E+04  0.11638593371E+04  0.10000000000E+02 0.  1.
</event>
<event>
 5    1  0.5525569E-010  0.3840442E+03  0.7957747E-01  0.3433736E+00
         13   -1    0    0    0    0  0.00000000000E+00  0.00000000000E+00  0.14999999963E+04  0.15000000000E+04  0.10566000000E+00 0. -1.
        994   -1    0    0    0    0 -0.00000000000E+00 -0.00000000000E+00  0.11368683772E-12  0.17120000000E+03  0.17120000000E+03 0.  0.
         13    1    1    2    0    0  0.12242893443E+03  0.62113463655E+02  0.69694012526E+03  0.71033265145E+03  0.10566000000E+00 0. -1.
        994    1    1    2    0    0 -0.19074874916E+03 -0.60546234379E+02  0.14784810275E+03  0.30202555072E+03  0.17120000000E+03 0.  0.
        998    1    1    2    0    0  0.68319814730E+02 -0.15672292765E+01  0.65521176827E+03  0.65884179783E+03  0.10000000000E+02 0. -1.
</event>
<event>
 5    1  0.5525569E-010  0.3866738E+03  0.7957747E-01  0.3422604E+00
         13   -1    0    0    0    0  0.00000000000E+00  0.00000000000E+00  0.14999999963E+04  0.15000000000E+04  0.10566000000E+00 0. -1.
        994   -1    0    0    0    0 -0.00000000000E+00 -0.00000000000E+00  0.11368683772E-12  0.17120000000E+03  0.17120000000E+03 0.  0.
         13    1    1    2    0    0 -0.10970832258E+03 -0.80133306657E+02  0.79777422182E+03  0.80925952762E+03  0.10566000000E+00 0. -1.
        994    1    1    2    0    0  0.15059059133E+03  0.12320106511E+03  0.13629883150E+03  0.29281878374E+03  0.17120000000E+03 0.  0.
        998    1    1    2    0    0 -0.40882268752E+02 -0.43067758450E+02  0.56592694296E+03  0.56912168864E+03  0.10000000000E+02 0.  1.
</event>
<event>
 5    1  0.5525569E-010  0.3843757E+03  0.7957747E-01  0.3432324E+00
         13   -1    0    0    0    0  0.00000000000E+00  0.00000000000E+00  0.14999999963E+04  0.15000000000E+04  0.10566000000E+00 0. -1.
        994   -1    0    0    0    0 -0.00000000000E+00 -0.00000000000E+00  0.11368683772E-12  0.17120000000E+03  0.17120000000E+03 0.  0.
         13    1    1    2    0    0 -0.30959856800E+03  0.29318257418E+01  0.68652514254E+03  0.75311131409E+03  0.10566000000E+00 0. -1.
        994    1    1    2    0    0  0.34408563512E+03  0.50334018819E+01  0.77372468076E+03  0.86393262529E+03  0.17120000000E+03 0.  0.
        998    1    1    2    0    0 -0.34487067118E+02 -0.79652276237E+01  0.39750172982E+02  0.54156060618E+02  0.10000000000E+02 0.  1.
</event>
<event>
 5    1  0.6044666E-010  0.3876776E+03  0.7957747E-01  0.3418395E+00
         13   -1    0    0    0    0  0.00000000000E+00  0.00000000000E+00  0.14999999963E+04  0.15000000000E+04  0.10566000000E+00 0. -1.
        994   -1    0    0    0    0 -0.00000000000E+00 -0.00000000000E+00  0.11368683772E-12  0.17120000000E+03  0.17120000000E+03 0.  0.
         13    1    1    2    0    0 -0.20462882943E+03 -0.61086720458E+02  0.11369732965E+04  0.11568547157E+04  0.10566000000E+00 0. -1.
        994    1    1    2    0    0  0.22942432216E+03  0.67225617029E+02  0.21619205509E+03  0.36497020134E+03  0.17120000000E+03 0.  0.
        998    1    1    2    0    0 -0.24795492735E+02 -0.61388965714E+01  0.14683464469E+03  0.14937508291E+03  0.10000000000E+02 0.  0.
</event>
<event>
 5    1  0.5525569E-010  0.3845713E+03  0.7957747E-01  0.3431493E+00
         13   -1    0    0    0    0  0.00000000000E+00  0.00000000000E+00  0.14999999963E+04  0.15000000000E+04  0.10566000000E+00 0.  1.
        994   -1    0    0    0    0 -0.00000000000E+00 -0.00000000000E+00  0.11368683772E-12  0.17120000000E+03  0.17120000000E+03 0.  0.
         13    1    1    2    0    0  0.13302806612E+03  0.11921621084E+03  0.64097267273E+03  0.66539833908E+03  0.10566000000E+00 0.  1.
        994    1    1    2    0    0 -0.21585528935E+03 -0.16270599128E+03  0.29899117417E+03  0.43791769520E+03  0.17120000000E+03 0.  0.
        998    1    1    2    0    0  0.82827223233E+02  0.43489780442E+02  0.56003614937E+03  0.56788396572E+03  0.10000000000E+02 0.  1.
</event>
<event>
 5    1  0.5525569E-010  0.3847396E+03  0.7957747E-01  0.3430777E+00
         13   -1    0    0    0    0  0.00000000000E+00  0.00000000000E+00  0.14999999963E+04  0.15000000000E+04  0.10566000000E+00 0. -1.
        994   -1    0    0    0    0 -0.00000000000E+00 -0.00000000000E+00  0.11368683772E-12  0.17120000000E+03  0.17120000000E+03 0.  0.
         13    1    1    2    0    0 -0.13358890763E+03 -0.96903336706E+00  0.75324250960E+03  0.76499753247E+03  0.10566000000E+00 0. -1.
        994    1    1    2    0    0  0.22530880327E+03  0.61425778584E+02  0.20864983174E+03  0.35690527510E+03  0.17120000000E+03 0.  0.
        998    1    1    2    0    0 -0.91719895649E+02 -0.60456745217E+02  0.53810765494E+03  0.54929719243E+03  0.10000000000E+02 0. -1.
</event>
<event>
 5    1  0.5525569E-010  0.3868707E+03  0.7957747E-01  0.3421777E+00
         13   -1    0    0    0    0  0.00000000000E+00  0.00000000000E+00  0.14999999963E+04  0.15000000000E+04  0.10566000000E+00 0.  1.
        994   -1    0    0    0    0 -0.00000000000E+00 -0.00000000000E+00  0.11368683772E-12  0.17120000000E+03  0.17120000000E+03 0.  0.
         13    1    1    2    0    0  0.15366320455E+03  0.28382517078E+02  0.92065798754E+03  0.93382497766E+03  0.10566000000E+00 0.  1.
        994    1    1    2    0    0 -0.19742993781E+03 -0.50155816185E+02  0.15062419404E+03  0.30576342828E+03  0.17120000000E+03 0.  0.
        998    1    1    2    0    0  0.43766733259E+02  0.21773299107E+02  0.42871781469E+03  0.43161159406E+03  0.10000000000E+02 0.  1.
</event>
<event>
 5    1  0.5525569E-010  0.3828867E+03  0.7957747E-01  0.3438685E+00
         13   -1    0    0    0    0  0.00000000000E+00  0.00000000000E+00  0.14999999963E+04  0.15000000000E+04  0.10566000000E+00 0. -1.
        994   -1    0    0    0    0 -0.00000000000E+00 -0.00000000000E+00  0.11368683772E-12  0.17120000000E+03  0.17120000000E+03 0.  0.
         13    1    1    2    0    0  0.15844260397E+02  0.38678349827E+00  0.32343885196E+02  0.36018443367E+02  0.10566000000E+00 0. -1.
        994    1    1    2    0    0 -0.10477263981E+03  0.25848778433E+01  0.39948200306E+02  0.20466872344E+03  0.17120000000E+03 0.  0.
        998    1    1    2    0    0  0.88928379415E+02 -0.29716613416E+01  0.14277079108E+04  0.14305128332E+04  0.10000000000E+02 0. -1.
</event>
<event>
 5    1  0.5525569E-010  0.2952839E+03  0.7957747E-01  0.3930274E+00
         13   -1    0    0    0    0  0.00000000000E+00  0.00000000000E+00  0.14999999963E+04  0.15000000000E+04  0.10566000000E+00 0. -1.
        994   -1    0    0    0    0 -0.00000000000E+00 -0.00000000000E+00  0.11368683772E-12  0.17120000000E+03  0.17120000000E+03 0.  0.
         13    1    1    2    0    0  0.75714149908E+02 -0.14554250787E+03  0.66107777411E+03  0.68113074272E+03  0.10566000000E+00 0. -1.
        994    1    1    2    0    0  0.22231935075E+02  0.21512129596E+03  0.20211979222E+03  0.34195508670E+03  0.17120000000E+03 0.  0.
        998    1    1    2    0    0 -0.97946084983E+02 -0.69578788093E+02  0.63680242995E+03  0.64811417058E+03  0.10000000000E+02 0. -1.
</event>
<event>
 5    1  0.5525569E-010  0.3837210E+03  0.7957747E-01  0.3435115E+00
         13   -1    0    0    0    0  0.00000000000E+00  0.00000000000E+00  0.14999999963E+04  0.15000000000E+04  0.10566000000E+00 0. -1.
        994   -1    0    0    0    0 -0.00000000000E+00 -0.00000000000E+00  0.11368683772E-12  0.17120000000E+03  0.17120000000E+03 0.  0.
         13    1    1    2    0    0 -0.77762698646E+02  0.12027191175E+03  0.70521447086E+03  0.71961088869E+03  0.10566000000E+00 0. -1.
        994    1    1    2    0    0  0.77253618037E+02 -0.19570497454E+03  0.16557525672E+03  0.31779421675E+03  0.17120000000E+03 0.  0.
        998    1    1    2    0    0  0.50908060958E+00  0.75433062797E+02  0.62921026870E+03  0.63379489456E+03  0.10000000000E+02 0.  1.
</event>
<event>
 5    1  0.5525569E-010  0.3855781E+03  0.7957747E-01  0.3427224E+00
         13   -1    0    0    0    0  0.00000000000E+00  0.00000000000E+00  0.14999999963E+04  0.15000000000E+04  0.10566000000E+00 0.  1.
        994   -1    0    0    0    0 -0.00000000000E+00 -0.00000000000E+00  0.11368683772E-12  0.17120000000E+03  0.17120000000E+03 0.  0.
         13    1    1    2    0    0 -0.41813416901E+02  0.45758059467E+02  0.27766373522E+03  0.28449837058E+03  0.10566000000E+00 0.  1.
        994    1    1    2    0    0  0.25648035121E+03 -0.18842837607E+03  0.48002553253E+03  0.60085054327E+03  0.17120000000E+03 0.  0.
        998    1    1    2    0    0 -0.21466693431E+03  0.14267031660E+03  0.74231072853E+03  0.78585108616E+03  0.10000000000E+02 0.  1.
</event>
<event>
 5    1  0.5525569E-010  0.3792976E+03  0.7957747E-01  0.3454223E+00
         13   -1    0    0    0    0  0.00000000000E+00  0.00000000000E+00  0.14999999963E+04  0.15000000000E+04  0.10566000000E+00 0. -1.
        994   -1    0    0    0    0 -0.00000000000E+00 -0.00000000000E+00  0.11368683772E-12  0.17120000000E+03  0.17120000000E+03 0.  0.
         13    1    1    2    0    0  0.75019990269E+02  0.59284904865E+02  0.41371073580E+03  0.42461663058E+03  0.10566000000E+00 0. -1.
        994    1    1    2    0    0 -0.87291373578E+02 -0.13724782328E+03  0.98945521350E+02  0.25603985059E+03  0.17120000000E+03 0.  0.
        998    1    1    2    0    0  0.12271383309E+02  0.77962918414E+02  0.98734373913E+03  0.99054351883E+03  0.10000000000E+02 0. -1.
</event>
<event>
 5    1  0.5525569E-010  0.3820632E+03  0.7957747E-01  0.3442224E+00
         13   -1    0    0    0    0  0.00000000000E+00  0.00000000000E+00  0.14999999963E+04  0.15000000000E+04  0.10566000000E+00 0. -1.
        994   -1    0    0    0    0 -0.00000000000E+00 -0.00000000000E+00  0.11368683772E-12  0.17120000000E+03  0.17120000000E+03 0.  0.
         13    1    1    2    0    0  0.27943877541E+02 -0.29589605318E+02  0.14344156950E+03  0.14910365542E+03  0.10566000000E+00 0. -1.
        994    1    1    2    0    0  0.21174819912E+02  0.24610913222E+03  0.24276218975E+03  0.38634311011E+03  0.17120000000E+03 0.  0.
        998    1    1    2    0    0 -0.49118697453E+02 -0.21651952691E+03  0.11137962370E+04  0.11357532345E+04  0.10000000000E+02 0. -1.
</event>
<event>
 5    1  0.5525569E-010  0.3689979E+03  0.7957747E-01  0.3500509E+00
         13   -1    0    0    0    0  0.00000000000E+00  0.00000000000E+00  0.14999999963E+04  0.15000000000E+04  0.10566000000E+00 0.  1.
        994   -1    0    0    0    0 -0.00000000000E+00 -0.00000000000E+00  0.11368683772E-12  0.17120000000E+03  0.17120000000E+03 0.  0.
         13    1    1    2    0    0 -0.48875962660E+02 -0.40000477073E+02  0.37397078619E+03  0.37926647358E+03  0.10566000000E+00 0.  1.
        994    1    1    2    0    0  0.19888632256E+02 -0.73857812347E+02  0.30377057949E+02  0.18995457296E+03  0.17120000000E+03 0.  0.
        998    1    1    2    0    0  0.28987330403E+02  0.11385828942E+03  0.10956521521E+04  0.11019789535E+04  0.10000000000E+02 0.  1.
</event>
<event>
 5    1  0.5525569E-010  0.3860485E+03  0.7957747E-01  0.3425237E+00
         13   -1    0    0    0    0  0.00000000000E+00  0.00000000000E+00  0.14999999963E+04  0.15000000000E+04  0.10566000000E+00 0.  1.
        994   -1    0    0    0    0 -0.00000000000E+00 -0.00000000000E+00  0.11368683772E-12  0.17120000000E+03  0.17120000000E+03 0.  0.
         13    1    1    2    0    0 -0.22331251683E+03  0.80638773575E+02  0.77210676834E+03  0.80778707891E+03  0.10566000000E+00 0.  1.
        994    1    1    2    0    0  0.28261863773E+03 -0.10503247752E+03  0.40086599778E+03  0.53000764513E+03  0.17120000000E+03 0.  0.
        998    1    1    2    0    0 -0.59306120895E+02  0.24393703944E+02  0.32702723016E+03  0.33340527596E+03  0.10000000000E+02 0. -1.
</event>
<event>
 5    1  0.5525569E-010  0.3833215E+03  0.7957747E-01  0.3436822E+00
         13   -1    0    0    0    0  0.00000000000E+00  0.00000000000E+00  0.14999999963E+04  0.15000000000E+04  0.10566000000E+00 0.  1.
        994   -1    0    0    0    0 -0.00000000000E+00 -0.00000000000E+00  0.11368683772E-12  0.17120000000E+03  0.17120000000E+03 0.  0.
         13    1    1    2    0    0  0.11763964361E+01 -0.14339151034E+02  0.20244940078E+02  0.24836745434E+02  0.10566000000E+00 0.  1.
        994    1    1    2    0    0  0.32572724304E+02  0.21014723320E+03  0.17005251443E+03  0.32163665782E+03  0.17120000000E+03 0.  0.
        998    1    1    2    0    0 -0.33749120740E+02 -0.19580808217E+03  0.13097025418E+04  0.13247265967E+04  0.10000000000E+02 0.  1.
</event>
<event>
 5    1  0.5525569E-010  0.3690134E+03  0.7957747E-01  0.3500438E+00
         13   -1    0    0    0    0  0.00000000000E+00  0.00000000000E+00  0.14999999963E+04  0.15000000000E+04  0.10566000000E+00 0. -1.
        994   -1    0    0    0    0 -0.00000000000E+00 -0.00000000000E+00  0.11368683772E-12  0.17120000000E+03  0.17120000000E+03 0.  0.
         13    1    1    2    0    0 -0.48519249015E+02  0.70214022272E+02  0.51241995454E+03  0.51947891914E+03  0.10566000000E+00 0. -1.
        994    1    1    2    0    0  0.10070222048E+03  0.25823461057E+02  0.48278891825E+02  0.20602931769E+03  0.17120000000E+03 0.  0.
        998    1    1    2    0    0 -0.52182971468E+02 -0.96037483329E+02  0.93930114991E+03  0.94569176317E+03  0.10000000000E+02 0. -1.
</event>
<event>
 5    1  0.5525569E-010  0.3849309E+03  0.7957747E-01  0.3429965E+00
         13   -1    0    0    0    0  0.00000000000E+00  0.00000000000E+00  0.14999999963E+04  0.15000000000E+04  0.10566000000E+00 0.  1.
        994   -1    0    0    0    0 -0.00000000000E+00 -0.00000000000E+00  0.11368683772E-12  0.17120000000E+03  0.17120000000E+03 0.  0.
         13    1    1    2    0    0 -0.13497890968E+02  0.94557987375E+01  0.69210877118E+02  0.71146060086E+02  0.10566000000E+00 0.  1.
        994    1    1    2    0    0  0.34338313606E+01 -0.64798909027E+02  0.15639823047E+02  0.18375182686E+03  0.17120000000E+03 0.  0.
        998    1    1    2    0    0  0.10064059608E+02  0.55343110290E+02  0.14151492961E+04  0.14163021131E+04  0.10000000000E+02 0.  1.
</event>
<event>
 5    1  0.5525569E-010  0.3715611E+03  0.7957747E-01  0.3488747E+00
         13   -1    0    0    0    0  0.00000000000E+00  0.00000000000E+00  0.14999999963E+04  0.15000000000E+04  0.10566000000E+00 0. -1.
        994   -1    0    0    0    0 -0.00000000000E+00 -0.00000000000E+00  0.11368683772E-12  0.17120000000E+03  0.17120000000E+03 0.  0.
         13    1    1    2    0    0  0.56510038177E+02 -0.53170952724E+02  0.27586160514E+03  0.28656617208E+03  0.10566000000E+00 0. -1.
        994    1    1    2    0    0 -0.20339593296E+03 -0.43679769123E+02  0.17606468007E+03  0.32184785123E+03  0.17120000000E+03 0.  0.
        998    1    1    2    0    0  0.14688589478E+03  0.96850721846E+02  0.10480737111E+04  0.10627859767E+04  0.10000000000E+02 0. -1.
</event>
<event>
 5    1  0.5525569E-010  0.3847292E+03  0.7957747E-01  0.3430822E+00
         13   -1    0    0    0    0  0.00000000000E+00  0.00000000000E+00  0.14999999963E+04  0.15000000000E+04  0.10566000000E+00 0. -1.
        994   -1    0    0    0    0 -0.00000000000E+00 -0.00000000000E+00  0.11368683772E-12  0.17120000000E+03  0.17120000000E+03 0.  0.
         13    1    1    2    0    0  0.80577055870E+02 -0.59076339979E+02  0.56966216257E+03  0.57835773230E+03  0.10566000000E+00 0. -1.
        994    1    1    2    0    0 -0.15017630024E+03  0.72924342040E+02  0.99630342788E+02  0.25904927334E+03  0.17120000000E+03 0.  0.
        998    1    1    2    0    0  0.69599244366E+02 -0.13848002061E+02  0.83070749092E+03  0.83379299436E+03  0.10000000000E+02 0.  1.
</event>
<event>
 5    1  0.5525569E-010  0.3872549E+03  0.7957747E-01  0.3420165E+00
         13   -1    0    0    0    0  0.00000000000E+00  0.00000000000E+00  0.14999999963E+04  0.15000000000E+04  0.10566000000E+00 0.  1.
        994   -1    0    0    0    0 -0.00000000000E+00 -0.00000000000E+00  0.11368683772E-12  0.17120000000E+03  0.17120000000E+03 0.  0.
         13    1    1    2    0    0  0.92285841895E+02  0.15976781592E+03  0.10100167391E+04  0.10267308586E+04  0.10566000000E+00 0.  1.
        994    1    1    2    0    0 -0.11895592569E+03 -0.18950769916E+03  0.18573604049E+03  0.33744776934E+03  0.17120000000E+03 0.  0.
        998    1    1    2    0    0  0.26670083795E+02  0.29739883238E+02  0.30424721667E+03  0.30702137202E+03  0.10000000000E+02 0.  1.
</event>
<event>
 5    1  0.5525569E-010  0.3869115E+03  0.7957747E-01  0.3421605E+00
         13   -1    0    0    0    0  0.00000000000E+00  0.00000000000E+00  0.14999999963E+04  0.15000000000E+04  0.10566000000E+00 0. -1.
        994   -1    0    0    0    0 -0.00000000000E+00 -0.00000000000E+00  0.11368683772E-12  0.17120000000E+03  0.17120000000E+03 0.  0.
         13    1    1    2    0    0 -0.85175253473E+01  0.24824586176E+02  0.13473609501E+03  0.13726847700E+03  0.10566000000E+00 0. -1.
        994    1    1    2    0    0  0.30338727100E+02 -0.13941841487E+03  0.70301524189E+02  0.23368713501E+03  0.17120000000E+03 0.  0.
        998    1    1    2    0    0 -0.21821201753E+02  0.11459382870E+03  0.12949623771E+04  0.13002443880E+04  0.10000000000E+02 0. -1.
</event>
<event>
 5    1  0.5525569E-010  0.3856834E+03  0.7957747E-01  0.3426779E+00
         13   -1    0    0    0    0  0.00000000000E+00  0.00000000000E+00  0.14999999963E+04  0.15000000000E+04  0.10566000000E+00 0.  1.
        994   -1    0    0    0    0 -0.00000000000E+00 -0.00000000000E+00  0.11368683772E-12  0.17120000000E+03  0.17120000000E+03 0.  0.
         13    1    1    2    0    0 -0.17598502575E+03  0.22305025004E+02  0.10456168664E+04  0.10605578183E+04  0.10566000000E+00 0.  1.
        994    1    1    2    0    0  0.19848730222E+03 -0.42187594589E+02  0.15063497930E+03  0.30524963435E+03  0.17120000000E+03 0.  0.
        998    1    1    2    0    0 -0.22502276467E+02  0.19882569585E+02  0.30374815055E+03  0.30539254736E+03  0.10000000000E+02 0.  1.
</event>
<event>
 5    1  0.5525569E-010  0.3813948E+03  0.7957747E-01  0.3445108E+00
         13   -1    0    0    0    0  0.00000000000E+00  0.00000000000E+00  0.14999999963E+04  0.15000000000E+04  0.10566000000E+00 0.  1.
        994   -1    0    0    0    0 -0.00000000000E+00 -0.00000000000E+00  0.11368683772E-12  0.17120000000E+03  0.17120000000E+03 0.  0.
         13    1    1    2    0    0 -0.20614314541E+03  0.77033672892E+02  0.12900154322E+04  0.13086515998E+04  0.10566000000E+00 0.  1.
        994    1    1    2    0    0  0.20448966372E+03 -0.86285417577E+02  0.19128363733E+03  0.33935242119E+03  0.17120000000E+03 0.  0.
        998    1    1    2    0    0  0.16534816891E+01  0.92517446845E+01  0.18700926741E+02  0.23195979013E+02  0.10000000000E+02 0.  1.
</event>
<event>
 5    1  0.5525569E-010  0.3841310E+03  0.7957747E-01  0.3433366E+00
         13   -1    0    0    0    0  0.00000000000E+00  0.00000000000E+00  0.14999999963E+04  0.15000000000E+04  0.10566000000E+00 0. -1.
        994   -1    0    0    0    0 -0.00000000000E+00 -0.00000000000E+00  0.11368683772E-12  0.17120000000E+03  0.17120000000E+03 0.  0.
         13    1    1    2    0    0  0.35045011752E+02  0.20504301001E+02  0.18186016988E+03  0.18633762841E+03  0.10566000000E+00 0. -1.
        994    1    1    2    0    0 -0.10877347620E+03 -0.46275463863E+02  0.49592531486E+02  0.21387367033E+03  0.17120000000E+03 0.  0.
        998    1    1    2    0    0  0.73728464450E+02  0.25771162862E+02  0.12685472949E+04  0.12709887013E+04  0.10000000000E+02 0. -1.
</event>
<event>
 5    1  0.5525569E-010  0.3846978E+03  0.7957747E-01  0.3430955E+00
         13   -1    0    0    0    0  0.00000000000E+00  0.00000000000E+00  0.14999999963E+04  0.15000000000E+04  0.10566000000E+00 0.  1.
        994   -1    0    0    0    0 -0.00000000000E+00 -0.00000000000E+00  0.11368683772E-12  0.17120000000E+03  0.17120000000E+03 0.  0.
         13    1    1    2    0    0  0.12557600453E+02  0.68547501695E+01  0.53059555245E+02  0.54954603955E+02  0.10566000000E+00 0.  1.
        994    1    1    2    0    0 -0.71846757459E+02  0.65853213484E+02  0.33700242665E+02  0.19985932212E+03  0.17120000000E+03 0.  0.
        998    1    1    2    0    0  0.59289157007E+02 -0.72707963654E+02  0.14132401984E+04  0.14163860739E+04  0.10000000000E+02 0.  1.
</event>
<event>
 5    1  0.5525569E-010  0.3876282E+03  0.7957747E-01  0.3418602E+00
         13   -1    0    0    0    0  0.00000000000E+00  0.00000000000E+00  0.14999999963E+04  0.15000000000E+04  0.10566000000E+00 0.  1.
        994   -1    0    0    0    0 -0.00000000000E+00 -0.00000000000E+00  0.11368683772E-12  0.17120000000E+03  0.17120000000E+03 0.  0.
         13    1    1    2    0    0 -0.13594907525E+03  0.66971548266E+02  0.77832146505E+03  0.79293861897E+03  0.10566000000E+00 0.  1.
        994    1    1    2    0    0  0.22093404471E+03 -0.88915748087E+02  0.21430488342E+03  0.36325457386E+03  0.17120000000E+03 0.  0.
        998    1    1    2    0    0 -0.84984969458E+02  0.21944199822E+02  0.50737364781E+03  0.51500680717E+03  0.10000000000E+02 0. -1.
</event>
<event>
 5    1  0.5525569E-010  0.3844705E+03  0.7957747E-01  0.3431921E+00
         13   -1    0    0    0    0  0.00000000000E+00  0.00000000000E+00  0.14999999963E+04  0.15000000000E+04  0.10566000000E+00 0.  1.
        994   -1    0    0    0    0 -0.00000000000E+00 -0.00000000000E+00  0.11368683772E-12  0.17120000000E+03  0.17120000000E+03 0.  0.
         13    1    1    2    0    0  0.47889598238E+02  0.11660417162E+02  0.22003913339E+03  0.22549192965E+03  0.10566000000E+00 0.  1.
        994    1    1    2    0    0 -0.13306375932E+03 -0.77700208630E+02  0.84477771891E+02  0.24533491478E+03  0.17120000000E+03 0.  0.
        998    1    1    2    0    0  0.85174161079E+02  0.66039791467E+02  0.11954830910E+04  0.12003731556E+04  0.10000000000E+02 0.  1.
</event>
<event>
 5    1  0.5525569E-010  0.3867787E+03  0.7957747E-01  0.3422163E+00
         13   -1    0    0    0    0  0.00000000000E+00  0.00000000000E+00  0.14999999963E+04  0.15000000000E+04  0.10566000000E+00 0.  1.
        994   -1    0    0    0    0 -0.00000000000E+00 -0.00000000000E+00  0.11368683772E-12  0.17120000000E+03  0.17120000000E+03 0.  0.
         13    1    1    2    0    0 -0.21965175737E+03 -0.19435033212E+03  0.94262046965E+03  0.98719415876E+03  0.10566000000E+00 0.  1.
        994    1    1    2    0    0  0.23260792407E+03  0.21132442351E+03  0.45463525367E+03  0.57859062574E+03  0.17120000000E+03 0.  0.
        998    1    1    2    0    0 -0.12956166700E+02 -0.16974091397E+02  0.10274427296E+03  0.10541521550E+03  0.10000000000E+02 0.  1.
</event>
<event>
 5    1  0.5525569E-010  0.3841545E+03  0.7957747E-01  0.3433266E+00
         13   -1    0    0    0    0  0.00000000000E+00  0.00000000000E+00  0.14999999963E+04  0.15000000000E+04  0.10566000000E+00 0. -1.
        994   -1    0    0    0    0 -0.00000000000E+00 -0.00000000000E+00  0.11368683772E-12  0.17120000000E+03  0.17120000000E+03 0.  0.
         13    1    1    2    0    0  0.61831061610E+00  0.11090380613E+02  0.29333445297E+02  0.31366240247E+02  0.10566000000E+00 0. -1.
        994    1    1    2    0    0 -0.89421953532E+02 -0.72423509791E+01  0.29060150818E+02  0.19545503265E+03  0.17120000000E+03 0.  0.
        998    1    1    2    0    0  0.88803642916E+02 -0.38480296343E+01  0.14416064002E+04  0.14443787271E+04  0.10000000000E+02 0. -1.
</event>
<event>
 5    1  0.5525569E-010  0.3874133E+03  0.7957747E-01  0.3419501E+00
         13   -1    0    0    0    0  0.00000000000E+00  0.00000000000E+00  0.14999999963E+04  0.15000000000E+04  0.10566000000E+00 0. -1.
        994   -1    0    0    0    0 -0.00000000000E+00 -0.00000000000E+00  0.11368683772E-12  0.17120000000E+03  0.17120000000E+03 0.  0.
         13    1    1    2    0    0 -0.13423425820E+03  0.48534129992E+02  0.79642388456E+03  0.80911396781E+03  0.10566000000E+00 0. -1.
        994    1    1    2    0    0  0.23548435556E+03 -0.85299669051E+02  0.24220958732E+03  0.38820592402E+03  0.17120000000E+03 0.  0.
        998    1    1    2    0    0 -0.10125009737E+03  0.36765539058E+02  0.46136652440E+03  0.47388010817E+03  0.10000000000E+02 0. -1.
</event>
<event>
 5    1  0.6090146E-010  0.3851241E+03  0.7957747E-01  0.3429146E+00
         13   -1    0    0    0    0  0.00000000000E+00  0.00000000000E+00  0.14999999963E+04  0.15000000000E+04  0.10566000000E+00 0. -1.
        994   -1    0    0    0    0 -0.00000000000E+00 -0.00000000000E+00  0.11368683772E-12  0.17120000000E+03  0.17120000000E+03 0.  0.
         13    1    1    2    0    0 -0.13281963058E+02 -0.25131289137E+01  0.67732941497E+02  0.69068725828E+02  0.10566000000E+00 0. -1.
        994    1    1    2    0    0  0.50551526184E+01 -0.65847772094E+02  0.16039930827E+02  0.18419609941E+03  0.17120000000E+03 0.  0.
        998    1    1    2    0    0  0.82268104395E+01  0.68360901008E+02  0.14162271240E+04  0.14179351748E+04  0.10000000000E+02 0. -1.
</event>
<event>
 5    1  0.5525569E-010  0.3741216E+03  0.7957747E-01  0.3477160E+00
         13   -1    0    0    0    0  0.00000000000E+00  0.00000000000E+00  0.14999999963E+04  0.15000000000E+04  0.10566000000E+00 0. -1.
        994   -1    0    0    0    0 -0.00000000000E+00 -0.00000000000E+00  0.11368683772E-12  0.17120000000E+03  0.17120000000E+03 0.  0.
         13    1    1    2    0    0 -0.36981946838E+02  0.55704573519E+02  0.34005245264E+03  0.34656362419E+03  0.10566000000E+00 0. -1.
        994    1    1    2    0    0 -0.60624032192E+02 -0.94606173360E+02  0.51476082748E+02  0.21115119799E+03  0.17120000000E+03 0.  0.
        998    1    1    2    0    0  0.97605979030E+02  0.38901599841E+02  0.11084714609E+04  0.11134851778E+04  0.10000000000E+02 0. -1.
</event>
<event>
 5    1  0.5525569E-010  0.3865886E+03  0.7957747E-01  0.3422963E+00
         13   -1    0    0    0    0  0.00000000000E+00  0.00000000000E+00  0.14999999963E+04  0.15000000000E+04  0.10566000000E+00 0. -1.
        994   -1    0    0    0    0 -0.00000000000E+00 -0.00000000000E+00  0.11368683772E-12  0.17120000000E+03  0.17120000000E+03 0.  0.
         13    1    1    2    0    0  0.11040775834E+03  0.26127385997E+02  0.56194467382E+03  0.57328382238E+03  0.10566000000E+00 0. -1.
        994    1    1    2    0    0 -0.21420874640E+03 -0.28603783757E+02  0.17235839460E+03  0.32514676635E+03  0.17120000000E+03 0.  0.
        998    1    1    2    0    0  0.10380098806E+03  0.24763977597E+01  0.76569692786E+03  0.77276941127E+03  0.10000000000E+02 0. -1.
</event>
<event>
 5    1  0.5525569E-010  0.3855503E+03  0.7957747E-01  0.3427342E+00
         13   -1    0    0    0    0  0.00000000000E+00  0.00000000000E+00  0.14999999963E+04  0.15000000000E+04  0.10566000000E+00 0.  1.
        994   -1    0    0    0    0 -0.00000000000E+00 -0.00000000000E+00  0.11368683772E-12  0.17120000000E+03  0.17120000000E+03 0.  0.
         13    1    1    2    0    0  0.32477235172E+02  0.21610871923E+02  0.15380685394E+03  0.15867690466E+03  0.10566000000E+00 0.  1.
        994    1    1    2    0    0 -0.12453540651E+03 -0.12895527300E+03  0.11511972946E+03  0.27331396236E+03  0.17120000000E+03 0.  0.
        998    1    1    2    0    0  0.92058171342E+02  0.10734440108E+03  0.12310734129E+04  0.12392091330E+04  0.10000000000E+02 0.  1.
</event>
<event>
 5    1  0.5525569E-010  0.3812977E+03  0.7957747E-01  0.3445528E+00
         13   -1    0    0    0    0  0.00000000000E+00  0.00000000000E+00  0.14999999963E+04  0.15000000000E+04  0.10566000000E+00 0. -1.
        994   -1    0    0    0    0 -0.00000000000E+00 -0.00000000000E+00  0.11368683772E-12  0.17120000000E+03  0.17120000000E+03 0.  0.
         13    1    1    2    0    0  0.10136647021E+02 -0.33630876437E+02  0.13859772883E+03  0.14297947078E+03  0.10566000000E+00 0. -1.
        994    1    1    2    0    0  0.77527533625E+02  0.97335891079E+02  0.56866025067E+02  0.21915286667E+03  0.17120000000E+03 0.  0.
        998    1    1    2    0    0 -0.87664180646E+02 -0.63705014642E+02  0.13045362424E+04  0.13090676626E+04  0.10000000000E+02 0. -1.
</event>
<event>
 5    1  0.5525569E-010  0.3855992E+03  0.7957747E-01  0.3427135E+00
         13   -1    0    0    0    0  0.00000000000E+00  0.00000000000E+00  0.14999999963E+04  0.15000000000E+04  0.10566000000E+00 0. -1.
        994   -1    0    0    0    0 -0.00000000000E+00 -0.00000000000E+00  0.11368683772E-12  0.17120000000E+03  0.17120000000E+03 0.  0.
         13    1    1    2    0    0  0.42066774462E+02 -0.13410311181E+03  0.67551083540E+03  0.68997692571E+03  0.10566000000E+00 0. -1.
        994    1    1    2    0    0 -0.24901399527E+02  0.23562312564E+03  0.21461861581E+03  0.36264159619E+03  0.17120000000E+03 0.  0.
        998    1    1    2    0    0 -0.17165374936E+02 -0.10152001383E+03  0.60987054507E+03  0.61858147810E+03  0.10000000000E+02 0. -1.
</event>
<event>
 5    1  0.5525569E-010  0.3852451E+03  0.7957747E-01  0.3428633E+00
         13   -1    0    0    0    0  0.00000000000E+00  0.00000000000E+00  0.14999999963E+04  0.15000000000E+04  0.10566000000E+00 0.  1.
        994   -1    0    0    0    0 -0.00000000000E+00 -0.00000000000E+00  0.11368683772E-12  0.17120000000E+03  0.17120000000E+03 0.  0.
         13    1    1    2    0    0  0.22559367375E+03  0.15687016823E+01  0.11163291395E+04  0.11388967141E+04  0.10566000000E+00 0.  1.
        994    1    1    2    0    0 -0.23770209312E+03  0.80912398578E+01  0.21707404572E+03  0.36468936722E+03  0.17120000000E+03 0.  0.
        998    1    1    2    0    0  0.12108419376E+02 -0.96599415401E+01  0.16659681103E+03  0.16761391868E+03  0.10000000000E+02 0. -1.
</event>
<event>
 5    1  0.5525569E-010  0.3863115E+03  0.7957747E-01  0.3424129E+00
         13   -1    0    0    0    0  0.00000000000E+00  0.00000000000E+00  0.14999999963E+04  0.15000000000E+04  0.10566000000E+00 0.  1.
        994   -1    0    0    0    0 -0.00000000000E+00 -0.00000000000E+00  0.11368683772E-12  0.17120000000E+03  0.17120000000E+03 0.  0.
         13    1    1    2    0    0  0.21730639568E+03 -0.30079985479E+02  0.10482800466E+04  0.10709892354E+04  0.10566000000E+00 0.  1.
        994    1    1    2    0    0 -0.24226158548E+03  0.45903969077E+02  0.23491323762E+03  0.38117124680E+03  0.17120000000E+03 0.  0.
        998    1    1    2    0    0  0.24955189804E+02 -0.15823983597E+02  0.21680671203E+03  0.21903951775E+03  0.10000000000E+02 0.  1.
</event>
<event>
 5    1  0.5525569E-010  0.3846385E+03  0.7957747E-01  0.3431207E+00
         13   -1    0    0    0    0  0.00000000000E+00  0.00000000000E+00  0.14999999963E+04  0.15000000000E+04  0.10566000000E+00 0.  1.
        994   -1    0    0    0    0 -0.00000000000E+00 -0.00000000000E+00  0.11368683772E-12  0.17120000000E+03  0.17120000000E+03 0.  0.
         13    1    1    2    0    0 -0.39864985837E+02 -0.40996752847E+02  0.30319071719E+03  0.30853617777E+03  0.10566000000E+00 0.  1.
        994    1    1    2    0    0  0.10257824249E+03  0.82547654951E+02  0.61142794139E+02  0.22446445697E+03  0.17120000000E+03 0.  0.
        998    1    1    2    0    0 -0.62713256652E+02 -0.41550902104E+02  0.11356664849E+04  0.11381993653E+04  0.10000000000E+02 0. -1.
</event>
<event>
 5    1  0.5525569E-010  0.3849969E+03  0.7957747E-01  0.3429685E+00
         13   -1    0    0    0    0  0.00000000000E+00  0.00000000000E+00  0.14999999963E+04  0.15000000000E+04  0.10566000000E+00 0. -1.
        994   -1    0    0    0    0 -0.00000000000E+00 -0.00000000000E+00  0.11368683772E-12  0.17120000000E+03  0.17120000000E+03 0.  0.
         13    1    1    2    0    0  0.20718374482E+02 -0.91734855234E+01  0.98981186265E+02  0.10154156920E+03  0.10566000000E+00 0. -1.
        994    1    1    2    0    0 -0.16130525303E+03 -0.86251844757E+02  0.12073487919E+03  0.27810989992E+03  0.17120000000E+03 0.  0.
        998    1    1    2    0    0  0.14058687855E+03  0.95425330280E+02  0.12802839308E+04  0.12915485309E+04  0.10000000000E+02 0. -1.
</event>
<event>
 5    1  0.5525569E-010  0.3859674E+03  0.7957747E-01  0.3425580E+00
         13   -1    0    0    0    0  0.00000000000E+00  0.00000000000E+00  0.14999999963E+04  0.15000000000E+04  0.10566000000E+00 0.  1.
        994   -1    0    0    0    0 -0.00000000000E+00 -0.00000000000E+00  0.11368683772E-12  0.17120000000E+03  0.17120000000E+03 0.  0.
         13    1    1    2    0    0  0.14659261183E+03  0.91458791247E+01  0.86836244347E+03  0.88069653420E+03  0.10566000000E+00 0.  1.
        994    1    1    2    0    0 -0.20414977893E+03  0.20605318542E+02  0.15407974425E+03  0.30846672264E+03  0.17120000000E+03 0.  0.
        998    1    1    2    0    0  0.57557167100E+02 -0.29751197667E+02  0.47755780855E+03  0.48203674316E+03  0.10000000000E+02 0.  1.
</event>
<event>
 5    1  0.5525569E-010  0.3874128E+03  0.7957747E-01  0.3419503E+00
         13   -1    0    0    0    0  0.00000000000E+00  0.00000000000E+00  0.14999999963E+04  0.15000000000E+04  0.10566000000E+00 0. -1.
        994   -1    0    0    0    0 -0.00000000000E+00 -0.00000000000E+00  0.11368683772E-12  0.17120000000E+03  0.17120000000E+03 0.  0.
         13    1    1    2    0    0  0.13640721457E+03  0.20775109846E+03  0.10740538690E+04  0.11024332958E+04  0.10566000000E+00 0. -1.
        994    1    1    2    0    0 -0.15069547079E+03 -0.22618051547E+03  0.29742398004E+03  0.43776387973E+03  0.17120000000E+03 0.  0.
        998    1    1    2    0    0  0.14288256224E+02  0.18429417010E+02  0.12852214728E+03  0.13100282447E+03  0.10000000000E+02 0.  1.
</event>
<event>
 5    1  0.5525569E-010  0.3817809E+03  0.7957747E-01  0.3443441E+00
         13   -1    0    0    0    0  0.00000000000E+00  0.00000000000E+00  0.14999999963E+04  0.15000000000E+04  0.10566000000E+00 0. -1.
        994   -1    0    0    0    0 -0.00000000000E+00 -0.00000000000E+00  0.11368683772E-12  0.17120000000E+03  0.17120000000E+03 0.  0.
         13    1    1    2    0    0 -0.12161171093E+03 -0.34962456595E+01  0.64533853402E+03  0.65670653006E+03  0.10566000000E+00 0. -1.
        994    1    1    2    0    0  0.16617130790E+03  0.50227582860E+02  0.11087120575E+03  0.26783871623E+03  0.17120000000E+03 0.  0.
        998    1    1    2    0    0 -0.44559596961E+02 -0.46731337201E+02  0.74379025651E+03  0.74665475371E+03  0.10000000000E+02 0. -1.
</event>
<event>
 5    1  0.5525569E-010  0.3847389E+03  0.7957747E-01  0.3430780E+00
         13   -1    0    0    0    0  0.00000000000E+00  0.00000000000E+00  0.14999999963E+04  0.15000000000E+04  0.10566000000E+00 0.  1.
        994   -1    0    0    0    0 -0.00000000000E+00 -0.00000000000E+00  0.11368683772E-12  0.17120000000E+03  0.17120000000E+03 0.  0.
         13    1    1    2    0    0 -0.11271059332E+01 -0.11315344929E+02  0.43760326788E+02  0.45213767409E+02  0.10566000000E+00 0.  1.
        994    1    1    2    0    0  0.17072077374E+02 -0.28756947711E+02  0.54497210174E+01  0.17452093664E+03  0.17120000000E+03 0.  0.
        998    1    1    2    0    0 -0.15944971441E+02  0.40072292641E+02  0.14507899485E+04  0.14514652959E+04  0.10000000000E+02 0.  1.
</event>
<event>
 5    1  0.5525569E-010  0.3869595E+03  0.7957747E-01  0.3421404E+00
         13   -1    0    0    0    0  0.00000000000E+00  0.00000000000E+00  0.14999999963E+04  0.15000000000E+04  0.10566000000E+00 0. -1.
        994   -1    0    0    0    0 -0.00000000000E+00 -0.00000000000E+00  0.11368683772E-12  0.17120000000E+03  0.17120000000E+03 0.  0.
         13    1    1    2    0    0  0.11940981726E+03  0.93353833458E+02  0.52878815575E+03  0.55008232793E+03  0.10566000000E+00 0. -1.
        994    1    1    2    0    0 -0.23249208850E+03 -0.16675736036E+03  0.34233190890E+03  0.47787149350E+03  0.17120000000E+03 0.  0.
        998    1    1    2    0    0  0.11308227124E+03  0.73403526905E+02  0.62887993163E+03  0.64324617856E+03  0.10000000000E+02 0.  0.
</event>
<event>
 5    1  0.5525569E-010  0.3862430E+03  0.7957747E-01  0.3424418E+00
         13   -1    0    0    0    0  0.00000000000E+00  0.00000000000E+00  0.14999999963E+04  0.15000000000E+04  0.10566000000E+00 0.  1.
        994   -1    0    0    0    0 -0.00000000000E+00 -0.00000000000E+00  0.11368683772E-12  0.17120000000E+03  0.17120000000E+03 0.  0.
         13    1    1    2    0    0  0.24445210889E+03  0.21070988134E+03  0.86299669878E+03  0.92136789661E+03  0.10566000000E+00 0.  1.
        994    1    1    2    0    0 -0.25736094034E+03 -0.21729129435E+03  0.60451030999E+03  0.71287608678E+03  0.17120000000E+03 0.  0.
        998    1    1    2    0    0  0.12908831454E+02  0.65814130047E+01  0.32492987502E+02  0.36956016607E+02  0.10000000000E+02 0.  0.
</event>
<event>
 5    1  0.5525569E-010  0.3861247E+03  0.7957747E-01  0.3424916E+00
         13   -1    0    0    0    0  0.00000000000E+00  0.00000000000E+00  0.14999999963E+04  0.15000000000E+04  0.10566000000E+00 0. -1.
        994   -1    0    0    0    0 -0.00000000000E+00 -0.00000000000E+00  0.11368683772E-12  0.17120000000E+03  0.17120000000E+03 0.  0.
         13    1    1    2    0    0  0.18413571497E+02  0.81100371402E+01  0.10970604719E+03  0.11153591471E+03  0.10566000000E+00 0. -1.
        994    1    1    2    0    0 -0.62433580531E+02 -0.41729808354E+02  0.19773929615E+02  0.18798876875E+03  0.17120000000E+03 0.  0.
        998    1    1    2    0    0  0.44020009033E+02  0.33619771214E+02  0.13705200195E+04  0.13716753165E+04  0.10000000000E+02 0. -1.
</event>
<event>
 5    1  0.5525569E-010  0.3835382E+03  0.7957747E-01  0.3435895E+00
         13   -1    0    0    0    0  0.00000000000E+00  0.00000000000E+00  0.14999999963E+04  0.15000000000E+04  0.10566000000E+00 0. -1.
        994   -1    0    0    0    0 -0.00000000000E+00 -0.00000000000E+00  0.11368683772E-12  0.17120000000E+03  0.17120000000E+03 0.  0.
         13    1    1    2    0    0 -0.21022266555E+03 -0.13854282162E+03  0.11754693377E+04  0.12021297175E+04  0.10566000000E+00 0. -1.
        994    1    1    2    0    0  0.20510409113E+03  0.14665606035E+03  0.25267641560E+03  0.39589202977E+03  0.17120000000E+03 0.  0.
        998    1    1    2    0    0  0.51185744278E+01 -0.81132387306E+01  0.71854242964E+02  0.73178252773E+02  0.10000000000E+02 0. -1.
</event>
<event>
 5    1  0.5525569E-010  0.3876321E+03  0.7957747E-01  0.3418586E+00
         13   -1    0    0    0    0  0.00000000000E+00  0.00000000000E+00  0.14999999963E+04  0.15000000000E+04  0.10566000000E+00 0. -1.
        994   -1    0    0    0    0 -0.00000000000E+00 -0.00000000000E+00  0.11368683772E-12  0.17120000000E+03  0.17120000000E+03 0.  0.
         13    1    1    2    0    0  0.74294599162E+02 -0.38734479114E+02  0.49750292077E+03  0.50450888463E+03  0.10566000000E+00 0. -1.
        994    1    1    2    0    0 -0.22466875143E+03  0.10393550613E+03  0.23508307540E+03  0.38190591727E+03  0.17120000000E+03 0.  0.
        998    1    1    2    0    0  0.15037415227E+03 -0.65201027014E+02  0.76741400011E+03  0.78478519810E+03  0.10000000000E+02 0.  0.
</event>
<event>
 5    1  0.5525569E-010  0.3872332E+03  0.7957747E-01  0.3420256E+00
         13   -1    0    0    0    0  0.00000000000E+00  0.00000000000E+00  0.14999999963E+04  0.15000000000E+04  0.10566000000E+00 0. -1.
        994   -1    0    0    0    0 -0.00000000000E+00 -0.00000000000E+00  0.11368683772E-12  0.17120000000E+03  0.17120000000E+03 0.  0.
         13    1    1    2    0    0 -0.12720305335E+03  0.30501532552E+01  0.72468298376E+03  0.73576854943E+03  0.10566000000E+00 0. -1.
        994    1    1    2    0    0  0.20312459297E+03  0.89355070561E+00  0.14928820548E+03  0.30472414902E+03  0.17120000000E+03 0.  0.
        998    1    1    2    0    0 -0.75921539625E+02 -0.39437039608E+01  0.62602880704E+03  0.63070730154E+03  0.10000000000E+02 0.  0.
</event>
<event>
 5    1  0.5525569E-010  0.3771903E+03  0.7957747E-01  0.3463484E+00
         13   -1    0    0    0    0  0.00000000000E+00  0.00000000000E+00  0.14999999963E+04  0.15000000000E+04  0.10566000000E+00 0.  1.
        994   -1    0    0    0    0 -0.00000000000E+00 -0.00000000000E+00  0.11368683772E-12  0.17120000000E+03  0.17120000000E+03 0.  0.
         13    1    1    2    0    0  0.27086316654E+02  0.25285052227E+01  0.13685279206E+03  0.13953049755E+03  0.10566000000E+00 0.  1.
        994    1    1    2    0    0  0.10632361355E+03  0.12287663998E+02  0.45244711351E+02  0.20691114371E+03  0.17120000000E+03 0.  0.
        998    1    1    2    0    0 -0.13340993020E+03 -0.14816169221E+02  0.13179024929E+04  0.13247583587E+04  0.10000000000E+02 0.  1.
</event>
<event>
 5    1  0.5525569E-010  0.3856483E+03  0.7957747E-01  0.3426927E+00
         13   -1    0    0    0    0  0.00000000000E+00  0.00000000000E+00  0.14999999963E+04  0.15000000000E+04  0.10566000000E+00 0. -1.
        994   -1    0    0    0    0 -0.00000000000E+00 -0.00000000000E+00  0.11368683772E-12  0.17120000000E+03  0.17120000000E+03 0.  0.
         13    1    1    2    0    0  0.22476889725E+02 -0.84230262431E+00  0.94317527643E+02  0.96962504249E+02  0.10566000000E+00 0. -1.
        994    1    1    2    0    0 -0.11403052210E+03 -0.33700293523E+02  0.49169403147E+02  0.21416288185E+03  0.17120000000E+03 0.  0.
        998    1    1    2    0    0  0.91553632378E+02  0.34542596147E+02  0.13565130655E+04  0.13600746139E+04  0.10000000000E+02 0. -1.
</event>
<event>
 5    1  0.5525569E-010  0.3843651E+03  0.7957747E-01  0.3432369E+00
         13   -1    0    0    0    0  0.00000000000E+00  0.00000000000E+00  0.14999999963E+04  0.15000000000E+04  0.10566000000E+00 0.  1.
        994   -1    0    0    0    0 -0.00000000000E+00 -0.00000000000E+00  0.11368683772E-12  0.17120000000E+03  0.17120000000E+03 0.  0.
         13    1    1    2    0    0 -0.48138934188E+01  0.88447951500E+01  0.19184963929E+02  0.21667440460E+02  0.10566000000E+00 0.  1.
        994    1    1    2    0    0  0.38860300663E+01 -0.99853206805E+02  0.35577430838E+02  0.20139751171E+03  0.17120000000E+03 0.  0.
        998    1    1    2    0    0  0.92786335249E+00  0.91008411655E+02  0.14452376015E+04  0.14481350478E+04  0.10000000000E+02 0.  1.
</event>
<event>
 5    1  0.5525569E-010  0.3855098E+03  0.7957747E-01  0.3427513E+00
         13   -1    0    0    0    0  0.00000000000E+00  0.00000000000E+00  0.14999999963E+04  0.15000000000E+04  0.10566000000E+00 0.  1.
        994   -1    0    0    0    0 -0.00000000000E+00 -0.00000000000E+00  0.11368683772E-12  0.17120000000E+03  0.17120000000E+03 0.  0.
         13    1    1    2    0    0  0.62600194419E+01  0.21229748951E+02  0.12952570528E+03  0.13140323274E+03  0.10566000000E+00 0.  1.
        994    1    1    2    0    0  0.48585651137E+02 -0.75537634128E+02  0.28324734671E+02  0.19539250308E+03  0.17120000000E+03 0.  0.
        998    1    1    2    0    0 -0.54845670579E+02  0.54307885177E+02  0.13421495563E+04  0.13444042642E+04  0.10000000000E+02 0.  1.
</event>
<event>
 5    1  0.5525569E-010  0.3806810E+03  0.7957747E-01  0.3448199E+00
         13   -1    0    0    0    0  0.00000000000E+00  0.00000000000E+00  0.14999999963E+04  0.15000000000E+04  0.10566000000E+00 0.  1.
        994   -1    0    0    0    0 -0.00000000000E+00 -0.00000000000E+00  0.11368683772E-12  0.17120000000E+03  0.17120000000E+03 0.  0.
         13    1    1    2    0    0 -0.66357084937E+02  0.29599031204E+03  0.46628970599E+03  0.55627298030E+03  0.10566000000E+00 0.  1.
        994    1    1    2    0    0  0.54762216835E+02 -0.33120603233E+03  0.89737640418E+03  0.97328833704E+03  0.17120000000E+03 0.  0.
        998    1    1    2    0    0  0.11594868102E+02  0.35215720288E+02  0.13633388611E+03  0.14163868265E+03  0.10000000000E+02 0.  1.
</event>
<event>
 5    1  0.5525569E-010  0.3804094E+03  0.7957747E-01  0.3449378E+00
         13   -1    0    0    0    0  0.00000000000E+00  0.00000000000E+00  0.14999999963E+04  0.15000000000E+04  0.10566000000E+00 0.  1.
        994   -1    0    0    0    0 -0.00000000000E+00 -0.00000000000E+00  0.11368683772E-12  0.17120000000E+03  0.17120000000E+03 0.  0.
         13    1    1    2    0    0 -0.13433936634E+03  0.67069484489E+02  0.60819136130E+03  0.62645201271E+03  0.10566000000E+00 0.  1.
        994    1    1    2    0    0  0.17178451300E+03 -0.15113101106E+03  0.20489997929E+03  0.35163040671E+03  0.17120000000E+03 0.  0.
        998    1    1    2    0    0 -0.37445146664E+02  0.84061526569E+02  0.68690865569E+03  0.69311758058E+03  0.10000000000E+02 0.  1.
</event>
<event>
 5    1  0.5525569E-010  0.3880636E+03  0.7957747E-01  0.3416782E+00
         13   -1    0    0    0    0  0.00000000000E+00  0.00000000000E+00  0.14999999963E+04  0.15000000000E+04  0.10566000000E+00 0. -1.
        994   -1    0    0    0    0 -0.00000000000E+00 -0.00000000000E+00  0.11368683772E-12  0.17120000000E+03  0.17120000000E+03 0.  0.
         13    1    1    2    0    0  0.29860217510E+02  0.86355977907E+02  0.42989659954E+03  0.43949981225E+03  0.10566000000E+00 0. -1.
        994    1    1    2    0    0 -0.69067385398E+02 -0.24361573539E+03  0.24771833836E+03  0.39343709207E+03  0.17120000000E+03 0.  0.
        998    1    1    2    0    0  0.39207167888E+02  0.15725975748E+03  0.82238505838E+03  0.83826309568E+03  0.10000000000E+02 0.  0.
</event>
<event>
 5    1  0.5525569E-010  0.3823986E+03  0.7957747E-01  0.3440780E+00
         13   -1    0    0    0    0  0.00000000000E+00  0.00000000000E+00  0.14999999963E+04  0.15000000000E+04  0.10566000000E+00 0. -1.
        994   -1    0    0    0    0 -0.00000000000E+00 -0.00000000000E+00  0.11368683772E-12  0.17120000000E+03  0.17120000000E+03 0.  0.
         13    1    1    2    0    0  0.13992041843E+02 -0.10480229273E+02  0.93688669836E+02  0.95305773488E+02  0.10566000000E+00 0. -1.
        994    1    1    2    0    0  0.31111966505E+02 -0.88257709717E+02  0.32537075499E+02  0.19780161543E+03  0.17120000000E+03 0.  0.
        998    1    1    2    0    0 -0.45104008347E+02  0.98737938990E+02  0.13737742509E+04  0.13780926111E+04  0.10000000000E+02 0. -1.
</event>
<event>
 5    1  0.5525569E-010  0.3849659E+03  0.7957747E-01  0.3429817E+00
         13   -1    0    0    0    0  0.00000000000E+00  0.00000000000E+00  0.14999999963E+04  0.15000000000E+04  0.10566000000E+00 0. -1.
        994   -1    0    0    0    0 -0.00000000000E+00 -0.00000000000E+00  0.11368683772E-12  0.17120000000E+03  0.17120000000E+03 0.  0.
         13    1    1    2    0    0 -0.73358577014E+02  0.15733489017E+03  0.31694525055E+03  0.36137245537E+03  0.10566000000E+00 0. -1.
        994    1    1    2    0    0  0.20302992572E+03 -0.27579600328E+03  0.87455817194E+03  0.95469682217E+03  0.17120000000E+03 0.  0.
        998    1    1    2    0    0 -0.12967134871E+03  0.11846111312E+03  0.30849657379E+03  0.35513072246E+03  0.10000000000E+02 0.  1.
</event>
<event>
 5    1  0.5525569E-010  0.3872752E+03  0.7957747E-01  0.3420080E+00
         13   -1    0    0    0    0  0.00000000000E+00  0.00000000000E+00  0.14999999963E+04  0.15000000000E+04  0.10566000000E+00 0.  1.
        994   -1    0    0    0    0 -0.00000000000E+00 -0.00000000000E+00  0.11368683772E-12  0.17120000000E+03  0.17120000000E+03 0.  0.
         13    1    1    2    0    0  0.15133733429E+03 -0.16457308819E+03  0.97970954103E+03  0.10048970525E+04  0.10566000000E+00 0.  1.
        994    1    1    2    0    0 -0.17398518191E+03  0.19928856058E+03  0.27776895592E+03  0.42006167021E+03  0.17120000000E+03 0.  0.
        998    1    1    2    0    0  0.22647847620E+02 -0.34715472391E+02  0.24252149933E+03  0.24624127733E+03  0.10000000000E+02 0.  1.
</event>
<event>
 5    1  0.5525569E-010  0.3867994E+03  0.7957747E-01  0.3422076E+00
         13   -1    0    0    0    0  0.00000000000E+00  0.00000000000E+00  0.14999999963E+04  0.15000000000E+04  0.10566000000E+00 0. -1.
        994   -1    0    0    0    0 -0.00000000000E+00 -0.00000000000E+00  0.11368683772E-12  0.17120000000E+03  0.17120000000E+03 0.  0.
         13    1    1    2    0    0  0.14768908714E+02  0.18449506806E+03  0.96356137131E+03  0.98117637469E+03  0.10566000000E+00 0. -1.
        994    1    1    2    0    0 -0.16462930656E+02 -0.22510326113E+03  0.19008787634E+03  0.34115296714E+03  0.17120000000E+03 0.  0.
        998    1    1    2    0    0  0.16940219426E+01  0.40608193073E+02  0.34635074863E+03  0.34887065817E+03  0.10000000000E+02 0. -1.
</event>
<event>
 5    1  0.5525569E-010  0.3850491E+03  0.7957747E-01  0.3429464E+00
         13   -1    0    0    0    0  0.00000000000E+00  0.00000000000E+00  0.14999999963E+04  0.15000000000E+04  0.10566000000E+00 0.  1.
        994   -1    0    0    0    0 -0.00000000000E+00 -0.00000000000E+00  0.11368683772E-12  0.17120000000E+03  0.17120000000E+03 0.  0.
         13    1    1    2    0    0 -0.11074321733E+03  0.88632388871E+02  0.67671102196E+03  0.69141708031E+03  0.10566000000E+00 0.  1.
        994    1    1    2    0    0  0.17411132473E+03 -0.12304921273E+03  0.16897417264E+03  0.32143051064E+03  0.17120000000E+03 0.  0.
        998    1    1    2    0    0 -0.63368107398E+02  0.34416823856E+02  0.65431480168E+03  0.65835240905E+03  0.10000000000E+02 0.  1.
</event>
<event>
 5    1  0.5525569E-010  0.3881404E+03  0.7957747E-01  0.3416462E+00
         13   -1    0    0    0    0  0.00000000000E+00  0.00000000000E+00  0.14999999963E+04  0.15000000000E+04  0.10566000000E+00 0. -1.
        994   -1    0    0    0    0 -0.00000000000E+00 -0.00000000000E+00  0.11368683772E-12  0.17120000000E+03  0.17120000000E+03 0.  0.
         13    1    1    2    0    0 -0.71291207497E+02  0.19398250199E+01  0.38613736518E+03  0.39266814888E+03  0.10566000000E+00 0. -1.
        994    1    1    2    0    0  0.22997997788E+03  0.41718293998E+01  0.19682070732E+03  0.34778732757E+03  0.17120000000E+03 0.  0.
        998    1    1    2    0    0 -0.15868877039E+03 -0.61116544197E+01  0.91704192377E+03  0.93074452355E+03  0.10000000000E+02 0.  0.
</event>
<event>
 5    1  0.5525569E-010  0.3875152E+03  0.7957747E-01  0.3419075E+00
         13   -1    0    0    0    0  0.00000000000E+00  0.00000000000E+00  0.14999999963E+04  0.15000000000E+04  0.10566000000E+00 0. -1.
        994   -1    0    0    0    0 -0.00000000000E+00 -0.00000000000E+00  0.11368683772E-12  0.17120000000E+03  0.17120000000E+03 0.  0.
         13    1    1    2    0    0 -0.77345846787E+01 -0.70212916732E+01  0.53575568543E+02  0.54584567834E+02  0.10566000000E+00 0. -1.
        994    1    1    2    0    0  0.14119112452E+03  0.34811044839E+02  0.72683505319E+02  0.23609124175E+03  0.17120000000E+03 0.  0.
        998    1    1    2    0    0 -0.13345653984E+03 -0.27789753166E+02  0.13737409224E+04  0.13805241904E+04  0.10000000000E+02 0. -1.
</event>
<event>
 5    1  0.5525569E-010  0.3849183E+03  0.7957747E-01  0.3430019E+00
         13   -1    0    0    0    0  0.00000000000E+00  0.00000000000E+00  0.14999999963E+04  0.15000000000E+04  0.10566000000E+00 0. -1.
        994   -1    0    0    0    0 -0.00000000000E+00 -0.00000000000E+00  0.11368683772E-12  0.17120000000E+03  0.17120000000E+03 0.  0.
         13    1    1    2    0    0  0.29300231929E+02  0.69414449638E+01  0.17979052368E+03  0.18229462641E+03  0.10566000000E+00 0. -1.
        994    1    1    2    0    0 -0.77331297322E+02  0.36930170397E+02  0.26213882265E+02  0.19323709441E+03  0.17120000000E+03 0.  0.
        998    1    1    2    0    0  0.48031065392E+02 -0.43871615360E+02  0.12939955903E+04  0.12956682792E+04  0.10000000000E+02 0. -1.
</event>
<event>
 5    1  0.5525569E-010  0.3749622E+03  0.7957747E-01  0.3473392E+00
         13   -1    0    0    0    0  0.00000000000E+00  0.00000000000E+00  0.14999999963E+04  0.15000000000E+04  0.10566000000E+00 0.  1.
        994   -1    0    0    0    0 -0.00000000000E+00 -0.00000000000E+00  0.11368683772E-12  0.17120000000E+03  0.17120000000E+03 0.  0.
         13    1    1    2    0    0 -0.10451189554E+03 -0.17153430160E+03  0.10847673703E+04  0.11032076013E+04  0.10566000000E+00 0.  1.
        994    1    1    2    0    0  0.15143153602E+03  0.14910161047E+03  0.18009706995E+03  0.32696665725E+03  0.17120000000E+03 0.  0.
        998    1    1    2    0    0 -0.46919640473E+02  0.22432691131E+02  0.23513555607E+03  0.24102574141E+03  0.10000000000E+02 0. -1.
</event>
<event>
 5    1  0.5525569E-010  0.3879658E+03  0.7957747E-01  0.3417190E+00
         13   -1    0    0    0    0  0.00000000000E+00  0.00000000000E+00  0.14999999963E+04  0.15000000000E+04  0.10566000000E+00 0.  1.
        994   -1    0    0    0    0 -0.00000000000E+00 -0.00000000000E+00  0.11368683772E-12  0.17120000000E+03  0.17120000000E+03 0.  0.
         13    1    1    2    0    0  0.15781794208E+03  0.13604268651E+02  0.93295288428E+03  0.94630474712E+03  0.10566000000E+00 0.  1.
        994    1    1    2    0    0 -0.21737562590E+03 -0.14999605688E+02  0.17393647608E+03  0.32717042748E+03  0.17120000000E+03 0.  0.
        998    1    1    2    0    0  0.59557683820E+02  0.13953370364E+01  0.39311063591E+03  0.39772482540E+03  0.10000000000E+02 0.  1.
</event>
<event>
 5    1  0.5525569E-010  0.3857366E+03  0.7957747E-01  0.3426554E+00
         13   -1    0    0    0    0  0.00000000000E+00  0.00000000000E+00  0.14999999963E+04  0.15000000000E+04  0.10566000000E+00 0. -1.
        994   -1    0    0    0    0 -0.00000000000E+00 -0.00000000000E+00  0.11368683772E-12  0.17120000000E+03  0.17120000000E+03 0.  0.
         13    1    1    2    0    0 -0.21312590198E+03 -0.11697826311E+03  0.11460750318E+04  0.11715778053E+04  0.10566000000E+00 0. -1.
        994    1    1    2    0    0  0.23272893835E+03  0.13185945047E+03  0.28869388166E+03  0.42918908506E+03  0.17120000000E+03 0.  0.
        998    1    1    2    0    0 -0.19603036368E+02 -0.14881187363E+02  0.65231082814E+02  0.70433109667E+02  0.10000000000E+02 0.  0.
</event>
<event>
 5    1  0.5525569E-010  0.3864937E+03  0.7957747E-01  0.3423362E+00
         13   -1    0    0    0    0  0.00000000000E+00  0.00000000000E+00  0.14999999963E+04  0.15000000000E+04  0.10566000000E+00 0.  1.
        994   -1    0    0    0    0 -0.00000000000E+00 -0.00000000000E+00  0.11368683772E-12  0.17120000000E+03  0.17120000000E+03 0.  0.
         13    1    1    2    0    0  0.78277824889E+02  0.63281794417E+02  0.59263653748E+03  0.60112401391E+03  0.10566000000E+00 0.  1.
        994    1    1    2    0    0 -0.14087632998E+03 -0.10825804293E+03  0.11206268710E+03  0.27098603294E+03  0.17120000000E+03 0.  0.
        998    1    1    2    0    0  0.62598505087E+02  0.44976248515E+02  0.79530077170E+03  0.79908995316E+03  0.10000000000E+02 0. -1.
</event>
<event>
 5    1  0.6851797E-010  0.3864374E+03  0.7957747E-01  0.3423599E+00
         13   -1    0    0    0    0  0.00000000000E+00  0.00000000000E+00  0.14999999963E+04  0.15000000000E+04  0.10566000000E+00 0. -1.
        994   -1    0    0    0    0 -0.00000000000E+00 -0.00000000000E+00  0.11368683772E-12  0.17120000000E+03  0.17120000000E+03 0.  0.
         13    1    1    2    0    0 -0.17607793380E+03  0.97204353620E+02  0.11150477940E+04  0.11330417994E+04  0.10566000000E+00 0. -1.
        994    1    1    2    0    0  0.18870721272E+03 -0.11366799674E+03  0.18024097061E+03  0.33215519430E+03  0.17120000000E+03 0.  0.
        998    1    1    2    0    0 -0.12629278917E+02  0.16463643123E+02  0.20471123168E+03  0.20600300630E+03  0.10000000000E+02 0.  1.
</event>
<event>
 5    1  0.5525569E-010  0.3765676E+03  0.7957747E-01  0.3466241E+00
         13   -1    0    0    0    0  0.00000000000E+00  0.00000000000E+00  0.14999999963E+04  0.15000000000E+04  0.10566000000E+00 0.  1.
        994   -1    0    0    0    0 -0.00000000000E+00 -0.00000000000E+00  0.11368683772E-12  0.17120000000E+03  0.17120000000E+03 0.  0.
         13    1    1    2    0    0 -0.37692289609E+02 -0.12393654764E+02  0.18645214714E+03  0.19062719038E+03  0.10566000000E+00 0.  1.
        994    1    1    2    0    0 -0.42664428192E+02  0.44383157007E+02  0.18800850130E+02  0.18290169497E+03  0.17120000000E+03 0.  0.
        998    1    1    2    0    0  0.80356717801E+02 -0.31989502242E+02  0.12947469990E+04  0.12976711146E+04  0.10000000000E+02 0.  1.
</event>
<event>
 5    1  0.5525569E-010  0.3848698E+03  0.7957747E-01  0.3430225E+00
         13   -1    0    0    0    0  0.00000000000E+00  0.00000000000E+00  0.14999999963E+04  0.15000000000E+04  0.10566000000E+00 0.  1.
        994   -1    0    0    0    0 -0.00000000000E+00 -0.00000000000E+00  0.11368683772E-12  0.17120000000E+03  0.17120000000E+03 0.  0.
         13    1    1    2    0    0 -0.40219189229E+01 -0.18737191952E+02  0.63779075001E+02  0.66596094225E+02  0.10566000000E+00 0.  1.
        994    1    1    2    0    0  0.73821082955E+02  0.93437291866E+02  0.49829322145E+02  0.21441194264E+03  0.17120000000E+03 0.  0.
        998    1    1    2    0    0 -0.69799164032E+02 -0.74700099914E+02  0.13863915991E+04  0.13901919631E+04  0.10000000000E+02 0.  1.
</event>
<event>
 5    1  0.5525569E-010  0.3850573E+03  0.7957747E-01  0.3429429E+00
         13   -1    0    0    0    0  0.00000000000E+00  0.00000000000E+00  0.14999999963E+04  0.15000000000E+04  0.10566000000E+00 0. -1.
        994   -1    0    0    0    0 -0.00000000000E+00 -0.00000000000E+00  0.11368683772E-12  0.17120000000E+03  0.17120000000E+03 0.  0.
         13    1    1    2    0    0 -0.48166326365E+01 -0.10804900802E+02  0.37777809971E+02  0.39586865518E+02  0.10566000000E+00 0. -1.
        994    1    1    2    0    0 -0.32126903221E+02  0.57457787836E+02  0.15982630721E+02  0.18411523505E+03  0.17120000000E+03 0.  0.
        998    1    1    2    0    0  0.36943535857E+02 -0.46652887034E+02  0.14462395556E+04  0.14474978994E+04  0.10000000000E+02 0. -1.
</event>
<event>
 5    1  0.5525569E-010  0.3876024E+03  0.7957747E-01  0.3418710E+00
         13   -1    0    0    0    0  0.00000000000E+00  0.00000000000E+00  0.14999999963E+04  0.15000000000E+04  0.10566000000E+00 0. -1.
        994   -1    0    0    0    0 -0.00000000000E+00 -0.00000000000E+00  0.11368683772E-12  0.17120000000E+03  0.17120000000E+03 0.  0.
         13    1    1    2    0    0  0.93901268410E+02  0.37450978015E+02  0.53562921862E+03  0.54508595191E+03  0.10566000000E+00 0. -1.
        994    1    1    2    0    0 -0.20139251408E+03 -0.75766978625E+02  0.16946706343E+03  0.32299861511E+03  0.17120000000E+03 0.  0.
        998    1    1    2    0    0  0.10749124567E+03  0.38316000610E+02  0.79490371423E+03  0.80311543298E+03  0.10000000000E+02 0. -1.
</event>
<event>
 5    1  0.5525569E-010  0.3860292E+03  0.7957747E-01  0.3425319E+00
         13   -1    0    0    0    0  0.00000000000E+00  0.00000000000E+00  0.14999999963E+04  0.15000000000E+04  0.10566000000E+00 0. -1.
        994   -1    0    0    0    0 -0.00000000000E+00 -0.00000000000E+00  0.11368683772E-12  0.17120000000E+03  0.17120000000E+03 0.  0.
         13    1    1    2    0    0 -0.22539552189E+03  0.92364427526E+02  0.11835151636E+04  0.12083221766E+04  0.10566000000E+00 0. -1.
        994    1    1    2    0    0  0.23756684912E+03 -0.88594289270E+02  0.25190741778E+03  0.39630006690E+03  0.17120000000E+03 0.  0.
        998    1    1    2    0    0 -0.12171327231E+02 -0.37701382552E+01  0.64577414849E+02  0.66577756478E+02  0.10000000000E+02 0.  1.
</event>
<event>
 5    1  0.5525569E-010  0.3851032E+03  0.7957747E-01  0.3429235E+00
         13   -1    0    0    0    0  0.00000000000E+00  0.00000000000E+00  0.14999999963E+04  0.15000000000E+04  0.10566000000E+00 0.  1.
        994   -1    0    0    0    0 -0.00000000000E+00 -0.00000000000E+00  0.11368683772E-12  0.17120000000E+03  0.17120000000E+03 0.  0.
         13    1    1    2    0    0 -0.55797387735E+01 -0.15136498837E+02  0.56362777342E+02  0.58626111209E+02  0.10566000000E+00 0.  1.
        994    1    1    2    0    0 -0.24115720079E+02  0.94574870063E+02  0.33549077937E+02  0.19990236275E+03  0.17120000000E+03 0.  0.
        998    1    1    2    0    0  0.29695458852E+02 -0.79438371226E+02  0.14100881410E+04  0.14126715260E+04  0.10000000000E+02 0.  1.
</event>
<event>
 5    1  0.5525569E-010  0.3841716E+03  0.7957747E-01  0.3433193E+00
         13   -1    0    0    0    0  0.00000000000E+00  0.00000000000E+00  0.14999999963E+04  0.15000000000E+04  0.10566000000E+00 0.  1.
        994   -1    0    0    0    0 -0.00000000000E+00 -0.00000000000E+00  0.11368683772E-12  0.17120000000E+03  0.17120000000E+03 0.  0.
         13    1    1    2    0    0 -0.90965195276E+00 -0.10393100380E+02  0.24495596491E+02  0.26624977252E+02  0.10566000000E+00 0.  1.
        994    1    1    2    0    0 -0.15899967587E+03  0.43574963578E+02  0.97508255558E+02  0.25689876271E+03  0.17120000000E+03 0.  0.
        998    1    1    2    0    0  0.15990932782E+03 -0.33181863197E+02  0.13779961442E+04  0.13876762600E+04  0.10000000000E+02 0.  1.
</event>
<event>
 5    1  0.5525569E-010  0.3789096E+03  0.7957747E-01  0.3455920E+00
         13   -1    0    0    0    0  0.00000000000E+00  0.00000000000E+00  0.14999999963E+04  0.15000000000E+04  0.10566000000E+00 0. -1.
        994   -1    0    0    0    0 -0.00000000000E+00 -0.00000000000E+00  0.11368683772E-12  0.17120000000E+03  0.17120000000E+03 0.  0.
         13    1    1    2    0    0  0.11936347966E+02 -0.26938832884E+02  0.12533019901E+03  0.12874722159E+03  0.10566000000E+00 0. -1.
        994    1    1    2    0    0  0.11723194826E+03  0.26883260213E+02  0.54858748027E+02  0.21629831624E+03  0.17120000000E+03 0.  0.
        998    1    1    2    0    0 -0.12916829622E+03  0.55572670658E-01  0.13198110492E+04  0.13261544622E+04  0.10000000000E+02 0. -1.
</event>
<event>
 5    1  0.5525569E-010  0.3828259E+03  0.7957747E-01  0.3438946E+00
         13   -1    0    0    0    0  0.00000000000E+00  0.00000000000E+00  0.14999999963E+04  0.15000000000E+04  0.10566000000E+00 0.  1.
        994   -1    0    0    0    0 -0.00000000000E+00 -0.00000000000E+00  0.11368683772E-12  0.17120000000E+03  0.17120000000E+03 0.  0.
         13    1    1    2    0    0 -0.14318611072E+03 -0.14881209325E+03  0.10235135042E+04  0.10441394571E+04  0.10566000000E+00 0.  1.
        994    1    1    2    0    0  0.18796869261E+03  0.14351456113E+03  0.21770456355E+03  0.36418865393E+03  0.17120000000E+03 0.  0.
        998    1    1    2    0    0 -0.44782581890E+02  0.52975321186E+01  0.25878192855E+03  0.26287188901E+03  0.10000000000E+02 0. -1.
</event>
<event>
 5    1  0.5525569E-010  0.3855714E+03  0.7957747E-01  0.3427253E+00
         13   -1    0    0    0    0  0.00000000000E+00  0.00000000000E+00  0.14999999963E+04  0.15000000000E+04  0.10566000000E+00 0.  1.
        994   -1    0    0    0    0 -0.00000000000E+00 -0.00000000000E+00  0.11368683772E-12  0.17120000000E+03  0.17120000000E+03 0.  0.
         13    1    1    2    0    0  0.76379340259E+02  0.19765080050E+03  0.12325049472E+04  0.12505871016E+04  0.10566000000E+00 0.  1.
        994    1    1    2    0    0 -0.86228395941E+02 -0.21604213987E+03  0.20558034744E+03  0.35451694137E+03  0.17120000000E+03 0.  0.
        998    1    1    2    0    0  0.98490556821E+01  0.18391339370E+02  0.61914701607E+02  0.66095957038E+02  0.10000000000E+02 0.  0.
</event>
<event>
 5    1  0.5648807E-010  0.3873980E+03  0.7957747E-01  0.3419565E+00
         13   -1    0    0    0    0  0.00000000000E+00  0.00000000000E+00  0.14999999963E+04  0.15000000000E+04  0.10566000000E+00 0. -1.
        994   -1    0    0    0    0 -0.00000000000E+00 -0.00000000000E+00  0.11368683772E-12  0.17120000000E+03  0.17120000000E+03 0.  0.
         13    1    1    2    0    0 -0.43229532077E+02 -0.23714363531E+03  0.11351896824E+04  0.11605005482E+04  0.10566000000E+00 0. -1.
        994    1    1    2    0    0  0.45346261801E+02  0.25567805418E+03  0.26481899766E+03  0.40849246305E+03  0.17120000000E+03 0.  0.
        998    1    1    2    0    0 -0.21167297240E+01 -0.18534418861E+02  0.99991316223E+02  0.10220698874E+03  0.10000000000E+02 0. -1.
</event>
<event>
 5    1  0.5525569E-010  0.3796744E+03  0.7957747E-01  0.3452577E+00
         13   -1    0    0    0    0  0.00000000000E+00  0.00000000000E+00  0.14999999963E+04  0.15000000000E+04  0.10566000000E+00 0. -1.
        994   -1    0    0    0    0 -0.00000000000E+00 -0.00000000000E+00  0.11368683772E-12  0.17120000000E+03  0.17120000000E+03 0.  0.
         13    1    1    2    0    0 -0.50370829190E+01  0.63908677128E+02  0.27877437007E+03  0.28605043574E+03  0.10566000000E+00 0. -1.
        994    1    1    2    0    0  0.17619689866E+03  0.81729118849E+02  0.16909195245E+03  0.30923538664E+03  0.17120000000E+03 0.  0.
        998    1    1    2    0    0 -0.17115981574E+03 -0.14563779598E+03  0.10521336738E+04  0.10759141776E+04  0.10000000000E+02 0. -1.
</event>
<event>
 5    1  0.5525569E-010  0.3856518E+03  0.7957747E-01  0.3426912E+00
         13   -1    0    0    0    0  0.00000000000E+00  0.00000000000E+00  0.14999999963E+04  0.15000000000E+04  0.10566000000E+00 0. -1.
        994   -1    0    0    0    0 -0.00000000000E+00 -0.00000000000E+00  0.11368683772E-12  0.17120000000E+03  0.17120000000E+03 0.  0.
         13    1    1    2    0    0  0.93599492349E+02 -0.71663541917E+02  0.58635632163E+03  0.59808885234E+03  0.10566000000E+00 0. -1.
        994    1    1    2    0    0 -0.17239308010E+03  0.20707698607E+03  0.29433594312E+03  0.43421577544E+03  0.17120000000E+03 0.  0.
        998    1    1    2    0    0  0.78793587748E+02 -0.13541344415E+03  0.61930773152E+03  0.63889537222E+03  0.10000000000E+02 0. -1.
</event>
<event>
 5    1  0.5525569E-010  0.3875006E+03  0.7957747E-01  0.3419136E+00
         13   -1    0    0    0    0  0.00000000000E+00  0.00000000000E+00  0.14999999963E+04  0.15000000000E+04  0.10566000000E+00 0.  1.
        994   -1    0    0    0    0 -0.00000000000E+00 -0.00000000000E+00  0.11368683772E-12  0.17120000000E+03  0.17120000000E+03 0.  0.
         13    1    1    2    0    0 -0.92237981267E+01 -0.12437059744E+03  0.58357371802E+03  0.59675071804E+03  0.10566000000E+00 0.  1.
        994    1    1    2    0    0  0.81374750521E+00  0.24288536642E+03  0.22477287002E+03  0.37259394319E+03  0.17120000000E+03 0.  0.
        998    1    1    2    0    0  0.84100506215E+01 -0.11851476898E+03  0.69165340824E+03  0.70185533876E+03  0.10000000000E+02 0.  1.
</event>
<event>
 5    1  0.5525569E-010  0.3853803E+03  0.7957747E-01  0.3428061E+00
         13   -1    0    0    0    0  0.00000000000E+00  0.00000000000E+00  0.14999999963E+04  0.15000000000E+04  0.10566000000E+00 0.  1.
        994   -1    0    0    0    0 -0.00000000000E+00 -0.00000000000E+00  0.11368683772E-12  0.17120000000E+03  0.17120000000E+03 0.  0.
         13    1    1    2    0    0  0.19073185501E+03  0.97401415855E+02  0.10702040261E+04  0.10914221663E+04  0.10566000000E+00 0.  1.
        994    1    1    2    0    0 -0.23379740043E+03 -0.12563094998E+03  0.28368495773E+03  0.42453616487E+03  0.17120000000E+03 0.  0.
        998    1    1    2    0    0  0.43065545419E+02  0.28229534123E+02  0.14611101244E+03  0.15524166888E+03  0.10000000000E+02 0. -1.
</event>
<event>
 5    1  0.5525569E-010  0.3862246E+03  0.7957747E-01  0.3424495E+00
         13   -1    0    0    0    0  0.00000000000E+00  0.00000000000E+00  0.14999999963E+04  0.15000000000E+04  0.10566000000E+00 0.  1.
        994   -1    0    0    0    0 -0.00000000000E+00 -0.00000000000E+00  0.11368683772E-12  0.17120000000E+03  0.17120000000E+03 0.  0.
         13    1    1    2    0    0 -0.41233598838E+02  0.99351932662E+02  0.40448191246E+03  0.41854109101E+03  0.10566000000E+00 0.  1.
        994    1    1    2    0    0  0.44225283160E+02 -0.28286476254E+03  0.34475659277E+03  0.47972377241E+03  0.17120000000E+03 0.  0.
        998    1    1    2    0    0 -0.29916843221E+01  0.18351282988E+03  0.75076149105E+03  0.77293513657E+03  0.10000000000E+02 0. -1.
</event>
<event>
 5    1  0.5525569E-010  0.3874736E+03  0.7957747E-01  0.3419249E+00
         13   -1    0    0    0    0  0.00000000000E+00  0.00000000000E+00  0.14999999963E+04  0.15000000000E+04  0.10566000000E+00 0. -1.
        994   -1    0    0    0    0 -0.00000000000E+00 -0.00000000000E+00  0.11368683772E-12  0.17120000000E+03  0.17120000000E+03 0.  0.
         13    1    1    2    0    0 -0.54829329017E+02 -0.21869219215E+03  0.11495989515E+04  0.11714991638E+04  0.10566000000E+00 0. -1.
        994    1    1    2    0    0  0.63561308033E+02  0.23968149642E+03  0.23630136846E+03  0.38292954487E+03  0.17120000000E+03 0.  0.
        998    1    1    2    0    0 -0.87319790161E+01 -0.20989304265E+02  0.11409967630E+03  0.11677129135E+03  0.10000000000E+02 0. -1.
</event>
<event>
 5    1  0.5525569E-010  0.3803749E+03  0.7957747E-01  0.3449528E+00
         13   -1    0    0    0    0  0.00000000000E+00  0.00000000000E+00  0.14999999963E+04  0.15000000000E+04  0.10566000000E+00 0. -1.
        994   -1    0    0    0    0 -0.00000000000E+00 -0.00000000000E+00  0.11368683772E-12  0.17120000000E+03  0.17120000000E+03 0.  0.
         13    1    1    2    0    0  0.12942161953E+03 -0.34402468689E+02  0.65046512995E+03  0.66410720663E+03  0.10566000000E+00 0. -1.
        994    1    1    2    0    0 -0.21838935397E+03 -0.30019589348E+02  0.18822948144E+03  0.33665243703E+03  0.17120000000E+03 0.  0.
        998    1    1    2    0    0  0.88967734436E+02  0.64422058037E+02  0.66130538488E+03  0.67044035634E+03  0.10000000000E+02 0. -1.
</event>
<event>
 5    1  0.5525569E-010  0.3866679E+03  0.7957747E-01  0.3422629E+00
         13   -1    0    0    0    0  0.00000000000E+00  0.00000000000E+00  0.14999999963E+04  0.15000000000E+04  0.10566000000E+00 0.  1.
        994   -1    0    0    0    0 -0.00000000000E+00 -0.00000000000E+00  0.11368683772E-12  0.17120000000E+03  0.17120000000E+03 0.  0.
         13    1    1    2    0    0  0.22642482574E+03  0.14864453805E+03  0.10938000945E+04  0.11268371925E+04  0.10566000000E+00 0.  1.
        994    1    1    2    0    0 -0.24255393032E+03 -0.15253203430E+03  0.34442229803E+03  0.47961921353E+03  0.17120000000E+03 0.  0.
        998    1    1    2    0    0  0.16129104580E+02  0.38874962508E+01  0.61777603717E+02  0.64743593990E+02  0.10000000000E+02 0.  0.
</event>
<event>
 5    1  0.5525569E-010  0.3551294E+03  0.7957747E-01  0.3567156E+00
         13   -1    0    0    0    0  0.00000000000E+00  0.00000000000E+00  0.14999999963E+04  0.15000000000E+04  0.10566000000E+00 0. -1.
        994   -1    0    0    0    0 -0.00000000000E+00 -0.00000000000E+00  0.11368683772E-12  0.17120000000E+03  0.17120000000E+03 0.  0.
         13    1    1    2    0    0  0.19344687332E+03 -0.95826560991E+02  0.11088238492E+04  0.11296436439E+04  0.10566000000E+00 0. -1.
        994    1    1    2    0    0 -0.15120313378E+03  0.13168719838E+03  0.17090058613E+03  0.31419795706E+03  0.17120000000E+03 0.  0.
        998    1    1    2    0    0 -0.42243739538E+02 -0.35860637386E+02  0.22027556097E+03  0.22735839902E+03  0.10000000000E+02 0. -1.
</event>
<event>
 5    1  0.5525569E-010  0.3859861E+03  0.7957747E-01  0.3425501E+00
         13   -1    0    0    0    0  0.00000000000E+00  0.00000000000E+00  0.14999999963E+04  0.15000000000E+04  0.10566000000E+00 0.  1.
        994   -1    0    0    0    0 -0.00000000000E+00 -0.00000000000E+00  0.11368683772E-12  0.17120000000E+03  0.17120000000E+03 0.  0.
         13    1    1    2    0    0 -0.15381083540E+03  0.19913523091E+03  0.10766337834E+04  0.11056459325E+04  0.10566000000E+00 0.  1.
        994    1    1    2    0    0  0.18150795235E+03 -0.21059847185E+03  0.31885965526E+03  0.45637459709E+03  0.17120000000E+03 0.  0.
        998    1    1    2    0    0 -0.27697116951E+02  0.11463240942E+02  0.10450655759E+03  0.10917947042E+03  0.10000000000E+02 0. -1.
</event>
<event>
 5    1  0.5525569E-010  0.3876466E+03  0.7957747E-01  0.3418525E+00
         13   -1    0    0    0    0  0.00000000000E+00  0.00000000000E+00  0.14999999963E+04  0.15000000000E+04  0.10566000000E+00 0.  1.
        994   -1    0    0    0    0 -0.00000000000E+00 -0.00000000000E+00  0.11368683772E-12  0.17120000000E+03  0.17120000000E+03 0.  0.
         13    1    1    2    0    0 -0.22282038995E+03  0.11680977902E+03  0.94402685434E+03  0.97697500660E+03  0.10566000000E+00 0.  1.
        994    1    1    2    0    0  0.26040134812E+03 -0.13539315555E+03  0.36592306727E+03  0.49934887587E+03  0.17120000000E+03 0.  0.
        998    1    1    2    0    0 -0.37580958168E+02  0.18583376531E+02  0.19005007467E+03  0.19487611752E+03  0.10000000000E+02 0.  1.
</event>
<event>
 5    1  0.5525569E-010  0.3880931E+03  0.7957747E-01  0.3416659E+00
         13   -1    0    0    0    0  0.00000000000E+00  0.00000000000E+00  0.14999999963E+04  0.15000000000E+04  0.10566000000E+00 0.  1.
        994   -1    0    0    0    0 -0.00000000000E+00 -0.00000000000E+00  0.11368683772E-12  0.17120000000E+03  0.17120000000E+03 0.  0.
         13    1    1    2    0    0  0.20461342870E+03  0.87058868125E+01  0.51403169622E+03  0.55332724815E+03  0.10566000000E+00 0.  1.
        994    1    1    2    0    0 -0.34094058117E+03 -0.10406340355E+02  0.63036018179E+03  0.73689359516E+03  0.17120000000E+03 0.  0.
        998    1    1    2    0    0  0.13632715248E+03  0.17004535424E+01  0.35560811827E+03  0.38097915668E+03  0.10000000000E+02 0.  0.
</event>
<event>
 5    1  0.5525569E-010  0.3874638E+03  0.7957747E-01  0.3419290E+00
         13   -1    0    0    0    0  0.00000000000E+00  0.00000000000E+00  0.14999999963E+04  0.15000000000E+04  0.10566000000E+00 0.  1.
        994   -1    0    0    0    0 -0.00000000000E+00 -0.00000000000E+00  0.11368683772E-12  0.17120000000E+03  0.17120000000E+03 0.  0.
         13    1    1    2    0    0  0.26035739089E+02  0.27137041432E+02  0.16894244113E+03  0.17307754998E+03  0.10566000000E+00 0.  1.
        994    1    1    2    0    0 -0.23852769886E+03 -0.19867899329E+03  0.43413193501E+03  0.56048977020E+03  0.17120000000E+03 0.  0.
        998    1    1    2    0    0  0.21249195977E+03  0.17154195186E+03  0.89692562014E+03  0.93763267983E+03  0.10000000000E+02 0.  1.
</event>
<event>
 5    1  0.5525569E-010  0.3831745E+03  0.7957747E-01  0.3437451E+00
         13   -1    0    0    0    0  0.00000000000E+00  0.00000000000E+00  0.14999999963E+04  0.15000000000E+04  0.10566000000E+00 0. -1.
        994   -1    0    0    0    0 -0.00000000000E+00 -0.00000000000E+00  0.11368683772E-12  0.17120000000E+03  0.17120000000E+03 0.  0.
         13    1    1    2    0    0 -0.51887905841E+02 -0.10055950065E+03  0.35236236625E+03  0.37008622814E+03  0.10566000000E+00 0. -1.
        994    1    1    2    0    0  0.57643231957E+02  0.26990957874E+03  0.31889859264E+03  0.45516994109E+03  0.17120000000E+03 0.  0.
        998    1    1    2    0    0 -0.57553261159E+01 -0.16935007808E+03  0.82873903739E+03  0.84594383077E+03  0.10000000000E+02 0. -1.
</event>
<event>
 5    1  0.5525569E-010  0.3865016E+03  0.7957747E-01  0.3423328E+00
         13   -1    0    0    0    0  0.00000000000E+00  0.00000000000E+00  0.14999999963E+04  0.15000000000E+04  0.10566000000E+00 0. -1.
        994   -1    0    0    0    0 -0.00000000000E+00 -0.00000000000E+00  0.11368683772E-12  0.17120000000E+03  0.17120000000E+03 0.  0.
         13    1    1    2    0    0 -0.17673787501E+02 -0.71624133520E+02  0.27699627004E+03  0.28665192141E+03  0.10566000000E+00 0. -1.
        994    1    1    2    0    0  0.12718117474E+03  0.23504199982E+03  0.28653236219E+03  0.42758628073E+03  0.17120000000E+03 0.  0.
        998    1    1    2    0    0 -0.10950738723E+03 -0.16341786630E+03  0.93647136405E+03  0.95696179786E+03  0.10000000000E+02 0. -1.
</event>
<event>
 5    1  0.5525569E-010  0.3869799E+03  0.7957747E-01  0.3421318E+00
         13   -1    0    0    0    0  0.00000000000E+00  0.00000000000E+00  0.14999999963E+04  0.15000000000E+04  0.10566000000E+00 0.  1.
        994   -1    0    0    0    0 -0.00000000000E+00 -0.00000000000E+00  0.11368683772E-12  0.17120000000E+03  0.17120000000E+03 0.  0.
         13    1    1    2    0    0  0.14370205054E+02  0.99285989289E+00  0.75332628283E+02  0.76697487652E+02  0.10566000000E+00 0.  1.
        994    1    1    2    0    0 -0.11054539314E+03  0.62328346465E+02  0.55164678520E+02  0.22013107112E+03  0.17120000000E+03 0.  0.
        998    1    1    2    0    0  0.96175188084E+02 -0.63321206357E+02  0.13695026895E+04  0.13743714412E+04  0.10000000000E+02 0.  1.
</event>
<event>
 5    1  0.5525569E-010  0.3840042E+03  0.7957747E-01  0.3433906E+00
         13   -1    0    0    0    0  0.00000000000E+00  0.00000000000E+00  0.14999999963E+04  0.15000000000E+04  0.10566000000E+00 0.  1.
        994   -1    0    0    0    0 -0.00000000000E+00 -0.00000000000E+00  0.11368683772E-12  0.17120000000E+03  0.17120000000E+03 0.  0.
         13    1    1    2    0    0  0.24455365831E+03  0.10981123990E+03  0.11558104822E+04  0.11864918382E+04  0.10566000000E+00 0.  1.
        994    1    1    2    0    0 -0.25164649858E+03 -0.11715232014E+03  0.32192915030E+03  0.45825587195E+03  0.17120000000E+03 0.  0.
        998    1    1    2    0    0  0.70928402730E+01  0.73410802445E+01  0.22260363777E+02  0.26452289840E+02  0.10000000000E+02 0.  0.
</event>
<event>
 5    1  0.5525569E-010  0.3879076E+03  0.7957747E-01  0.3417434E+00
         13   -1    0    0    0    0  0.00000000000E+00  0.00000000000E+00  0.14999999963E+04  0.15000000000E+04  0.10566000000E+00 0. -1.
        994   -1    0    0    0    0 -0.00000000000E+00 -0.00000000000E+00  0.11368683772E-12  0.17120000000E+03  0.17120000000E+03 0.  0.
         13    1    1    2    0    0  0.12566654812E+03  0.18408792083E+03  0.79569198979E+03  0.82632088058E+03  0.10566000000E+00 0. -1.
        994    1    1    2    0    0 -0.16458498925E+03 -0.25394148174E+03  0.39954434552E+03  0.52964102831E+03  0.17120000000E+03 0.  0.
        998    1    1    2    0    0  0.38918441138E+02  0.69853560911E+02  0.30476366097E+03  0.31523809110E+03  0.10000000000E+02 0.  0.
</event>
<event>
 5    1  0.5525569E-010  0.3868322E+03  0.7957747E-01  0.3421939E+00
         13   -1    0    0    0    0  0.00000000000E+00  0.00000000000E+00  0.14999999963E+04  0.15000000000E+04  0.10566000000E+00 0.  1.
        994   -1    0    0    0    0 -0.00000000000E+00 -0.00000000000E+00  0.11368683772E-12  0.17120000000E+03  0.17120000000E+03 0.  0.
         13    1    1    2    0    0 -0.17840116036E+03 -0.17217504007E+02  0.86851580950E+03  0.88681629381E+03  0.10566000000E+00 0.  1.
        994    1    1    2    0    0  0.25845475186E+03 -0.30415693703E+01  0.26277729430E+03  0.40641045299E+03  0.17120000000E+03 0.  0.
        998    1    1    2    0    0 -0.80053591502E+02  0.20259073378E+02  0.36870689249E+03  0.37797325320E+03  0.10000000000E+02 0. -1.
</event>
<event>
 5    1  0.5525569E-010  0.3813387E+03  0.7957747E-01  0.3445350E+00
         13   -1    0    0    0    0  0.00000000000E+00  0.00000000000E+00  0.14999999963E+04  0.15000000000E+04  0.10566000000E+00 0. -1.
        994   -1    0    0    0    0 -0.00000000000E+00 -0.00000000000E+00  0.11368683772E-12  0.17120000000E+03  0.17120000000E+03 0.  0.
         13    1    1    2    0    0 -0.48602640222E+02 -0.25044863203E+02  0.22215450128E+03  0.22878394920E+03  0.10566000000E+00 0. -1.
        994    1    1    2    0    0  0.75882266977E+02  0.13194283803E+03  0.84847215025E+02  0.24428573607E+03  0.17120000000E+03 0.  0.
        998    1    1    2    0    0 -0.27279626755E+02 -0.10689797482E+03  0.11929982800E+04  0.11981303147E+04  0.10000000000E+02 0. -1.
</event>
<event>
 5    1  0.5525569E-010  0.3813707E+03  0.7957747E-01  0.3445212E+00
         13   -1    0    0    0    0  0.00000000000E+00  0.00000000000E+00  0.14999999963E+04  0.15000000000E+04  0.10566000000E+00 0. -1.
        994   -1    0    0    0    0 -0.00000000000E+00 -0.00000000000E+00  0.11368683772E-12  0.17120000000E+03  0.17120000000E+03 0.  0.
         13    1    1    2    0    0 -0.23770864026E+02  0.16099634837E+02  0.16238860249E+03  0.16490700895E+03  0.10566000000E+00 0. -1.
        994    1    1    2    0    0 -0.64281031947E+02 -0.83862092213E+02  0.41535871606E+02  0.20542533974E+03  0.17120000000E+03 0.  0.
        998    1    1    2    0    0  0.88051895973E+02  0.67762457375E+02  0.12960755222E+04  0.13008676513E+04  0.10000000000E+02 0. -1.
</event>
<event>
 5    1  0.5525569E-010  0.3862106E+03  0.7957747E-01  0.3424554E+00
         13   -1    0    0    0    0  0.00000000000E+00  0.00000000000E+00  0.14999999963E+04  0.15000000000E+04  0.10566000000E+00 0.  1.
        994   -1    0    0    0    0 -0.00000000000E+00 -0.00000000000E+00  0.11368683772E-12  0.17120000000E+03  0.17120000000E+03 0.  0.
         13    1    1    2    0    0  0.23097020458E+03  0.31425305331E+02  0.10983015938E+04  0.11227649742E+04  0.10566000000E+00 0.  1.
        994    1    1    2    0    0 -0.25477433956E+03 -0.19800427932E+02  0.25650849534E+03  0.40050976171E+03  0.17120000000E+03 0.  0.
        998    1    1    2    0    0  0.23804134974E+02 -0.11624877399E+02  0.14518990719E+03  0.14792526412E+03  0.10000000000E+02 0.  0.
</event>
<event>
 5    1  0.5525569E-010  0.3867872E+03  0.7957747E-01  0.3422128E+00
         13   -1    0    0    0    0  0.00000000000E+00  0.00000000000E+00  0.14999999963E+04  0.15000000000E+04  0.10566000000E+00 0. -1.
        994   -1    0    0    0    0 -0.00000000000E+00 -0.00000000000E+00  0.11368683772E-12  0.17120000000E+03  0.17120000000E+03 0.  0.
         13    1    1    2    0    0  0.12649989016E+03  0.17168986251E+03  0.86941019829E+03  0.89518363209E+03  0.10566000000E+00 0. -1.
        994    1    1    2    0    0 -0.15363884277E+03 -0.24627017024E+03  0.35681855258E+03  0.49079813592E+03  0.17120000000E+03 0.  0.
        998    1    1    2    0    0  0.27138952606E+02  0.74580307727E+02  0.27377124540E+03  0.28521823199E+03  0.10000000000E+02 0.  0.
</event>
<event>
 5    1  0.5525569E-010  0.3852759E+03  0.7957747E-01  0.3428503E+00
         13   -1    0    0    0    0  0.00000000000E+00  0.00000000000E+00  0.14999999963E+04  0.15000000000E+04  0.10566000000E+00 0. -1.
        994   -1    0    0    0    0 -0.00000000000E+00 -0.00000000000E+00  0.11368683772E-12  0.17120000000E+03  0.17120000000E+03 0.  0.
         13    1    1    2    0    0  0.64056703817E+01 -0.16613713872E+02  0.96109802587E+02  0.97745349858E+02  0.10566000000E+00 0. -1.
        994    1    1    2    0    0  0.82774240042E+02  0.79488347849E+02  0.46032816391E+02  0.21118340949E+03  0.17120000000E+03 0.  0.
        998    1    1    2    0    0 -0.89179910423E+02 -0.62874633977E+02  0.13578573773E+04  0.13622712407E+04  0.10000000000E+02 0. -1.
</event>
<event>
 5    1  0.5525569E-010  0.3861739E+03  0.7957747E-01  0.3424709E+00
         13   -1    0    0    0    0  0.00000000000E+00  0.00000000000E+00  0.14999999963E+04  0.15000000000E+04  0.10566000000E+00 0.  1.
        994   -1    0    0    0    0 -0.00000000000E+00 -0.00000000000E+00  0.11368683772E-12  0.17120000000E+03  0.17120000000E+03 0.  0.
         13    1    1    2    0    0  0.88758762033E+01  0.21198590074E+03  0.10670680350E+04  0.10879572628E+04  0.10566000000E+00 0.  1.
        994    1    1    2    0    0 -0.21489816840E+02 -0.23535697476E+03  0.21251880226E+03  0.36101024793E+03  0.17120000000E+03 0.  0.
        998    1    1    2    0    0  0.12613940637E+02  0.23371074021E+02  0.22041315904E+03  0.22223248924E+03  0.10000000000E+02 0.  1.
</event>
<event>
 5    1  0.5525569E-010  0.3862964E+03  0.7957747E-01  0.3424193E+00
         13   -1    0    0    0    0  0.00000000000E+00  0.00000000000E+00  0.14999999963E+04  0.15000000000E+04  0.10566000000E+00 0.  1.
        994   -1    0    0    0    0 -0.00000000000E+00 -0.00000000000E+00  0.11368683772E-12  0.17120000000E+03  0.17120000000E+03 0.  0.
         13    1    1    2    0    0  0.10087646737E+02 -0.10373179460E+00  0.40784937475E+02  0.42014207905E+02  0.10566000000E+00 0.  1.
        994    1    1    2    0    0 -0.51088610488E+02 -0.50998559455E+02  0.18242542710E+02  0.18668992890E+03  0.17120000000E+03 0.  0.
        998    1    1    2    0    0  0.41000963752E+02  0.51102291250E+02  0.14409725161E+04  0.14424958632E+04  0.10000000000E+02 0.  1.
</event>
<event>
 5    1  0.5525569E-010  0.3858339E+03  0.7957747E-01  0.3426143E+00
         13   -1    0    0    0    0  0.00000000000E+00  0.00000000000E+00  0.14999999963E+04  0.15000000000E+04  0.10566000000E+00 0. -1.
        994   -1    0    0    0    0 -0.00000000000E+00 -0.00000000000E+00  0.11368683772E-12  0.17120000000E+03  0.17120000000E+03 0.  0.
         13    1    1    2    0    0 -0.58632095491E+01  0.13221413204E+02  0.46311787314E+02  0.48517788507E+02  0.10566000000E+00 0. -1.
        994    1    1    2    0    0  0.63722736772E+02 -0.10293332958E+03  0.50855615794E+02  0.21575817755E+03  0.17120000000E+03 0.  0.
        998    1    1    2    0    0 -0.57859527223E+02  0.89711916381E+02  0.14028325932E+04  0.14069240339E+04  0.10000000000E+02 0. -1.
</event>
<event>
 5    1  0.6325648E-010  0.3865998E+03  0.7957747E-01  0.3422916E+00
         13   -1    0    0    0    0  0.00000000000E+00  0.00000000000E+00  0.14999999963E+04  0.15000000000E+04  0.10566000000E+00 0. -1.
        994   -1    0    0    0    0 -0.00000000000E+00 -0.00000000000E+00  0.11368683772E-12  0.17120000000E+03  0.17120000000E+03 0.  0.
         13    1    1    2    0    0 -0.25469009591E+03  0.53754625938E+02  0.11203988125E+04  0.11502391556E+04  0.10566000000E+00 0. -1.
        994    1    1    2    0    0  0.26481228168E+03 -0.59950839024E+02  0.29830010258E+03  0.43819178316E+03  0.17120000000E+03 0.  0.
        998    1    1    2    0    0 -0.10122185772E+02  0.61962130859E+01  0.81301081173E+02  0.82769061257E+02  0.10000000000E+02 0. -1.
</event>
<event>
 5    1  0.5525569E-010  0.3777094E+03  0.7957747E-01  0.3461193E+00
         13   -1    0    0    0    0  0.00000000000E+00  0.00000000000E+00  0.14999999963E+04  0.15000000000E+04  0.10566000000E+00 0.  1.
        994   -1    0    0    0    0 -0.00000000000E+00 -0.00000000000E+00  0.11368683772E-12  0.17120000000E+03  0.17120000000E+03 0.  0.
         13    1    1    2    0    0  0.17822123913E+03  0.10162885800E+03  0.10742855821E+04  0.10937004882E+04  0.10566000000E+00 0.  1.
        994    1    1    2    0    0 -0.19992729728E+03 -0.69438822381E+02  0.17503559696E+03  0.32363494010E+03  0.17120000000E+03 0.  0.
        998    1    1    2    0    0  0.21706058147E+02 -0.32190035620E+02  0.25067881723E+03  0.25386457169E+03  0.10000000000E+02 0.  1.
</event>
<event>
 5    1  0.5525569E-010  0.3866317E+03  0.7957747E-01  0.3422781E+00
         13   -1    0    0    0    0  0.00000000000E+00  0.00000000000E+00  0.14999999963E+04  0.15000000000E+04  0.10566000000E+00 0. -1.
        994   -1    0    0    0    0 -0.00000000000E+00 -0.00000000000E+00  0.11368683772E-12  0.17120000000E+03  0.17120000000E+03 0.  0.
         13    1    1    2    0    0  0.46849378333E+02  0.82753652529E+02  0.49498063212E+03  0.50403260668E+03  0.10566000000E+00 0. -1.
        994    1    1    2    0    0 -0.15232110294E+03 -0.16444506970E+03  0.18730179369E+03  0.33857835322E+03  0.17120000000E+03 0.  0.
        998    1    1    2    0    0  0.10547172461E+03  0.81691417169E+02  0.81771757047E+03  0.82858904010E+03  0.10000000000E+02 0. -1.
</event>
<event>
 5    1  0.5525569E-010  0.3705730E+03  0.7957747E-01  0.3493261E+00
         13   -1    0    0    0    0  0.00000000000E+00  0.00000000000E+00  0.14999999963E+04  0.15000000000E+04  0.10566000000E+00 0.  1.
        994   -1    0    0    0    0 -0.00000000000E+00 -0.00000000000E+00  0.11368683772E-12  0.17120000000E+03  0.17120000000E+03 0.  0.
         13    1    1    2    0    0  0.59524864116E+01 -0.95520836724E+02  0.56692661872E+03  0.57494822769E+03  0.10566000000E+00 0.  1.
        994    1    1    2    0    0 -0.11771094907E+03  0.70478437447E+02  0.77027324461E+02  0.23252037844E+03  0.17120000000E+03 0.  0.
        998    1    1    2    0    0  0.11175846266E+03  0.25042399277E+02  0.85604605310E+03  0.86373139387E+03  0.10000000000E+02 0. -1.
</event>
<event>
 5    1  0.5525569E-010  0.3873393E+03  0.7957747E-01  0.3419811E+00
         13   -1    0    0    0    0  0.00000000000E+00  0.00000000000E+00  0.14999999963E+04  0.15000000000E+04  0.10566000000E+00 0. -1.
        994   -1    0    0    0    0 -0.00000000000E+00 -0.00000000000E+00  0.11368683772E-12  0.17120000000E+03  0.17120000000E+03 0.  0.
         13    1    1    2    0    0 -0.28175476901E+03 -0.89115657640E+02  0.72518319481E+03  0.78308238871E+03  0.10566000000E+00 0. -1.
        994    1    1    2    0    0  0.32999587277E+03  0.94162746872E+02  0.66516685934E+03  0.76780224648E+03  0.17120000000E+03 0.  0.
        998    1    1    2    0    0 -0.48241103754E+02 -0.50470892314E+01  0.10964994213E+03  0.12031536481E+03  0.10000000000E+02 0.  1.
</event>
<event>
 5    1  0.5525569E-010  0.3794644E+03  0.7957747E-01  0.3453494E+00
         13   -1    0    0    0    0  0.00000000000E+00  0.00000000000E+00  0.14999999963E+04  0.15000000000E+04  0.10566000000E+00 0.  1.
        994   -1    0    0    0    0 -0.00000000000E+00 -0.00000000000E+00  0.11368683772E-12  0.17120000000E+03  0.17120000000E+03 0.  0.
         13    1    1    2    0    0  0.56189573435E+02  0.14251314620E+03  0.86970519670E+03  0.88309365604E+03  0.10566000000E+00 0.  1.
        994    1    1    2    0    0 -0.12501639771E+03 -0.24324954287E+03  0.31953378046E+03  0.45410430152E+03  0.17120000000E+03 0.  0.
        998    1    1    2    0    0  0.68826824272E+02  0.10073639667E+03  0.31076101912E+03  0.33400204245E+03  0.10000000000E+02 0. -1.
</event>
<event>
 5    1  0.5525569E-010  0.3853544E+03  0.7957747E-01  0.3428171E+00
         13   -1    0    0    0    0  0.00000000000E+00  0.00000000000E+00  0.14999999963E+04  0.15000000000E+04  0.10566000000E+00 0.  1.
        994   -1    0    0    0    0 -0.00000000000E+00 -0.00000000000E+00  0.11368683772E-12  0.17120000000E+03  0.17120000000E+03 0.  0.
         13    1    1    2    0    0 -0.11113771203E+02  0.16977355955E+03  0.94039947602E+03  0.95566613579E+03  0.10566000000E+00 0.  1.
        994    1    1    2    0    0  0.31901864893E+02 -0.20400712641E+03  0.15694884756E+03  0.31077164825E+03  0.17120000000E+03 0.  0.
        998    1    1    2    0    0 -0.20788093689E+02  0.34233566857E+02  0.40265167270E+03  0.40476221596E+03  0.10000000000E+02 0. -1.
</event>
<event>
 5    1  0.5525569E-010  0.3879041E+03  0.7957747E-01  0.3417448E+00
         13   -1    0    0    0    0  0.00000000000E+00  0.00000000000E+00  0.14999999963E+04  0.15000000000E+04  0.10566000000E+00 0. -1.
        994   -1    0    0    0    0 -0.00000000000E+00 -0.00000000000E+00  0.11368683772E-12  0.17120000000E+03  0.17120000000E+03 0.  0.
         13    1    1    2    0    0  0.11707023445E+02 -0.32774524945E+01  0.51234112748E+02  0.52656828293E+02  0.10566000000E+00 0. -1.
        994    1    1    2    0    0 -0.19570325663E+03  0.12448010330E+03  0.20099757329E+03  0.35143210616E+03  0.17120000000E+03 0.  0.
        998    1    1    2    0    0  0.18399623318E+03 -0.12120265081E+03  0.12477683102E+04  0.12671110655E+04  0.10000000000E+02 0. -1.
</event>
<event>
 5    1  0.5525569E-010  0.3869632E+03  0.7957747E-01  0.3421388E+00
         13   -1    0    0    0    0  0.00000000000E+00  0.00000000000E+00  0.14999999963E+04  0.15000000000E+04  0.10566000000E+00 0.  1.
        994   -1    0    0    0    0 -0.00000000000E+00 -0.00000000000E+00  0.11368683772E-12  0.17120000000E+03  0.17120000000E+03 0.  0.
         13    1    1    2    0    0 -0.15024767350E+03  0.17499680751E+03  0.79359795878E+03  0.82643570674E+03  0.10566000000E+00 0.  1.
        994    1    1    2    0    0  0.20253689407E+03 -0.22016076620E+03  0.38881576004E+03  0.51959512285E+03  0.17120000000E+03 0.  0.
        998    1    1    2    0    0 -0.52289220574E+02  0.45163958690E+02  0.31758627746E+03  0.32516917041E+03  0.10000000000E+02 0.  1.
</event>
<event>
 5    1  0.5525569E-010  0.3875999E+03  0.7957747E-01  0.3418720E+00
         13   -1    0    0    0    0  0.00000000000E+00  0.00000000000E+00  0.14999999963E+04  0.15000000000E+04  0.10566000000E+00 0.  1.
        994   -1    0    0    0    0 -0.00000000000E+00 -0.00000000000E+00  0.11368683772E-12  0.17120000000E+03  0.17120000000E+03 0.  0.
         13    1    1    2    0    0 -0.11248345740E+03  0.13386563698E+03  0.10121104123E+04  0.10271027382E+04  0.10566000000E+00 0.  1.
        994    1    1    2    0    0  0.15699464820E+03 -0.16773447669E+03  0.19699307228E+03  0.34770373130E+03  0.17120000000E+03 0.  0.
        998    1    1    2    0    0 -0.44511190799E+02  0.33868839714E+02  0.29089651166E+03  0.29639353047E+03  0.10000000000E+02 0.  1.
</event>
<event>
 5    1  0.5525569E-010  0.3862479E+03  0.7957747E-01  0.3424397E+00
         13   -1    0    0    0    0  0.00000000000E+00  0.00000000000E+00  0.14999999963E+04  0.15000000000E+04  0.10566000000E+00 0. -1.
        994   -1    0    0    0    0 -0.00000000000E+00 -0.00000000000E+00  0.11368683772E-12  0.17120000000E+03  0.17120000000E+03 0.  0.
         13    1    1    2    0    0  0.11608356651E+02  0.11922456264E+02  0.10049996724E+03  0.10186831444E+03  0.10566000000E+00 0. -1.
        994    1    1    2    0    0  0.90279913302E+01 -0.85434072258E+02  0.25569929116E+02  0.19324530164E+03  0.17120000000E+03 0.  0.
        998    1    1    2    0    0 -0.20636347981E+02  0.73511615994E+02  0.13739300999E+04  0.13760863839E+04  0.10000000000E+02 0. -1.
</event>
<event>
 5    1  0.5525569E-010  0.3815095E+03  0.7957747E-01  0.3444612E+00
         13   -1    0    0    0    0  0.00000000000E+00  0.00000000000E+00  0.14999999963E+04  0.15000000000E+04  0.10566000000E+00 0. -1.
        994   -1    0    0    0    0 -0.00000000000E+00 -0.00000000000E+00  0.11368683772E-12  0.17120000000E+03  0.17120000000E+03 0.  0.
         13    1    1    2    0    0 -0.29172875930E+02  0.57899680578E+02  0.29740408328E+03  0.30438894464E+03  0.10566000000E+00 0. -1.
        994    1    1    2    0    0  0.32959283330E+02 -0.11726589281E+03  0.54411211548E+02  0.21704290800E+03  0.17120000000E+03 0.  0.
        998    1    1    2    0    0 -0.37864073999E+01  0.59366212228E+02  0.11481847014E+04  0.11497681474E+04  0.10000000000E+02 0. -1.
</event>
<event>
 5    1  0.5525569E-010  0.3871886E+03  0.7957747E-01  0.3420443E+00
         13   -1    0    0    0    0  0.00000000000E+00  0.00000000000E+00  0.14999999963E+04  0.15000000000E+04  0.10566000000E+00 0.  1.
        994   -1    0    0    0    0 -0.00000000000E+00 -0.00000000000E+00  0.11368683772E-12  0.17120000000E+03  0.17120000000E+03 0.  0.
         13    1    1    2    0    0 -0.11354776697E+03  0.18730389118E+03  0.11326046052E+04  0.11535896349E+04  0.10566000000E+00 0.  1.
        994    1    1    2    0    0  0.12196182165E+03 -0.21633540171E+03  0.23762957465E+03  0.38399602436E+03  0.17120000000E+03 0.  0.
        998    1    1    2    0    0 -0.84140546804E+01  0.29031510523E+02  0.12976581646E+03  0.13361434070E+03  0.10000000000E+02 0.  0.
</event>
<event>
 5    1  0.5525569E-010  0.3685022E+03  0.7957747E-01  0.3502803E+00
         13   -1    0    0    0    0  0.00000000000E+00  0.00000000000E+00  0.14999999963E+04  0.15000000000E+04  0.10566000000E+00 0. -1.
        994   -1    0    0    0    0 -0.00000000000E+00 -0.00000000000E+00  0.11368683772E-12  0.17120000000E+03  0.17120000000E+03 0.  0.
         13    1    1    2    0    0  0.92258542354E+02 -0.68890762757E+02  0.43809640499E+03  0.45297466492E+03  0.10566000000E+00 0. -1.
        994    1    1    2    0    0 -0.18907878213E+03 -0.15195793477E+02  0.14794636702E+03  0.29526135119E+03  0.17120000000E+03 0.  0.
        998    1    1    2    0    0  0.96820239774E+02  0.84086556234E+02  0.91395722427E+03  0.92296398389E+03  0.10000000000E+02 0. -1.
</event>
<event>
 5    1  0.5525569E-010  0.3878257E+03  0.7957747E-01  0.3417776E+00
         13   -1    0    0    0    0  0.00000000000E+00  0.00000000000E+00  0.14999999963E+04  0.15000000000E+04  0.10566000000E+00 0.  1.
        994   -1    0    0    0    0 -0.00000000000E+00 -0.00000000000E+00  0.11368683772E-12  0.17120000000E+03  0.17120000000E+03 0.  0.
         13    1    1    2    0    0 -0.21266993269E+03 -0.10633584680E+03  0.89384126826E+03  0.92492596276E+03  0.10566000000E+00 0.  1.
        994    1    1    2    0    0  0.27043997832E+03  0.13142254349E+03  0.39218318970E+03  0.52299785955E+03  0.17120000000E+03 0.  0.
        998    1    1    2    0    0 -0.57770045633E+02 -0.25086696691E+02  0.21397553832E+03  0.22327617769E+03  0.10000000000E+02 0.  0.
</event>
<event>
 5    1  0.5525569E-010  0.3854986E+03  0.7957747E-01  0.3427560E+00
         13   -1    0    0    0    0  0.00000000000E+00  0.00000000000E+00  0.14999999963E+04  0.15000000000E+04  0.10566000000E+00 0. -1.
        994   -1    0    0    0    0 -0.00000000000E+00 -0.00000000000E+00  0.11368683772E-12  0.17120000000E+03  0.17120000000E+03 0.  0.
         13    1    1    2    0    0  0.20550059322E+03  0.49965717153E+02  0.11133381595E+04  0.11332470760E+04  0.10566000000E+00 0. -1.
        994    1    1    2    0    0 -0.24553926573E+03 -0.68000501624E+02  0.25584149379E+03  0.39959718365E+03  0.17120000000E+03 0.  0.
        998    1    1    2    0    0  0.40038672508E+02  0.18034784471E+02  0.13082034294E+03  0.13835574030E+03  0.10000000000E+02 0.  0.
</event>
<event>
 5    1  0.5525569E-010  0.3859930E+03  0.7957747E-01  0.3425472E+00
         13   -1    0    0    0    0  0.00000000000E+00  0.00000000000E+00  0.14999999963E+04  0.15000000000E+04  0.10566000000E+00 0.  1.
        994   -1    0    0    0    0 -0.00000000000E+00 -0.00000000000E+00  0.11368683772E-12  0.17120000000E+03  0.17120000000E+03 0.  0.
         13    1    1    2    0    0  0.23603166474E+03  0.12600811091E+03  0.11051821795E+04  0.11371089006E+04  0.10566000000E+00 0.  1.
        994    1    1    2    0    0 -0.24191982874E+03 -0.13922232428E+03  0.32222331821E+03  0.45939674129E+03  0.17120000000E+03 0.  0.
        998    1    1    2    0    0  0.58881639980E+01  0.13214213372E+02  0.72594498557E+02  0.74694358094E+02  0.10000000000E+02 0.  1.
</event>
<event>
 5    1  0.5525569E-010  0.3875460E+03  0.7957747E-01  0.3418946E+00
         13   -1    0    0    0    0  0.00000000000E+00  0.00000000000E+00  0.14999999963E+04  0.15000000000E+04  0.10566000000E+00 0. -1.
        994   -1    0    0    0    0 -0.00000000000E+00 -0.00000000000E+00  0.11368683772E-12  0.17120000000E+03  0.17120000000E+03 0.  0.
         13    1    1    2    0    0  0.12653576608E+03 -0.17749291083E+02  0.74811232186E+03  0.75894558087E+03  0.10566000000E+00 0. -1.
        994    1    1    2    0    0 -0.21471907412E+03  0.74299388411E+01  0.16895225460E+03  0.32251168834E+03  0.17120000000E+03 0.  0.
        998    1    1    2    0    0  0.88183308045E+02  0.10319352242E+02  0.58293541981E+03  0.58974273079E+03  0.10000000000E+02 0.  1.
</event>
<event>
 5    1  0.5525569E-010  0.3876199E+03  0.7957747E-01  0.3418637E+00
         13   -1    0    0    0    0  0.00000000000E+00  0.00000000000E+00  0.14999999963E+04  0.15000000000E+04  0.10566000000E+00 0. -1.
        994   -1    0    0    0    0 -0.00000000000E+00 -0.00000000000E+00  0.11368683772E-12  0.17120000000E+03  0.17120000000E+03 0.  0.
         13    1    1    2    0    0  0.16467295600E+02 -0.18594802135E+02  0.14979931496E+03  0.15184460615E+03  0.10566000000E+00 0. -1.
        994    1    1    2    0    0 -0.66062879148E+02  0.17026627877E+03  0.11786080344E+03  0.27668667961E+03  0.17120000000E+03 0.  0.
        998    1    1    2    0    0  0.49595583548E+02 -0.15167147664E+03  0.12323398779E+04  0.12426687142E+04  0.10000000000E+02 0. -1.
</event>
<event>
 5    1  0.5525569E-010  0.3864377E+03  0.7957747E-01  0.3423598E+00
         13   -1    0    0    0    0  0.00000000000E+00  0.00000000000E+00  0.14999999963E+04  0.15000000000E+04  0.10566000000E+00 0. -1.
        994   -1    0    0    0    0 -0.00000000000E+00 -0.00000000000E+00  0.11368683772E-12  0.17120000000E+03  0.17120000000E+03 0.  0.
         13    1    1    2    0    0  0.21779307057E+03 -0.79723318363E+02  0.10212491049E+04  0.10472532523E+04  0.10566000000E+00 0. -1.
        994    1    1    2    0    0 -0.24145475987E+03  0.96637787604E+02  0.26757380335E+03  0.41054164624E+03  0.17120000000E+03 0.  0.
        998    1    1    2    0    0  0.23661689304E+02 -0.16914469242E+02  0.21117708803E+03  0.21340510144E+03  0.10000000000E+02 0. -1.
</event>
<event>
 5    1  0.5525569E-010  0.3850677E+03  0.7957747E-01  0.3429385E+00
         13   -1    0    0    0    0  0.00000000000E+00  0.00000000000E+00  0.14999999963E+04  0.15000000000E+04  0.10566000000E+00 0. -1.
        994   -1    0    0    0    0 -0.00000000000E+00 -0.00000000000E+00  0.11368683772E-12  0.17120000000E+03  0.17120000000E+03 0.  0.
         13    1    1    2    0    0 -0.97596252076E+01 -0.32156200894E+01  0.26996494339E+02  0.28886196831E+02  0.10566000000E+00 0. -1.
        994    1    1    2    0    0  0.37901269068E+02  0.60034809314E+02  0.18349261653E+02  0.18624397958E+03  0.17120000000E+03 0.  0.
        998    1    1    2    0    0 -0.28141643861E+02 -0.56819189224E+02  0.14546542403E+04  0.14560698236E+04  0.10000000000E+02 0. -1.
</event>
<event>
 5    1  0.5525569E-010  0.3810790E+03  0.7957747E-01  0.3446474E+00
         13   -1    0    0    0    0  0.00000000000E+00  0.00000000000E+00  0.14999999963E+04  0.15000000000E+04  0.10566000000E+00 0. -1.
        994   -1    0    0    0    0 -0.00000000000E+00 -0.00000000000E+00  0.11368683772E-12  0.17120000000E+03  0.17120000000E+03 0.  0.
         13    1    1    2    0    0 -0.14111155872E+03 -0.55525287336E+02  0.59275630215E+03  0.61184603819E+03  0.10566000000E+00 0. -1.
        994    1    1    2    0    0  0.23081260313E+03  0.37762567231E+02  0.21463518439E+03  0.36066351580E+03  0.17120000000E+03 0.  0.
        998    1    1    2    0    0 -0.89701044415E+02  0.17762720105E+02  0.69260850974E+03  0.69869044602E+03  0.10000000000E+02 0.  1.
</event>
<event>
 5    1  0.5525569E-010  0.3876824E+03  0.7957747E-01  0.3418375E+00
         13   -1    0    0    0    0  0.00000000000E+00  0.00000000000E+00  0.14999999963E+04  0.15000000000E+04  0.10566000000E+00 0.  1.
        994   -1    0    0    0    0 -0.00000000000E+00 -0.00000000000E+00  0.11368683772E-12  0.17120000000E+03  0.17120000000E+03 0.  0.
         13    1    1    2    0    0 -0.12413831368E+03 -0.14853753683E+03  0.10315003883E+04  0.10495078766E+04  0.10566000000E+00 0.  1.
        994    1    1    2    0    0  0.14821534342E+03  0.17968396149E+03  0.20330974749E+03  0.35340968785E+03  0.17120000000E+03 0.  0.
        998    1    1    2    0    0 -0.24077029739E+02 -0.31146424663E+02  0.26518986050E+03  0.26828243558E+03  0.10000000000E+02 0.  0.
</event>
<event>
 5    1  0.5525569E-010  0.3799078E+03  0.7957747E-01  0.3451560E+00
         13   -1    0    0    0    0  0.00000000000E+00  0.00000000000E+00  0.14999999963E+04  0.15000000000E+04  0.10566000000E+00 0. -1.
        994   -1    0    0    0    0 -0.00000000000E+00 -0.00000000000E+00  0.11368683772E-12  0.17120000000E+03  0.17120000000E+03 0.  0.
         13    1    1    2    0    0  0.24611370308E+02 -0.47905092062E+01  0.86344641348E+02  0.89911494150E+02  0.10566000000E+00 0. -1.
        994    1    1    2    0    0  0.15867597520E+02 -0.66024772623E+01  0.51680284819E+01  0.17213808955E+03  0.17120000000E+03 0.  0.
        998    1    1    2    0    0 -0.40478967827E+02  0.11392986469E+02  0.14084873264E+04  0.14091504163E+04  0.10000000000E+02 0. -1.
</event>
<event>
 5    1  0.5525569E-010  0.3878216E+03  0.7957747E-01  0.3417793E+00
         13   -1    0    0    0    0  0.00000000000E+00  0.00000000000E+00  0.14999999963E+04  0.15000000000E+04  0.10566000000E+00 0. -1.
        994   -1    0    0    0    0 -0.00000000000E+00 -0.00000000000E+00  0.11368683772E-12  0.17120000000E+03  0.17120000000E+03 0.  0.
         13    1    1    2    0    0 -0.18582214865E+03 -0.12104154203E+03  0.67967222252E+03  0.71493724693E+03  0.10566000000E+00 0. -1.
        994    1    1    2    0    0  0.27942433818E+03  0.16606629876E+03  0.50768129806E+03  0.62666236264E+03  0.17120000000E+03 0.  0.
        998    1    1    2    0    0 -0.93602189524E+02 -0.45024756730E+02  0.31264647570E+03  0.32960039043E+03  0.10000000000E+02 0. -1.
</event>
<event>
 5    1  0.5525569E-010  0.3810653E+03  0.7957747E-01  0.3446533E+00
         13   -1    0    0    0    0  0.00000000000E+00  0.00000000000E+00  0.14999999963E+04  0.15000000000E+04  0.10566000000E+00 0. -1.
        994   -1    0    0    0    0 -0.00000000000E+00 -0.00000000000E+00  0.11368683772E-12  0.17120000000E+03  0.17120000000E+03 0.  0.
         13    1    1    2    0    0  0.10918444978E+03  0.84672722657E+01  0.46373416242E+03  0.47648958366E+03  0.10566000000E+00 0. -1.
        994    1    1    2    0    0 -0.18442838902E+03 -0.75929318420E+02  0.14998096737E+03  0.30262653989E+03  0.17120000000E+03 0.  0.
        998    1    1    2    0    0  0.75243939241E+02  0.67462046154E+02  0.88628486648E+03  0.89208387645E+03  0.10000000000E+02 0. -1.
</event>
<event>
 5    1  0.5525569E-010  0.3753057E+03  0.7957747E-01  0.3471857E+00
         13   -1    0    0    0    0  0.00000000000E+00  0.00000000000E+00  0.14999999963E+04  0.15000000000E+04  0.10566000000E+00 0.  1.
        994   -1    0    0    0    0 -0.00000000000E+00 -0.00000000000E+00  0.11368683772E-12  0.17120000000E+03  0.17120000000E+03 0.  0.
         13    1    1    2    0    0 -0.59743247358E+01  0.41165816796E+02  0.91591482006E+02  0.10059486949E+03  0.10566000000E+00 0.  1.
        994    1    1    2    0    0 -0.11882284041E+03  0.10064957518E+03  0.10603135316E+03  0.25456097942E+03  0.17120000000E+03 0.  0.
        998    1    1    2    0    0  0.12479716515E+03 -0.14181539198E+03  0.13023771611E+04  0.13160441511E+04  0.10000000000E+02 0.  1.
</event>
<event>
 5    1  0.5525569E-010  0.3823281E+03  0.7957747E-01  0.3441084E+00
         13   -1    0    0    0    0  0.00000000000E+00  0.00000000000E+00  0.14999999963E+04  0.15000000000E+04  0.10566000000E+00 0.  1.
        994   -1    0    0    0    0 -0.00000000000E+00 -0.00000000000E+00  0.11368683772E-12  0.17120000000E+03  0.17120000000E+03 0.  0.
         13    1    1    2    0    0 -0.16791328254E+02 -0.85376629309E+01  0.91341124243E+02  0.93263350438E+02  0.10566000000E+00 0.  1.
        994    1    1    2    0    0 -0.63703455909E+02  0.26832323612E+03  0.32013836128E+03  0.45590953017E+03  0.17120000000E+03 0.  0.
        998    1    1    2    0    0  0.80494784163E+02 -0.25978557319E+03  0.10885205108E+04  0.11220271194E+04  0.10000000000E+02 0.  1.
</event>
<event>
 5    1  0.5525569E-010  0.3877573E+03  0.7957747E-01  0.3418062E+00
         13   -1    0    0    0    0  0.00000000000E+00  0.00000000000E+00  0.14999999963E+04  0.15000000000E+04  0.10566000000E+00 0.  1.
        994   -1    0    0    0    0 -0.00000000000E+00 -0.00000000000E+00  0.11368683772E-12  0.17120000000E+03  0.17120000000E+03 0.  0.
         13    1    1    2    0    0  0.13837572012E+03  0.13269890947E+02  0.62389092230E+03  0.63918997491E+03  0.10566000000E+00 0.  1.
        994    1    1    2    0    0 -0.25352200135E+03 -0.18296371113E+02  0.25055352241E+03  0.39584677585E+03  0.17120000000E+03 0.  0.
        998    1    1    2    0    0  0.11514628123E+03  0.50264801664E+01  0.62555555157E+03  0.63616324924E+03  0.10000000000E+02 0.  1.
</event>
<event>
 5    1  0.6649206E-010  0.3867187E+03  0.7957747E-01  0.3422415E+00
         13   -1    0    0    0    0  0.00000000000E+00  0.00000000000E+00  0.14999999963E+04  0.15000000000E+04  0.10566000000E+00 0. -1.
        994   -1    0    0    0    0 -0.00000000000E+00 -0.00000000000E+00  0.11368683772E-12  0.17120000000E+03  0.17120000000E+03 0.  0.
         13    1    1    2    0    0 -0.13346369876E+02  0.47181896459E+01  0.78926174866E+02  0.80185654237E+02  0.10566000000E+00 0. -1.
        994    1    1    2    0    0  0.53967420892E+02 -0.51308604900E+02  0.19128025528E+02  0.18767092693E+03  0.17120000000E+03 0.  0.
        998    1    1    2    0    0 -0.40621051016E+02  0.46590415254E+02  0.14019457959E+04  0.14033434188E+04  0.10000000000E+02 0. -1.
</event>
<event>
 5    1  0.5525569E-010  0.3872706E+03  0.7957747E-01  0.3420099E+00
         13   -1    0    0    0    0  0.00000000000E+00  0.00000000000E+00  0.14999999963E+04  0.15000000000E+04  0.10566000000E+00 0. -1.
        994   -1    0    0    0    0 -0.00000000000E+00 -0.00000000000E+00  0.11368683772E-12  0.17120000000E+03  0.17120000000E+03 0.  0.
         13    1    1    2    0    0 -0.56065707598E+02  0.93931771188E+01  0.28939491312E+03  0.29492545202E+03  0.10566000000E+00 0. -1.
        994    1    1    2    0    0  0.28195578787E+03 -0.13838325067E+01  0.32819335742E+03  0.46531849433E+03  0.17120000000E+03 0.  0.
        998    1    1    2    0    0 -0.22589008028E+03 -0.80093446122E+01  0.88241172574E+03  0.91095605366E+03  0.10000000000E+02 0. -1.
</event>
<event>
 5    1  0.5525569E-010  0.3754537E+03  0.7957747E-01  0.3471196E+00
         13   -1    0    0    0    0  0.00000000000E+00  0.00000000000E+00  0.14999999963E+04  0.15000000000E+04  0.10566000000E+00 0.  1.
        994   -1    0    0    0    0 -0.00000000000E+00 -0.00000000000E+00  0.11368683772E-12  0.17120000000E+03  0.17120000000E+03 0.  0.
         13    1    1    2    0    0  0.13704857415E+01 -0.44100956147E+02  0.20736516462E+03  0.21200729994E+03  0.10566000000E+00 0.  1.
        994    1    1    2    0    0  0.90992643690E+02 -0.11788216137E+02  0.35577407757E+02  0.19746851695E+03  0.17120000000E+03 0.  0.
        998    1    1    2    0    0 -0.92363129432E+02  0.55889172284E+02  0.12570574239E+04  0.12617241831E+04  0.10000000000E+02 0.  1.
</event>
<event>
 5    1  0.5525569E-010  0.3763605E+03  0.7957747E-01  0.3467160E+00
         13   -1    0    0    0    0  0.00000000000E+00  0.00000000000E+00  0.14999999963E+04  0.15000000000E+04  0.10566000000E+00 0.  1.
        994   -1    0    0    0    0 -0.00000000000E+00 -0.00000000000E+00  0.11368683772E-12  0.17120000000E+03  0.17120000000E+03 0.  0.
         13    1    1    2    0    0  0.26597343060E+02  0.14100541890E+02  0.16756675468E+03  0.17024944164E+03  0.10566000000E+00 0.  1.
        994    1    1    2    0    0  0.91225761393E+02  0.52767828466E+02  0.44539166359E+02  0.20591202151E+03  0.17120000000E+03 0.  0.
        998    1    1    2    0    0 -0.11782310445E+03 -0.66868370356E+02  0.12878940752E+04  0.12950385369E+04  0.10000000000E+02 0.  1.
</event>
<event>
 5    1  0.5525569E-010  0.3856795E+03  0.7957747E-01  0.3426796E+00
         13   -1    0    0    0    0  0.00000000000E+00  0.00000000000E+00  0.14999999963E+04  0.15000000000E+04  0.10566000000E+00 0. -1.
        994   -1    0    0    0    0 -0.00000000000E+00 -0.00000000000E+00  0.11368683772E-12  0.17120000000E+03  0.17120000000E+03 0.  0.
         13    1    1    2    0    0 -0.28085422713E+02  0.19171699180E+03  0.10656311000E+04  0.10831038032E+04  0.10566000000E+00 0. -1.
        994    1    1    2    0    0  0.42027346351E+02 -0.21092339082E+03  0.17156933176E+03  0.32403772965E+03  0.17120000000E+03 0.  0.
        998    1    1    2    0    0 -0.13941923639E+02  0.19206399011E+02  0.26279956448E+03  0.26405846718E+03  0.10000000000E+02 0.  1.
</event>
<event>
 5    1  0.5525569E-010  0.3365419E+03  0.7957747E-01  0.3665369E+00
         13   -1    0    0    0    0  0.00000000000E+00  0.00000000000E+00  0.14999999963E+04  0.15000000000E+04  0.10566000000E+00 0. -1.
        994   -1    0    0    0    0 -0.00000000000E+00 -0.00000000000E+00  0.11368683772E-12  0.17120000000E+03  0.17120000000E+03 0.  0.
         13    1    1    2    0    0  0.25915088033E+02  0.19213011379E+03  0.96588781244E+03  0.98515219626E+03  0.10566000000E+00 0. -1.
        994    1    1    2    0    0 -0.11944511315E+03 -0.20059740689E+03  0.23656002019E+03  0.37386700558E+03  0.17120000000E+03 0.  0.
        998    1    1    2    0    0  0.93530025119E+02  0.84672930907E+01  0.29755216364E+03  0.31218079816E+03  0.10000000000E+02 0. -1.
</event>
<event>
 5    1  0.5525569E-010  0.3838183E+03  0.7957747E-01  0.3434699E+00
         13   -1    0    0    0    0  0.00000000000E+00  0.00000000000E+00  0.14999999963E+04  0.15000000000E+04  0.10566000000E+00 0. -1.
        994   -1    0    0    0    0 -0.00000000000E+00 -0.00000000000E+00  0.11368683772E-12  0.17120000000E+03  0.17120000000E+03 0.  0.
         13    1    1    2    0    0  0.40101557445E+02  0.10555085747E+03  0.51471937600E+03  0.52695840976E+03  0.10566000000E+00 0. -1.
        994    1    1    2    0    0 -0.79081843164E+02 -0.17829857134E+03  0.13999388662E+03  0.29487632450E+03  0.17120000000E+03 0.  0.
        998    1    1    2    0    0  0.38980285718E+02  0.72747713869E+02  0.84528673366E+03  0.84936526574E+03  0.10000000000E+02 0. -1.
</event>
<event>
 5    1  0.5525569E-010  0.3875575E+03  0.7957747E-01  0.3418897E+00
         13   -1    0    0    0    0  0.00000000000E+00  0.00000000000E+00  0.14999999963E+04  0.15000000000E+04  0.10566000000E+00 0.  1.
        994   -1    0    0    0    0 -0.00000000000E+00 -0.00000000000E+00  0.11368683772E-12  0.17120000000E+03  0.17120000000E+03 0.  0.
         13    1    1    2    0    0 -0.65363938888E+01  0.83003119253E+01  0.47444495457E+02  0.48606696414E+02  0.10566000000E+00 0.  1.
        994    1    1    2    0    0  0.15262132275E+03 -0.79486196826E+02  0.10372008625E+03  0.26396708116E+03  0.17120000000E+03 0.  0.
        998    1    1    2    0    0 -0.14608492887E+03  0.71185884901E+02  0.13488354146E+04  0.13586262224E+04  0.10000000000E+02 0.  1.
</event>
<event>
 5    1  0.5525569E-010  0.3537771E+03  0.7957747E-01  0.3573941E+00
         13   -1    0    0    0    0  0.00000000000E+00  0.00000000000E+00  0.14999999963E+04  0.15000000000E+04  0.10566000000E+00 0.  1.
        994   -1    0    0    0    0 -0.00000000000E+00 -0.00000000000E+00  0.11368683772E-12  0.17120000000E+03  0.17120000000E+03 0.  0.
         13    1    1    2    0    0 -0.12573387608E+03 -0.19544895077E+03  0.10115823141E+04  0.10379345304E+04  0.10566000000E+00 0.  1.
        994    1    1    2    0    0  0.82343651834E+02  0.23976205080E+03  0.27688830374E+03  0.41260500572E+03  0.17120000000E+03 0.  0.
        998    1    1    2    0    0  0.43390224244E+02 -0.44313100029E+02  0.21152937844E+03  0.22066046392E+03  0.10000000000E+02 0.  1.
</event>
<event>
 5    1  0.5525569E-010  0.3864295E+03  0.7957747E-01  0.3423632E+00
         13   -1    0    0    0    0  0.00000000000E+00  0.00000000000E+00  0.14999999963E+04  0.15000000000E+04  0.10566000000E+00 0.  1.
        994   -1    0    0    0    0 -0.00000000000E+00 -0.00000000000E+00  0.11368683772E-12  0.17120000000E+03  0.17120000000E+03 0.  0.
         13    1    1    2    0    0  0.27133758099E+02 -0.24618593518E+03  0.80310672034E+03  0.84043094358E+03  0.10566000000E+00 0.  1.
        994    1    1    2    0    0 -0.58531828010E+02  0.31481781175E+03  0.48678990148E+03  0.60729735523E+03  0.17120000000E+03 0.  0.
        998    1    1    2    0    0  0.31398069912E+02 -0.68631876566E+02  0.21010337446E+03  0.22347170119E+03  0.10000000000E+02 0.  1.
</event>
<event>
 5    1  0.5525569E-010  0.3870937E+03  0.7957747E-01  0.3420841E+00
         13   -1    0    0    0    0  0.00000000000E+00  0.00000000000E+00  0.14999999963E+04  0.15000000000E+04  0.10566000000E+00 0. -1.
        994   -1    0    0    0    0 -0.00000000000E+00 -0.00000000000E+00  0.11368683772E-12  0.17120000000E+03  0.17120000000E+03 0.  0.
         13    1    1    2    0    0  0.79798112327E+02  0.22299370743E+03  0.10996904595E+04  0.11249057961E+04  0.10566000000E+00 0. -1.
        994    1    1    2    0    0 -0.97386783607E+02 -0.24381870388E+03  0.27281367564E+03  0.41553397887E+03  0.17120000000E+03 0.  0.
        998    1    1    2    0    0  0.17588671280E+02  0.20824996443E+02  0.12749586114E+03  0.13076022500E+03  0.10000000000E+02 0.  0.
</event>
<event>
 5    1  0.5525569E-010  0.3867513E+03  0.7957747E-01  0.3422279E+00
         13   -1    0    0    0    0  0.00000000000E+00  0.00000000000E+00  0.14999999963E+04  0.15000000000E+04  0.10566000000E+00 0.  1.
        994   -1    0    0    0    0 -0.00000000000E+00 -0.00000000000E+00  0.11368683772E-12  0.17120000000E+03  0.17120000000E+03 0.  0.
         13    1    1    2    0    0 -0.40267688553E+01  0.16260356079E+03  0.74591007552E+03  0.76343826520E+03  0.10566000000E+00 0.  1.
        994    1    1    2    0    0  0.35664170145E+02 -0.24946046575E+03  0.24694904311E+03  0.39216798301E+03  0.17120000000E+03 0.  0.
        998    1    1    2    0    0 -0.31637401289E+02  0.86856904965E+02  0.50714087765E+03  0.51559375179E+03  0.10000000000E+02 0. -1.
</event>
<event>
 5    1  0.5525569E-010  0.3877802E+03  0.7957747E-01  0.3417966E+00
         13   -1    0    0    0    0  0.00000000000E+00  0.00000000000E+00  0.14999999963E+04  0.15000000000E+04  0.10566000000E+00 0. -1.
        994   -1    0    0    0    0 -0.00000000000E+00 -0.00000000000E+00  0.11368683772E-12  0.17120000000E+03  0.17120000000E+03 0.  0.
         13    1    1    2    0    0  0.32686603470E+02 -0.10326293227E+03  0.53463806420E+03  0.54549932914E+03  0.10566000000E+00 0. -1.
        994    1    1    2    0    0 -0.65673295968E+02  0.22395749633E+03  0.20412372524E+03  0.35418339483E+03  0.17120000000E+03 0.  0.
        998    1    1    2    0    0  0.32986692498E+02 -0.12069456406E+03  0.76123820684E+03  0.77151727604E+03  0.10000000000E+02 0. -1.
</event>
<event>
 5    1  0.5525569E-010  0.3862571E+03  0.7957747E-01  0.3424358E+00
         13   -1    0    0    0    0  0.00000000000E+00  0.00000000000E+00  0.14999999963E+04  0.15000000000E+04  0.10566000000E+00 0.  1.
        994   -1    0    0    0    0 -0.00000000000E+00 -0.00000000000E+00  0.11368683772E-12  0.17120000000E+03  0.17120000000E+03 0.  0.
         13    1    1    2    0    0  0.32809007911E+02  0.10323967370E+03  0.57011835033E+03  0.58031871052E+03  0.10566000000E+00 0.  1.
        994    1    1    2    0    0 -0.10734011571E+03 -0.18715554249E+03  0.17210932904E+03  0.32477709074E+03  0.17120000000E+03 0.  0.
        998    1    1    2    0    0  0.74531107799E+02  0.83915868790E+02  0.75777231691E+03  0.76610419875E+03  0.10000000000E+02 0.  1.
</event>
