<event>
 5    1  0.1572996E-008  0.3714046E+03  0.7957747E-01  0.3489461E+00
         13   -1    0    0    0    0  0.00000000000E+00  0.00000000000E+00  0.14999999963E+04  0.15000000000E+04  0.10566000000E+00 0.  1.
        994   -1    0    0    0    0 -0.00000000000E+00 -0.00000000000E+00  0.11368683772E-12  0.17120000000E+03  0.17120000000E+03 0.  0.
         13    1    1    2    0    0  0.60554969000E+02 -0.24187863977E+02  0.28718104035E+03  0.29449094745E+03  0.10566000000E+00 0.  1.
        994    1    1    2    0    0 -0.11349380619E+02  0.11914283822E+02  0.94689673811E+01  0.17224941202E+03  0.17120000000E+03 0.  0.
        998    1    1    2    0    0 -0.49205588382E+02  0.12273580154E+02  0.12033499886E+04  0.12044596405E+04  0.10000000000E+02 0.  1.
</event>
<event>
 5    1  0.1593874E-008  0.3855708E+03  0.7957747E-01  0.3427255E+00
         13   -1    0    0    0    0  0.00000000000E+00  0.00000000000E+00  0.14999999963E+04  0.15000000000E+04  0.10566000000E+00 0. -1.
        994   -1    0    0    0    0 -0.00000000000E+00 -0.00000000000E+00  0.11368683772E-12  0.17120000000E+03  0.17120000000E+03 0.  0.
         13    1    1    2    0    0 -0.21345598947E+00 -0.10542765428E+02  0.41596056385E+02  0.42911985939E+02  0.10566000000E+00 0. -1.
        994    1    1    2    0    0  0.40681259326E+01  0.64252647028E+01  0.15368783369E+01  0.17137571494E+03  0.17120000000E+03 0.  0.
        998    1    1    2    0    0 -0.38546699431E+01  0.41175007254E+01  0.14568670616E+04  0.14569122991E+04  0.10000000000E+02 0. -1.
</event>
<event>
 5    1  0.1572996E-008  0.3791355E+03  0.7957747E-01  0.3454931E+00
         13   -1    0    0    0    0  0.00000000000E+00  0.00000000000E+00  0.14999999963E+04  0.15000000000E+04  0.10566000000E+00 0.  1.
        994   -1    0    0    0    0 -0.00000000000E+00 -0.00000000000E+00  0.11368683772E-12  0.17120000000E+03  0.17120000000E+03 0.  0.
         13    1    1    2    0    0 -0.20443211998E+01  0.11900334457E+02  0.13940187565E+02  0.18442808971E+02  0.10566000000E+00 0.  1.
        994    1    1    2    0    0 -0.88344203908E+00 -0.95934488470E+01  0.48813878806E+01  0.17154032377E+03  0.17120000000E+03 0.  0.
        998    1    1    2    0    0  0.29277632389E+01 -0.23068856099E+01  0.14811784208E+04  0.14812168673E+04  0.10000000000E+02 0.  1.
</event>
<event>
 5    1  0.1572996E-008  0.3825054E+03  0.7957747E-01  0.3440321E+00
         13   -1    0    0    0    0  0.00000000000E+00  0.00000000000E+00  0.14999999963E+04  0.15000000000E+04  0.10566000000E+00 0. -1.
        994   -1    0    0    0    0 -0.00000000000E+00 -0.00000000000E+00  0.11368683772E-12  0.17120000000E+03  0.17120000000E+03 0.  0.
         13    1    1    2    0    0 -0.72597618776E+01 -0.14601268170E+02  0.46534971650E+02  0.49309389828E+02  0.10566000000E+00 0. -1.
        994    1    1    2    0    0  0.12489685369E+02 -0.10717206757E+01  0.33949148281E+01  0.17169189344E+03  0.17120000000E+03 0.  0.
        998    1    1    2    0    0 -0.52299234917E+01  0.15672988845E+02  0.14500701098E+04  0.14501987167E+04  0.10000000000E+02 0. -1.
</event>
<event>
 5    1  0.1572996E-008  0.3841465E+03  0.7957747E-01  0.3433300E+00
         13   -1    0    0    0    0  0.00000000000E+00  0.00000000000E+00  0.14999999963E+04  0.15000000000E+04  0.10566000000E+00 0.  1.
        994   -1    0    0    0    0 -0.00000000000E+00 -0.00000000000E+00  0.11368683772E-12  0.17120000000E+03  0.17120000000E+03 0.  0.
         13    1    1    2    0    0  0.14047806692E+02 -0.31697420407E+01  0.50775727432E+02  0.52778535388E+02  0.10566000000E+00 0.  1.
        994    1    1    2    0    0 -0.63398192106E+01  0.25923077518E+01  0.22092023994E+01  0.17135120059E+03  0.17120000000E+03 0.  0.
        998    1    1    2    0    0 -0.77079874810E+01  0.57743428892E+00  0.14470150664E+04  0.14470702640E+04  0.10000000000E+02 0.  1.
</event>
<event>
 5    1  0.1572996E-008  0.3789746E+03  0.7957747E-01  0.3455636E+00
         13   -1    0    0    0    0  0.00000000000E+00  0.00000000000E+00  0.14999999963E+04  0.15000000000E+04  0.10566000000E+00 0.  1.
        994   -1    0    0    0    0 -0.00000000000E+00 -0.00000000000E+00  0.11368683772E-12  0.17120000000E+03  0.17120000000E+03 0.  0.
         13    1    1    2    0    0 -0.30792007695E+02  0.46770608417E+02  0.32927195089E+03  0.33399950053E+03  0.10566000000E+00 0.  1.
        994    1    1    2    0    0  0.33728388079E+02 -0.19033874456E+02  0.96992256146E+01  0.17579365039E+03  0.17120000000E+03 0.  0.
        998    1    1    2    0    0 -0.29363803843E+01 -0.27736733961E+02  0.11610288198E+04  0.11614068491E+04  0.10000000000E+02 0.  1.
</event>
<event>
 5    1  0.1572996E-008  0.3751968E+03  0.7957747E-01  0.3472343E+00
         13   -1    0    0    0    0  0.00000000000E+00  0.00000000000E+00  0.14999999963E+04  0.15000000000E+04  0.10566000000E+00 0. -1.
        994   -1    0    0    0    0 -0.00000000000E+00 -0.00000000000E+00  0.11368683772E-12  0.17120000000E+03  0.17120000000E+03 0.  0.
         13    1    1    2    0    0  0.18412937323E+02 -0.17477150339E+02  0.17342544332E+02  0.30745114291E+02  0.10566000000E+00 0. -1.
        994    1    1    2    0    0 -0.16994673393E+02  0.21745250452E+02  0.16430461287E+02  0.17418689646E+03  0.17120000000E+03 0.  0.
        998    1    1    2    0    0 -0.14182639299E+01 -0.42681001123E+01  0.14662269907E+04  0.14662679892E+04  0.10000000000E+02 0. -1.
</event>
<event>
 5    1  0.1572996E-008  0.3808697E+03  0.7957747E-01  0.3447380E+00
         13   -1    0    0    0    0  0.00000000000E+00  0.00000000000E+00  0.14999999963E+04  0.15000000000E+04  0.10566000000E+00 0.  1.
        994   -1    0    0    0    0 -0.00000000000E+00 -0.00000000000E+00  0.11368683772E-12  0.17120000000E+03  0.17120000000E+03 0.  0.
         13    1    1    2    0    0 -0.19567809402E+01 -0.16137093051E+02  0.33726600713E+02  0.37439678464E+02  0.10566000000E+00 0.  1.
        994    1    1    2    0    0  0.50447642386E+01  0.15952941516E+02  0.46284698238E+01  0.17207791468E+03  0.17120000000E+03 0.  0.
        998    1    1    2    0    0 -0.30879832984E+01  0.18415153525E+00  0.14616449257E+04  0.14616824069E+04  0.10000000000E+02 0.  1.
</event>
<event>
 5    1  0.1572996E-008  0.3859267E+03  0.7957747E-01  0.3425752E+00
         13   -1    0    0    0    0  0.00000000000E+00  0.00000000000E+00  0.14999999963E+04  0.15000000000E+04  0.10566000000E+00 0. -1.
        994   -1    0    0    0    0 -0.00000000000E+00 -0.00000000000E+00  0.11368683772E-12  0.17120000000E+03  0.17120000000E+03 0.  0.
         13    1    1    2    0    0 -0.10881367017E+02  0.87805431439E+01  0.81553092245E+02  0.82743097022E+02  0.10566000000E+00 0. -1.
        994    1    1    2    0    0  0.12113048443E+02 -0.60681849173E+01  0.17728052240E+01  0.17174437880E+03  0.17120000000E+03 0.  0.
        998    1    1    2    0    0 -0.12316814255E+01 -0.27123582266E+01  0.14166740988E+04  0.14167125242E+04  0.10000000000E+02 0. -1.
</event>
<event>
 5    1  0.1572996E-008  0.3810164E+03  0.7957747E-01  0.3446745E+00
         13   -1    0    0    0    0  0.00000000000E+00  0.00000000000E+00  0.14999999963E+04  0.15000000000E+04  0.10566000000E+00 0. -1.
        994   -1    0    0    0    0 -0.00000000000E+00 -0.00000000000E+00  0.11368683772E-12  0.17120000000E+03  0.17120000000E+03 0.  0.
         13    1    1    2    0    0  0.36445152795E+01 -0.16844219686E+02  0.39347971405E+02  0.42956771832E+02  0.10566000000E+00 0. -1.
        994    1    1    2    0    0 -0.13979676915E+02  0.11068456692E+02  0.46809761630E+01  0.17218970247E+03  0.17120000000E+03 0.  0.
        998    1    1    2    0    0  0.10335161635E+02  0.57757629942E+01  0.14559710487E+04  0.14560535257E+04  0.10000000000E+02 0. -1.
</event>
<event>
 5    1  0.1572996E-008  0.3852410E+03  0.7957747E-01  0.3428651E+00
         13   -1    0    0    0    0  0.00000000000E+00  0.00000000000E+00  0.14999999963E+04  0.15000000000E+04  0.10566000000E+00 0.  1.
        994   -1    0    0    0    0 -0.00000000000E+00 -0.00000000000E+00  0.11368683772E-12  0.17120000000E+03  0.17120000000E+03 0.  0.
         13    1    1    2    0    0  0.28218786864E+01  0.15331456321E+02  0.89808876678E+02  0.91151862551E+02  0.10566000000E+00 0.  1.
        994    1    1    2    0    0 -0.54298477825E+01  0.45126154783E+01  0.16743714829E+01  0.17135369989E+03  0.17120000000E+03 0.  0.
        998    1    1    2    0    0  0.26079690962E+01 -0.19844071800E+02  0.14085167481E+04  0.14086944376E+04  0.10000000000E+02 0.  1.
</event>
<event>
 5    1  0.1572996E-008  0.3780880E+03  0.7957747E-01  0.3459526E+00
         13   -1    0    0    0    0  0.00000000000E+00  0.00000000000E+00  0.14999999963E+04  0.15000000000E+04  0.10566000000E+00 0. -1.
        994   -1    0    0    0    0 -0.00000000000E+00 -0.00000000000E+00  0.11368683772E-12  0.17120000000E+03  0.17120000000E+03 0.  0.
         13    1    1    2    0    0 -0.49167610717E+02 -0.20718625839E+01  0.27556348127E+03  0.27992318578E+03  0.10566000000E+00 0. -1.
        994    1    1    2    0    0  0.95279302520E+01 -0.49086200044E+01  0.54879767336E+01  0.17162294105E+03  0.17120000000E+03 0.  0.
        998    1    1    2    0    0  0.39639680465E+02  0.69804825883E+01  0.12189485383E+04  0.12196538732E+04  0.10000000000E+02 0. -1.
</event>
<event>
 5    1  0.1572996E-008  0.3789036E+03  0.7957747E-01  0.3455946E+00
         13   -1    0    0    0    0  0.00000000000E+00  0.00000000000E+00  0.14999999963E+04  0.15000000000E+04  0.10566000000E+00 0.  1.
        994   -1    0    0    0    0 -0.00000000000E+00 -0.00000000000E+00  0.11368683772E-12  0.17120000000E+03  0.17120000000E+03 0.  0.
         13    1    1    2    0    0 -0.28327753923E+02  0.96809594297E+01  0.88315155356E+02  0.93251061374E+02  0.10566000000E+00 0.  1.
        994    1    1    2    0    0  0.29568948690E+02 -0.11963849619E+02  0.81088069421E+01  0.17433487653E+03  0.17120000000E+03 0.  0.
        998    1    1    2    0    0 -0.12411947671E+01  0.22828901897E+01  0.14035760340E+04  0.14036140621E+04  0.10000000000E+02 0.  1.
</event>
<event>
 5    1  0.1572996E-008  0.3789677E+03  0.7957747E-01  0.3455666E+00
         13   -1    0    0    0    0  0.00000000000E+00  0.00000000000E+00  0.14999999963E+04  0.15000000000E+04  0.10566000000E+00 0.  1.
        994   -1    0    0    0    0 -0.00000000000E+00 -0.00000000000E+00  0.11368683772E-12  0.17120000000E+03  0.17120000000E+03 0.  0.
         13    1    1    2    0    0  0.15460179461E+02 -0.43619597503E+02  0.60176519965E+02  0.75913840335E+02  0.10566000000E+00 0.  1.
        994    1    1    2    0    0  0.10043179125E+01  0.47400517911E+02  0.23920257146E+02  0.17924685898E+03  0.17120000000E+03 0.  0.
        998    1    1    2    0    0 -0.16464497373E+02 -0.37809204081E+01  0.14159032192E+04  0.14160393007E+04  0.10000000000E+02 0. -1.
</event>
<event>
 5    1  0.1572996E-008  0.3781244E+03  0.7957747E-01  0.3459366E+00
         13   -1    0    0    0    0  0.00000000000E+00  0.00000000000E+00  0.14999999963E+04  0.15000000000E+04  0.10566000000E+00 0.  1.
        994   -1    0    0    0    0 -0.00000000000E+00 -0.00000000000E+00  0.11368683772E-12  0.17120000000E+03  0.17120000000E+03 0.  0.
         13    1    1    2    0    0 -0.17112089917E+02 -0.36757909284E+01  0.27764857432E+02  0.32821236000E+02  0.10566000000E+00 0.  1.
        994    1    1    2    0    0  0.16591617242E+02 -0.28967574023E+01  0.60377106647E+01  0.17213241100E+03  0.17120000000E+03 0.  0.
        998    1    1    2    0    0  0.52047267571E+00  0.65725483307E+01  0.14661974282E+04  0.14662463530E+04  0.10000000000E+02 0.  1.
</event>
<event>
 5    1  0.1572996E-008  0.3690195E+03  0.7957747E-01  0.3500409E+00
         13   -1    0    0    0    0  0.00000000000E+00  0.00000000000E+00  0.14999999963E+04  0.15000000000E+04  0.10566000000E+00 0. -1.
        994   -1    0    0    0    0 -0.00000000000E+00 -0.00000000000E+00  0.11368683772E-12  0.17120000000E+03  0.17120000000E+03 0.  0.
         13    1    1    2    0    0  0.56735262417E+02 -0.36582584586E+02  0.20702477844E+03  0.21775317575E+03  0.10566000000E+00 0. -1.
        994    1    1    2    0    0 -0.50994397665E+02  0.94221449769E+01  0.19849901729E+02  0.17997962109E+03  0.17120000000E+03 0.  0.
        998    1    1    2    0    0 -0.57408647527E+01  0.27160439609E+02  0.12731253161E+04  0.12734672032E+04  0.10000000000E+02 0. -1.
</event>
<event>
 5    1  0.1572996E-008  0.2540847E+03  0.7957747E-01  0.4290394E+00
         13   -1    0    0    0    0  0.00000000000E+00  0.00000000000E+00  0.14999999963E+04  0.15000000000E+04  0.10566000000E+00 0. -1.
        994   -1    0    0    0    0 -0.00000000000E+00 -0.00000000000E+00  0.11368683772E-12  0.17120000000E+03  0.17120000000E+03 0.  0.
         13    1    1    2    0    0 -0.15283175569E+03  0.83807665481E+02  0.32056170319E+03  0.36488503266E+03  0.10566000000E+00 0. -1.
        994    1    1    2    0    0  0.16169848925E+03 -0.55575981109E+02  0.16839768968E+03  0.29479198258E+03  0.17120000000E+03 0.  0.
        998    1    1    2    0    0 -0.88667335641E+01 -0.28231684372E+02  0.10110406034E+04  0.10115229848E+04  0.10000000000E+02 0. -1.
</event>
<event>
 5    1  0.1572996E-008  0.3849810E+03  0.7957747E-01  0.3429753E+00
         13   -1    0    0    0    0  0.00000000000E+00  0.00000000000E+00  0.14999999963E+04  0.15000000000E+04  0.10566000000E+00 0. -1.
        994   -1    0    0    0    0 -0.00000000000E+00 -0.00000000000E+00  0.11368683772E-12  0.17120000000E+03  0.17120000000E+03 0.  0.
         13    1    1    2    0    0  0.10414713773E+02 -0.17477729547E+02  0.10856189648E+03  0.11045195256E+03  0.10566000000E+00 0. -1.
        994    1    1    2    0    0  0.56271741027E+01  0.41757686973E+02  0.75004122162E+01  0.17646831357E+03  0.17120000000E+03 0.  0.
        998    1    1    2    0    0 -0.16041887876E+02 -0.24279957425E+02  0.13839376876E+04  0.13842797339E+04  0.10000000000E+02 0. -1.
</event>
<event>
 5    1  0.1572996E-008  0.3811791E+03  0.7957747E-01  0.3446041E+00
         13   -1    0    0    0    0  0.00000000000E+00  0.00000000000E+00  0.14999999963E+04  0.15000000000E+04  0.10566000000E+00 0.  1.
        994   -1    0    0    0    0 -0.00000000000E+00 -0.00000000000E+00  0.11368683772E-12  0.17120000000E+03  0.17120000000E+03 0.  0.
         13    1    1    2    0    0 -0.14253151130E+02  0.14482964520E+02  0.57006746295E+02  0.60520152558E+02  0.10566000000E+00 0.  1.
        994    1    1    2    0    0  0.82972751534E+01 -0.10732417918E+02  0.41521828262E+01  0.17178681612E+03  0.17120000000E+03 0.  0.
        998    1    1    2    0    0  0.59558759769E+01 -0.37505466024E+01  0.14388410672E+04  0.14388930313E+04  0.10000000000E+02 0.  1.
</event>
<event>
 5    1  0.1572996E-008  0.3733233E+03  0.7957747E-01  0.3480756E+00
         13   -1    0    0    0    0  0.00000000000E+00  0.00000000000E+00  0.14999999963E+04  0.15000000000E+04  0.10566000000E+00 0. -1.
        994   -1    0    0    0    0 -0.00000000000E+00 -0.00000000000E+00  0.11368683772E-12  0.17120000000E+03  0.17120000000E+03 0.  0.
         13    1    1    2    0    0  0.15492482827E+03  0.23697193634E+02  0.80902829917E+03  0.82406920791E+03  0.10566000000E+00 0. -1.
        994    1    1    2    0    0 -0.14318644965E+03 -0.29542400261E+02  0.84550850511E+02  0.24048575654E+03  0.17120000000E+03 0.  0.
        998    1    1    2    0    0 -0.11738378619E+02  0.58452066276E+01  0.60642084660E+03  0.60664503555E+03  0.10000000000E+02 0.  0.
</event>
<event>
 5    1  0.1572996E-008  0.3793001E+03  0.7957747E-01  0.3454212E+00
         13   -1    0    0    0    0  0.00000000000E+00  0.00000000000E+00  0.14999999963E+04  0.15000000000E+04  0.10566000000E+00 0.  1.
        994   -1    0    0    0    0 -0.00000000000E+00 -0.00000000000E+00  0.11368683772E-12  0.17120000000E+03  0.17120000000E+03 0.  0.
         13    1    1    2    0    0  0.20014474103E+02 -0.57885866512E+02  0.35441703366E+03  0.35967040138E+03  0.10566000000E+00 0.  1.
        994    1    1    2    0    0 -0.31679732437E+01  0.53774022738E+02  0.14271553892E+02  0.18004110316E+03  0.17120000000E+03 0.  0.
        998    1    1    2    0    0 -0.16846500859E+02  0.41118437742E+01  0.11313114087E+04  0.11314884955E+04  0.10000000000E+02 0.  1.
</event>
<event>
 5    1  0.1572996E-008  0.3808472E+03  0.7957747E-01  0.3447478E+00
         13   -1    0    0    0    0  0.00000000000E+00  0.00000000000E+00  0.14999999963E+04  0.15000000000E+04  0.10566000000E+00 0. -1.
        994   -1    0    0    0    0 -0.00000000000E+00 -0.00000000000E+00  0.11368683772E-12  0.17120000000E+03  0.17120000000E+03 0.  0.
         13    1    1    2    0    0 -0.97921280934E+01  0.10625111157E+02  0.27242693640E+02  0.30837546603E+02  0.10566000000E+00 0. -1.
        994    1    1    2    0    0 -0.29658242472E+00 -0.49631898583E+01  0.37885204211E+01  0.17131408028E+03  0.17120000000E+03 0.  0.
        998    1    1    2    0    0  0.10088710518E+02 -0.56619212982E+01  0.14689687822E+04  0.14690483731E+04  0.10000000000E+02 0. -1.
</event>
<event>
 5    1  0.1572996E-008  0.3834555E+03  0.7957747E-01  0.3436249E+00
         13   -1    0    0    0    0  0.00000000000E+00  0.00000000000E+00  0.14999999963E+04  0.15000000000E+04  0.10566000000E+00 0. -1.
        994   -1    0    0    0    0 -0.00000000000E+00 -0.00000000000E+00  0.11368683772E-12  0.17120000000E+03  0.17120000000E+03 0.  0.
         13    1    1    2    0    0  0.38206516069E+01 -0.20606322903E+02  0.10279607622E+03  0.10491073526E+03  0.10566000000E+00 0. -1.
        994    1    1    2    0    0  0.47342733497E+01 -0.40871271686E+01  0.25281828923E+01  0.17133286218E+03  0.17120000000E+03 0.  0.
        998    1    1    2    0    0 -0.85549249565E+01  0.24693450072E+02  0.13946757372E+04  0.13949564026E+04  0.10000000000E+02 0. -1.
</event>
<event>
 5    1  0.1572996E-008  0.3796059E+03  0.7957747E-01  0.3452876E+00
         13   -1    0    0    0    0  0.00000000000E+00  0.00000000000E+00  0.14999999963E+04  0.15000000000E+04  0.10566000000E+00 0. -1.
        994   -1    0    0    0    0 -0.00000000000E+00 -0.00000000000E+00  0.11368683772E-12  0.17120000000E+03  0.17120000000E+03 0.  0.
         13    1    1    2    0    0 -0.38497250014E+02  0.29698413298E+02  0.66883097407E+02  0.82688535444E+02  0.10566000000E+00 0. -1.
        994    1    1    2    0    0  0.32053257616E+02 -0.20146735898E+02  0.21314764480E+02  0.17662689907E+03  0.17120000000E+03 0.  0.
        998    1    1    2    0    0  0.64439923983E+01 -0.95516774000E+01  0.14118021344E+04  0.14118845655E+04  0.10000000000E+02 0. -1.
</event>
<event>
 5    1  0.1572996E-008  0.3832000E+03  0.7957747E-01  0.3437342E+00
         13   -1    0    0    0    0  0.00000000000E+00  0.00000000000E+00  0.14999999963E+04  0.15000000000E+04  0.10566000000E+00 0. -1.
        994   -1    0    0    0    0 -0.00000000000E+00 -0.00000000000E+00  0.11368683772E-12  0.17120000000E+03  0.17120000000E+03 0.  0.
         13    1    1    2    0    0 -0.11542323403E+02 -0.27773526992E+01  0.26573506871E+02  0.29105005566E+02  0.10566000000E+00 0. -1.
        994    1    1    2    0    0  0.12544590541E+02  0.38730320942E+01  0.30968463467E+01  0.17173059595E+03  0.17120000000E+03 0.  0.
        998    1    1    2    0    0 -0.10022671386E+01 -0.10956793950E+01  0.14703296431E+04  0.14703643985E+04  0.10000000000E+02 0. -1.
</event>
<event>
 5    1  0.1572996E-008  0.3763309E+03  0.7957747E-01  0.3467292E+00
         13   -1    0    0    0    0  0.00000000000E+00  0.00000000000E+00  0.14999999963E+04  0.15000000000E+04  0.10566000000E+00 0. -1.
        994   -1    0    0    0    0 -0.00000000000E+00 -0.00000000000E+00  0.11368683772E-12  0.17120000000E+03  0.17120000000E+03 0.  0.
         13    1    1    2    0    0  0.38524068286E+02  0.27370921808E+02  0.24091908635E+03  0.24551026156E+03  0.10566000000E+00 0. -1.
        994    1    1    2    0    0 -0.25578544310E+01  0.19566694774E+02  0.73157208709E+01  0.17248871828E+03  0.17120000000E+03 0.  0.
        998    1    1    2    0    0 -0.35966213855E+02 -0.46937616582E+02  0.12517651891E+04  0.12532010202E+04  0.10000000000E+02 0. -1.
</event>
<event>
 5    1  0.1572996E-008  0.3780483E+03  0.7957747E-01  0.3459701E+00
         13   -1    0    0    0    0  0.00000000000E+00  0.00000000000E+00  0.14999999963E+04  0.15000000000E+04  0.10566000000E+00 0.  1.
        994   -1    0    0    0    0 -0.00000000000E+00 -0.00000000000E+00  0.11368683772E-12  0.17120000000E+03  0.17120000000E+03 0.  0.
         13    1    1    2    0    0  0.22196139540E+02 -0.10827791389E+00  0.45407586018E+02  0.50542461026E+02  0.10566000000E+00 0.  1.
        994    1    1    2    0    0 -0.19200471254E+02  0.40277601623E+01  0.64176652695E+01  0.17243986597E+03  0.17120000000E+03 0.  0.
        998    1    1    2    0    0 -0.29956682858E+01 -0.39194822484E+01  0.14481747450E+04  0.14482176730E+04  0.10000000000E+02 0.  1.
</event>
<event>
 5    1  0.1572996E-008  0.3758453E+03  0.7957747E-01  0.3469451E+00
         13   -1    0    0    0    0  0.00000000000E+00  0.00000000000E+00  0.14999999963E+04  0.15000000000E+04  0.10566000000E+00 0.  1.
        994   -1    0    0    0    0 -0.00000000000E+00 -0.00000000000E+00  0.11368683772E-12  0.17120000000E+03  0.17120000000E+03 0.  0.
         13    1    1    2    0    0 -0.14210376331E+02 -0.44209662212E+02  0.20591626697E+03  0.21108753917E+03  0.10566000000E+00 0.  1.
        994    1    1    2    0    0  0.12338327167E+02 -0.61857874446E+01  0.68912440862E+01  0.17189365180E+03  0.17120000000E+03 0.  0.
        998    1    1    2    0    0  0.18720491642E+01  0.50395449657E+02  0.12871924852E+04  0.12882188090E+04  0.10000000000E+02 0.  1.
</event>
<event>
 5    1  0.1572996E-008  0.3845731E+03  0.7957747E-01  0.3431485E+00
         13   -1    0    0    0    0  0.00000000000E+00  0.00000000000E+00  0.14999999963E+04  0.15000000000E+04  0.10566000000E+00 0. -1.
        994   -1    0    0    0    0 -0.00000000000E+00 -0.00000000000E+00  0.11368683772E-12  0.17120000000E+03  0.17120000000E+03 0.  0.
         13    1    1    2    0    0 -0.11670666441E+02  0.13013426129E+02  0.98957283675E+02  0.10048934705E+03  0.10566000000E+00 0. -1.
        994    1    1    2    0    0  0.48919564293E+01  0.20140596752E+02  0.32581991259E+01  0.17248081266E+03  0.17120000000E+03 0.  0.
        998    1    1    2    0    0  0.67787100119E+01 -0.33154022882E+02  0.13977845135E+04  0.13982298403E+04  0.10000000000E+02 0. -1.
</event>
<event>
 5    1  0.1572996E-008  0.3808576E+03  0.7957747E-01  0.3447433E+00
         13   -1    0    0    0    0  0.00000000000E+00  0.00000000000E+00  0.14999999963E+04  0.15000000000E+04  0.10566000000E+00 0. -1.
        994   -1    0    0    0    0 -0.00000000000E+00 -0.00000000000E+00  0.11368683772E-12  0.17120000000E+03  0.17120000000E+03 0.  0.
         13    1    1    2    0    0 -0.19462670661E+02  0.29649287808E+01  0.53603665214E+02  0.57104732206E+02  0.10566000000E+00 0. -1.
        994    1    1    2    0    0  0.15801739770E+01  0.58086966113E+01  0.38216569609E+01  0.17134842564E+03  0.17120000000E+03 0.  0.
        998    1    1    2    0    0  0.17882496684E+02 -0.87736253921E+01  0.14425746741E+04  0.14427468422E+04  0.10000000000E+02 0. -1.
</event>
<event>
 5    1  0.1572996E-008  0.3802772E+03  0.7957747E-01  0.3449952E+00
         13   -1    0    0    0    0  0.00000000000E+00  0.00000000000E+00  0.14999999963E+04  0.15000000000E+04  0.10566000000E+00 0.  1.
        994   -1    0    0    0    0 -0.00000000000E+00 -0.00000000000E+00  0.11368683772E-12  0.17120000000E+03  0.17120000000E+03 0.  0.
         13    1    1    2    0    0 -0.30155861761E+01  0.10492076371E+02  0.13165508379E+02  0.17103192728E+02  0.10566000000E+00 0.  1.
        994    1    1    2    0    0  0.42793471590E+01 -0.78794187297E+01  0.42618592753E+01  0.17148761324E+03  0.17120000000E+03 0.  0.
        998    1    1    2    0    0 -0.12637609829E+01 -0.26126576414E+01  0.14825726286E+04  0.14826091940E+04  0.10000000000E+02 0.  1.
</event>
<event>
 5    1  0.1572996E-008  0.3831337E+03  0.7957747E-01  0.3437626E+00
         13   -1    0    0    0    0  0.00000000000E+00  0.00000000000E+00  0.14999999963E+04  0.15000000000E+04  0.10566000000E+00 0.  1.
        994   -1    0    0    0    0 -0.00000000000E+00 -0.00000000000E+00  0.11368683772E-12  0.17120000000E+03  0.17120000000E+03 0.  0.
         13    1    1    2    0    0 -0.88630063546E+01  0.53842734900E+01  0.19967093138E+02  0.22499761223E+02  0.10566000000E+00 0.  1.
        994    1    1    2    0    0  0.10581416428E+02  0.28961047275E+00  0.29303775505E+01  0.17155196694E+03  0.17120000000E+03 0.  0.
        998    1    1    2    0    0 -0.17184100733E+01 -0.56738839627E+01  0.14771025256E+04  0.14771482718E+04  0.10000000000E+02 0.  1.
</event>
<event>
 5    1  0.1867333E-008  0.3860652E+03  0.7957747E-01  0.3425167E+00
         13   -1    0    0    0    0  0.00000000000E+00  0.00000000000E+00  0.14999999963E+04  0.15000000000E+04  0.10566000000E+00 0.  1.
        994   -1    0    0    0    0 -0.00000000000E+00 -0.00000000000E+00  0.11368683772E-12  0.17120000000E+03  0.17120000000E+03 0.  0.
         13    1    1    2    0    0 -0.75537803952E+01 -0.10889210324E+02  0.77075248234E+02  0.78206390749E+02  0.10566000000E+00 0.  1.
        994    1    1    2    0    0  0.88787032170E+01  0.11158500956E+02  0.17689215815E+01  0.17180195749E+03  0.17120000000E+03 0.  0.
        998    1    1    2    0    0 -0.13249228218E+01 -0.26929063185E+00  0.14211558265E+04  0.14211916518E+04  0.10000000000E+02 0.  1.
</event>
<event>
 5    1  0.1572996E-008  0.3812661E+03  0.7957747E-01  0.3445664E+00
         13   -1    0    0    0    0  0.00000000000E+00  0.00000000000E+00  0.14999999963E+04  0.15000000000E+04  0.10566000000E+00 0.  1.
        994   -1    0    0    0    0 -0.00000000000E+00 -0.00000000000E+00  0.11368683772E-12  0.17120000000E+03  0.17120000000E+03 0.  0.
         13    1    1    2    0    0  0.16719184767E+02 -0.12605863532E+02  0.61093504950E+02  0.64582245592E+02  0.10566000000E+00 0.  1.
        994    1    1    2    0    0 -0.19096604889E+02 -0.36743040937E+00  0.47108142548E+01  0.17232657106E+03  0.17120000000E+03 0.  0.
        998    1    1    2    0    0  0.23774201227E+01  0.12973293942E+02  0.14341956771E+04  0.14342911833E+04  0.10000000000E+02 0.  1.
</event>
<event>
 5    1  0.1572996E-008  0.3837716E+03  0.7957747E-01  0.3434899E+00
         13   -1    0    0    0    0  0.00000000000E+00  0.00000000000E+00  0.14999999963E+04  0.15000000000E+04  0.10566000000E+00 0. -1.
        994   -1    0    0    0    0 -0.00000000000E+00 -0.00000000000E+00  0.11368683772E-12  0.17120000000E+03  0.17120000000E+03 0.  0.
         13    1    1    2    0    0  0.83810709980E+01  0.10076635737E+02  0.38483874088E+02  0.40654651243E+02  0.10566000000E+00 0. -1.
        994    1    1    2    0    0  0.35957177115E+01 -0.84523174293E+01  0.25198536649E+01  0.17146475007E+03  0.17120000000E+03 0.  0.
        998    1    1    2    0    0 -0.11976788710E+02 -0.16243183074E+01  0.14589962685E+04  0.14590805987E+04  0.10000000000E+02 0. -1.
</event>
<event>
 5    1  0.1572996E-008  0.3849548E+03  0.7957747E-01  0.3429864E+00
         13   -1    0    0    0    0  0.00000000000E+00  0.00000000000E+00  0.14999999963E+04  0.15000000000E+04  0.10566000000E+00 0.  1.
        994   -1    0    0    0    0 -0.00000000000E+00 -0.00000000000E+00  0.11368683772E-12  0.17120000000E+03  0.17120000000E+03 0.  0.
         13    1    1    2    0    0  0.42608922375E+01 -0.15660816796E+02  0.87793129985E+02  0.89280799851E+02  0.10566000000E+00 0.  1.
        994    1    1    2    0    0  0.85615217950E+01 -0.86567427094E-01  0.18937389878E+01  0.17142442474E+03  0.17120000000E+03 0.  0.
        998    1    1    2    0    0 -0.12822414033E+02  0.15747384223E+02  0.14103131273E+04  0.14104947754E+04  0.10000000000E+02 0.  1.
</event>
<event>
 5    1  0.1572996E-008  0.3794184E+03  0.7957747E-01  0.3453695E+00
         13   -1    0    0    0    0  0.00000000000E+00  0.00000000000E+00  0.14999999963E+04  0.15000000000E+04  0.10566000000E+00 0.  1.
        994   -1    0    0    0    0 -0.00000000000E+00 -0.00000000000E+00  0.11368683772E-12  0.17120000000E+03  0.17120000000E+03 0.  0.
         13    1    1    2    0    0 -0.10438278789E+01 -0.15310975208E+02  0.25232632250E+02  0.29533242842E+02  0.10566000000E+00 0.  1.
        994    1    1    2    0    0 -0.22464714678E+01  0.44580623173E+01  0.45105001718E+01  0.17133214983E+03  0.17120000000E+03 0.  0.
        998    1    1    2    0    0  0.32902993467E+01  0.10852912890E+02  0.14702568639E+04  0.14703346073E+04  0.10000000000E+02 0.  1.
</event>
<event>
 5    1  0.1572996E-008  0.3700160E+03  0.7957747E-01  0.3495817E+00
         13   -1    0    0    0    0  0.00000000000E+00  0.00000000000E+00  0.14999999963E+04  0.15000000000E+04  0.10566000000E+00 0.  1.
        994   -1    0    0    0    0 -0.00000000000E+00 -0.00000000000E+00  0.11368683772E-12  0.17120000000E+03  0.17120000000E+03 0.  0.
         13    1    1    2    0    0  0.53062517126E+02  0.82310820055E+02  0.52429494800E+03  0.53336282724E+03  0.10566000000E+00 0.  1.
        994    1    1    2    0    0 -0.36100385905E+01 -0.65545989458E+02  0.24311079974E+02  0.18495885413E+03  0.17120000000E+03 0.  0.
        998    1    1    2    0    0 -0.49452478535E+02 -0.16764830597E+02  0.95139396831E+03  0.95287831863E+03  0.10000000000E+02 0.  1.
</event>
<event>
 5    1  0.1572996E-008  0.3830412E+03  0.7957747E-01  0.3438022E+00
         13   -1    0    0    0    0  0.00000000000E+00  0.00000000000E+00  0.14999999963E+04  0.15000000000E+04  0.10566000000E+00 0. -1.
        994   -1    0    0    0    0 -0.00000000000E+00 -0.00000000000E+00  0.11368683772E-12  0.17120000000E+03  0.17120000000E+03 0.  0.
         13    1    1    2    0    0  0.86177868123E+01  0.15152838427E+02  0.54450756087E+02  0.57173164723E+02  0.10566000000E+00 0. -1.
        994    1    1    2    0    0 -0.73689119791E+01 -0.22512815920E+02  0.44651434800E+01  0.17288870770E+03  0.17120000000E+03 0.  0.
        998    1    1    2    0    0 -0.12488748332E+01  0.73599774926E+01  0.14410840967E+04  0.14411381276E+04  0.10000000000E+02 0. -1.
</event>
<event>
 5    1  0.1572996E-008  0.3849734E+03  0.7957747E-01  0.3429785E+00
         13   -1    0    0    0    0  0.00000000000E+00  0.00000000000E+00  0.14999999963E+04  0.15000000000E+04  0.10566000000E+00 0.  1.
        994   -1    0    0    0    0 -0.00000000000E+00 -0.00000000000E+00  0.11368683772E-12  0.17120000000E+03  0.17120000000E+03 0.  0.
         13    1    1    2    0    0  0.61053281864E+01 -0.21361671551E+02  0.13113574064E+03  0.13300447241E+03  0.10566000000E+00 0.  1.
        994    1    1    2    0    0  0.76851809286E+01  0.33116861528E+02  0.54539124075E+01  0.17462810107E+03  0.17120000000E+03 0.  0.
        998    1    1    2    0    0 -0.13790509115E+02 -0.11755189976E+02  0.13634103432E+04  0.13635674265E+04  0.10000000000E+02 0.  1.
</event>
<event>
 5    1  0.1572996E-008  0.3759408E+03  0.7957747E-01  0.3469026E+00
         13   -1    0    0    0    0  0.00000000000E+00  0.00000000000E+00  0.14999999963E+04  0.15000000000E+04  0.10566000000E+00 0. -1.
        994   -1    0    0    0    0 -0.00000000000E+00 -0.00000000000E+00  0.11368683772E-12  0.17120000000E+03  0.17120000000E+03 0.  0.
         13    1    1    2    0    0 -0.50200361959E+02 -0.10968987398E+02  0.27393393171E+03  0.27871168818E+03  0.10566000000E+00 0. -1.
        994    1    1    2    0    0 -0.64437641003E+01  0.10076300631E+02  0.66812703028E+01  0.17174729489E+03  0.17120000000E+03 0.  0.
        998    1    1    2    0    0  0.56644126059E+02  0.89268676712E+00  0.12193847943E+04  0.12207410169E+04  0.10000000000E+02 0. -1.
</event>
<event>
 5    1  0.1572996E-008  0.3787532E+03  0.7957747E-01  0.3456605E+00
         13   -1    0    0    0    0  0.00000000000E+00  0.00000000000E+00  0.14999999963E+04  0.15000000000E+04  0.10566000000E+00 0. -1.
        994   -1    0    0    0    0 -0.00000000000E+00 -0.00000000000E+00  0.11368683772E-12  0.17120000000E+03  0.17120000000E+03 0.  0.
         13    1    1    2    0    0 -0.19953824625E+02  0.54177613656E+01  0.45798252223E+02  0.50249361449E+02  0.10566000000E+00 0. -1.
        994    1    1    2    0    0 -0.57381030975E+01 -0.38933443710E+01  0.49252584619E+01  0.17141114937E+03  0.17120000000E+03 0.  0.
        998    1    1    2    0    0  0.25691927722E+02 -0.15244169946E+01  0.14492764856E+04  0.14495394892E+04  0.10000000000E+02 0. -1.
</event>
<event>
 5    1  0.1572996E-008  0.3838975E+03  0.7957747E-01  0.3434362E+00
         13   -1    0    0    0    0  0.00000000000E+00  0.00000000000E+00  0.14999999963E+04  0.15000000000E+04  0.10566000000E+00 0. -1.
        994   -1    0    0    0    0 -0.00000000000E+00 -0.00000000000E+00  0.11368683772E-12  0.17120000000E+03  0.17120000000E+03 0.  0.
         13    1    1    2    0    0 -0.16514232597E+02 -0.63286368424E+01  0.72511558561E+02  0.74637181160E+02  0.10566000000E+00 0. -1.
        994    1    1    2    0    0  0.75719878024E+01  0.42765265747E+01  0.24281551236E+01  0.17143791767E+03  0.17120000000E+03 0.  0.
        998    1    1    2    0    0  0.89422447943E+01  0.20521102676E+01  0.14250602826E+04  0.14251249012E+04  0.10000000000E+02 0. -1.
</event>
<event>
 5    1  0.1572996E-008  0.3756256E+03  0.7957747E-01  0.3470430E+00
         13   -1    0    0    0    0  0.00000000000E+00  0.00000000000E+00  0.14999999963E+04  0.15000000000E+04  0.10566000000E+00 0. -1.
        994   -1    0    0    0    0 -0.00000000000E+00 -0.00000000000E+00  0.11368683772E-12  0.17120000000E+03  0.17120000000E+03 0.  0.
         13    1    1    2    0    0  0.14203483196E+02  0.34649364510E+02  0.10216843469E+03  0.10881506149E+03  0.10566000000E+00 0. -1.
        994    1    1    2    0    0 -0.21755618070E+02 -0.29693385567E+02  0.10967894643E+02  0.17545580292E+03  0.17120000000E+03 0.  0.
        998    1    1    2    0    0  0.75521348741E+01 -0.49559789430E+01  0.13868636669E+04  0.13869291356E+04  0.10000000000E+02 0. -1.
</event>
<event>
 5    1  0.1572996E-008  0.3806697E+03  0.7957747E-01  0.3448248E+00
         13   -1    0    0    0    0  0.00000000000E+00  0.00000000000E+00  0.14999999963E+04  0.15000000000E+04  0.10566000000E+00 0.  1.
        994   -1    0    0    0    0 -0.00000000000E+00 -0.00000000000E+00  0.11368683772E-12  0.17120000000E+03  0.17120000000E+03 0.  0.
         13    1    1    2    0    0 -0.11806775205E+02  0.44485521517E+01  0.18969992681E+02  0.22782917797E+02  0.10566000000E+00 0.  1.
        994    1    1    2    0    0  0.17007889520E+02 -0.34214380795E+01  0.48000140979E+01  0.17214370357E+03  0.17120000000E+03 0.  0.
        998    1    1    2    0    0 -0.52011143143E+01 -0.10271140722E+01  0.14762299895E+04  0.14762733786E+04  0.10000000000E+02 0.  1.
</event>
<event>
 5    1  0.1572996E-008  0.3819596E+03  0.7957747E-01  0.3442670E+00
         13   -1    0    0    0    0  0.00000000000E+00  0.00000000000E+00  0.14999999963E+04  0.15000000000E+04  0.10566000000E+00 0.  1.
        994   -1    0    0    0    0 -0.00000000000E+00 -0.00000000000E+00  0.11368683772E-12  0.17120000000E+03  0.17120000000E+03 0.  0.
         13    1    1    2    0    0 -0.21654502826E+02 -0.95982100594E+01  0.10298659124E+03  0.10567540995E+03  0.10566000000E+00 0.  1.
        994    1    1    2    0    0 -0.89960271406E+01 -0.72696200480E+01  0.35916570640E+01  0.17162784122E+03  0.17120000000E+03 0.  0.
        998    1    1    2    0    0  0.30650529966E+02  0.16867830107E+02  0.13934217480E+04  0.13938967488E+04  0.10000000000E+02 0.  1.
</event>
<event>
 5    1  0.1572996E-008  0.3853982E+03  0.7957747E-01  0.3427985E+00
         13   -1    0    0    0    0  0.00000000000E+00  0.00000000000E+00  0.14999999963E+04  0.15000000000E+04  0.10566000000E+00 0.  1.
        994   -1    0    0    0    0 -0.00000000000E+00 -0.00000000000E+00  0.11368683772E-12  0.17120000000E+03  0.17120000000E+03 0.  0.
         13    1    1    2    0    0 -0.12020601391E+02  0.13395949397E+02  0.10134827266E+03  0.10293410442E+03  0.10566000000E+00 0.  1.
        994    1    1    2    0    0  0.24032791761E+02 -0.12483141190E+02  0.38450558644E+01  0.17337135965E+03  0.17120000000E+03 0.  0.
        998    1    1    2    0    0 -0.12012190369E+02 -0.91280820693E+00  0.13948066678E+04  0.13948945359E+04  0.10000000000E+02 0.  1.
</event>
<event>
 5    1  0.1572996E-008  0.3743679E+03  0.7957747E-01  0.3476055E+00
         13   -1    0    0    0    0  0.00000000000E+00  0.00000000000E+00  0.14999999963E+04  0.15000000000E+04  0.10566000000E+00 0. -1.
        994   -1    0    0    0    0 -0.00000000000E+00 -0.00000000000E+00  0.11368683772E-12  0.17120000000E+03  0.17120000000E+03 0.  0.
         13    1    1    2    0    0 -0.77081054365E+02 -0.12973879506E+02  0.29738791905E+03  0.30748885517E+03  0.10566000000E+00 0. -1.
        994    1    1    2    0    0  0.96593603198E+02  0.19444288630E+02  0.40831118258E+02  0.20170529184E+03  0.17120000000E+03 0.  0.
        998    1    1    2    0    0 -0.19512548833E+02 -0.64704091237E+01  0.11617809590E+04  0.11620058530E+04  0.10000000000E+02 0. -1.
</event>
<event>
 5    1  0.1572996E-008  0.3822779E+03  0.7957747E-01  0.3441299E+00
         13   -1    0    0    0    0  0.00000000000E+00  0.00000000000E+00  0.14999999963E+04  0.15000000000E+04  0.10566000000E+00 0.  1.
        994   -1    0    0    0    0 -0.00000000000E+00 -0.00000000000E+00  0.11368683772E-12  0.17120000000E+03  0.17120000000E+03 0.  0.
         13    1    1    2    0    0 -0.90188933660E+01  0.53713457888E+01  0.17347822645E+02  0.20276831796E+02  0.10566000000E+00 0.  1.
        994    1    1    2    0    0  0.31314677069E+01 -0.53122893662E+01  0.31138336282E+01  0.17133931968E+03  0.17120000000E+03 0.  0.
        998    1    1    2    0    0  0.58874256591E+01 -0.59056422617E-01  0.14795383400E+04  0.14795838485E+04  0.10000000000E+02 0.  1.
</event>
<event>
 5    1  0.1572996E-008  0.3850260E+03  0.7957747E-01  0.3429562E+00
         13   -1    0    0    0    0  0.00000000000E+00  0.00000000000E+00  0.14999999963E+04  0.15000000000E+04  0.10566000000E+00 0. -1.
        994   -1    0    0    0    0 -0.00000000000E+00 -0.00000000000E+00  0.11368683772E-12  0.17120000000E+03  0.17120000000E+03 0.  0.
         13    1    1    2    0    0  0.13563543767E+02  0.96884217020E+01  0.82224458377E+02  0.83897008016E+02  0.10566000000E+00 0. -1.
        994    1    1    2    0    0 -0.18733679116E+02 -0.33252332875E+01  0.28085508009E+01  0.17227691623E+03  0.17120000000E+03 0.  0.
        998    1    1    2    0    0  0.51701353488E+01 -0.63631884145E+01  0.14149669871E+04  0.14150260757E+04  0.10000000000E+02 0. -1.
</event>
<event>
 5    1  0.1572996E-008  0.3711131E+03  0.7957747E-01  0.3490791E+00
         13   -1    0    0    0    0  0.00000000000E+00  0.00000000000E+00  0.14999999963E+04  0.15000000000E+04  0.10566000000E+00 0. -1.
        994   -1    0    0    0    0 -0.00000000000E+00 -0.00000000000E+00  0.11368683772E-12  0.17120000000E+03  0.17120000000E+03 0.  0.
         13    1    1    2    0    0 -0.38657252548E+02 -0.51095349077E+02  0.15977393046E+03  0.17214191207E+03  0.10566000000E+00 0. -1.
        994    1    1    2    0    0  0.76767479883E+01  0.68999328561E+02  0.28642382462E+02  0.18694829733E+03  0.17120000000E+03 0.  0.
        998    1    1    2    0    0  0.30980504559E+02 -0.17903979484E+02  0.13115836834E+04  0.13121097906E+04  0.10000000000E+02 0. -1.
</event>
<event>
 5    1  0.1572996E-008  0.3854369E+03  0.7957747E-01  0.3427821E+00
         13   -1    0    0    0    0  0.00000000000E+00  0.00000000000E+00  0.14999999963E+04  0.15000000000E+04  0.10566000000E+00 0.  1.
        994   -1    0    0    0    0 -0.00000000000E+00 -0.00000000000E+00  0.11368683772E-12  0.17120000000E+03  0.17120000000E+03 0.  0.
         13    1    1    2    0    0 -0.13940335487E+02 -0.50436051746E+01  0.74514815388E+02  0.75975257702E+02  0.10566000000E+00 0.  1.
        994    1    1    2    0    0  0.16373209983E+02  0.25129204289E+01  0.23150044291E+01  0.17201510405E+03  0.17120000000E+03 0.  0.
        998    1    1    2    0    0 -0.24328744964E+01  0.25306847458E+01  0.14231701765E+04  0.14232096383E+04  0.10000000000E+02 0.  1.
</event>
<event>
 5    1  0.1572996E-008  0.3758156E+03  0.7957747E-01  0.3469583E+00
         13   -1    0    0    0    0  0.00000000000E+00  0.00000000000E+00  0.14999999963E+04  0.15000000000E+04  0.10566000000E+00 0.  1.
        994   -1    0    0    0    0 -0.00000000000E+00 -0.00000000000E+00  0.11368683772E-12  0.17120000000E+03  0.17120000000E+03 0.  0.
         13    1    1    2    0    0 -0.38793949596E+02  0.65927714148E+02  0.33899473772E+03  0.34751816842E+03  0.10566000000E+00 0.  1.
        994    1    1    2    0    0  0.29386370432E+02 -0.79640887720E+02  0.31094046149E+02  0.19360400169E+03  0.17120000000E+03 0.  0.
        998    1    1    2    0    0  0.94075791639E+01  0.13713173572E+02  0.11299112124E+04  0.11300778299E+04  0.10000000000E+02 0.  1.
</event>
<event>
 5    1  0.1572996E-008  0.3854004E+03  0.7957747E-01  0.3427976E+00
         13   -1    0    0    0    0  0.00000000000E+00  0.00000000000E+00  0.14999999963E+04  0.15000000000E+04  0.10566000000E+00 0.  1.
        994   -1    0    0    0    0 -0.00000000000E+00 -0.00000000000E+00  0.11368683772E-12  0.17120000000E+03  0.17120000000E+03 0.  0.
         13    1    1    2    0    0 -0.61140016219E+01  0.15254854179E+02  0.83248167147E+02  0.84854935562E+02  0.10566000000E+00 0.  1.
        994    1    1    2    0    0  0.63061176518E+01 -0.27650951699E+02  0.40776893209E+01  0.17358113319E+03  0.17120000000E+03 0.  0.
        998    1    1    2    0    0 -0.19211602991E+00  0.12396097521E+02  0.14126741398E+04  0.14127639312E+04  0.10000000000E+02 0.  1.
</event>
<event>
 5    1  0.1572996E-008  0.3815539E+03  0.7957747E-01  0.3444420E+00
         13   -1    0    0    0    0  0.00000000000E+00  0.00000000000E+00  0.14999999963E+04  0.15000000000E+04  0.10566000000E+00 0.  1.
        994   -1    0    0    0    0 -0.00000000000E+00 -0.00000000000E+00  0.11368683772E-12  0.17120000000E+03  0.17120000000E+03 0.  0.
         13    1    1    2    0    0  0.28174433993E+01 -0.25223320725E+02  0.92270677193E+02  0.95697664180E+02  0.10566000000E+00 0.  1.
        994    1    1    2    0    0 -0.68659548557E+01  0.20443432650E+02  0.48990771809E+01  0.17262246734E+03  0.17120000000E+03 0.  0.
        998    1    1    2    0    0  0.40485114564E+01  0.47798880754E+01  0.14028302419E+04  0.14028798685E+04  0.10000000000E+02 0.  1.
</event>
<event>
 5    1  0.1572996E-008  0.3852756E+03  0.7957747E-01  0.3428504E+00
         13   -1    0    0    0    0  0.00000000000E+00  0.00000000000E+00  0.14999999963E+04  0.15000000000E+04  0.10566000000E+00 0.  1.
        994   -1    0    0    0    0 -0.00000000000E+00 -0.00000000000E+00  0.11368683772E-12  0.17120000000E+03  0.17120000000E+03 0.  0.
         13    1    1    2    0    0  0.17291708994E+02 -0.71062427743E+01  0.11150273039E+03  0.11305915237E+03  0.10566000000E+00 0.  1.
        994    1    1    2    0    0 -0.16227102837E+02  0.71816624149E+01  0.25286923198E+01  0.17213578776E+03  0.17120000000E+03 0.  0.
        998    1    1    2    0    0 -0.10646061569E+01 -0.75419640618E-01  0.13859685736E+04  0.13860050599E+04  0.10000000000E+02 0.  0.
</event>
<event>
 5    1  0.1572996E-008  0.3768772E+03  0.7957747E-01  0.3464870E+00
         13   -1    0    0    0    0  0.00000000000E+00  0.00000000000E+00  0.14999999963E+04  0.15000000000E+04  0.10566000000E+00 0.  1.
        994   -1    0    0    0    0 -0.00000000000E+00 -0.00000000000E+00  0.11368683772E-12  0.17120000000E+03  0.17120000000E+03 0.  0.
         13    1    1    2    0    0 -0.12290148139E+02  0.13551674977E+02  0.26758039547E+02  0.32414494912E+02  0.10566000000E+00 0.  1.
        994    1    1    2    0    0  0.14186227276E+02 -0.67104220699E+01  0.65502291467E+01  0.17204250728E+03  0.17120000000E+03 0.  0.
        998    1    1    2    0    0 -0.18960791365E+01 -0.68412529076E+01  0.14666917276E+04  0.14667429978E+04  0.10000000000E+02 0.  1.
</event>
<event>
 5    1  0.1572996E-008  0.3731168E+03  0.7957747E-01  0.3481688E+00
         13   -1    0    0    0    0  0.00000000000E+00  0.00000000000E+00  0.14999999963E+04  0.15000000000E+04  0.10566000000E+00 0.  1.
        994   -1    0    0    0    0 -0.00000000000E+00 -0.00000000000E+00  0.11368683772E-12  0.17120000000E+03  0.17120000000E+03 0.  0.
         13    1    1    2    0    0 -0.25328540469E+02 -0.30213404114E+01  0.38058375907E+02  0.45816095435E+02  0.10566000000E+00 0.  1.
        994    1    1    2    0    0  0.31113608863E+02 -0.55397086641E+01  0.11073232182E+02  0.17444426474E+03  0.17120000000E+03 0.  0.
        998    1    1    2    0    0 -0.57850683938E+01  0.85610490755E+01  0.14508683882E+04  0.14509396398E+04  0.10000000000E+02 0.  1.
</event>
<event>
 5    1  0.1572996E-008  0.3837086E+03  0.7957747E-01  0.3435168E+00
         13   -1    0    0    0    0  0.00000000000E+00  0.00000000000E+00  0.14999999963E+04  0.15000000000E+04  0.10566000000E+00 0. -1.
        994   -1    0    0    0    0 -0.00000000000E+00 -0.00000000000E+00  0.11368683772E-12  0.17120000000E+03  0.17120000000E+03 0.  0.
         13    1    1    2    0    0 -0.13716840729E+02  0.79767543576E+01  0.60447548395E+02  0.62495580649E+02  0.10566000000E+00 0. -1.
        994    1    1    2    0    0 -0.17211170414E+02 -0.14817730094E+02  0.39778939154E+01  0.17274563135E+03  0.17120000000E+03 0.  0.
        998    1    1    2    0    0  0.30928011143E+02  0.68409757360E+01  0.14355745540E+04  0.14359587880E+04  0.10000000000E+02 0. -1.
</event>
<event>
 5    1  0.1572996E-008  0.3764691E+03  0.7957747E-01  0.3466679E+00
         13   -1    0    0    0    0  0.00000000000E+00  0.00000000000E+00  0.14999999963E+04  0.15000000000E+04  0.10566000000E+00 0.  1.
        994   -1    0    0    0    0 -0.00000000000E+00 -0.00000000000E+00  0.11368683772E-12  0.17120000000E+03  0.17120000000E+03 0.  0.
         13    1    1    2    0    0  0.79375292699E+02  0.76353519076E+02  0.31921005378E+03  0.33767642287E+03  0.10566000000E+00 0.  1.
        994    1    1    2    0    0 -0.78722161096E+02 -0.79172561415E+02  0.60458097581E+02  0.21314336652E+03  0.17120000000E+03 0.  0.
        998    1    1    2    0    0 -0.65313160356E+00  0.28190423385E+01  0.11203318449E+04  0.11203802106E+04  0.10000000000E+02 0.  0.
</event>
<event>
 5    1  0.1572996E-008  0.3760570E+03  0.7957747E-01  0.3468509E+00
         13   -1    0    0    0    0  0.00000000000E+00  0.00000000000E+00  0.14999999963E+04  0.15000000000E+04  0.10566000000E+00 0.  1.
        994   -1    0    0    0    0 -0.00000000000E+00 -0.00000000000E+00  0.11368683772E-12  0.17120000000E+03  0.17120000000E+03 0.  0.
         13    1    1    2    0    0  0.54867013883E+01 -0.10953748646E+02  0.92999459744E+01  0.15381438837E+02  0.10566000000E+00 0.  1.
        994    1    1    2    0    0 -0.10342222968E+01  0.17836980941E+02  0.72189529510E+01  0.17228110978E+03  0.17120000000E+03 0.  0.
        998    1    1    2    0    0 -0.44524790915E+01 -0.68832322953E+01  0.14834810974E+04  0.14835374514E+04  0.10000000000E+02 0.  1.
</event>
<event>
 5    1  0.1572996E-008  0.3739388E+03  0.7957747E-01  0.3477983E+00
         13   -1    0    0    0    0  0.00000000000E+00  0.00000000000E+00  0.14999999963E+04  0.15000000000E+04  0.10566000000E+00 0.  1.
        994   -1    0    0    0    0 -0.00000000000E+00 -0.00000000000E+00  0.11368683772E-12  0.17120000000E+03  0.17120000000E+03 0.  0.
         13    1    1    2    0    0 -0.19346445382E+01  0.42793631166E+02  0.65132258273E+02  0.77956782576E+02  0.10566000000E+00 0.  1.
        994    1    1    2    0    0 -0.13460276079E+02 -0.32140393659E+02  0.17353225351E+02  0.17556981052E+03  0.17120000000E+03 0.  0.
        998    1    1    2    0    0  0.15394920617E+02 -0.10653237508E+02  0.14175145127E+04  0.14176734069E+04  0.10000000000E+02 0.  1.
</event>
<event>
 5    1  0.1572996E-008  0.3715078E+03  0.7957747E-01  0.3488990E+00
         13   -1    0    0    0    0  0.00000000000E+00  0.00000000000E+00  0.14999999963E+04  0.15000000000E+04  0.10566000000E+00 0.  1.
        994   -1    0    0    0    0 -0.00000000000E+00 -0.00000000000E+00  0.11368683772E-12  0.17120000000E+03  0.17120000000E+03 0.  0.
         13    1    1    2    0    0 -0.57302449549E+02  0.92716651911E+02  0.38221502184E+03  0.39745223908E+03  0.10566000000E+00 0.  1.
        994    1    1    2    0    0  0.10090968505E+03 -0.10684345541E+03  0.86881124739E+02  0.24177687718E+03  0.17120000000E+03 0.  0.
        998    1    1    2    0    0 -0.43607235503E+02  0.14126803501E+02  0.10309038497E+04  0.10319708837E+04  0.10000000000E+02 0.  1.
</event>
<event>
 5    1  0.1572996E-008  0.3724009E+03  0.7957747E-01  0.3484929E+00
         13   -1    0    0    0    0  0.00000000000E+00  0.00000000000E+00  0.14999999963E+04  0.15000000000E+04  0.10566000000E+00 0. -1.
        994   -1    0    0    0    0 -0.00000000000E+00 -0.00000000000E+00  0.11368683772E-12  0.17120000000E+03  0.17120000000E+03 0.  0.
         13    1    1    2    0    0 -0.42431947438E+01  0.13433176336E+02  0.87627056598E+01  0.16590693253E+02  0.10566000000E+00 0. -1.
        994    1    1    2    0    0 -0.57235235169E+01 -0.12210856147E+02  0.86434137519E+01  0.17194770231E+03  0.17120000000E+03 0.  0.
        998    1    1    2    0    0  0.99667182607E+01 -0.12223201895E+01  0.14825938769E+04  0.14826616044E+04  0.10000000000E+02 0. -1.
</event>
<event>
 5    1  0.1572996E-008  0.3761515E+03  0.7957747E-01  0.3468089E+00
         13   -1    0    0    0    0  0.00000000000E+00  0.00000000000E+00  0.14999999963E+04  0.15000000000E+04  0.10566000000E+00 0.  1.
        994   -1    0    0    0    0 -0.00000000000E+00 -0.00000000000E+00  0.11368683772E-12  0.17120000000E+03  0.17120000000E+03 0.  0.
         13    1    1    2    0    0  0.16251598012E+02 -0.35060193686E+02  0.97787422086E+02  0.10514619680E+03  0.10566000000E+00 0.  1.
        994    1    1    2    0    0 -0.21307843534E+02  0.69469031966E+02  0.24181589365E+02  0.18754775355E+03  0.17120000000E+03 0.  0.
        998    1    1    2    0    0  0.50562455219E+01 -0.34408838280E+02  0.13780309848E+04  0.13785060496E+04  0.10000000000E+02 0.  1.
</event>
<event>
 5    1  0.1572996E-008  0.3825067E+03  0.7957747E-01  0.3440316E+00
         13   -1    0    0    0    0  0.00000000000E+00  0.00000000000E+00  0.14999999963E+04  0.15000000000E+04  0.10566000000E+00 0.  1.
        994   -1    0    0    0    0 -0.00000000000E+00 -0.00000000000E+00  0.11368683772E-12  0.17120000000E+03  0.17120000000E+03 0.  0.
         13    1    1    2    0    0  0.14587576531E+02  0.26843419931E+02  0.14249539519E+03  0.14573371400E+03  0.10566000000E+00 0.  1.
        994    1    1    2    0    0 -0.20716572097E+02 -0.29517474981E+02  0.71966976209E+01  0.17510479761E+03  0.17120000000E+03 0.  0.
        998    1    1    2    0    0  0.61289955657E+01  0.26740550503E+01  0.13503079035E+04  0.13503614884E+04  0.10000000000E+02 0.  1.
</event>
<event>
 5    1  0.1572996E-008  0.3851343E+03  0.7957747E-01  0.3429103E+00
         13   -1    0    0    0    0  0.00000000000E+00  0.00000000000E+00  0.14999999963E+04  0.15000000000E+04  0.10566000000E+00 0. -1.
        994   -1    0    0    0    0 -0.00000000000E+00 -0.00000000000E+00  0.11368683772E-12  0.17120000000E+03  0.17120000000E+03 0.  0.
         13    1    1    2    0    0  0.14455663720E+02  0.31503482168E+01  0.68622199310E+02  0.70199062028E+02  0.10566000000E+00 0. -1.
        994    1    1    2    0    0 -0.11592464636E+02 -0.78747234154E+01  0.22093585310E+01  0.17178683818E+03  0.17120000000E+03 0.  0.
        998    1    1    2    0    0 -0.28631990840E+01  0.47243751985E+01  0.14291684384E+04  0.14292140998E+04  0.10000000000E+02 0. -1.
</event>
<event>
 5    1  0.1601257E-008  0.3862382E+03  0.7957747E-01  0.3424438E+00
         13   -1    0    0    0    0  0.00000000000E+00  0.00000000000E+00  0.14999999963E+04  0.15000000000E+04  0.10566000000E+00 0.  1.
        994   -1    0    0    0    0 -0.00000000000E+00 -0.00000000000E+00  0.11368683772E-12  0.17120000000E+03  0.17120000000E+03 0.  0.
         13    1    1    2    0    0 -0.11870096034E+02 -0.13826190290E+01  0.71797887918E+02  0.72785703876E+02  0.10566000000E+00 0.  1.
        994    1    1    2    0    0  0.81402701270E+01 -0.69590452587E+01  0.13924033308E+01  0.17154029001E+03  0.17120000000E+03 0.  0.
        998    1    1    2    0    0  0.37298259068E+01  0.83416642877E+01  0.14268097050E+04  0.14268740061E+04  0.10000000000E+02 0.  1.
</event>
<event>
 5    1  0.1572996E-008  0.3771885E+03  0.7957747E-01  0.3463493E+00
         13   -1    0    0    0    0  0.00000000000E+00  0.00000000000E+00  0.14999999963E+04  0.15000000000E+04  0.10566000000E+00 0.  1.
        994   -1    0    0    0    0 -0.00000000000E+00 -0.00000000000E+00  0.11368683772E-12  0.17120000000E+03  0.17120000000E+03 0.  0.
         13    1    1    2    0    0 -0.17277283683E+02  0.51679635310E+02  0.87680148852E+02  0.10323327421E+03  0.10566000000E+00 0.  1.
        994    1    1    2    0    0  0.34559299717E+02 -0.54510168676E+02  0.29887359225E+02  0.18538715686E+03  0.17120000000E+03 0.  0.
        998    1    1    2    0    0 -0.17282016034E+02  0.28305333666E+01  0.13824324882E+04  0.13825795689E+04  0.10000000000E+02 0.  1.
</event>
<event>
 5    1  0.1572996E-008  0.3743786E+03  0.7957747E-01  0.3476006E+00
         13   -1    0    0    0    0  0.00000000000E+00  0.00000000000E+00  0.14999999963E+04  0.15000000000E+04  0.10566000000E+00 0.  1.
        994   -1    0    0    0    0 -0.00000000000E+00 -0.00000000000E+00  0.11368683772E-12  0.17120000000E+03  0.17120000000E+03 0.  0.
         13    1    1    2    0    0  0.46214096984E+02  0.73191574617E-01  0.14457535956E+03  0.15178206044E+03  0.10566000000E+00 0.  1.
        994    1    1    2    0    0 -0.35222116405E+02 -0.61659964344E+01  0.11366005033E+02  0.17526335346E+03  0.17120000000E+03 0.  0.
        998    1    1    2    0    0 -0.10991980579E+02  0.60928048598E+01  0.13440586317E+04  0.13441545861E+04  0.10000000000E+02 0.  1.
</event>
<event>
 5    1  0.1572996E-008  0.3840226E+03  0.7957747E-01  0.3433828E+00
         13   -1    0    0    0    0  0.00000000000E+00  0.00000000000E+00  0.14999999963E+04  0.15000000000E+04  0.10566000000E+00 0.  1.
        994   -1    0    0    0    0 -0.00000000000E+00 -0.00000000000E+00  0.11368683772E-12  0.17120000000E+03  0.17120000000E+03 0.  0.
         13    1    1    2    0    0  0.75209682280E+01  0.10650188638E+02  0.36439263037E+02  0.38701712312E+02  0.10566000000E+00 0.  1.
        994    1    1    2    0    0 -0.37831840705E+02 -0.86227603647E+01  0.70991724177E+01  0.17568562382E+03  0.17120000000E+03 0.  0.
        998    1    1    2    0    0  0.30310872477E+02 -0.20274282732E+01  0.14564615608E+04  0.14568126639E+04  0.10000000000E+02 0.  1.
</event>
<event>
 5    1  0.1572996E-008  0.3804754E+03  0.7957747E-01  0.3449091E+00
         13   -1    0    0    0    0  0.00000000000E+00  0.00000000000E+00  0.14999999963E+04  0.15000000000E+04  0.10566000000E+00 0. -1.
        994   -1    0    0    0    0 -0.00000000000E+00 -0.00000000000E+00  0.11368683772E-12  0.17120000000E+03  0.17120000000E+03 0.  0.
         13    1    1    2    0    0 -0.18845672887E+02  0.58578276135E+00  0.47294078963E+02  0.50914080537E+02  0.10566000000E+00 0. -1.
        994    1    1    2    0    0 -0.52881023431E+01  0.70860486764E+01  0.41543465436E+01  0.17147849634E+03  0.17120000000E+03 0.  0.
        998    1    1    2    0    0  0.24133775230E+02 -0.76718314377E+01  0.14485515708E+04  0.14488074231E+04  0.10000000000E+02 0. -1.
</event>
<event>
 5    1  0.1572996E-008  0.3946869E+03  0.7957747E-01  0.3389600E+00
         13   -1    0    0    0    0  0.00000000000E+00  0.00000000000E+00  0.14999999963E+04  0.15000000000E+04  0.10566000000E+00 0. -1.
        994   -1    0    0    0    0 -0.00000000000E+00 -0.00000000000E+00  0.11368683772E-12  0.17120000000E+03  0.17120000000E+03 0.  0.
         13    1    1    2    0    0  0.98422850206E+01  0.64935276418E+02  0.79000862123E+02  0.10273562225E+03  0.10566000000E+00 0. -1.
        994    1    1    2    0    0 -0.10458703605E+01 -0.50263094716E+02  0.34389079374E+02  0.18171274395E+03  0.17120000000E+03 0.  0.
        998    1    1    2    0    0 -0.87964146601E+01 -0.14672181702E+02  0.13866100548E+04  0.13867516338E+04  0.10000000000E+02 0. -1.
</event>
<event>
 5    1  0.1572996E-008  0.3728482E+03  0.7957747E-01  0.3482903E+00
         13   -1    0    0    0    0  0.00000000000E+00  0.00000000000E+00  0.14999999963E+04  0.15000000000E+04  0.10566000000E+00 0. -1.
        994   -1    0    0    0    0 -0.00000000000E+00 -0.00000000000E+00  0.11368683772E-12  0.17120000000E+03  0.17120000000E+03 0.  0.
         13    1    1    2    0    0 -0.22655326529E+02  0.13222079113E+02  0.40307793387E+02  0.48091751558E+02  0.10566000000E+00 0. -1.
        994    1    1    2    0    0  0.22751463825E+02 -0.93748515747E+01  0.98640041982E+01  0.17324045580E+03  0.17120000000E+03 0.  0.
        998    1    1    2    0    0 -0.96137295642E-01 -0.38472275381E+01  0.14498281987E+04  0.14498677926E+04  0.10000000000E+02 0. -1.
</event>
<event>
 5    1  0.1572996E-008  0.3722670E+03  0.7957747E-01  0.3485537E+00
         13   -1    0    0    0    0  0.00000000000E+00  0.00000000000E+00  0.14999999963E+04  0.15000000000E+04  0.10566000000E+00 0. -1.
        994   -1    0    0    0    0 -0.00000000000E+00 -0.00000000000E+00  0.11368683772E-12  0.17120000000E+03  0.17120000000E+03 0.  0.
         13    1    1    2    0    0  0.42404654506E+02  0.56420538752E+01  0.64915442926E+02  0.77743253019E+02  0.10566000000E+00 0. -1.
        994    1    1    2    0    0 -0.55360559415E+02 -0.24830108979E+02  0.25231029012E+02  0.18337767224E+03  0.17120000000E+03 0.  0.
        998    1    1    2    0    0  0.12955904909E+02  0.19188055104E+02  0.14098535243E+04  0.14100790747E+04  0.10000000000E+02 0. -1.
</event>
<event>
 5    1  0.1572996E-008  0.3749566E+03  0.7957747E-01  0.3473417E+00
         13   -1    0    0    0    0  0.00000000000E+00  0.00000000000E+00  0.14999999963E+04  0.15000000000E+04  0.10566000000E+00 0.  1.
        994   -1    0    0    0    0 -0.00000000000E+00 -0.00000000000E+00  0.11368683772E-12  0.17120000000E+03  0.17120000000E+03 0.  0.
         13    1    1    2    0    0 -0.21863046719E+03 -0.14296433538E+03  0.12054428736E+04  0.12334223182E+04  0.10566000000E+00 0.  1.
        994    1    1    2    0    0  0.19791331836E+03  0.14749612725E+03  0.27184387541E+03  0.40513370846E+03  0.17120000000E+03 0.  0.
        998    1    1    2    0    0  0.20717148828E+02 -0.45317918685E+01  0.22713247272E+02  0.32643973330E+02  0.10000000000E+02 0.  1.
</event>
<event>
 5    1  0.1572996E-008  0.3849398E+03  0.7957747E-01  0.3429928E+00
         13   -1    0    0    0    0  0.00000000000E+00  0.00000000000E+00  0.14999999963E+04  0.15000000000E+04  0.10566000000E+00 0. -1.
        994   -1    0    0    0    0 -0.00000000000E+00 -0.00000000000E+00  0.11368683772E-12  0.17120000000E+03  0.17120000000E+03 0.  0.
         13    1    1    2    0    0 -0.12105509118E+02 -0.10716067151E+02  0.89403923386E+02  0.90854004464E+02  0.10566000000E+00 0. -1.
        994    1    1    2    0    0 -0.18111905167E+01 -0.74977329337E+01  0.18557595308E+01  0.17138372225E+03  0.17120000000E+03 0.  0.
        998    1    1    2    0    0  0.13916699635E+02  0.18213800085E+02  0.14087403134E+04  0.14089622733E+04  0.10000000000E+02 0. -1.
</event>
<event>
 5    1  0.1572996E-008  0.3855634E+03  0.7957747E-01  0.3427286E+00
         13   -1    0    0    0    0  0.00000000000E+00  0.00000000000E+00  0.14999999963E+04  0.15000000000E+04  0.10566000000E+00 0.  1.
        994   -1    0    0    0    0 -0.00000000000E+00 -0.00000000000E+00  0.11368683772E-12  0.17120000000E+03  0.17120000000E+03 0.  0.
         13    1    1    2    0    0 -0.11839957845E+02  0.53521029275E+01  0.62670829489E+02  0.64003700209E+02  0.10566000000E+00 0.  1.
        994    1    1    2    0    0  0.61773710025E+01 -0.84511184547E+01  0.17104757565E+01  0.17152826893E+03  0.17120000000E+03 0.  0.
        998    1    1    2    0    0  0.56625868422E+01  0.30990155272E+01  0.14356186910E+04  0.14356680309E+04  0.10000000000E+02 0.  1.
</event>
<event>
 5    1  0.1572996E-008  0.3825271E+03  0.7957747E-01  0.3440228E+00
         13   -1    0    0    0    0  0.00000000000E+00  0.00000000000E+00  0.14999999963E+04  0.15000000000E+04  0.10566000000E+00 0.  1.
        994   -1    0    0    0    0 -0.00000000000E+00 -0.00000000000E+00  0.11368683772E-12  0.17120000000E+03  0.17120000000E+03 0.  0.
         13    1    1    2    0    0  0.10086922672E+02  0.16794046221E+01  0.16535090992E+02  0.19441882806E+02  0.10566000000E+00 0.  1.
        994    1    1    2    0    0 -0.21821438681E+02  0.11466888719E+02  0.48800511668E+01  0.17303444635E+03  0.17120000000E+03 0.  0.
        998    1    1    2    0    0  0.11734516009E+02 -0.13146293341E+02  0.14785848541E+04  0.14787236708E+04  0.10000000000E+02 0.  1.
</event>
<event>
 5    1  0.1572996E-008  0.3773290E+03  0.7957747E-01  0.3462872E+00
         13   -1    0    0    0    0  0.00000000000E+00  0.00000000000E+00  0.14999999963E+04  0.15000000000E+04  0.10566000000E+00 0. -1.
        994   -1    0    0    0    0 -0.00000000000E+00 -0.00000000000E+00  0.11368683772E-12  0.17120000000E+03  0.17120000000E+03 0.  0.
         13    1    1    2    0    0  0.12097328207E+02  0.11368301241E+01  0.10867615488E+02  0.16301961934E+02  0.10566000000E+00 0. -1.
        994    1    1    2    0    0 -0.14266101144E+02 -0.10522893618E+00  0.61743226221E+01  0.17190431924E+03  0.17120000000E+03 0.  0.
        998    1    1    2    0    0  0.21687729371E+01 -0.10316011880E+01  0.14829580582E+04  0.14829937188E+04  0.10000000000E+02 0. -1.
</event>
<event>
 5    1  0.1572996E-008  0.3685805E+03  0.7957747E-01  0.3502440E+00
         13   -1    0    0    0    0  0.00000000000E+00  0.00000000000E+00  0.14999999963E+04  0.15000000000E+04  0.10566000000E+00 0. -1.
        994   -1    0    0    0    0 -0.00000000000E+00 -0.00000000000E+00  0.11368683772E-12  0.17120000000E+03  0.17120000000E+03 0.  0.
         13    1    1    2    0    0 -0.31971750646E+01  0.19922742492E+03  0.75977433469E+03  0.78546727467E+03  0.10566000000E+00 0. -1.
        994    1    1    2    0    0 -0.30148333762E+02 -0.20299030459E+03  0.17505927507E+03  0.31948266866E+03  0.17120000000E+03 0.  0.
        998    1    1    2    0    0  0.33345508826E+02  0.37628796720E+01  0.56516638652E+03  0.56625005667E+03  0.10000000000E+02 0. -1.
</event>
<event>
 5    1  0.1572996E-008  0.3741692E+03  0.7957747E-01  0.3476947E+00
         13   -1    0    0    0    0  0.00000000000E+00  0.00000000000E+00  0.14999999963E+04  0.15000000000E+04  0.10566000000E+00 0. -1.
        994   -1    0    0    0    0 -0.00000000000E+00 -0.00000000000E+00  0.11368683772E-12  0.17120000000E+03  0.17120000000E+03 0.  0.
         13    1    1    2    0    0 -0.64802819931E+02 -0.23300022731E+02  0.19049797714E+03  0.20256304448E+03  0.10566000000E+00 0. -1.
        994    1    1    2    0    0  0.27261502388E+02 -0.37632266330E+01  0.15852104504E+02  0.17412087929E+03  0.17120000000E+03 0.  0.
        998    1    1    2    0    0  0.37541317543E+02  0.27063249364E+02  0.12936499146E+04  0.12945160762E+04  0.10000000000E+02 0. -1.
</event>
<event>
 5    1  0.1572996E-008  0.3785447E+03  0.7957747E-01  0.3457520E+00
         13   -1    0    0    0    0  0.00000000000E+00  0.00000000000E+00  0.14999999963E+04  0.15000000000E+04  0.10566000000E+00 0.  1.
        994   -1    0    0    0    0 -0.00000000000E+00 -0.00000000000E+00  0.11368683772E-12  0.17120000000E+03  0.17120000000E+03 0.  0.
         13    1    1    2    0    0  0.90583531109E+01  0.65552372653E+01  0.10708442832E+02  0.15482467782E+02  0.10566000000E+00 0.  1.
        994    1    1    2    0    0 -0.44558234464E+01 -0.49765141212E+01  0.50194604817E+01  0.17140377778E+03  0.17120000000E+03 0.  0.
        998    1    1    2    0    0 -0.46025296645E+01 -0.15787231441E+01  0.14842720930E+04  0.14843137544E+04  0.10000000000E+02 0.  1.
</event>
<event>
 5    1  0.2211797E-008  0.3861279E+03  0.7957747E-01  0.3424903E+00
         13   -1    0    0    0    0  0.00000000000E+00  0.00000000000E+00  0.14999999963E+04  0.15000000000E+04  0.10566000000E+00 0. -1.
        994   -1    0    0    0    0 -0.00000000000E+00 -0.00000000000E+00  0.11368683772E-12  0.17120000000E+03  0.17120000000E+03 0.  0.
         13    1    1    2    0    0  0.66614794052E+01  0.10071578286E+02  0.65624723164E+02  0.66726512357E+02  0.10566000000E+00 0. -1.
        994    1    1    2    0    0 -0.64168464806E+01 -0.13188978229E+02  0.17764188417E+01  0.17183631959E+03  0.17120000000E+03 0.  0.
        998    1    1    2    0    0 -0.24463292462E+00  0.31173999430E+01  0.14325988543E+04  0.14326371681E+04  0.10000000000E+02 0. -1.
</event>
<event>
 5    1  0.1572996E-008  0.3863156E+03  0.7957747E-01  0.3424112E+00
         13   -1    0    0    0    0  0.00000000000E+00  0.00000000000E+00  0.14999999963E+04  0.15000000000E+04  0.10566000000E+00 0.  1.
        994   -1    0    0    0    0 -0.00000000000E+00 -0.00000000000E+00  0.11368683772E-12  0.17120000000E+03  0.17120000000E+03 0.  0.
         13    1    1    2    0    0 -0.16794613088E+01 -0.13858144176E+02  0.81662437484E+02  0.82847049496E+02  0.10566000000E+00 0.  1.
        994    1    1    2    0    0  0.13915493308E+02  0.32492996729E+02  0.50805843377E+01  0.17488478530E+03  0.17120000000E+03 0.  0.
        998    1    1    2    0    0 -0.12236032000E+02 -0.18634852554E+02  0.14132569745E+04  0.14134681652E+04  0.10000000000E+02 0.  1.
</event>
<event>
 5    1  0.1572996E-008  0.3759865E+03  0.7957747E-01  0.3468823E+00
         13   -1    0    0    0    0  0.00000000000E+00  0.00000000000E+00  0.14999999963E+04  0.15000000000E+04  0.10566000000E+00 0.  1.
        994   -1    0    0    0    0 -0.00000000000E+00 -0.00000000000E+00  0.11368683772E-12  0.17120000000E+03  0.17120000000E+03 0.  0.
         13    1    1    2    0    0 -0.17405743119E+02  0.92699182389E+02  0.52149918591E+03  0.52995991394E+03  0.10566000000E+00 0.  1.
        994    1    1    2    0    0  0.18841332930E+02 -0.82233198180E+02  0.30680449210E+02  0.19330810814E+03  0.17120000000E+03 0.  0.
        998    1    1    2    0    0 -0.14355898101E+01 -0.10465984209E+02  0.94782036116E+03  0.94793197792E+03  0.10000000000E+02 0.  1.
</event>
<event>
 5    1  0.1572996E-008  0.3799326E+03  0.7957747E-01  0.3451452E+00
         13   -1    0    0    0    0  0.00000000000E+00  0.00000000000E+00  0.14999999963E+04  0.15000000000E+04  0.10566000000E+00 0. -1.
        994   -1    0    0    0    0 -0.00000000000E+00 -0.00000000000E+00  0.11368683772E-12  0.17120000000E+03  0.17120000000E+03 0.  0.
         13    1    1    2    0    0 -0.60677645031E+02 -0.72681733691E+00  0.34098302815E+03  0.34634049939E+03  0.10566000000E+00 0. -1.
        994    1    1    2    0    0  0.60974450862E+02  0.31360686246E+01  0.16733752558E+02  0.18252993469E+03  0.17120000000E+03 0.  0.
        998    1    1    2    0    0 -0.29680583149E+00 -0.24092512877E+01  0.11422832156E+04  0.11423295659E+04  0.10000000000E+02 0.  0.
</event>
<event>
 5    1  0.1572996E-008  0.3833633E+03  0.7957747E-01  0.3436644E+00
         13   -1    0    0    0    0  0.00000000000E+00  0.00000000000E+00  0.14999999963E+04  0.15000000000E+04  0.10566000000E+00 0.  1.
        994   -1    0    0    0    0 -0.00000000000E+00 -0.00000000000E+00  0.11368683772E-12  0.17120000000E+03  0.17120000000E+03 0.  0.
         13    1    1    2    0    0  0.52500731635E+01  0.13202186268E+02  0.42898297814E+02  0.45190000109E+02  0.10566000000E+00 0.  1.
        994    1    1    2    0    0  0.64098890360E+01  0.95552462868E+00  0.25838061699E+01  0.17134210154E+03  0.17120000000E+03 0.  0.
        998    1    1    2    0    0 -0.11659962199E+02 -0.14157710896E+02  0.14545178923E+04  0.14546678984E+04  0.10000000000E+02 0.  1.
</event>
<event>
 5    1  0.1572996E-008  0.3780366E+03  0.7957747E-01  0.3459752E+00
         13   -1    0    0    0    0  0.00000000000E+00  0.00000000000E+00  0.14999999963E+04  0.15000000000E+04  0.10566000000E+00 0.  1.
        994   -1    0    0    0    0 -0.00000000000E+00 -0.00000000000E+00  0.11368683772E-12  0.17120000000E+03  0.17120000000E+03 0.  0.
         13    1    1    2    0    0  0.30081207719E+01 -0.10462226716E+02  0.93210907749E+01  0.14331813413E+02  0.10566000000E+00 0.  1.
        994    1    1    2    0    0  0.11094419229E+01  0.50444915268E+01  0.52173042722E+01  0.17135734014E+03  0.17120000000E+03 0.  0.
        998    1    1    2    0    0 -0.41175626948E+01  0.54177351892E+01  0.14854616012E+04  0.14855108464E+04  0.10000000000E+02 0.  1.
</event>
<event>
 5    1  0.1572996E-008  0.3839726E+03  0.7957747E-01  0.3434041E+00
         13   -1    0    0    0    0  0.00000000000E+00  0.00000000000E+00  0.14999999963E+04  0.15000000000E+04  0.10566000000E+00 0.  1.
        994   -1    0    0    0    0 -0.00000000000E+00 -0.00000000000E+00  0.11368683772E-12  0.17120000000E+03  0.17120000000E+03 0.  0.
         13    1    1    2    0    0  0.14685988900E+02  0.19386820549E+02  0.13599179320E+03  0.13814957858E+03  0.10566000000E+00 0.  1.
        994    1    1    2    0    0 -0.89168801661E+01 -0.13741492401E+02  0.30270068164E+01  0.17200855251E+03  0.17120000000E+03 0.  0.
        998    1    1    2    0    0 -0.57691087341E+01 -0.56453281486E+01  0.13609811963E+04  0.13610418689E+04  0.10000000000E+02 0.  1.
</event>
<event>
 5    1  0.1572996E-008  0.3851057E+03  0.7957747E-01  0.3429224E+00
         13   -1    0    0    0    0  0.00000000000E+00  0.00000000000E+00  0.14999999963E+04  0.15000000000E+04  0.10566000000E+00 0. -1.
        994   -1    0    0    0    0 -0.00000000000E+00 -0.00000000000E+00  0.11368683772E-12  0.17120000000E+03  0.17120000000E+03 0.  0.
         13    1    1    2    0    0  0.67427482107E+01  0.13723744329E+02  0.73867441963E+02  0.75433520122E+02  0.10566000000E+00 0. -1.
        994    1    1    2    0    0 -0.29338845639E+01 -0.10445066043E+02  0.19647264204E+01  0.17155467710E+03  0.17120000000E+03 0.  0.
        998    1    1    2    0    0 -0.38088636468E+01 -0.32786782866E+01  0.14241678279E+04  0.14242118028E+04  0.10000000000E+02 0. -1.
</event>
<event>
 5    1  0.1572996E-008  0.3359334E+03  0.7957747E-01  0.3668775E+00
         13   -1    0    0    0    0  0.00000000000E+00  0.00000000000E+00  0.14999999963E+04  0.15000000000E+04  0.10566000000E+00 0.  1.
        994   -1    0    0    0    0 -0.00000000000E+00 -0.00000000000E+00  0.11368683772E-12  0.17120000000E+03  0.17120000000E+03 0.  0.
         13    1    1    2    0    0 -0.14462226386E+03  0.18837910511E+03  0.92619251150E+03  0.95615629788E+03  0.10566000000E+00 0.  1.
        994    1    1    2    0    0  0.13438918885E+03 -0.13268920603E+03  0.16823723817E+03  0.30541789041E+03  0.17120000000E+03 0.  0.
        998    1    1    2    0    0  0.10233075004E+02 -0.55689899088E+02  0.40557024661E+03  0.40962581171E+03  0.10000000000E+02 0.  1.
</event>
<event>
 5    1  0.1572996E-008  0.3763383E+03  0.7957747E-01  0.3467259E+00
         13   -1    0    0    0    0  0.00000000000E+00  0.00000000000E+00  0.14999999963E+04  0.15000000000E+04  0.10566000000E+00 0. -1.
        994   -1    0    0    0    0 -0.00000000000E+00 -0.00000000000E+00  0.11368683772E-12  0.17120000000E+03  0.17120000000E+03 0.  0.
         13    1    1    2    0    0 -0.37739175305E+02 -0.19880216544E+02  0.18026432977E+03  0.18524229570E+03  0.10566000000E+00 0. -1.
        994    1    1    2    0    0 -0.87998405264E+01  0.50533996314E+01  0.63416012084E+01  0.17161768541E+03  0.17120000000E+03 0.  0.
        998    1    1    2    0    0  0.46539015831E+02  0.14826816913E+02  0.13133940653E+04  0.13143400189E+04  0.10000000000E+02 0. -1.
</event>
<event>
 5    1  0.1572996E-008  0.3845179E+03  0.7957747E-01  0.3431719E+00
         13   -1    0    0    0    0  0.00000000000E+00  0.00000000000E+00  0.14999999963E+04  0.15000000000E+04  0.10566000000E+00 0.  1.
        994   -1    0    0    0    0 -0.00000000000E+00 -0.00000000000E+00  0.11368683772E-12  0.17120000000E+03  0.17120000000E+03 0.  0.
         13    1    1    2    0    0 -0.76483432125E+01  0.85883397254E+01  0.37194381363E+02  0.38931862300E+02  0.10566000000E+00 0.  1.
        994    1    1    2    0    0 -0.27216741189E+02 -0.17925471895E+02  0.53757817771E+01  0.17435714087E+03  0.17120000000E+03 0.  0.
        998    1    1    2    0    0  0.34865084402E+02  0.93371321700E+01  0.14574298331E+04  0.14579109968E+04  0.10000000000E+02 0.  1.
</event>
<event>
 5    1  0.1572996E-008  0.3846813E+03  0.7957747E-01  0.3431025E+00
         13   -1    0    0    0    0  0.00000000000E+00  0.00000000000E+00  0.14999999963E+04  0.15000000000E+04  0.10566000000E+00 0. -1.
        994   -1    0    0    0    0 -0.00000000000E+00 -0.00000000000E+00  0.11368683772E-12  0.17120000000E+03  0.17120000000E+03 0.  0.
         13    1    1    2    0    0 -0.12617000992E+02 -0.16241396347E+02  0.10428794373E+03  0.10629655705E+03  0.10566000000E+00 0. -1.
        994    1    1    2    0    0  0.16828496405E+02  0.24298027275E+02  0.46696501618E+01  0.17379539135E+03  0.17120000000E+03 0.  0.
        998    1    1    2    0    0 -0.42114954130E+01 -0.80566309284E+01  0.13910424024E+04  0.13911080516E+04  0.10000000000E+02 0. -1.
</event>
<event>
 5    1  0.1572996E-008  0.3859107E+03  0.7957747E-01  0.3425819E+00
         13   -1    0    0    0    0  0.00000000000E+00  0.00000000000E+00  0.14999999963E+04  0.15000000000E+04  0.10566000000E+00 0. -1.
        994   -1    0    0    0    0 -0.00000000000E+00 -0.00000000000E+00  0.11368683772E-12  0.17120000000E+03  0.17120000000E+03 0.  0.
         13    1    1    2    0    0 -0.10055257902E+02 -0.12070961797E+02  0.88297163343E+02  0.89683981561E+02  0.10566000000E+00 0. -1.
        994    1    1    2    0    0  0.30718397859E+02  0.16130595659E+02  0.51359088497E+01  0.17475592592E+03  0.17120000000E+03 0.  0.
        998    1    1    2    0    0 -0.20663139957E+02 -0.40596338618E+01  0.14065669241E+04  0.14067600925E+04  0.10000000000E+02 0. -1.
</event>
<event>
 5    1  0.1572996E-008  0.3840677E+03  0.7957747E-01  0.3433636E+00
         13   -1    0    0    0    0  0.00000000000E+00  0.00000000000E+00  0.14999999963E+04  0.15000000000E+04  0.10566000000E+00 0. -1.
        994   -1    0    0    0    0 -0.00000000000E+00 -0.00000000000E+00  0.11368683772E-12  0.17120000000E+03  0.17120000000E+03 0.  0.
         13    1    1    2    0    0 -0.13773454058E+01 -0.26215531492E+02  0.13348603811E+03  0.13604295169E+03  0.10566000000E+00 0. -1.
        994    1    1    2    0    0  0.60042337646E+01  0.42104120396E+02  0.80832591489E+01  0.17658875065E+03  0.17120000000E+03 0.  0.
        998    1    1    2    0    0 -0.46268883588E+01 -0.15888588905E+02  0.13584306990E+04  0.13585682977E+04  0.10000000000E+02 0. -1.
</event>
<event>
 5    1  0.1572996E-008  0.3735783E+03  0.7957747E-01  0.3479606E+00
         13   -1    0    0    0    0  0.00000000000E+00  0.00000000000E+00  0.14999999963E+04  0.15000000000E+04  0.10566000000E+00 0.  1.
        994   -1    0    0    0    0 -0.00000000000E+00 -0.00000000000E+00  0.11368683772E-12  0.17120000000E+03  0.17120000000E+03 0.  0.
         13    1    1    2    0    0 -0.32336638060E+02 -0.48497242969E+02  0.33058218907E+03  0.33568174754E+03  0.10566000000E+00 0.  1.
        994    1    1    2    0    0 -0.28840456144E+02  0.54907795566E+01  0.10360229327E+02  0.17400774386E+03  0.17120000000E+03 0.  0.
        998    1    1    2    0    0  0.61177094204E+02  0.43006463413E+02  0.11590575779E+04  0.11615105086E+04  0.10000000000E+02 0.  1.
</event>
<event>
 5    1  0.1572996E-008  0.3838971E+03  0.7957747E-01  0.3434363E+00
         13   -1    0    0    0    0  0.00000000000E+00  0.00000000000E+00  0.14999999963E+04  0.15000000000E+04  0.10566000000E+00 0. -1.
        994   -1    0    0    0    0 -0.00000000000E+00 -0.00000000000E+00  0.11368683772E-12  0.17120000000E+03  0.17120000000E+03 0.  0.
         13    1    1    2    0    0 -0.22851010198E+02  0.95644049769E+00  0.10084704507E+03  0.10340803213E+03  0.10566000000E+00 0. -1.
        994    1    1    2    0    0  0.39319247918E+02 -0.11648532946E+02  0.77488860370E+01  0.17621344106E+03  0.17120000000E+03 0.  0.
        998    1    1    2    0    0 -0.16468237721E+02  0.10692092448E+02  0.13914040652E+04  0.13915785268E+04  0.10000000000E+02 0. -1.
</event>
<event>
 5    1  0.1572996E-008  0.3717218E+03  0.7957747E-01  0.3488015E+00
         13   -1    0    0    0    0  0.00000000000E+00  0.00000000000E+00  0.14999999963E+04  0.15000000000E+04  0.10566000000E+00 0.  1.
        994   -1    0    0    0    0 -0.00000000000E+00 -0.00000000000E+00  0.11368683772E-12  0.17120000000E+03  0.17120000000E+03 0.  0.
         13    1    1    2    0    0  0.42198793244E+02 -0.34979854194E+02  0.20771055127E+03  0.21482088498E+03  0.10566000000E+00 0.  1.
        994    1    1    2    0    0 -0.20977253655E+02 -0.18592520261E+02  0.11077339012E+02  0.17383289223E+03  0.17120000000E+03 0.  0.
        998    1    1    2    0    0 -0.21221539589E+02  0.53572374456E+02  0.12812121060E+04  0.12825462228E+04  0.10000000000E+02 0.  1.
</event>
<event>
 5    1  0.1572996E-008  0.3705619E+03  0.7957747E-01  0.3493313E+00
         13   -1    0    0    0    0  0.00000000000E+00  0.00000000000E+00  0.14999999963E+04  0.15000000000E+04  0.10566000000E+00 0.  1.
        994   -1    0    0    0    0 -0.00000000000E+00 -0.00000000000E+00  0.11368683772E-12  0.17120000000E+03  0.17120000000E+03 0.  0.
         13    1    1    2    0    0  0.58259192938E+02 -0.41477115313E+02  0.26561928167E+03  0.27507834995E+03  0.10566000000E+00 0.  1.
        994    1    1    2    0    0 -0.23820442781E+02 -0.11076936910E+02  0.13657359466E+02  0.17374140408E+03  0.17120000000E+03 0.  0.
        998    1    1    2    0    0 -0.34438750157E+02  0.52554052223E+02  0.12207233551E+04  0.12223802460E+04  0.10000000000E+02 0.  1.
</event>
<event>
 5    1  0.1572996E-008  0.3766055E+03  0.7957747E-01  0.3466074E+00
         13   -1    0    0    0    0  0.00000000000E+00  0.00000000000E+00  0.14999999963E+04  0.15000000000E+04  0.10566000000E+00 0. -1.
        994   -1    0    0    0    0 -0.00000000000E+00 -0.00000000000E+00  0.11368683772E-12  0.17120000000E+03  0.17120000000E+03 0.  0.
         13    1    1    2    0    0  0.39576667277E+01  0.51717970921E+02  0.19934694029E+03  0.20598452711E+03  0.10566000000E+00 0. -1.
        994    1    1    2    0    0 -0.15216830756E+02 -0.50512620218E+02  0.15324456596E+02  0.17979809707E+03  0.17120000000E+03 0.  0.
        998    1    1    2    0    0  0.11259164028E+02 -0.12053507026E+01  0.12853285994E+04  0.12854173758E+04  0.10000000000E+02 0. -1.
</event>
<event>
 5    1  0.1572996E-008  0.3856471E+03  0.7957747E-01  0.3426932E+00
         13   -1    0    0    0    0  0.00000000000E+00  0.00000000000E+00  0.14999999963E+04  0.15000000000E+04  0.10566000000E+00 0. -1.
        994   -1    0    0    0    0 -0.00000000000E+00 -0.00000000000E+00  0.11368683772E-12  0.17120000000E+03  0.17120000000E+03 0.  0.
         13    1    1    2    0    0  0.56294030563E+01  0.92644280863E+01  0.42854252924E+02  0.44204275407E+02  0.10566000000E+00 0. -1.
        994    1    1    2    0    0 -0.98097546400E+01 -0.13284484547E+02  0.22046912517E+01  0.17200874826E+03  0.17120000000E+03 0.  0.
        998    1    1    2    0    0  0.41803515836E+01  0.40200564609E+01  0.14549410521E+04  0.14549869763E+04  0.10000000000E+02 0. -1.
</event>
<event>
 5    1  0.1572996E-008  0.3850098E+03  0.7957747E-01  0.3429631E+00
         13   -1    0    0    0    0  0.00000000000E+00  0.00000000000E+00  0.14999999963E+04  0.15000000000E+04  0.10566000000E+00 0.  1.
        994   -1    0    0    0    0 -0.00000000000E+00 -0.00000000000E+00  0.11368683772E-12  0.17120000000E+03  0.17120000000E+03 0.  0.
         13    1    1    2    0    0 -0.18875283817E+02 -0.34149852653E+01  0.11276175312E+03  0.11438165322E+03  0.10566000000E+00 0.  1.
        994    1    1    2    0    0  0.10186993930E+02  0.16958846803E+02  0.29134029851E+01  0.17236387454E+03  0.17120000000E+03 0.  0.
        998    1    1    2    0    0  0.86882898871E+01 -0.13543861538E+02  0.13843248402E+04  0.13844544722E+04  0.10000000000E+02 0.  1.
</event>
<event>
 5    1  0.1572996E-008  0.3365385E+03  0.7957747E-01  0.3665388E+00
         13   -1    0    0    0    0  0.00000000000E+00  0.00000000000E+00  0.14999999963E+04  0.15000000000E+04  0.10566000000E+00 0. -1.
        994   -1    0    0    0    0 -0.00000000000E+00 -0.00000000000E+00  0.11368683772E-12  0.17120000000E+03  0.17120000000E+03 0.  0.
         13    1    1    2    0    0 -0.26510027931E+03  0.42831015768E+00  0.68803006180E+03  0.73733555363E+03  0.10566000000E+00 0. -1.
        994    1    1    2    0    0  0.27659846126E+03 -0.21836541976E+01  0.37421350011E+03  0.49583934977E+03  0.17120000000E+03 0.  0.
        998    1    1    2    0    0 -0.11498181958E+02  0.17553440399E+01  0.43775643436E+03  0.43802509660E+03  0.10000000000E+02 0. -1.
</event>
<event>
 5    1  0.1572996E-008  0.3751012E+03  0.7957747E-01  0.3472770E+00
         13   -1    0    0    0    0  0.00000000000E+00  0.00000000000E+00  0.14999999963E+04  0.15000000000E+04  0.10566000000E+00 0. -1.
        994   -1    0    0    0    0 -0.00000000000E+00 -0.00000000000E+00  0.11368683772E-12  0.17120000000E+03  0.17120000000E+03 0.  0.
         13    1    1    2    0    0 -0.12184830507E+02 -0.50015332137E+02  0.16441572778E+03  0.17228623348E+03  0.10566000000E+00 0. -1.
        994    1    1    2    0    0  0.12471388922E+02  0.63715688311E+02  0.21087740809E+02  0.18430777870E+03  0.17120000000E+03 0.  0.
        998    1    1    2    0    0 -0.28655841511E+00 -0.13700356174E+02  0.13144965277E+04  0.13146059878E+04  0.10000000000E+02 0. -1.
</event>
<event>
 5    1  0.1572996E-008  0.3834473E+03  0.7957747E-01  0.3436284E+00
         13   -1    0    0    0    0  0.00000000000E+00  0.00000000000E+00  0.14999999963E+04  0.15000000000E+04  0.10566000000E+00 0.  1.
        994   -1    0    0    0    0 -0.00000000000E+00 -0.00000000000E+00  0.11368683772E-12  0.17120000000E+03  0.17120000000E+03 0.  0.
         13    1    1    2    0    0 -0.22915140527E+02  0.17688243819E+02  0.16302421180E+03  0.16557440150E+03  0.10566000000E+00 0.  1.
        994    1    1    2    0    0  0.26173148708E+02 -0.69631054156E+01  0.48312401045E+01  0.17339636510E+03  0.17120000000E+03 0.  0.
        998    1    1    2    0    0 -0.32580081804E+01 -0.10725138403E+02  0.13321445444E+04  0.13322292334E+04  0.10000000000E+02 0.  1.
</event>
<event>
 5    1  0.1572996E-008  0.3799148E+03  0.7957747E-01  0.3451530E+00
         13   -1    0    0    0    0  0.00000000000E+00  0.00000000000E+00  0.14999999963E+04  0.15000000000E+04  0.10566000000E+00 0.  1.
        994   -1    0    0    0    0 -0.00000000000E+00 -0.00000000000E+00  0.11368683772E-12  0.17120000000E+03  0.17120000000E+03 0.  0.
         13    1    1    2    0    0  0.10497629057E+02 -0.30103354536E+02  0.24964900732E+02  0.40492833968E+02  0.10566000000E+00 0.  1.
        994    1    1    2    0    0 -0.47513359384E+01  0.17390199242E+02  0.17458581454E+02  0.17302958212E+03  0.17120000000E+03 0.  0.
        998    1    1    2    0    0 -0.57462931189E+01  0.12713155294E+02  0.14575765141E+04  0.14576775839E+04  0.10000000000E+02 0.  1.
</event>
<event>
 5    1  0.1572996E-008  0.3809988E+03  0.7957747E-01  0.3446821E+00
         13   -1    0    0    0    0  0.00000000000E+00  0.00000000000E+00  0.14999999963E+04  0.15000000000E+04  0.10566000000E+00 0.  1.
        994   -1    0    0    0    0 -0.00000000000E+00 -0.00000000000E+00  0.11368683772E-12  0.17120000000E+03  0.17120000000E+03 0.  0.
         13    1    1    2    0    0  0.51252904136E+00 -0.18116730565E+02  0.43406265296E+02  0.47038214713E+02  0.10566000000E+00 0.  1.
        994    1    1    2    0    0 -0.11222537627E+01  0.15099163549E+02  0.43940163603E+01  0.17192437748E+03  0.17120000000E+03 0.  0.
        998    1    1    2    0    0  0.60972472132E+00  0.30175670164E+01  0.14521997146E+04  0.14522374078E+04  0.10000000000E+02 0.  1.
</event>
<event>
 5    1  0.1572996E-008  0.3759107E+03  0.7957747E-01  0.3469160E+00
         13   -1    0    0    0    0  0.00000000000E+00  0.00000000000E+00  0.14999999963E+04  0.15000000000E+04  0.10566000000E+00 0. -1.
        994   -1    0    0    0    0 -0.00000000000E+00 -0.00000000000E+00  0.11368683772E-12  0.17120000000E+03  0.17120000000E+03 0.  0.
         13    1    1    2    0    0  0.27191311427E+02 -0.46271454515E+02  0.24186689268E+03  0.24774991394E+03  0.10566000000E+00 0. -1.
        994    1    1    2    0    0 -0.44884881516E+02  0.28819424753E+01  0.13098173444E+02  0.17749355010E+03  0.17120000000E+03 0.  0.
        998    1    1    2    0    0  0.17693570089E+02  0.43389512040E+02  0.12450349302E+04  0.12459565360E+04  0.10000000000E+02 0. -1.
</event>
<event>
 5    1  0.1572996E-008  0.3832829E+03  0.7957747E-01  0.3436987E+00
         13   -1    0    0    0    0  0.00000000000E+00  0.00000000000E+00  0.14999999963E+04  0.15000000000E+04  0.10566000000E+00 0.  1.
        994   -1    0    0    0    0 -0.00000000000E+00 -0.00000000000E+00  0.11368683772E-12  0.17120000000E+03  0.17120000000E+03 0.  0.
         13    1    1    2    0    0  0.93296898456E+01 -0.55896389106E+01  0.22746679614E+02  0.25213285650E+02  0.10566000000E+00 0.  1.
        994    1    1    2    0    0 -0.88088194764E+01  0.47229662995E+01  0.28154910211E+01  0.17151463116E+03  0.17120000000E+03 0.  0.
        998    1    1    2    0    0 -0.52087036920E+00  0.86667261119E+00  0.14744378256E+04  0.14744720832E+04  0.10000000000E+02 0.  0.
</event>
<event>
 5    1  0.1572996E-008  0.3778225E+03  0.7957747E-01  0.3460695E+00
         13   -1    0    0    0    0  0.00000000000E+00  0.00000000000E+00  0.14999999963E+04  0.15000000000E+04  0.10566000000E+00 0. -1.
        994   -1    0    0    0    0 -0.00000000000E+00 -0.00000000000E+00  0.11368683772E-12  0.17120000000E+03  0.17120000000E+03 0.  0.
         13    1    1    2    0    0 -0.12661471067E+02 -0.97305056168E+01  0.23285011628E+02  0.28234704172E+02  0.10566000000E+00 0. -1.
        994    1    1    2    0    0  0.30043190426E+01 -0.17134698837E+02  0.62560261632E+01  0.17219524297E+03  0.17120000000E+03 0.  0.
        998    1    1    2    0    0  0.96571520245E+01  0.26865204454E+02  0.14704589585E+04  0.14707700529E+04  0.10000000000E+02 0. -1.
</event>
<event>
 5    1  0.1572996E-008  0.3794203E+03  0.7957747E-01  0.3453687E+00
         13   -1    0    0    0    0  0.00000000000E+00  0.00000000000E+00  0.14999999963E+04  0.15000000000E+04  0.10566000000E+00 0.  1.
        994   -1    0    0    0    0 -0.00000000000E+00 -0.00000000000E+00  0.11368683772E-12  0.17120000000E+03  0.17120000000E+03 0.  0.
         13    1    1    2    0    0 -0.38615298535E+01  0.26764598664E+02  0.86592271682E+02  0.90716524589E+02  0.10566000000E+00 0.  1.
        994    1    1    2    0    0  0.72274734369E+01 -0.16425384789E+01  0.46100936327E+01  0.17142236513E+03  0.17120000000E+03 0.  0.
        998    1    1    2    0    0 -0.33659435833E+01 -0.25122060185E+02  0.14087976310E+04  0.14090611103E+04  0.10000000000E+02 0.  1.
</event>
<event>
 5    1  0.1572996E-008  0.3808315E+03  0.7957747E-01  0.3447546E+00
         13   -1    0    0    0    0  0.00000000000E+00  0.00000000000E+00  0.14999999963E+04  0.15000000000E+04  0.10566000000E+00 0.  1.
        994   -1    0    0    0    0 -0.00000000000E+00 -0.00000000000E+00  0.11368683772E-12  0.17120000000E+03  0.17120000000E+03 0.  0.
         13    1    1    2    0    0 -0.22787749101E+01  0.13088934619E+02  0.22111283511E+02  0.25795988973E+02  0.10566000000E+00 0.  1.
        994    1    1    2    0    0 -0.11762671289E+02 -0.13759319128E+02  0.48071658384E+01  0.17222145088E+03  0.17120000000E+03 0.  0.
        998    1    1    2    0    0  0.14041446199E+02  0.67038450850E+00  0.14730815469E+04  0.14731825602E+04  0.10000000000E+02 0.  1.
</event>
<event>
 5    1  0.1572996E-008  0.3767162E+03  0.7957747E-01  0.3465583E+00
         13   -1    0    0    0    0  0.00000000000E+00  0.00000000000E+00  0.14999999963E+04  0.15000000000E+04  0.10566000000E+00 0. -1.
        994   -1    0    0    0    0 -0.00000000000E+00 -0.00000000000E+00  0.11368683772E-12  0.17120000000E+03  0.17120000000E+03 0.  0.
         13    1    1    2    0    0  0.65988060443E+02 -0.54486895500E+01  0.30058246075E+03  0.30778878994E+03  0.10566000000E+00 0. -1.
        994    1    1    2    0    0 -0.65853802945E+02  0.11378160504E+02  0.21046310646E+02  0.18498262916E+03  0.17120000000E+03 0.  0.
        998    1    1    2    0    0 -0.13425749827E+00 -0.59294709539E+01  0.11783712249E+04  0.11784285809E+04  0.10000000000E+02 0. -1.
</event>
<event>
 5    1  0.1572996E-008  0.3709569E+03  0.7957747E-01  0.3491504E+00
         13   -1    0    0    0    0  0.00000000000E+00  0.00000000000E+00  0.14999999963E+04  0.15000000000E+04  0.10566000000E+00 0. -1.
        994   -1    0    0    0    0 -0.00000000000E+00 -0.00000000000E+00  0.11368683772E-12  0.17120000000E+03  0.17120000000E+03 0.  0.
         13    1    1    2    0    0  0.62476869115E+02 -0.70384305884E+01  0.24384057118E+03  0.25181567465E+03  0.10566000000E+00 0. -1.
        994    1    1    2    0    0 -0.20174563326E+02  0.12728959769E+02  0.10733274018E+02  0.17318684301E+03  0.17120000000E+03 0.  0.
        998    1    1    2    0    0 -0.42302305789E+02 -0.56905291802E+01  0.12454261511E+04  0.12461974823E+04  0.10000000000E+02 0.  1.
</event>
<event>
 5    1  0.1572996E-008  0.3784451E+03  0.7957747E-01  0.3457957E+00
         13   -1    0    0    0    0  0.00000000000E+00  0.00000000000E+00  0.14999999963E+04  0.15000000000E+04  0.10566000000E+00 0. -1.
        994   -1    0    0    0    0 -0.00000000000E+00 -0.00000000000E+00  0.11368683772E-12  0.17120000000E+03  0.17120000000E+03 0.  0.
         13    1    1    2    0    0 -0.48432555884E+02  0.56219043896E+02  0.41343004564E+03  0.42003655456E+03  0.10566000000E+00 0. -1.
        994    1    1    2    0    0  0.35647740749E+02 -0.65057038354E+02  0.23640234841E+02  0.18807307187E+03  0.17120000000E+03 0.  0.
        998    1    1    2    0    0  0.12784815135E+02  0.88379944580E+01  0.10629297158E+04  0.10630903736E+04  0.10000000000E+02 0. -1.
</event>
<event>
 5    1  0.1572996E-008  0.3763933E+03  0.7957747E-01  0.3467015E+00
         13   -1    0    0    0    0  0.00000000000E+00  0.00000000000E+00  0.14999999963E+04  0.15000000000E+04  0.10566000000E+00 0.  1.
        994   -1    0    0    0    0 -0.00000000000E+00 -0.00000000000E+00  0.11368683772E-12  0.17120000000E+03  0.17120000000E+03 0.  0.
         13    1    1    2    0    0 -0.15881752519E+02 -0.23746430267E+02  0.66152566246E+02  0.72057589458E+02  0.10566000000E+00 0.  1.
        994    1    1    2    0    0  0.32857190281E+02  0.18453808011E+00  0.96263476280E+01  0.17459019324E+03  0.17120000000E+03 0.  0.
        998    1    1    2    0    0 -0.16975437761E+02  0.23561892187E+02  0.14242210824E+04  0.14245522173E+04  0.10000000000E+02 0.  1.
</event>
<event>
 5    1  0.1572996E-008  0.3857745E+03  0.7957747E-01  0.3426394E+00
         13   -1    0    0    0    0  0.00000000000E+00  0.00000000000E+00  0.14999999963E+04  0.15000000000E+04  0.10566000000E+00 0.  1.
        994   -1    0    0    0    0 -0.00000000000E+00 -0.00000000000E+00  0.11368683772E-12  0.17120000000E+03  0.17120000000E+03 0.  0.
         13    1    1    2    0    0  0.83750177939E+01  0.65580359337E+01  0.47024054410E+02  0.48212255865E+02  0.10566000000E+00 0.  1.
        994    1    1    2    0    0  0.27301618982E+01 -0.80560852778E+01  0.14835024765E+01  0.17141760433E+03  0.17120000000E+03 0.  0.
        998    1    1    2    0    0 -0.11105179692E+02  0.14980493442E+01  0.14514924394E+04  0.14515701398E+04  0.10000000000E+02 0.  1.
</event>
<event>
 5    1  0.1572996E-008  0.3831472E+03  0.7957747E-01  0.3437568E+00
         13   -1    0    0    0    0  0.00000000000E+00  0.00000000000E+00  0.14999999963E+04  0.15000000000E+04  0.10566000000E+00 0. -1.
        994   -1    0    0    0    0 -0.00000000000E+00 -0.00000000000E+00  0.11368683772E-12  0.17120000000E+03  0.17120000000E+03 0.  0.
         13    1    1    2    0    0  0.16757255390E+03  0.85789185097E+01  0.43517544864E+03  0.46640308846E+03  0.10566000000E+00 0. -1.
        994    1    1    2    0    0 -0.18576136191E+03  0.51047060622E+00  0.15858046677E+03  0.29826959047E+03  0.17120000000E+03 0.  0.
        998    1    1    2    0    0  0.18188808009E+02 -0.90893891160E+01  0.90624408087E+03  0.90652732107E+03  0.10000000000E+02 0.  1.
</event>
<event>
 5    1  0.1572996E-008  0.3749252E+03  0.7957747E-01  0.3473557E+00
         13   -1    0    0    0    0  0.00000000000E+00  0.00000000000E+00  0.14999999963E+04  0.15000000000E+04  0.10566000000E+00 0.  1.
        994   -1    0    0    0    0 -0.00000000000E+00 -0.00000000000E+00  0.11368683772E-12  0.17120000000E+03  0.17120000000E+03 0.  0.
         13    1    1    2    0    0 -0.11854008841E+02  0.12579367828E+03  0.72392377798E+03  0.73486748092E+03  0.10566000000E+00 0.  1.
        994    1    1    2    0    0 -0.48873810324E+02 -0.13034717123E+03  0.75753813630E+02  0.23329619513E+03  0.17120000000E+03 0.  0.
        998    1    1    2    0    0  0.60727819165E+02  0.45534929500E+01  0.70032240467E+03  0.70303632395E+03  0.10000000000E+02 0.  1.
</event>
<event>
 5    1  0.1572996E-008  0.3823862E+03  0.7957747E-01  0.3440834E+00
         13   -1    0    0    0    0  0.00000000000E+00  0.00000000000E+00  0.14999999963E+04  0.15000000000E+04  0.10566000000E+00 0. -1.
        994   -1    0    0    0    0 -0.00000000000E+00 -0.00000000000E+00  0.11368683772E-12  0.17120000000E+03  0.17120000000E+03 0.  0.
         13    1    1    2    0    0 -0.18764749223E+02 -0.20443111379E+02  0.14627447085E+03  0.14888340607E+03  0.10566000000E+00 0. -1.
        994    1    1    2    0    0  0.70710856398E+01 -0.48426925488E+01  0.31770740486E+01  0.17144382673E+03  0.17120000000E+03 0.  0.
        998    1    1    2    0    0  0.11693663583E+02  0.25285803927E+02  0.13505484514E+04  0.13508727672E+04  0.10000000000E+02 0. -1.
</event>
<event>
 5    1  0.1572996E-008  0.3835277E+03  0.7957747E-01  0.3435940E+00
         13   -1    0    0    0    0  0.00000000000E+00  0.00000000000E+00  0.14999999963E+04  0.15000000000E+04  0.10566000000E+00 0. -1.
        994   -1    0    0    0    0 -0.00000000000E+00 -0.00000000000E+00  0.11368683772E-12  0.17120000000E+03  0.17120000000E+03 0.  0.
         13    1    1    2    0    0  0.96461775317E+01  0.11665096924E+02  0.48105964064E+02  0.50431321317E+02  0.10566000000E+00 0. -1.
        994    1    1    2    0    0 -0.24388323299E+01 -0.95315293005E+01  0.26828025973E+01  0.17150345589E+03  0.17120000000E+03 0.  0.
        998    1    1    2    0    0 -0.72073452018E+01 -0.21335676233E+01  0.14492112296E+04  0.14492652228E+04  0.10000000000E+02 0. -1.
</event>
<event>
 5    1  0.1572996E-008  0.3776237E+03  0.7957747E-01  0.3461571E+00
         13   -1    0    0    0    0  0.00000000000E+00  0.00000000000E+00  0.14999999963E+04  0.15000000000E+04  0.10566000000E+00 0.  1.
        994   -1    0    0    0    0 -0.00000000000E+00 -0.00000000000E+00  0.11368683772E-12  0.17120000000E+03  0.17120000000E+03 0.  0.
         13    1    1    2    0    0  0.11930128254E+02 -0.56459337950E+01  0.14082943309E+02  0.19301424425E+02  0.10566000000E+00 0.  1.
        994    1    1    2    0    0 -0.90381753595E+01 -0.44173566857E+01  0.56785866889E+01  0.17158930037E+03  0.17120000000E+03 0.  0.
        998    1    1    2    0    0 -0.28919528940E+01  0.10063290481E+02  0.14802384663E+04  0.14803092752E+04  0.10000000000E+02 0.  1.
</event>
<event>
 5    1  0.1572996E-008  0.3839457E+03  0.7957747E-01  0.3434156E+00
         13   -1    0    0    0    0  0.00000000000E+00  0.00000000000E+00  0.14999999963E+04  0.15000000000E+04  0.10566000000E+00 0. -1.
        994   -1    0    0    0    0 -0.00000000000E+00 -0.00000000000E+00  0.11368683772E-12  0.17120000000E+03  0.17120000000E+03 0.  0.
         13    1    1    2    0    0 -0.82483779112E+01  0.22923120999E+02  0.13981700025E+03  0.14192360599E+03  0.10566000000E+00 0. -1.
        994    1    1    2    0    0  0.87759529876E+01 -0.10261408528E+02  0.27563399075E+01  0.17175375182E+03  0.17120000000E+03 0.  0.
        998    1    1    2    0    0 -0.52757507641E+00 -0.12661712471E+02  0.13574266561E+04  0.13575226422E+04  0.10000000000E+02 0. -1.
</event>
<event>
 5    1  0.1572996E-008  0.3855414E+03  0.7957747E-01  0.3427379E+00
         13   -1    0    0    0    0  0.00000000000E+00  0.00000000000E+00  0.14999999963E+04  0.15000000000E+04  0.10566000000E+00 0.  1.
        994   -1    0    0    0    0 -0.00000000000E+00 -0.00000000000E+00  0.11368683772E-12  0.17120000000E+03  0.17120000000E+03 0.  0.
         13    1    1    2    0    0  0.14619328501E+02  0.77832644915E+01  0.98764092510E+02  0.10014320299E+03  0.10566000000E+00 0.  1.
        994    1    1    2    0    0 -0.10141615208E+02 -0.98736388681E+01  0.20195492362E+01  0.17179598273E+03  0.17120000000E+03 0.  0.
        998    1    1    2    0    0 -0.44777132932E+01  0.20903743766E+01  0.13992163545E+04  0.13992608143E+04  0.10000000000E+02 0.  0.
</event>
<event>
 5    1  0.1572996E-008  0.3811395E+03  0.7957747E-01  0.3446212E+00
         13   -1    0    0    0    0  0.00000000000E+00  0.00000000000E+00  0.14999999963E+04  0.15000000000E+04  0.10566000000E+00 0. -1.
        994   -1    0    0    0    0 -0.00000000000E+00 -0.00000000000E+00  0.11368683772E-12  0.17120000000E+03  0.17120000000E+03 0.  0.
         13    1    1    2    0    0 -0.28862798070E+02  0.24165719119E+02  0.20703925910E+03  0.21043362152E+03  0.10566000000E+00 0. -1.
        994    1    1    2    0    0  0.15055350168E+02 -0.72949881671E+01  0.44916751269E+01  0.17207409906E+03  0.17120000000E+03 0.  0.
        998    1    1    2    0    0  0.13807447902E+02 -0.16870730952E+02  0.12884690621E+04  0.12886922794E+04  0.10000000000E+02 0. -1.
</event>
<event>
 5    1  0.1572996E-008  0.3834871E+03  0.7957747E-01  0.3436114E+00
         13   -1    0    0    0    0  0.00000000000E+00  0.00000000000E+00  0.14999999963E+04  0.15000000000E+04  0.10566000000E+00 0. -1.
        994   -1    0    0    0    0 -0.00000000000E+00 -0.00000000000E+00  0.11368683772E-12  0.17120000000E+03  0.17120000000E+03 0.  0.
         13    1    1    2    0    0  0.20910205836E+02 -0.71192915272E+01  0.10228662770E+03  0.10464457172E+03  0.10566000000E+00 0. -1.
        994    1    1    2    0    0 -0.88360804570E+01  0.14806453083E+02  0.33663014591E+01  0.17209903938E+03  0.17120000000E+03 0.  0.
        998    1    1    2    0    0 -0.12074125379E+02 -0.76871615553E+01  0.13943470671E+04  0.13944563889E+04  0.10000000000E+02 0. -1.
</event>
<event>
 5    1  0.1572996E-008  0.3854888E+03  0.7957747E-01  0.3427602E+00
         13   -1    0    0    0    0  0.00000000000E+00  0.00000000000E+00  0.14999999963E+04  0.15000000000E+04  0.10566000000E+00 0.  1.
        994   -1    0    0    0    0 -0.00000000000E+00 -0.00000000000E+00  0.11368683772E-12  0.17120000000E+03  0.17120000000E+03 0.  0.
         13    1    1    2    0    0  0.10169639675E+02 -0.53952552195E+01  0.47066398608E+02  0.48453971891E+02  0.10566000000E+00 0.  1.
        994    1    1    2    0    0 -0.90253300615E+01  0.62979433945E+01  0.17854226688E+01  0.17156266612E+03  0.17120000000E+03 0.  0.
        998    1    1    2    0    0 -0.11443096131E+01 -0.90268817507E+00  0.14511481750E+04  0.14511833620E+04  0.10000000000E+02 0.  1.
</event>
<event>
 5    1  0.1572996E-008  0.3725134E+03  0.7957747E-01  0.3484419E+00
         13   -1    0    0    0    0  0.00000000000E+00  0.00000000000E+00  0.14999999963E+04  0.15000000000E+04  0.10566000000E+00 0. -1.
        994   -1    0    0    0    0 -0.00000000000E+00 -0.00000000000E+00  0.11368683772E-12  0.17120000000E+03  0.17120000000E+03 0.  0.
         13    1    1    2    0    0 -0.14673715801E+01 -0.13346380624E+02  0.16461195666E+01  0.13527746626E+02  0.10566000000E+00 0. -1.
        994    1    1    2    0    0  0.60408226036E+01  0.14387601434E+02  0.13133303854E+02  0.17241060954E+03  0.17120000000E+03 0.  0.
        998    1    1    2    0    0 -0.45734510235E+01 -0.10412208099E+01  0.14852205729E+04  0.14852616438E+04  0.10000000000E+02 0. -1.
</event>
<event>
 5    1  0.1572996E-008  0.3712605E+03  0.7957747E-01  0.3490118E+00
         13   -1    0    0    0    0  0.00000000000E+00  0.00000000000E+00  0.14999999963E+04  0.15000000000E+04  0.10566000000E+00 0. -1.
        994   -1    0    0    0    0 -0.00000000000E+00 -0.00000000000E+00  0.11368683772E-12  0.17120000000E+03  0.17120000000E+03 0.  0.
         13    1    1    2    0    0 -0.42590030112E+02  0.27804369731E+02  0.14807966780E+03  0.15657136654E+03  0.10566000000E+00 0. -1.
        994    1    1    2    0    0  0.27136207313E+02 -0.12242499830E+02  0.11668853041E+02  0.17416042800E+03  0.17120000000E+03 0.  0.
        998    1    1    2    0    0  0.15453822799E+02 -0.15561869901E+02  0.13402514754E+04  0.13404682055E+04  0.10000000000E+02 0. -1.
</event>
<event>
 5    1  0.1572996E-008  0.3816905E+03  0.7957747E-01  0.3443830E+00
         13   -1    0    0    0    0  0.00000000000E+00  0.00000000000E+00  0.14999999963E+04  0.15000000000E+04  0.10566000000E+00 0. -1.
        994   -1    0    0    0    0 -0.00000000000E+00 -0.00000000000E+00  0.11368683772E-12  0.17120000000E+03  0.17120000000E+03 0.  0.
         13    1    1    2    0    0 -0.58300033898E+01  0.39416370877E+02  0.19785654809E+03  0.20182879879E+03  0.10566000000E+00 0. -1.
        994    1    1    2    0    0 -0.49711479309E+01 -0.49403006759E+02  0.11521686779E+02  0.17862686991E+03  0.17120000000E+03 0.  0.
        998    1    1    2    0    0  0.10801151321E+02  0.99866358823E+01  0.12906217614E+04  0.12907443313E+04  0.10000000000E+02 0. -1.
</event>
<event>
 5    1  0.1572996E-008  0.3818904E+03  0.7957747E-01  0.3442968E+00
         13   -1    0    0    0    0  0.00000000000E+00  0.00000000000E+00  0.14999999963E+04  0.15000000000E+04  0.10566000000E+00 0.  1.
        994   -1    0    0    0    0 -0.00000000000E+00 -0.00000000000E+00  0.11368683772E-12  0.17120000000E+03  0.17120000000E+03 0.  0.
         13    1    1    2    0    0  0.15072701325E+02 -0.66274448266E+02  0.13499026339E+03  0.15113527448E+03  0.10566000000E+00 0.  1.
        994    1    1    2    0    0 -0.14342100591E+02  0.25277592671E+02  0.20457472883E+02  0.17485022373E+03  0.17120000000E+03 0.  0.
        998    1    1    2    0    0 -0.73060073404E+00  0.40996855595E+02  0.13445522600E+04  0.13452145018E+04  0.10000000000E+02 0.  1.
</event>
<event>
 5    1  0.1572996E-008  0.3818608E+03  0.7957747E-01  0.3443096E+00
         13   -1    0    0    0    0  0.00000000000E+00  0.00000000000E+00  0.14999999963E+04  0.15000000000E+04  0.10566000000E+00 0. -1.
        994   -1    0    0    0    0 -0.00000000000E+00 -0.00000000000E+00  0.11368683772E-12  0.17120000000E+03  0.17120000000E+03 0.  0.
         13    1    1    2    0    0 -0.18959506252E+02 -0.17462679246E+02  0.98871096638E+02  0.10217589226E+03  0.10566000000E+00 0. -1.
        994    1    1    2    0    0  0.94914377929E+01  0.23495084843E+02  0.53330604813E+01  0.17314730127E+03  0.17120000000E+03 0.  0.
        998    1    1    2    0    0  0.94680684587E+01 -0.60324055965E+01  0.13957958392E+04  0.13958768065E+04  0.10000000000E+02 0. -1.
</event>
<event>
 5    1  0.1572996E-008  0.3844581E+03  0.7957747E-01  0.3431974E+00
         13   -1    0    0    0    0  0.00000000000E+00  0.00000000000E+00  0.14999999963E+04  0.15000000000E+04  0.10566000000E+00 0. -1.
        994   -1    0    0    0    0 -0.00000000000E+00 -0.00000000000E+00  0.11368683772E-12  0.17120000000E+03  0.17120000000E+03 0.  0.
         13    1    1    2    0    0  0.14649100532E+02  0.54664848795E+01  0.65739242083E+02  0.67573202655E+02  0.10566000000E+00 0. -1.
        994    1    1    2    0    0 -0.54994511641E+01 -0.24828124035E+01  0.20194008556E+01  0.17131820189E+03  0.17120000000E+03 0.  0.
        998    1    1    2    0    0 -0.91496493677E+01 -0.29836724760E+01  0.14322413533E+04  0.14323085955E+04  0.10000000000E+02 0.  0.
</event>
<event>
 5    1  0.1572996E-008  0.3716191E+03  0.7957747E-01  0.3488483E+00
         13   -1    0    0    0    0  0.00000000000E+00  0.00000000000E+00  0.14999999963E+04  0.15000000000E+04  0.10566000000E+00 0. -1.
        994   -1    0    0    0    0 -0.00000000000E+00 -0.00000000000E+00  0.11368683772E-12  0.17120000000E+03  0.17120000000E+03 0.  0.
         13    1    1    2    0    0 -0.59052151205E+02  0.21819150328E+02  0.19062846234E+03  0.20075471028E+03  0.10566000000E+00 0. -1.
        994    1    1    2    0    0  0.71656011527E+02 -0.22252777137E+02  0.28038944568E+02  0.18901161999E+03  0.17120000000E+03 0.  0.
        998    1    1    2    0    0 -0.12603860322E+02  0.43362680962E+00  0.12813325894E+04  0.12814336697E+04  0.10000000000E+02 0. -1.
</event>
<event>
 5    1  0.1572996E-008  0.3817456E+03  0.7957747E-01  0.3443593E+00
         13   -1    0    0    0    0  0.00000000000E+00  0.00000000000E+00  0.14999999963E+04  0.15000000000E+04  0.10566000000E+00 0.  1.
        994   -1    0    0    0    0 -0.00000000000E+00 -0.00000000000E+00  0.11368683772E-12  0.17120000000E+03  0.17120000000E+03 0.  0.
         13    1    1    2    0    0 -0.10537850758E+02  0.20302746413E+01  0.16463703589E+02  0.19652811850E+02  0.10566000000E+00 0.  1.
        994    1    1    2    0    0  0.43850558979E+01 -0.49784152098E+01  0.34008541637E+01  0.17136224538E+03  0.17120000000E+03 0.  0.
        998    1    1    2    0    0  0.61527948596E+01  0.29481405684E+01  0.14801354385E+04  0.14801849428E+04  0.10000000000E+02 0.  1.
</event>
<event>
 5    1  0.1572996E-008  0.3816262E+03  0.7957747E-01  0.3444108E+00
         13   -1    0    0    0    0  0.00000000000E+00  0.00000000000E+00  0.14999999963E+04  0.15000000000E+04  0.10566000000E+00 0. -1.
        994   -1    0    0    0    0 -0.00000000000E+00 -0.00000000000E+00  0.11368683772E-12  0.17120000000E+03  0.17120000000E+03 0.  0.
         13    1    1    2    0    0  0.19904540399E+02  0.22370973942E+02  0.12101836962E+03  0.12466799170E+03  0.10566000000E+00 0. -1.
        994    1    1    2    0    0 -0.17850989760E+02 -0.30681442422E+02  0.75154497202E+01  0.17500265921E+03  0.17120000000E+03 0.  0.
        998    1    1    2    0    0 -0.20535506392E+01  0.83104684797E+01  0.13714661769E+04  0.13715293491E+04  0.10000000000E+02 0. -1.
</event>
<event>
 5    1  0.1572996E-008  0.3849903E+03  0.7957747E-01  0.3429713E+00
         13   -1    0    0    0    0  0.00000000000E+00  0.00000000000E+00  0.14999999963E+04  0.15000000000E+04  0.10566000000E+00 0. -1.
        994   -1    0    0    0    0 -0.00000000000E+00 -0.00000000000E+00  0.11368683772E-12  0.17120000000E+03  0.17120000000E+03 0.  0.
         13    1    1    2    0    0 -0.29079803700E+00  0.11303896445E+02  0.39057424639E+02  0.40661483272E+02  0.10566000000E+00 0. -1.
        994    1    1    2    0    0  0.69063633027E+01 -0.69929974773E+01  0.19527027805E+01  0.17149301127E+03  0.17120000000E+03 0.  0.
        998    1    1    2    0    0 -0.66155652657E+01 -0.43108989677E+01  0.14589898689E+04  0.14590455055E+04  0.10000000000E+02 0. -1.
</event>
<event>
 5    1  0.1572996E-008  0.3685421E+03  0.7957747E-01  0.3502618E+00
         13   -1    0    0    0    0  0.00000000000E+00  0.00000000000E+00  0.14999999963E+04  0.15000000000E+04  0.10566000000E+00 0.  1.
        994   -1    0    0    0    0 -0.00000000000E+00 -0.00000000000E+00  0.11368683772E-12  0.17120000000E+03  0.17120000000E+03 0.  0.
         13    1    1    2    0    0 -0.63028838954E+02  0.44480585432E+01  0.22868604353E+03  0.23725458359E+03  0.10566000000E+00 0.  1.
        994    1    1    2    0    0  0.51613787186E+01 -0.28679425059E+02  0.13129209718E+02  0.17415787493E+03  0.17120000000E+03 0.  0.
        998    1    1    2    0    0  0.57867460236E+02  0.24231366515E+02  0.12581847430E+04  0.12597875415E+04  0.10000000000E+02 0.  1.
</event>
<event>
 5    1  0.1572996E-008  0.3738684E+03  0.7957747E-01  0.3478299E+00
         13   -1    0    0    0    0  0.00000000000E+00  0.00000000000E+00  0.14999999963E+04  0.15000000000E+04  0.10566000000E+00 0. -1.
        994   -1    0    0    0    0 -0.00000000000E+00 -0.00000000000E+00  0.11368683772E-12  0.17120000000E+03  0.17120000000E+03 0.  0.
         13    1    1    2    0    0  0.83889964090E+01  0.15326509745E+02  0.60829613504E+01  0.18501101171E+02  0.10566000000E+00 0. -1.
        994    1    1    2    0    0 -0.63220243202E+01 -0.11351278744E+01  0.13145375116E+02  0.17182403032E+03  0.17120000000E+03 0.  0.
        998    1    1    2    0    0 -0.20669720889E+01 -0.14191381871E+02  0.14807716598E+04  0.14808748685E+04  0.10000000000E+02 0. -1.
</event>
<event>
 5    1  0.1572996E-008  0.3833991E+03  0.7957747E-01  0.3436490E+00
         13   -1    0    0    0    0  0.00000000000E+00  0.00000000000E+00  0.14999999963E+04  0.15000000000E+04  0.10566000000E+00 0.  1.
        994   -1    0    0    0    0 -0.00000000000E+00 -0.00000000000E+00  0.11368683772E-12  0.17120000000E+03  0.17120000000E+03 0.  0.
         13    1    1    2    0    0 -0.26217628485E+02  0.10006822451E+02  0.14743274902E+03  0.15007973610E+03  0.10566000000E+00 0.  1.
        994    1    1    2    0    0  0.20453555643E+02 -0.27758605993E+02  0.63672381134E+01  0.17475374064E+03  0.17120000000E+03 0.  0.
        998    1    1    2    0    0  0.57640728418E+01  0.17751783542E+02  0.13462000091E+04  0.13463665233E+04  0.10000000000E+02 0.  1.
</event>
<event>
 5    1  0.1572996E-008  0.3828827E+03  0.7957747E-01  0.3438702E+00
         13   -1    0    0    0    0  0.00000000000E+00  0.00000000000E+00  0.14999999963E+04  0.15000000000E+04  0.10566000000E+00 0.  1.
        994   -1    0    0    0    0 -0.00000000000E+00 -0.00000000000E+00  0.11368683772E-12  0.17120000000E+03  0.17120000000E+03 0.  0.
         13    1    1    2    0    0  0.15197929340E+01  0.24576687253E+02  0.12504166847E+03  0.12744313769E+03  0.10566000000E+00 0.  1.
        994    1    1    2    0    0  0.12242132085E+02 -0.68637357441E+00  0.31829713595E+01  0.17166802909E+03  0.17120000000E+03 0.  0.
        998    1    1    2    0    0 -0.13761925019E+02 -0.23890313679E+02  0.13717753564E+04  0.13720888332E+04  0.10000000000E+02 0.  1.
</event>
<event>
 5    1  0.1572996E-008  0.3773376E+03  0.7957747E-01  0.3462834E+00
         13   -1    0    0    0    0  0.00000000000E+00  0.00000000000E+00  0.14999999963E+04  0.15000000000E+04  0.10566000000E+00 0.  1.
        994   -1    0    0    0    0 -0.00000000000E+00 -0.00000000000E+00  0.11368683772E-12  0.17120000000E+03  0.17120000000E+03 0.  0.
         13    1    1    2    0    0  0.83763237018E+01  0.16164869129E+02  0.27340646844E+02  0.32847951635E+02  0.10566000000E+00 0.  1.
        994    1    1    2    0    0 -0.57996915611E+01 -0.20295541517E+02  0.69872934026E+01  0.17263779336E+03  0.17120000000E+03 0.  0.
        998    1    1    2    0    0 -0.25766321406E+01  0.41306723874E+01  0.14656720560E+04  0.14657142550E+04  0.10000000000E+02 0.  1.
</event>
<event>
 5    1  0.1572996E-008  0.3859386E+03  0.7957747E-01  0.3425701E+00
         13   -1    0    0    0    0  0.00000000000E+00  0.00000000000E+00  0.14999999963E+04  0.15000000000E+04  0.10566000000E+00 0.  1.
        994   -1    0    0    0    0 -0.00000000000E+00 -0.00000000000E+00  0.11368683772E-12  0.17120000000E+03  0.17120000000E+03 0.  0.
         13    1    1    2    0    0  0.10880074495E+02  0.95972825503E+00  0.47022566773E+02  0.48274527955E+02  0.10566000000E+00 0.  1.
        994    1    1    2    0    0 -0.21022593864E+02 -0.33352097085E+02  0.62775953103E+01  0.17579294649E+03  0.17120000000E+03 0.  0.
        998    1    1    2    0    0  0.10142519369E+02  0.32392368830E+02  0.14466998342E+04  0.14471325256E+04  0.10000000000E+02 0.  1.
</event>
<event>
 5    1  0.1572996E-008  0.3726869E+03  0.7957747E-01  0.3483633E+00
         13   -1    0    0    0    0  0.00000000000E+00  0.00000000000E+00  0.14999999963E+04  0.15000000000E+04  0.10566000000E+00 0. -1.
        994   -1    0    0    0    0 -0.00000000000E+00 -0.00000000000E+00  0.11368683772E-12  0.17120000000E+03  0.17120000000E+03 0.  0.
         13    1    1    2    0    0 -0.14697643167E+02  0.86227397947E+02  0.37049480116E+03  0.38068043517E+03  0.10566000000E+00 0. -1.
        994    1    1    2    0    0 -0.52417133367E+01 -0.87140153173E+02  0.34449093362E+02  0.19523591342E+03  0.17120000000E+03 0.  0.
        998    1    1    2    0    0  0.19939356504E+02  0.91275522649E+00  0.10950561018E+04  0.10952836514E+04  0.10000000000E+02 0. -1.
</event>
<event>
 5    1  0.1572996E-008  0.3802649E+03  0.7957747E-01  0.3450006E+00
         13   -1    0    0    0    0  0.00000000000E+00  0.00000000000E+00  0.14999999963E+04  0.15000000000E+04  0.10566000000E+00 0. -1.
        994   -1    0    0    0    0 -0.00000000000E+00 -0.00000000000E+00  0.11368683772E-12  0.17120000000E+03  0.17120000000E+03 0.  0.
         13    1    1    2    0    0  0.13724681810E+03 -0.12346838378E+03  0.10869876007E+04  0.11025530310E+04  0.10566000000E+00 0. -1.
        994    1    1    2    0    0 -0.14311068844E+03  0.11063033913E+03  0.12237882139E+03  0.27749911172E+03  0.17120000000E+03 0.  0.
        998    1    1    2    0    0  0.58638703392E+01  0.12838044649E+02  0.29063357420E+03  0.29114785732E+03  0.10000000000E+02 0.  0.
</event>
<event>
 5    1  0.1572996E-008  0.3815341E+03  0.7957747E-01  0.3444506E+00
         13   -1    0    0    0    0  0.00000000000E+00  0.00000000000E+00  0.14999999963E+04  0.15000000000E+04  0.10566000000E+00 0.  1.
        994   -1    0    0    0    0 -0.00000000000E+00 -0.00000000000E+00  0.11368683772E-12  0.17120000000E+03  0.17120000000E+03 0.  0.
         13    1    1    2    0    0  0.22614323214E+02  0.74468146042E+01  0.79009404319E+02  0.82518845103E+02  0.10566000000E+00 0.  1.
        994    1    1    2    0    0 -0.17926348211E+02 -0.27282193717E+02  0.69133034621E+01  0.17442163231E+03  0.17120000000E+03 0.  0.
        998    1    1    2    0    0 -0.46879750030E+01  0.19835379112E+02  0.14140772885E+04  0.14142595226E+04  0.10000000000E+02 0.  1.
</event>
<event>
 5    1  0.1572996E-008  0.3904112E+03  0.7957747E-01  0.3407042E+00
         13   -1    0    0    0    0  0.00000000000E+00  0.00000000000E+00  0.14999999963E+04  0.15000000000E+04  0.10566000000E+00 0.  1.
        994   -1    0    0    0    0 -0.00000000000E+00 -0.00000000000E+00  0.11368683772E-12  0.17120000000E+03  0.17120000000E+03 0.  0.
         13    1    1    2    0    0  0.33777779377E+02 -0.23219901121E+02  0.28687421196E+02  0.50030805377E+02  0.10566000000E+00 0.  1.
        994    1    1    2    0    0 -0.35458312125E+02  0.20057166602E+02  0.28447046408E+02  0.17826456821E+03  0.17120000000E+03 0.  0.
        998    1    1    2    0    0  0.16805327482E+01  0.31627345190E+01  0.14428655287E+04  0.14429046264E+04  0.10000000000E+02 0.  1.
</event>
<event>
 5    1  0.1572996E-008  0.3731457E+03  0.7957747E-01  0.3481558E+00
         13   -1    0    0    0    0  0.00000000000E+00  0.00000000000E+00  0.14999999963E+04  0.15000000000E+04  0.10566000000E+00 0. -1.
        994   -1    0    0    0    0 -0.00000000000E+00 -0.00000000000E+00  0.11368683772E-12  0.17120000000E+03  0.17120000000E+03 0.  0.
         13    1    1    2    0    0 -0.18796421798E+02 -0.87081894503E+02  0.24886682811E+03  0.26433174444E+03  0.10566000000E+00 0. -1.
        994    1    1    2    0    0  0.24756487177E+02  0.92316996768E+02  0.45649787243E+02  0.20131729837E+03  0.17120000000E+03 0.  0.
        998    1    1    2    0    0 -0.59600653792E+01 -0.52351022647E+01  0.12054833809E+04  0.12055509572E+04  0.10000000000E+02 0. -1.
</event>
<event>
 5    1  0.1572996E-008  0.3712623E+03  0.7957747E-01  0.3490110E+00
         13   -1    0    0    0    0  0.00000000000E+00  0.00000000000E+00  0.14999999963E+04  0.15000000000E+04  0.10566000000E+00 0. -1.
        994   -1    0    0    0    0 -0.00000000000E+00 -0.00000000000E+00  0.11368683772E-12  0.17120000000E+03  0.17120000000E+03 0.  0.
         13    1    1    2    0    0 -0.93726554246E+02  0.13368148393E+02  0.32949322954E+03  0.34282528179E+03  0.10566000000E+00 0. -1.
        994    1    1    2    0    0  0.88597716414E+02  0.42308562454E+02  0.46273204165E+02  0.20270722541E+03  0.17120000000E+03 0.  0.
        998    1    1    2    0    0  0.51288378322E+01 -0.55676710847E+02  0.11242335626E+04  0.11256674928E+04  0.10000000000E+02 0. -1.
</event>
<event>
 5    1  0.1572996E-008  0.3840963E+03  0.7957747E-01  0.3433514E+00
         13   -1    0    0    0    0  0.00000000000E+00  0.00000000000E+00  0.14999999963E+04  0.15000000000E+04  0.10566000000E+00 0. -1.
        994   -1    0    0    0    0 -0.00000000000E+00 -0.00000000000E+00  0.11368683772E-12  0.17120000000E+03  0.17120000000E+03 0.  0.
         13    1    1    2    0    0 -0.87667322559E+01 -0.14434632248E+02  0.67098933783E+02  0.69191706739E+02  0.10566000000E+00 0. -1.
        994    1    1    2    0    0  0.66577933957E+01  0.12085137657E+02  0.27076621047E+01  0.17177644833E+03  0.17120000000E+03 0.  0.
        998    1    1    2    0    0  0.21089388602E+01  0.23494945906E+01  0.14301934004E+04  0.14302318449E+04  0.10000000000E+02 0. -1.
</event>
<event>
 5    1  0.1572996E-008  0.3811837E+03  0.7957747E-01  0.3446021E+00
         13   -1    0    0    0    0  0.00000000000E+00  0.00000000000E+00  0.14999999963E+04  0.15000000000E+04  0.10566000000E+00 0. -1.
        994   -1    0    0    0    0 -0.00000000000E+00 -0.00000000000E+00  0.11368683772E-12  0.17120000000E+03  0.17120000000E+03 0.  0.
         13    1    1    2    0    0  0.23192096093E+02 -0.70616074805E+01  0.81694601794E+02  0.85215953599E+02  0.10566000000E+00 0. -1.
        994    1    1    2    0    0 -0.18482623040E+02 -0.68374478070E+01  0.48310942596E+01  0.17239819465E+03  0.17120000000E+03 0.  0.
        998    1    1    2    0    0 -0.47094730525E+01  0.13899055288E+02  0.14134743002E+04  0.14135858518E+04  0.10000000000E+02 0. -1.
</event>
<event>
 5    1  0.1572996E-008  0.3908783E+03  0.7957747E-01  0.3405118E+00
         13   -1    0    0    0    0  0.00000000000E+00  0.00000000000E+00  0.14999999963E+04  0.15000000000E+04  0.10566000000E+00 0. -1.
        994   -1    0    0    0    0 -0.00000000000E+00 -0.00000000000E+00  0.11368683772E-12  0.17120000000E+03  0.17120000000E+03 0.  0.
         13    1    1    2    0    0 -0.31278508610E+02  0.66467236905E+02  0.14148396782E+03  0.15941757430E+03  0.10566000000E+00 0. -1.
        994    1    1    2    0    0 -0.21190822675E+02  0.98919244376E+01  0.24502976108E+02  0.17451858632E+03  0.17120000000E+03 0.  0.
        998    1    1    2    0    0  0.52469331285E+02 -0.76359161343E+02  0.13340130524E+04  0.13372638394E+04  0.10000000000E+02 0. -1.
</event>
<event>
 5    1  0.1572996E-008  0.3701568E+03  0.7957747E-01  0.3495171E+00
         13   -1    0    0    0    0  0.00000000000E+00  0.00000000000E+00  0.14999999963E+04  0.15000000000E+04  0.10566000000E+00 0. -1.
        994   -1    0    0    0    0 -0.00000000000E+00 -0.00000000000E+00  0.11368683772E-12  0.17120000000E+03  0.17120000000E+03 0.  0.
         13    1    1    2    0    0 -0.72662518837E+01 -0.74910057670E+02  0.41493447507E+03  0.42170480780E+03  0.10566000000E+00 0. -1.
        994    1    1    2    0    0  0.93920273685E+02 -0.11061502043E+02  0.42996502235E+02  0.20025362379E+03  0.17120000000E+03 0.  0.
        998    1    1    2    0    0 -0.86654021801E+02  0.85971559714E+02  0.10420690190E+04  0.10492415684E+04  0.10000000000E+02 0. -1.
</event>
<event>
 5    1  0.1572996E-008  0.3845165E+03  0.7957747E-01  0.3431725E+00
         13   -1    0    0    0    0  0.00000000000E+00  0.00000000000E+00  0.14999999963E+04  0.15000000000E+04  0.10566000000E+00 0. -1.
        994   -1    0    0    0    0 -0.00000000000E+00 -0.00000000000E+00  0.11368683772E-12  0.17120000000E+03  0.17120000000E+03 0.  0.
         13    1    1    2    0    0  0.85476911284E+01  0.11230527719E+02  0.51929088270E+02  0.53812908759E+02  0.10566000000E+00 0. -1.
        994    1    1    2    0    0 -0.14597580587E+02 -0.55160137369E+01  0.26728751310E+01  0.17193050930E+03  0.17120000000E+03 0.  0.
        998    1    1    2    0    0  0.60498894587E+01 -0.57145139820E+01  0.14453980329E+04  0.14454565819E+04  0.10000000000E+02 0. -1.
</event>
<event>
 5    1  0.1572996E-008  0.3717849E+03  0.7957747E-01  0.3487728E+00
         13   -1    0    0    0    0  0.00000000000E+00  0.00000000000E+00  0.14999999963E+04  0.15000000000E+04  0.10566000000E+00 0.  1.
        994   -1    0    0    0    0 -0.00000000000E+00 -0.00000000000E+00  0.11368683772E-12  0.17120000000E+03  0.17120000000E+03 0.  0.
         13    1    1    2    0    0  0.29934499395E+02  0.33614790404E+02  0.11917842692E+03  0.12739520005E+03  0.10566000000E+00 0.  1.
        994    1    1    2    0    0 -0.23352456616E+02 -0.14494314005E+02  0.10939477962E+02  0.17373696943E+03  0.17120000000E+03 0.  0.
        998    1    1    2    0    0 -0.65820427786E+01 -0.19120476399E+02  0.13698820914E+04  0.13700678305E+04  0.10000000000E+02 0.  1.
</event>
<event>
 5    1  0.1572996E-008  0.3828436E+03  0.7957747E-01  0.3438870E+00
         13   -1    0    0    0    0  0.00000000000E+00  0.00000000000E+00  0.14999999963E+04  0.15000000000E+04  0.10566000000E+00 0.  1.
        994   -1    0    0    0    0 -0.00000000000E+00 -0.00000000000E+00  0.11368683772E-12  0.17120000000E+03  0.17120000000E+03 0.  0.
         13    1    1    2    0    0  0.70666839850E+01 -0.12915185939E+02  0.39614898349E+02  0.42262174407E+02  0.10566000000E+00 0.  1.
        994    1    1    2    0    0 -0.72988287636E+01  0.42428164347E+01  0.29406559327E+01  0.17143325771E+03  0.17120000000E+03 0.  0.
        998    1    1    2    0    0  0.23214477854E+00  0.86723695044E+01  0.14574444420E+04  0.14575045679E+04  0.10000000000E+02 0.  1.
</event>
<event>
 5    1  0.1572996E-008  0.3819915E+03  0.7957747E-01  0.3442533E+00
         13   -1    0    0    0    0  0.00000000000E+00  0.00000000000E+00  0.14999999963E+04  0.15000000000E+04  0.10566000000E+00 0.  1.
        994   -1    0    0    0    0 -0.00000000000E+00 -0.00000000000E+00  0.11368683772E-12  0.17120000000E+03  0.17120000000E+03 0.  0.
         13    1    1    2    0    0  0.19671936720E+02  0.15598983846E+02  0.99309549934E+02  0.10243393609E+03  0.10566000000E+00 0.  1.
        994    1    1    2    0    0 -0.21223342054E+02  0.69389939692E+00  0.46301402422E+01  0.17257401294E+03  0.17120000000E+03 0.  0.
        998    1    1    2    0    0  0.15514053340E+01 -0.16292883243E+02  0.13960603061E+04  0.13961920510E+04  0.10000000000E+02 0.  1.
</event>
<event>
 5    1  0.1572996E-008  0.3775831E+03  0.7957747E-01  0.3461750E+00
         13   -1    0    0    0    0  0.00000000000E+00  0.00000000000E+00  0.14999999963E+04  0.15000000000E+04  0.10566000000E+00 0.  1.
        994   -1    0    0    0    0 -0.00000000000E+00 -0.00000000000E+00  0.11368683772E-12  0.17120000000E+03  0.17120000000E+03 0.  0.
         13    1    1    2    0    0  0.37783352463E+02  0.50473544026E+02  0.14740036669E+03  0.16031855673E+03  0.10566000000E+00 0.  1.
        994    1    1    2    0    0  0.36128777306E+02 -0.30009830364E+02  0.22971281349E+02  0.17900558157E+03  0.17120000000E+03 0.  0.
        998    1    1    2    0    0 -0.73912129769E+02 -0.20463713662E+02  0.13296283482E+04  0.13318758617E+04  0.10000000000E+02 0.  1.
</event>
<event>
 5    1  0.1572996E-008  0.3850736E+03  0.7957747E-01  0.3429360E+00
         13   -1    0    0    0    0  0.00000000000E+00  0.00000000000E+00  0.14999999963E+04  0.15000000000E+04  0.10566000000E+00 0. -1.
        994   -1    0    0    0    0 -0.00000000000E+00 -0.00000000000E+00  0.11368683772E-12  0.17120000000E+03  0.17120000000E+03 0.  0.
         13    1    1    2    0    0  0.16949057836E+02 -0.33463852962E+01  0.95481511591E+02  0.97031948738E+02  0.10566000000E+00 0. -1.
        994    1    1    2    0    0 -0.89843602278E+01 -0.29358760847E+00  0.18593302194E+01  0.17144591576E+03  0.17120000000E+03 0.  0.
        998    1    1    2    0    0 -0.79646976085E+01  0.36399729047E+01  0.14026591545E+04  0.14027221355E+04  0.10000000000E+02 0. -1.
</event>
<event>
 5    1  0.1572996E-008  0.3810205E+03  0.7957747E-01  0.3446727E+00
         13   -1    0    0    0    0  0.00000000000E+00  0.00000000000E+00  0.14999999963E+04  0.15000000000E+04  0.10566000000E+00 0. -1.
        994   -1    0    0    0    0 -0.00000000000E+00 -0.00000000000E+00  0.11368683772E-12  0.17120000000E+03  0.17120000000E+03 0.  0.
         13    1    1    2    0    0 -0.20009735883E+02  0.25761270219E+02  0.15124722336E+03  0.15472480833E+03  0.10566000000E+00 0. -1.
        994    1    1    2    0    0  0.12840236222E+02 -0.75935327421E+01  0.43606447132E+01  0.17190400992E+03  0.17120000000E+03 0.  0.
        998    1    1    2    0    0  0.71694996610E+01 -0.18167737477E+02  0.13443921282E+04  0.13445711817E+04  0.10000000000E+02 0. -1.
</event>
<event>
 5    1  0.1572996E-008  0.3813041E+03  0.7957747E-01  0.3445500E+00
         13   -1    0    0    0    0  0.00000000000E+00  0.00000000000E+00  0.14999999963E+04  0.15000000000E+04  0.10566000000E+00 0.  1.
        994   -1    0    0    0    0 -0.00000000000E+00 -0.00000000000E+00  0.11368683772E-12  0.17120000000E+03  0.17120000000E+03 0.  0.
         13    1    1    2    0    0 -0.68096798889E+02  0.35099583558E+01  0.13283806392E+03  0.14931663075E+03  0.10566000000E+00 0.  1.
        994    1    1    2    0    0  0.40386306647E+02  0.15551930687E+01  0.23016255566E+02  0.17740535621E+03  0.17120000000E+03 0.  0.
        998    1    1    2    0    0  0.27710492242E+02 -0.50651514245E+01  0.13441456768E+04  0.13444780130E+04  0.10000000000E+02 0.  1.
</event>
<event>
 5    1  0.1572996E-008  0.3763748E+03  0.7957747E-01  0.3467097E+00
         13   -1    0    0    0    0  0.00000000000E+00  0.00000000000E+00  0.14999999963E+04  0.15000000000E+04  0.10566000000E+00 0. -1.
        994   -1    0    0    0    0 -0.00000000000E+00 -0.00000000000E+00  0.11368683772E-12  0.17120000000E+03  0.17120000000E+03 0.  0.
         13    1    1    2    0    0 -0.39650736509E+01 -0.56268277656E+02  0.30779571490E+03  0.31292180198E+03  0.10566000000E+00 0. -1.
        994    1    1    2    0    0  0.24606150156E+02  0.12991615563E+02  0.85985394749E+01  0.17365949321E+03  0.17120000000E+03 0.  0.
        998    1    1    2    0    0 -0.20641076505E+02  0.43276662093E+02  0.11836057419E+04  0.11846187048E+04  0.10000000000E+02 0. -1.
</event>
<event>
 5    1  0.1572996E-008  0.3806132E+03  0.7957747E-01  0.3448493E+00
         13   -1    0    0    0    0  0.00000000000E+00  0.00000000000E+00  0.14999999963E+04  0.15000000000E+04  0.10566000000E+00 0.  1.
        994   -1    0    0    0    0 -0.00000000000E+00 -0.00000000000E+00  0.11368683772E-12  0.17120000000E+03  0.17120000000E+03 0.  0.
         13    1    1    2    0    0 -0.14365496288E+01  0.11268020279E+02  0.15095660219E+02  0.18892381462E+02  0.10566000000E+00 0.  1.
        994    1    1    2    0    0  0.20222001914E+01 -0.11859191971E+02  0.43069260646E+01  0.17167620493E+03  0.17120000000E+03 0.  0.
        998    1    1    2    0    0 -0.58565056267E+00  0.59117169203E+00  0.14805974100E+04  0.14806314136E+04  0.10000000000E+02 0.  1.
</event>
<event>
 5    1  0.1572996E-008  0.3748636E+03  0.7957747E-01  0.3473833E+00
         13   -1    0    0    0    0  0.00000000000E+00  0.00000000000E+00  0.14999999963E+04  0.15000000000E+04  0.10566000000E+00 0.  1.
        994   -1    0    0    0    0 -0.00000000000E+00 -0.00000000000E+00  0.11368683772E-12  0.17120000000E+03  0.17120000000E+03 0.  0.
         13    1    1    2    0    0 -0.31027697462E+02 -0.73623784904E+01  0.31959319805E+02  0.45147889355E+02  0.10566000000E+00 0.  1.
        994    1    1    2    0    0  0.23353998579E+02  0.11850694453E+02  0.15977079062E+02  0.17392686757E+03  0.17120000000E+03 0.  0.
        998    1    1    2    0    0  0.76736988828E+01 -0.44883159629E+01  0.14520635974E+04  0.14521252431E+04  0.10000000000E+02 0.  1.
</event>
<event>
 5    1  0.1572996E-008  0.3831798E+03  0.7957747E-01  0.3437429E+00
         13   -1    0    0    0    0  0.00000000000E+00  0.00000000000E+00  0.14999999963E+04  0.15000000000E+04  0.10566000000E+00 0. -1.
        994   -1    0    0    0    0 -0.00000000000E+00 -0.00000000000E+00  0.11368683772E-12  0.17120000000E+03  0.17120000000E+03 0.  0.
         13    1    1    2    0    0 -0.18371735519E+02 -0.13648450440E+02  0.11820283232E+03  0.12039817938E+03  0.10566000000E+00 0. -1.
        994    1    1    2    0    0 -0.15087670316E+01 -0.75562444133E+01  0.27329847221E+01  0.17139510615E+03  0.17120000000E+03 0.  0.
        998    1    1    2    0    0  0.19880502551E+02  0.21204694853E+02  0.13790641792E+04  0.13794067145E+04  0.10000000000E+02 0. -1.
</event>
<event>
 5    1  0.1572996E-008  0.3727077E+03  0.7957747E-01  0.3483539E+00
         13   -1    0    0    0    0  0.00000000000E+00  0.00000000000E+00  0.14999999963E+04  0.15000000000E+04  0.10566000000E+00 0.  1.
        994   -1    0    0    0    0 -0.00000000000E+00 -0.00000000000E+00  0.11368683772E-12  0.17120000000E+03  0.17120000000E+03 0.  0.
         13    1    1    2    0    0  0.23796839730E+02  0.26234387039E+02  0.86810166978E+02  0.93757927127E+02  0.10566000000E+00 0.  1.
        994    1    1    2    0    0  0.56359117029E+01  0.82856946591E+01  0.82046741698E+01  0.17168917530E+03  0.17120000000E+03 0.  0.
        998    1    1    2    0    0 -0.29432751433E+02 -0.34520081698E+02  0.14049851551E+04  0.14057528976E+04  0.10000000000E+02 0.  1.
</event>
<event>
 5    1  0.1572996E-008  0.3786054E+03  0.7957747E-01  0.3457254E+00
         13   -1    0    0    0    0  0.00000000000E+00  0.00000000000E+00  0.14999999963E+04  0.15000000000E+04  0.10566000000E+00 0. -1.
        994   -1    0    0    0    0 -0.00000000000E+00 -0.00000000000E+00  0.11368683772E-12  0.17120000000E+03  0.17120000000E+03 0.  0.
         13    1    1    2    0    0  0.27398113635E+02  0.80861736105E+01  0.78051360454E+02  0.83114793311E+02  0.10566000000E+00 0. -1.
        994    1    1    2    0    0 -0.23523684977E+02 -0.30404596447E+02  0.98179061333E+01  0.17573740217E+03  0.17120000000E+03 0.  0.
        998    1    1    2    0    0 -0.38744286574E+01  0.22318422837E+02  0.14121307297E+04  0.14123478045E+04  0.10000000000E+02 0. -1.
</event>
<event>
 5    1  0.1572996E-008  0.3800576E+03  0.7957747E-01  0.3450908E+00
         13   -1    0    0    0    0  0.00000000000E+00  0.00000000000E+00  0.14999999963E+04  0.15000000000E+04  0.10566000000E+00 0. -1.
        994   -1    0    0    0    0 -0.00000000000E+00 -0.00000000000E+00  0.11368683772E-12  0.17120000000E+03  0.17120000000E+03 0.  0.
         13    1    1    2    0    0 -0.10997567945E+02  0.92846144399E+01  0.23227341561E+02  0.27325283641E+02  0.10566000000E+00 0. -1.
        994    1    1    2    0    0  0.83790878496E+01 -0.13328152733E+02  0.49328796751E+01  0.17199308727E+03  0.17120000000E+03 0.  0.
        998    1    1    2    0    0  0.26184800953E+01  0.40435382927E+01  0.14718397750E+04  0.14718816291E+04  0.10000000000E+02 0. -1.
</event>
<event>
 5    1  0.1572996E-008  0.3721475E+03  0.7957747E-01  0.3486079E+00
         13   -1    0    0    0    0  0.00000000000E+00  0.00000000000E+00  0.14999999963E+04  0.15000000000E+04  0.10566000000E+00 0.  1.
        994   -1    0    0    0    0 -0.00000000000E+00 -0.00000000000E+00  0.11368683772E-12  0.17120000000E+03  0.17120000000E+03 0.  0.
         13    1    1    2    0    0  0.13681098029E+02 -0.13785706977E+02  0.20991903239E+02  0.28598764410E+02  0.10566000000E+00 0.  1.
        994    1    1    2    0    0  0.16976619357E+02 -0.35537380802E+01  0.91840872618E+01  0.17232127587E+03  0.17120000000E+03 0.  0.
        998    1    1    2    0    0 -0.30657717386E+02  0.17339445057E+02  0.14698240058E+04  0.14702799597E+04  0.10000000000E+02 0.  1.
</event>
<event>
 5    1  0.1572996E-008  0.3766401E+03  0.7957747E-01  0.3465920E+00
         13   -1    0    0    0    0  0.00000000000E+00  0.00000000000E+00  0.14999999963E+04  0.15000000000E+04  0.10566000000E+00 0. -1.
        994   -1    0    0    0    0 -0.00000000000E+00 -0.00000000000E+00  0.11368683772E-12  0.17120000000E+03  0.17120000000E+03 0.  0.
         13    1    1    2    0    0 -0.53794279959E+02 -0.19111445898E+02  0.96649593068E+02  0.11225073240E+03  0.10566000000E+00 0. -1.
        994    1    1    2    0    0  0.71643755849E+02  0.70769058944E+01  0.33287436145E+02  0.18868069258E+03  0.17120000000E+03 0.  0.
        998    1    1    2    0    0 -0.17849475890E+02  0.12034540004E+02  0.13700629671E+04  0.13702685750E+04  0.10000000000E+02 0. -1.
</event>
<event>
 5    1  0.1572996E-008  0.3741904E+03  0.7957747E-01  0.3476852E+00
         13   -1    0    0    0    0  0.00000000000E+00  0.00000000000E+00  0.14999999963E+04  0.15000000000E+04  0.10566000000E+00 0. -1.
        994   -1    0    0    0    0 -0.00000000000E+00 -0.00000000000E+00  0.11368683772E-12  0.17120000000E+03  0.17120000000E+03 0.  0.
         13    1    1    2    0    0 -0.14200198082E+02 -0.92437265345E+02  0.52702066784E+03  0.53525422852E+03  0.10566000000E+00 0. -1.
        994    1    1    2    0    0 -0.17741581868E+01  0.70086776502E+02  0.24038315164E+02  0.18655450805E+03  0.17120000000E+03 0.  0.
        998    1    1    2    0    0  0.15974356268E+02  0.22350488843E+02  0.94894101327E+03  0.94939126343E+03  0.10000000000E+02 0.  1.
</event>
<event>
 5    1  0.1572996E-008  0.3793713E+03  0.7957747E-01  0.3453901E+00
         13   -1    0    0    0    0  0.00000000000E+00  0.00000000000E+00  0.14999999963E+04  0.15000000000E+04  0.10566000000E+00 0.  1.
        994   -1    0    0    0    0 -0.00000000000E+00 -0.00000000000E+00  0.11368683772E-12  0.17120000000E+03  0.17120000000E+03 0.  0.
         13    1    1    2    0    0 -0.27823151281E+01 -0.10625211674E+02  0.11845804122E+02  0.16154585724E+02  0.10566000000E+00 0.  1.
        994    1    1    2    0    0 -0.15431807269E+02  0.24550883588E+01  0.52692171877E+01  0.17199236258E+03  0.17120000000E+03 0.  0.
        998    1    1    2    0    0  0.18214122397E+02  0.81701233149E+01  0.14828849750E+04  0.14830530517E+04  0.10000000000E+02 0.  1.
</event>
<event>
 5    1  0.1572996E-008  0.3845341E+03  0.7957747E-01  0.3431650E+00
         13   -1    0    0    0    0  0.00000000000E+00  0.00000000000E+00  0.14999999963E+04  0.15000000000E+04  0.10566000000E+00 0. -1.
        994   -1    0    0    0    0 -0.00000000000E+00 -0.00000000000E+00  0.11368683772E-12  0.17120000000E+03  0.17120000000E+03 0.  0.
         13    1    1    2    0    0 -0.44590019394E+01  0.97008734189E+01  0.28947314376E+02  0.30853651599E+02  0.10566000000E+00 0. -1.
        994    1    1    2    0    0 -0.10276611181E+02 -0.24357771775E+02  0.41669385809E+01  0.17327929236E+03  0.17120000000E+03 0.  0.
        998    1    1    2    0    0  0.14735613120E+02  0.14656898356E+02  0.14668857433E+04  0.14670670560E+04  0.10000000000E+02 0. -1.
</event>
<event>
 5    1  0.1572996E-008  0.3802266E+03  0.7957747E-01  0.3450172E+00
         13   -1    0    0    0    0  0.00000000000E+00  0.00000000000E+00  0.14999999963E+04  0.15000000000E+04  0.10566000000E+00 0.  1.
        994   -1    0    0    0    0 -0.00000000000E+00 -0.00000000000E+00  0.11368683772E-12  0.17120000000E+03  0.17120000000E+03 0.  0.
         13    1    1    2    0    0  0.43878451600E+02  0.31538793467E+02  0.27845956999E+03  0.28365429186E+03  0.10566000000E+00 0.  1.
        994    1    1    2    0    0 -0.47689874394E+02 -0.38243744601E+02  0.16604168525E+02  0.18254327304E+03  0.17120000000E+03 0.  0.
        998    1    1    2    0    0  0.38114227937E+01  0.67049511343E+01  0.12049362578E+04  0.12050024351E+04  0.10000000000E+02 0.  1.
</event>
<event>
 5    1  0.1572996E-008  0.3842825E+03  0.7957747E-01  0.3432721E+00
         13   -1    0    0    0    0  0.00000000000E+00  0.00000000000E+00  0.14999999963E+04  0.15000000000E+04  0.10566000000E+00 0. -1.
        994   -1    0    0    0    0 -0.00000000000E+00 -0.00000000000E+00  0.11368683772E-12  0.17120000000E+03  0.17120000000E+03 0.  0.
         13    1    1    2    0    0 -0.19578814535E+02 -0.84264229483E+01  0.11985248221E+03  0.12173316409E+03  0.10566000000E+00 0. -1.
        994    1    1    2    0    0  0.47032748253E+01  0.67795859267E+01  0.22112278972E+01  0.17141298991E+03  0.17120000000E+03 0.  0.
        998    1    1    2    0    0  0.14875539709E+02  0.16468370217E+01  0.13779362862E+04  0.13780538460E+04  0.10000000000E+02 0.  1.
</event>
<event>
 5    1  0.1572996E-008  0.3780353E+03  0.7957747E-01  0.3459758E+00
         13   -1    0    0    0    0  0.00000000000E+00  0.00000000000E+00  0.14999999963E+04  0.15000000000E+04  0.10566000000E+00 0.  1.
        994   -1    0    0    0    0 -0.00000000000E+00 -0.00000000000E+00  0.11368683772E-12  0.17120000000E+03  0.17120000000E+03 0.  0.
         13    1    1    2    0    0  0.32903233772E+02  0.61541686016E+01  0.10388825251E+03  0.10914795810E+03  0.10566000000E+00 0.  1.
        994    1    1    2    0    0 -0.24778154726E+02 -0.16643825510E+02  0.81319630654E+01  0.17397282174E+03  0.17120000000E+03 0.  0.
        998    1    1    2    0    0 -0.81250790460E+01  0.10489656908E+02  0.13879797807E+04  0.13880792202E+04  0.10000000000E+02 0.  1.
</event>
<event>
 5    1  0.1572996E-008  0.3825850E+03  0.7957747E-01  0.3439979E+00
         13   -1    0    0    0    0  0.00000000000E+00  0.00000000000E+00  0.14999999963E+04  0.15000000000E+04  0.10566000000E+00 0. -1.
        994   -1    0    0    0    0 -0.00000000000E+00 -0.00000000000E+00  0.11368683772E-12  0.17120000000E+03  0.17120000000E+03 0.  0.
         13    1    1    2    0    0 -0.15820488165E+02 -0.19958681364E+02  0.10863687760E+03  0.11158234245E+03  0.10566000000E+00 0. -1.
        994    1    1    2    0    0  0.12063864870E+02  0.19316599063E+02  0.45549645154E+01  0.17276821333E+03  0.17120000000E+03 0.  0.
        998    1    1    2    0    0  0.37566232951E+01  0.64208230118E+00  0.13868081542E+04  0.13868494442E+04  0.10000000000E+02 0. -1.
</event>
<event>
 5    1  0.1572996E-008  0.3780304E+03  0.7957747E-01  0.3459780E+00
         13   -1    0    0    0    0  0.00000000000E+00  0.00000000000E+00  0.14999999963E+04  0.15000000000E+04  0.10566000000E+00 0. -1.
        994   -1    0    0    0    0 -0.00000000000E+00 -0.00000000000E+00  0.11368683772E-12  0.17120000000E+03  0.17120000000E+03 0.  0.
         13    1    1    2    0    0 -0.44391042157E+02  0.35319027989E+02  0.32629713035E+03  0.33119152586E+03  0.10566000000E+00 0. -1.
        994    1    1    2    0    0  0.13498561405E+02 -0.27300302240E+02  0.82579639265E+01  0.17408374890E+03  0.17120000000E+03 0.  0.
        998    1    1    2    0    0  0.30892480751E+02 -0.80187257497E+01  0.11654449020E+04  0.11659247252E+04  0.10000000000E+02 0. -1.
</event>
<event>
 5    1  0.1572996E-008  0.3851278E+03  0.7957747E-01  0.3429130E+00
         13   -1    0    0    0    0  0.00000000000E+00  0.00000000000E+00  0.14999999963E+04  0.15000000000E+04  0.10566000000E+00 0.  1.
        994   -1    0    0    0    0 -0.00000000000E+00 -0.00000000000E+00  0.11368683772E-12  0.17120000000E+03  0.17120000000E+03 0.  0.
         13    1    1    2    0    0 -0.11967777061E+02  0.61243148864E+01  0.57610193416E+02  0.59158097248E+02  0.10566000000E+00 0.  1.
        994    1    1    2    0    0  0.10754359709E+02  0.54647466903E+00  0.19479471855E+01  0.17154937886E+03  0.17120000000E+03 0.  0.
        998    1    1    2    0    0  0.12134173514E+01 -0.66707895555E+01  0.14404418557E+04  0.14404925239E+04  0.10000000000E+02 0.  1.
</event>
<event>
 5    1  0.1572996E-008  0.3801049E+03  0.7957747E-01  0.3450702E+00
         13   -1    0    0    0    0  0.00000000000E+00  0.00000000000E+00  0.14999999963E+04  0.15000000000E+04  0.10566000000E+00 0. -1.
        994   -1    0    0    0    0 -0.00000000000E+00 -0.00000000000E+00  0.11368683772E-12  0.17120000000E+03  0.17120000000E+03 0.  0.
         13    1    1    2    0    0 -0.67772979644E+02 -0.36676108026E+02  0.19891352519E+03  0.21331881150E+03  0.10566000000E+00 0. -1.
        994    1    1    2    0    0  0.20511824637E+02  0.27626803000E+01  0.17939169044E+02  0.17337710673E+03  0.17120000000E+03 0.  0.
        998    1    1    2    0    0  0.47261155007E+02  0.33913427726E+02  0.12831473020E+04  0.12845040818E+04  0.10000000000E+02 0. -1.
</event>
<event>
 5    1  0.1572996E-008  0.3688278E+03  0.7957747E-01  0.3501296E+00
         13   -1    0    0    0    0  0.00000000000E+00  0.00000000000E+00  0.14999999963E+04  0.15000000000E+04  0.10566000000E+00 0. -1.
        994   -1    0    0    0    0 -0.00000000000E+00 -0.00000000000E+00  0.11368683772E-12  0.17120000000E+03  0.17120000000E+03 0.  0.
         13    1    1    2    0    0 -0.50685291030E+01  0.30854712255E+02  0.42486943135E+02  0.52752770132E+02  0.10566000000E+00 0. -1.
        994    1    1    2    0    0 -0.45393215702E+01 -0.48239967352E+02  0.18078205256E+02  0.17884060332E+03  0.17120000000E+03 0.  0.
        998    1    1    2    0    0  0.96078506733E+01  0.17385255097E+02  0.14394348479E+04  0.14396066265E+04  0.10000000000E+02 0. -1.
</event>
<event>
 5    1  0.1572996E-008  0.3854271E+03  0.7957747E-01  0.3427863E+00
         13   -1    0    0    0    0  0.00000000000E+00  0.00000000000E+00  0.14999999963E+04  0.15000000000E+04  0.10566000000E+00 0.  1.
        994   -1    0    0    0    0 -0.00000000000E+00 -0.00000000000E+00  0.11368683772E-12  0.17120000000E+03  0.17120000000E+03 0.  0.
         13    1    1    2    0    0 -0.10107979526E+02  0.89420986559E+01  0.71775111651E+02  0.73032939109E+02  0.10566000000E+00 0.  1.
        994    1    1    2    0    0 -0.21188859623E+02 -0.16739129063E+02  0.38165417304E+01  0.17335850774E+03  0.17120000000E+03 0.  0.
        998    1    1    2    0    0  0.31296839150E+02  0.77970304070E+01  0.14244083429E+04  0.14248085532E+04  0.10000000000E+02 0.  1.
</event>
<event>
 5    1  0.1572996E-008  0.3817586E+03  0.7957747E-01  0.3443537E+00
         13   -1    0    0    0    0  0.00000000000E+00  0.00000000000E+00  0.14999999963E+04  0.15000000000E+04  0.10566000000E+00 0.  1.
        994   -1    0    0    0    0 -0.00000000000E+00 -0.00000000000E+00  0.11368683772E-12  0.17120000000E+03  0.17120000000E+03 0.  0.
         13    1    1    2    0    0 -0.15812682566E+02  0.22794357970E+02  0.12019515119E+03  0.12335521562E+03  0.10566000000E+00 0.  1.
        994    1    1    2    0    0  0.11390302814E+02 -0.79895538025E+01  0.38916403282E+01  0.17180848883E+03  0.17120000000E+03 0.  0.
        998    1    1    2    0    0  0.44223797517E+01 -0.14804804168E+02  0.13759132048E+04  0.13760362956E+04  0.10000000000E+02 0.  1.
</event>
<event>
 5    1  0.1572996E-008  0.3852203E+03  0.7957747E-01  0.3428738E+00
         13   -1    0    0    0    0  0.00000000000E+00  0.00000000000E+00  0.14999999963E+04  0.15000000000E+04  0.10566000000E+00 0. -1.
        994   -1    0    0    0    0 -0.00000000000E+00 -0.00000000000E+00  0.11368683772E-12  0.17120000000E+03  0.17120000000E+03 0.  0.
         13    1    1    2    0    0  0.10381931627E+02 -0.94020976360E+01  0.66613193398E+02  0.68069909968E+02  0.10566000000E+00 0. -1.
        994    1    1    2    0    0 -0.11693595446E+02 -0.55666826327E+01  0.20721803518E+01  0.17170166587E+03  0.17120000000E+03 0.  0.
        998    1    1    2    0    0  0.13116638190E+01  0.14968780269E+02  0.14313146225E+04  0.14314284242E+04  0.10000000000E+02 0. -1.
</event>
<event>
 5    1  0.1572996E-008  0.3824594E+03  0.7957747E-01  0.3440519E+00
         13   -1    0    0    0    0  0.00000000000E+00  0.00000000000E+00  0.14999999963E+04  0.15000000000E+04  0.10566000000E+00 0. -1.
        994   -1    0    0    0    0 -0.00000000000E+00 -0.00000000000E+00  0.11368683772E-12  0.17120000000E+03  0.17120000000E+03 0.  0.
         13    1    1    2    0    0  0.51370116670E+02 -0.38434243170E+01  0.66193983193E+02  0.83876786850E+02  0.10566000000E+00 0. -1.
        994    1    1    2    0    0 -0.49939379416E+02  0.36288815748E+01  0.26909398598E+02  0.18039031607E+03  0.17120000000E+03 0.  0.
        998    1    1    2    0    0 -0.14307372540E+01  0.21454274224E+00  0.14068966145E+04  0.14069328971E+04  0.10000000000E+02 0. -1.
</event>
<event>
 5    1  0.1572996E-008  0.3752411E+03  0.7957747E-01  0.3472145E+00
         13   -1    0    0    0    0  0.00000000000E+00  0.00000000000E+00  0.14999999963E+04  0.15000000000E+04  0.10566000000E+00 0. -1.
        994   -1    0    0    0    0 -0.00000000000E+00 -0.00000000000E+00  0.11368683772E-12  0.17120000000E+03  0.17120000000E+03 0.  0.
         13    1    1    2    0    0 -0.97825721603E+01  0.26613531836E+02  0.62871525091E+02  0.68969693534E+02  0.10566000000E+00 0. -1.
        994    1    1    2    0    0 -0.13617112934E+02 -0.41984718662E+01  0.72449383237E+01  0.17194470641E+03  0.17120000000E+03 0.  0.
        998    1    1    2    0    0  0.23399685094E+02 -0.22415059970E+02  0.14298835329E+04  0.14302856001E+04  0.10000000000E+02 0. -1.
</event>
<event>
 5    1  0.1572996E-008  0.3777252E+03  0.7957747E-01  0.3461124E+00
         13   -1    0    0    0    0  0.00000000000E+00  0.00000000000E+00  0.14999999963E+04  0.15000000000E+04  0.10566000000E+00 0. -1.
        994   -1    0    0    0    0 -0.00000000000E+00 -0.00000000000E+00  0.11368683772E-12  0.17120000000E+03  0.17120000000E+03 0.  0.
         13    1    1    2    0    0  0.41550022289E+01  0.13113851351E+02  0.15570051201E+02  0.20776785103E+02  0.10566000000E+00 0. -1.
        994    1    1    2    0    0 -0.32262334521E+01 -0.10189803701E+02  0.56707566157E+01  0.17162703214E+03  0.17120000000E+03 0.  0.
        998    1    1    2    0    0 -0.92876877674E+00 -0.29240476498E+01  0.14787591885E+04  0.14787961828E+04  0.10000000000E+02 0. -1.
</event>
<event>
 5    1  0.1572996E-008  0.3828659E+03  0.7957747E-01  0.3438774E+00
         13   -1    0    0    0    0  0.00000000000E+00  0.00000000000E+00  0.14999999963E+04  0.15000000000E+04  0.10566000000E+00 0.  1.
        994   -1    0    0    0    0 -0.00000000000E+00 -0.00000000000E+00  0.11368683772E-12  0.17120000000E+03  0.17120000000E+03 0.  0.
         13    1    1    2    0    0  0.10210404683E+02  0.10957234204E+02  0.43511774789E+02  0.46017377745E+02  0.10566000000E+00 0.  1.
        994    1    1    2    0    0 -0.85018686006E+01  0.15033435859E+02  0.36818247375E+01  0.17210834319E+03  0.17120000000E+03 0.  0.
        998    1    1    2    0    0 -0.17085360824E+01 -0.25990670064E+02  0.14528063968E+04  0.14530742791E+04  0.10000000000E+02 0.  1.
</event>
<event>
 5    1  0.1572996E-008  0.3859239E+03  0.7957747E-01  0.3425763E+00
         13   -1    0    0    0    0  0.00000000000E+00  0.00000000000E+00  0.14999999963E+04  0.15000000000E+04  0.10566000000E+00 0. -1.
        994   -1    0    0    0    0 -0.00000000000E+00 -0.00000000000E+00  0.11368683772E-12  0.17120000000E+03  0.17120000000E+03 0.  0.
         13    1    1    2    0    0 -0.55902350202E+01  0.21019968937E+03  0.11994504344E+04  0.12177423849E+04  0.10566000000E+00 0. -1.
        994    1    1    2    0    0  0.15982579919E+02 -0.21925093171E+03  0.18001128794E+03  0.33172265178E+03  0.17120000000E+03 0.  0.
        998    1    1    2    0    0 -0.10392344899E+02  0.90512423477E+01  0.12053827390E+03  0.12173496332E+03  0.10000000000E+02 0.  1.
</event>
<event>
 5    1  0.1572996E-008  0.3811574E+03  0.7957747E-01  0.3446134E+00
         13   -1    0    0    0    0  0.00000000000E+00  0.00000000000E+00  0.14999999963E+04  0.15000000000E+04  0.10566000000E+00 0.  1.
        994   -1    0    0    0    0 -0.00000000000E+00 -0.00000000000E+00  0.11368683772E-12  0.17120000000E+03  0.17120000000E+03 0.  0.
         13    1    1    2    0    0 -0.40982546513E+02  0.92582595069E+01  0.24188354864E+03  0.24550549231E+03  0.10566000000E+00 0.  1.
        994    1    1    2    0    0  0.26825374169E+02 -0.23460679682E+01  0.59684938952E+01  0.17340751902E+03  0.17120000000E+03 0.  0.
        998    1    1    2    0    0  0.14157172343E+02 -0.69121915387E+01  0.12521479537E+04  0.12522869887E+04  0.10000000000E+02 0.  1.
</event>
<event>
 5    1  0.1572996E-008  0.3832544E+03  0.7957747E-01  0.3437109E+00
         13   -1    0    0    0    0  0.00000000000E+00  0.00000000000E+00  0.14999999963E+04  0.15000000000E+04  0.10566000000E+00 0.  1.
        994   -1    0    0    0    0 -0.00000000000E+00 -0.00000000000E+00  0.11368683772E-12  0.17120000000E+03  0.17120000000E+03 0.  0.
         13    1    1    2    0    0 -0.19099558649E+02 -0.96923679875E+01  0.86032218157E+02  0.88658270132E+02  0.10566000000E+00 0.  1.
        994    1    1    2    0    0  0.22848409027E+02  0.61494354518E+01  0.43531563544E+01  0.17288220071E+03  0.17120000000E+03 0.  0.
        998    1    1    2    0    0 -0.37488503781E+01  0.35429325357E+01  0.14096146218E+04  0.14096595292E+04  0.10000000000E+02 0.  1.
</event>
<event>
 5    1  0.1572996E-008  0.3820854E+03  0.7957747E-01  0.3442128E+00
         13   -1    0    0    0    0  0.00000000000E+00  0.00000000000E+00  0.14999999963E+04  0.15000000000E+04  0.10566000000E+00 0. -1.
        994   -1    0    0    0    0 -0.00000000000E+00 -0.00000000000E+00  0.11368683772E-12  0.17120000000E+03  0.17120000000E+03 0.  0.
         13    1    1    2    0    0  0.21067641018E+02 -0.12887760087E+02  0.96590578361E+02  0.99697998226E+02  0.10566000000E+00 0. -1.
        994    1    1    2    0    0 -0.14004040178E+02  0.10768690052E+02  0.41209377655E+01  0.17215835720E+03  0.17120000000E+03 0.  0.
        998    1    1    2    0    0 -0.70636008400E+01  0.21190700344E+01  0.13992884802E+04  0.13993436446E+04  0.10000000000E+02 0. -1.
</event>
<event>
 5    1  0.1572996E-008  0.3697036E+03  0.7957747E-01  0.3497254E+00
         13   -1    0    0    0    0  0.00000000000E+00  0.00000000000E+00  0.14999999963E+04  0.15000000000E+04  0.10566000000E+00 0. -1.
        994   -1    0    0    0    0 -0.00000000000E+00 -0.00000000000E+00  0.11368683772E-12  0.17120000000E+03  0.17120000000E+03 0.  0.
         13    1    1    2    0    0 -0.71527972368E+02  0.67961347540E+02  0.48523938023E+03  0.49516892358E+03  0.10566000000E+00 0. -1.
        994    1    1    2    0    0  0.46016517040E+02 -0.43674704838E+02  0.23487304904E+02  0.18408175677E+03  0.17120000000E+03 0.  0.
        998    1    1    2    0    0  0.25511455328E+02 -0.24286642702E+02  0.99127331115E+03  0.99194931966E+03  0.10000000000E+02 0. -1.
</event>
<event>
 5    1  0.1572996E-008  0.3331610E+03  0.7957747E-01  0.3684461E+00
         13   -1    0    0    0    0  0.00000000000E+00  0.00000000000E+00  0.14999999963E+04  0.15000000000E+04  0.10566000000E+00 0. -1.
        994   -1    0    0    0    0 -0.00000000000E+00 -0.00000000000E+00  0.11368683772E-12  0.17120000000E+03  0.17120000000E+03 0.  0.
         13    1    1    2    0    0  0.11787352696E+03 -0.15989202374E+03  0.11323505779E+04  0.11496423227E+04  0.10566000000E+00 0. -1.
        994    1    1    2    0    0 -0.68467751793E+02  0.69261179521E+02  0.74460083127E+02  0.21056753787E+03  0.17120000000E+03 0.  0.
        998    1    1    2    0    0 -0.49405775170E+02  0.90630844217E+02  0.29318933521E+03  0.31099013943E+03  0.10000000000E+02 0. -1.
</event>
<event>
 5    1  0.1572996E-008  0.3846922E+03  0.7957747E-01  0.3430979E+00
         13   -1    0    0    0    0  0.00000000000E+00  0.00000000000E+00  0.14999999963E+04  0.15000000000E+04  0.10566000000E+00 0.  1.
        994   -1    0    0    0    0 -0.00000000000E+00 -0.00000000000E+00  0.11368683772E-12  0.17120000000E+03  0.17120000000E+03 0.  0.
         13    1    1    2    0    0 -0.10076070038E+01  0.11749529038E+02  0.37903741487E+02  0.39695988301E+02  0.10566000000E+00 0.  1.
        994    1    1    2    0    0  0.60356003420E+01 -0.12068421890E+02  0.23826568085E+01  0.17174746674E+03  0.17120000000E+03 0.  0.
        998    1    1    2    0    0 -0.50279933382E+01  0.31889285138E+00  0.14597135980E+04  0.14597565450E+04  0.10000000000E+02 0.  1.
</event>
<event>
 5    1  0.1572996E-008  0.4033468E+03  0.7957747E-01  0.3355403E+00
         13   -1    0    0    0    0  0.00000000000E+00  0.00000000000E+00  0.14999999963E+04  0.15000000000E+04  0.10566000000E+00 0. -1.
        994   -1    0    0    0    0 -0.00000000000E+00 -0.00000000000E+00  0.11368683772E-12  0.17120000000E+03  0.17120000000E+03 0.  0.
         13    1    1    2    0    0 -0.79895554164E+01  0.73498805495E+02  0.78672769429E+02  0.10795982224E+03  0.10566000000E+00 0. -1.
        994    1    1    2    0    0  0.11181921214E+02 -0.70576940603E+02  0.50358135317E+02  0.19222778597E+03  0.17120000000E+03 0.  0.
        998    1    1    2    0    0 -0.31923657980E+01 -0.29218648915E+01  0.13709690915E+04  0.13710123918E+04  0.10000000000E+02 0. -1.
</event>
<event>
 5    1  0.1572996E-008  0.3733255E+03  0.7957747E-01  0.3480746E+00
         13   -1    0    0    0    0  0.00000000000E+00  0.00000000000E+00  0.14999999963E+04  0.15000000000E+04  0.10566000000E+00 0. -1.
        994   -1    0    0    0    0 -0.00000000000E+00 -0.00000000000E+00  0.11368683772E-12  0.17120000000E+03  0.17120000000E+03 0.  0.
         13    1    1    2    0    0 -0.12405803493E+02 -0.20073578016E+02  0.34646281016E+02  0.41919308761E+02  0.10566000000E+00 0. -1.
        994    1    1    2    0    0  0.15955610629E+02 -0.10475781089E+01  0.84156803709E+01  0.17215092973E+03  0.17120000000E+03 0.  0.
        998    1    1    2    0    0 -0.35498071362E+01  0.21121156125E+02  0.14569380349E+04  0.14571297615E+04  0.10000000000E+02 0. -1.
</event>
<event>
 5    1  0.1572996E-008  0.3743344E+03  0.7957747E-01  0.3476205E+00
         13   -1    0    0    0    0  0.00000000000E+00  0.00000000000E+00  0.14999999963E+04  0.15000000000E+04  0.10566000000E+00 0.  1.
        994   -1    0    0    0    0 -0.00000000000E+00 -0.00000000000E+00  0.11368683772E-12  0.17120000000E+03  0.17120000000E+03 0.  0.
         13    1    1    2    0    0  0.10530405622E+02  0.24011708211E+02  0.44585837353E+02  0.51723878724E+02  0.10566000000E+00 0.  1.
        994    1    1    2    0    0 -0.46636161372E+01 -0.29854653925E+02  0.10137861486E+02  0.17414151117E+03  0.17120000000E+03 0.  0.
        998    1    1    2    0    0 -0.58667894845E+01  0.58429457137E+01  0.14452762974E+04  0.14453346101E+04  0.10000000000E+02 0.  1.
</event>
<event>
 5    1  0.1572996E-008  0.3829570E+03  0.7957747E-01  0.3438383E+00
         13   -1    0    0    0    0  0.00000000000E+00  0.00000000000E+00  0.14999999963E+04  0.15000000000E+04  0.10566000000E+00 0. -1.
        994   -1    0    0    0    0 -0.00000000000E+00 -0.00000000000E+00  0.11368683772E-12  0.17120000000E+03  0.17120000000E+03 0.  0.
         13    1    1    2    0    0 -0.27358264742E+02 -0.12630867241E+02  0.15084980878E+03  0.15383006673E+03  0.10566000000E+00 0. -1.
        994    1    1    2    0    0  0.19750220585E+02  0.41980762399E+02  0.98066209469E+01  0.17764589902E+03  0.17120000000E+03 0.  0.
        998    1    1    2    0    0  0.76080441563E+01 -0.29349895158E+02  0.13393435666E+04  0.13397240343E+04  0.10000000000E+02 0. -1.
</event>
<event>
 5    1  0.1572996E-008  0.3741127E+03  0.7957747E-01  0.3477200E+00
         13   -1    0    0    0    0  0.00000000000E+00  0.00000000000E+00  0.14999999963E+04  0.15000000000E+04  0.10566000000E+00 0. -1.
        994   -1    0    0    0    0 -0.00000000000E+00 -0.00000000000E+00  0.11368683772E-12  0.17120000000E+03  0.17120000000E+03 0.  0.
         13    1    1    2    0    0 -0.31339504693E+01 -0.31336499749E+02  0.64325537058E+02  0.71621112417E+02  0.10566000000E+00 0. -1.
        994    1    1    2    0    0 -0.90585472147E+01  0.32421826901E+02  0.11008473987E+02  0.17482522311E+03  0.17120000000E+03 0.  0.
        998    1    1    2    0    0  0.12192497684E+02 -0.10853271521E+01  0.14246659852E+04  0.14247536645E+04  0.10000000000E+02 0. -1.
</event>
<event>
 5    1  0.1572996E-008  0.3823626E+03  0.7957747E-01  0.3440935E+00
         13   -1    0    0    0    0  0.00000000000E+00  0.00000000000E+00  0.14999999963E+04  0.15000000000E+04  0.10566000000E+00 0. -1.
        994   -1    0    0    0    0 -0.00000000000E+00 -0.00000000000E+00  0.11368683772E-12  0.17120000000E+03  0.17120000000E+03 0.  0.
         13    1    1    2    0    0  0.50145530868E+01 -0.56414668488E+02  0.85105626251E+02  0.10222885770E+03  0.10566000000E+00 0. -1.
        994    1    1    2    0    0 -0.16017552368E+02  0.37026909216E+02  0.23603578511E+02  0.17746583589E+03  0.17120000000E+03 0.  0.
        998    1    1    2    0    0  0.11002999281E+02  0.19387759273E+02  0.13912907915E+04  0.13915053064E+04  0.10000000000E+02 0. -1.
</event>
<event>
 5    1  0.1572996E-008  0.3839960E+03  0.7957747E-01  0.3433942E+00
         13   -1    0    0    0    0  0.00000000000E+00  0.00000000000E+00  0.14999999963E+04  0.15000000000E+04  0.10566000000E+00 0.  1.
        994   -1    0    0    0    0 -0.00000000000E+00 -0.00000000000E+00  0.11368683772E-12  0.17120000000E+03  0.17120000000E+03 0.  0.
         13    1    1    2    0    0  0.21195972067E+02 -0.84210741918E+01  0.11266867840E+03  0.11495401680E+03  0.10566000000E+00 0.  1.
        994    1    1    2    0    0 -0.23703566030E+02  0.72685065347E+01  0.41601784653E+01  0.17303594226E+03  0.17120000000E+03 0.  0.
        998    1    1    2    0    0  0.25075939631E+01  0.11525676571E+01  0.13831711394E+04  0.13832100409E+04  0.10000000000E+02 0.  1.
</event>
<event>
 5    1  0.1572996E-008  0.3782962E+03  0.7957747E-01  0.3458611E+00
         13   -1    0    0    0    0  0.00000000000E+00  0.00000000000E+00  0.14999999963E+04  0.15000000000E+04  0.10566000000E+00 0.  1.
        994   -1    0    0    0    0 -0.00000000000E+00 -0.00000000000E+00  0.11368683772E-12  0.17120000000E+03  0.17120000000E+03 0.  0.
         13    1    1    2    0    0 -0.32741103375E+01  0.21340300664E+02  0.45902254556E+02  0.50726288730E+02  0.10566000000E+00 0.  1.
        994    1    1    2    0    0  0.75935203042E+01 -0.53949702749E+01  0.52874526572E+01  0.17153473237E+03  0.17120000000E+03 0.  0.
        998    1    1    2    0    0 -0.43194099667E+01 -0.15945330389E+02  0.14488102891E+04  0.14489389789E+04  0.10000000000E+02 0.  1.
</event>
<event>
 5    1  0.1572996E-008  0.3841442E+03  0.7957747E-01  0.3433310E+00
         13   -1    0    0    0    0  0.00000000000E+00  0.00000000000E+00  0.14999999963E+04  0.15000000000E+04  0.10566000000E+00 0. -1.
        994   -1    0    0    0    0 -0.00000000000E+00 -0.00000000000E+00  0.11368683772E-12  0.17120000000E+03  0.17120000000E+03 0.  0.
         13    1    1    2    0    0  0.31339372209E+01  0.20426112347E+02  0.10829862817E+03  0.11025267187E+03  0.10566000000E+00 0. -1.
        994    1    1    2    0    0  0.48359064164E+01 -0.76966786808E+01  0.23281429182E+01  0.17145694825E+03  0.17120000000E+03 0.  0.
        998    1    1    2    0    0 -0.79698436373E+01 -0.12729433667E+02  0.13893732252E+04  0.13894903799E+04  0.10000000000E+02 0. -1.
</event>
<event>
 5    1  0.1572996E-008  0.3848029E+03  0.7957747E-01  0.3430509E+00
         13   -1    0    0    0    0  0.00000000000E+00  0.00000000000E+00  0.14999999963E+04  0.15000000000E+04  0.10566000000E+00 0.  1.
        994   -1    0    0    0    0 -0.00000000000E+00 -0.00000000000E+00  0.11368683772E-12  0.17120000000E+03  0.17120000000E+03 0.  0.
         13    1    1    2    0    0  0.53049330863E+00 -0.17285388417E+02  0.82221906424E+02  0.84020944627E+02  0.10566000000E+00 0.  1.
        994    1    1    2    0    0 -0.35028440819E+01  0.18423049120E+02  0.28861698905E+01  0.17224821808E+03  0.17120000000E+03 0.  0.
        998    1    1    2    0    0  0.29723507733E+01 -0.11376607031E+01  0.14148919200E+04  0.14149308373E+04  0.10000000000E+02 0.  1.
</event>
<event>
 5    1  0.1572996E-008  0.3847481E+03  0.7957747E-01  0.3430741E+00
         13   -1    0    0    0    0  0.00000000000E+00  0.00000000000E+00  0.14999999963E+04  0.15000000000E+04  0.10566000000E+00 0. -1.
        994   -1    0    0    0    0 -0.00000000000E+00 -0.00000000000E+00  0.11368683772E-12  0.17120000000E+03  0.17120000000E+03 0.  0.
         13    1    1    2    0    0  0.15435883081E+02  0.37391358919E+01  0.70200261635E+02  0.71974547733E+02  0.10566000000E+00 0. -1.
        994    1    1    2    0    0 -0.12842116422E+02 -0.57652700170E+01  0.24077371255E+01  0.17179463173E+03  0.17120000000E+03 0.  0.
        998    1    1    2    0    0 -0.25937666599E+01  0.20261341251E+01  0.14273919975E+04  0.14274308205E+04  0.10000000000E+02 0. -1.
</event>
<event>
 5    1  0.1572996E-008  0.3839065E+03  0.7957747E-01  0.3434323E+00
         13   -1    0    0    0    0  0.00000000000E+00  0.00000000000E+00  0.14999999963E+04  0.15000000000E+04  0.10566000000E+00 0. -1.
        994   -1    0    0    0    0 -0.00000000000E+00 -0.00000000000E+00  0.11368683772E-12  0.17120000000E+03  0.17120000000E+03 0.  0.
         13    1    1    2    0    0  0.13885145735E+02  0.85283459124E+01  0.57835876653E+02  0.60087683832E+02  0.10566000000E+00 0. -1.
        994    1    1    2    0    0 -0.18505904607E+02 -0.73647053311E+01  0.34843789227E+01  0.17238993093E+03  0.17120000000E+03 0.  0.
        998    1    1    2    0    0  0.46207588727E+01 -0.11636405813E+01  0.14386797407E+04  0.14387223852E+04  0.10000000000E+02 0. -1.
</event>
<event>
 5    1  0.1572996E-008  0.3795280E+03  0.7957747E-01  0.3453216E+00
         13   -1    0    0    0    0  0.00000000000E+00  0.00000000000E+00  0.14999999963E+04  0.15000000000E+04  0.10566000000E+00 0.  1.
        994   -1    0    0    0    0 -0.00000000000E+00 -0.00000000000E+00  0.11368683772E-12  0.17120000000E+03  0.17120000000E+03 0.  0.
         13    1    1    2    0    0 -0.35046137796E+02 -0.43955994360E+01  0.12673282874E+03  0.13156281433E+03  0.10566000000E+00 0.  1.
        994    1    1    2    0    0  0.40228706495E+02  0.34094107022E+01  0.98483772325E+01  0.17617151711E+03  0.17120000000E+03 0.  0.
        998    1    1    2    0    0 -0.51825686984E+01  0.98618873382E+00  0.13634187903E+04  0.13634656686E+04  0.10000000000E+02 0.  1.
</event>
<event>
 5    1  0.1572996E-008  0.3857763E+03  0.7957747E-01  0.3426387E+00
         13   -1    0    0    0    0  0.00000000000E+00  0.00000000000E+00  0.14999999963E+04  0.15000000000E+04  0.10566000000E+00 0.  1.
        994   -1    0    0    0    0 -0.00000000000E+00 -0.00000000000E+00  0.11368683772E-12  0.17120000000E+03  0.17120000000E+03 0.  0.
         13    1    1    2    0    0  0.59786823258E+01 -0.88707211523E+01  0.45744078626E+02  0.46978359161E+02  0.10566000000E+00 0.  1.
        994    1    1    2    0    0 -0.54307906427E+01  0.74887802572E+01  0.15259916371E+01  0.17145653667E+03  0.17120000000E+03 0.  0.
        998    1    1    2    0    0 -0.54789168309E+00  0.13819408951E+01  0.14527299260E+04  0.14527651042E+04  0.10000000000E+02 0.  1.
</event>
<event>
 5    1  0.1572996E-008  0.3824573E+03  0.7957747E-01  0.3440528E+00
         13   -1    0    0    0    0  0.00000000000E+00  0.00000000000E+00  0.14999999963E+04  0.15000000000E+04  0.10566000000E+00 0. -1.
        994   -1    0    0    0    0 -0.00000000000E+00 -0.00000000000E+00  0.11368683772E-12  0.17120000000E+03  0.17120000000E+03 0.  0.
         13    1    1    2    0    0 -0.11433212643E+02  0.89643669403E+01  0.36042999747E+02  0.38861127374E+02  0.10566000000E+00 0. -1.
        994    1    1    2    0    0  0.29619787748E+01 -0.45929647755E+01  0.29968721327E+01  0.17131342588E+03  0.17120000000E+03 0.  0.
        998    1    1    2    0    0  0.84712338678E+01 -0.43714021647E+01  0.14609601244E+04  0.14610254467E+04  0.10000000000E+02 0. -1.
</event>
<event>
 5    1  0.1572996E-008  0.3823409E+03  0.7957747E-01  0.3441029E+00
         13   -1    0    0    0    0  0.00000000000E+00  0.00000000000E+00  0.14999999963E+04  0.15000000000E+04  0.10566000000E+00 0. -1.
        994   -1    0    0    0    0 -0.00000000000E+00 -0.00000000000E+00  0.11368683772E-12  0.17120000000E+03  0.17120000000E+03 0.  0.
         13    1    1    2    0    0  0.82313027453E+02 -0.10414942387E+03  0.38891027903E+03  0.41094251822E+03  0.10566000000E+00 0. -1.
        994    1    1    2    0    0 -0.41569424798E+02  0.11974122404E+03  0.78991832602E+02  0.22718962879E+03  0.17120000000E+03 0.  0.
        998    1    1    2    0    0 -0.40743602655E+02 -0.15591800166E+02  0.10320978847E+04  0.10330678530E+04  0.10000000000E+02 0. -1.
</event>
<event>
 5    1  0.1572996E-008  0.3697423E+03  0.7957747E-01  0.3497076E+00
         13   -1    0    0    0    0  0.00000000000E+00  0.00000000000E+00  0.14999999963E+04  0.15000000000E+04  0.10566000000E+00 0. -1.
        994   -1    0    0    0    0 -0.00000000000E+00 -0.00000000000E+00  0.11368683772E-12  0.17120000000E+03  0.17120000000E+03 0.  0.
         13    1    1    2    0    0  0.83016779818E+02 -0.26674041795E+02  0.31215016685E+03  0.32410033642E+03  0.10566000000E+00 0. -1.
        994    1    1    2    0    0 -0.85760034606E+02  0.23447529637E+02  0.37279919955E+02  0.19647850420E+03  0.17120000000E+03 0.  0.
        998    1    1    2    0    0  0.27432547883E+01  0.32265121575E+01  0.11505699095E+04  0.11506211594E+04  0.10000000000E+02 0. -1.
</event>
<event>
 5    1  0.1572996E-008  0.3773357E+03  0.7957747E-01  0.3462842E+00
         13   -1    0    0    0    0  0.00000000000E+00  0.00000000000E+00  0.14999999963E+04  0.15000000000E+04  0.10566000000E+00 0. -1.
        994   -1    0    0    0    0 -0.00000000000E+00 -0.00000000000E+00  0.11368683772E-12  0.17120000000E+03  0.17120000000E+03 0.  0.
         13    1    1    2    0    0  0.39365046630E+02 -0.39925945680E+02  0.23970576719E+03  0.24617585995E+03  0.10566000000E+00 0. -1.
        994    1    1    2    0    0 -0.44318399949E+02  0.35840158956E+02  0.16520105683E+02  0.18119324342E+03  0.17120000000E+03 0.  0.
        998    1    1    2    0    0  0.49533533188E+01  0.40857867238E+01  0.12437741234E+04  0.12438308966E+04  0.10000000000E+02 0. -1.
</event>
<event>
 5    1  0.1572996E-008  0.3698429E+03  0.7957747E-01  0.3496613E+00
         13   -1    0    0    0    0  0.00000000000E+00  0.00000000000E+00  0.14999999963E+04  0.15000000000E+04  0.10566000000E+00 0.  1.
        994   -1    0    0    0    0 -0.00000000000E+00 -0.00000000000E+00  0.11368683772E-12  0.17120000000E+03  0.17120000000E+03 0.  0.
         13    1    1    2    0    0 -0.23627044388E+02 -0.31625031777E+02  0.77507844187E+02  0.86981934538E+02  0.10566000000E+00 0.  1.
        994    1    1    2    0    0  0.41225479524E+01  0.39931209706E+02  0.14946847181E+02  0.17647760524E+03  0.17120000000E+03 0.  0.
        998    1    1    2    0    0  0.19504496436E+02 -0.83061779288E+01  0.14075453049E+04  0.14077404602E+04  0.10000000000E+02 0.  1.
</event>
<event>
 5    1  0.1572996E-008  0.3855742E+03  0.7957747E-01  0.3427241E+00
         13   -1    0    0    0    0  0.00000000000E+00  0.00000000000E+00  0.14999999963E+04  0.15000000000E+04  0.10566000000E+00 0.  1.
        994   -1    0    0    0    0 -0.00000000000E+00 -0.00000000000E+00  0.11368683772E-12  0.17120000000E+03  0.17120000000E+03 0.  0.
         13    1    1    2    0    0 -0.64449726413E+01 -0.12436922819E+02  0.77039133813E+02  0.78302324513E+02  0.10566000000E+00 0.  1.
        994    1    1    2    0    0 -0.57520781472E+01  0.62321946877E+01  0.15814682556E+01  0.17141723278E+03  0.17120000000E+03 0.  0.
        998    1    1    2    0    0  0.12197050788E+02  0.62047281309E+01  0.14213793942E+04  0.14214804427E+04  0.10000000000E+02 0.  1.
</event>
<event>
 5    1  0.1572996E-008  0.3838289E+03  0.7957747E-01  0.3434654E+00
         13   -1    0    0    0    0  0.00000000000E+00  0.00000000000E+00  0.14999999963E+04  0.15000000000E+04  0.10566000000E+00 0.  1.
        994   -1    0    0    0    0 -0.00000000000E+00 -0.00000000000E+00  0.11368683772E-12  0.17120000000E+03  0.17120000000E+03 0.  0.
         13    1    1    2    0    0 -0.97498604336E+01 -0.16866021575E+02  0.88717809880E+02  0.90831621235E+02  0.10566000000E+00 0.  1.
        994    1    1    2    0    0  0.18929569573E+01  0.61139875154E+01  0.23479096759E+01  0.17133568458E+03  0.17120000000E+03 0.  0.
        998    1    1    2    0    0  0.78569034764E+01  0.10752034059E+02  0.14089342767E+04  0.14090326942E+04  0.10000000000E+02 0.  1.
</event>
<event>
 5    1  0.1572996E-008  0.3705465E+03  0.7957747E-01  0.3493383E+00
         13   -1    0    0    0    0  0.00000000000E+00  0.00000000000E+00  0.14999999963E+04  0.15000000000E+04  0.10566000000E+00 0.  1.
        994   -1    0    0    0    0 -0.00000000000E+00 -0.00000000000E+00  0.11368683772E-12  0.17120000000E+03  0.17120000000E+03 0.  0.
         13    1    1    2    0    0  0.57051195509E+01  0.61271598113E+02  0.23309470693E+03  0.24108071405E+03  0.10566000000E+00 0.  1.
        994    1    1    2    0    0  0.32304467705E+01 -0.16636496624E+02  0.99755078343E+01  0.17232573680E+03  0.17120000000E+03 0.  0.
        998    1    1    2    0    0 -0.89355663214E+01 -0.44635101489E+02  0.12569297815E+04  0.12577935491E+04  0.10000000000E+02 0.  1.
</event>
<event>
 5    1  0.1572996E-008  0.3835642E+03  0.7957747E-01  0.3435784E+00
         13   -1    0    0    0    0  0.00000000000E+00  0.00000000000E+00  0.14999999963E+04  0.15000000000E+04  0.10566000000E+00 0.  1.
        994   -1    0    0    0    0 -0.00000000000E+00 -0.00000000000E+00  0.11368683772E-12  0.17120000000E+03  0.17120000000E+03 0.  0.
         13    1    1    2    0    0  0.20870252536E+01 -0.11431382688E+02  0.27145863207E+02  0.29528651135E+02  0.10566000000E+00 0.  1.
        994    1    1    2    0    0 -0.48108174289E+01  0.16426075932E+02  0.33131977193E+01  0.17208537769E+03  0.17120000000E+03 0.  0.
        998    1    1    2    0    0  0.27237921753E+01 -0.49946932440E+01  0.14695409354E+04  0.14695859712E+04  0.10000000000E+02 0.  1.
</event>
<event>
 5    1  0.1572996E-008  0.3822445E+03  0.7957747E-01  0.3441443E+00
         13   -1    0    0    0    0  0.00000000000E+00  0.00000000000E+00  0.14999999963E+04  0.15000000000E+04  0.10566000000E+00 0.  1.
        994   -1    0    0    0    0 -0.00000000000E+00 -0.00000000000E+00  0.11368683772E-12  0.17120000000E+03  0.17120000000E+03 0.  0.
         13    1    1    2    0    0  0.52474557752E+01  0.28936156030E+02  0.17778294958E+03  0.18019884917E+03  0.10566000000E+00 0.  1.
        994    1    1    2    0    0 -0.19344417250E+02  0.11535558699E+02  0.46895005430E+01  0.17273884047E+03  0.17120000000E+03 0.  0.
        998    1    1    2    0    0  0.14096961475E+02 -0.40471714729E+02  0.13175275462E+04  0.13182623104E+04  0.10000000000E+02 0.  1.
</event>
<event>
 5    1  0.1572996E-008  0.3773352E+03  0.7957747E-01  0.3462844E+00
         13   -1    0    0    0    0  0.00000000000E+00  0.00000000000E+00  0.14999999963E+04  0.15000000000E+04  0.10566000000E+00 0. -1.
        994   -1    0    0    0    0 -0.00000000000E+00 -0.00000000000E+00  0.11368683772E-12  0.17120000000E+03  0.17120000000E+03 0.  0.
         13    1    1    2    0    0 -0.47670130187E+02  0.12872478423E+02  0.17928410289E+03  0.18595951905E+03  0.10566000000E+00 0. -1.
        994    1    1    2    0    0  0.57822979454E+02 -0.28686151934E+02  0.19667612065E+02  0.18401806224E+03  0.17120000000E+03 0.  0.
        998    1    1    2    0    0 -0.10152849268E+02  0.15813673511E+02  0.13010482813E+04  0.13012224187E+04  0.10000000000E+02 0.  1.
</event>
<event>
 5    1  0.1572996E-008  0.3758631E+03  0.7957747E-01  0.3469372E+00
         13   -1    0    0    0    0  0.00000000000E+00  0.00000000000E+00  0.14999999963E+04  0.15000000000E+04  0.10566000000E+00 0.  1.
        994   -1    0    0    0    0 -0.00000000000E+00 -0.00000000000E+00  0.11368683772E-12  0.17120000000E+03  0.17120000000E+03 0.  0.
         13    1    1    2    0    0 -0.26156907995E+02  0.17743271984E+02  0.73453444786E+02  0.79965162737E+02  0.10566000000E+00 0.  1.
        994    1    1    2    0    0  0.30009455154E+02 -0.18267924835E+02  0.10430999228E+02  0.17507864011E+03  0.17120000000E+03 0.  0.
        998    1    1    2    0    0 -0.38525471588E+01  0.52465285114E+00  0.14161155523E+04  0.14161561972E+04  0.10000000000E+02 0.  1.
</event>
<event>
 5    1  0.1572996E-008  0.3801705E+03  0.7957747E-01  0.3450417E+00
         13   -1    0    0    0    0  0.00000000000E+00  0.00000000000E+00  0.14999999963E+04  0.15000000000E+04  0.10566000000E+00 0. -1.
        994   -1    0    0    0    0 -0.00000000000E+00 -0.00000000000E+00  0.11368683772E-12  0.17120000000E+03  0.17120000000E+03 0.  0.
         13    1    1    2    0    0  0.93397382906E+01  0.62402534528E+02  0.34719777129E+03  0.35288469871E+03  0.10566000000E+00 0. -1.
        994    1    1    2    0    0 -0.12158993196E+02 -0.70327646198E+02  0.21257711643E+02  0.18669533802E+03  0.17120000000E+03 0.  0.
        998    1    1    2    0    0  0.28192549051E+01  0.79251116702E+01  0.11315445133E+04  0.11316199633E+04  0.10000000000E+02 0. -1.
</event>
<event>
 5    1  0.1572996E-008  0.3813285E+03  0.7957747E-01  0.3445394E+00
         13   -1    0    0    0    0  0.00000000000E+00  0.00000000000E+00  0.14999999963E+04  0.15000000000E+04  0.10566000000E+00 0.  1.
        994   -1    0    0    0    0 -0.00000000000E+00 -0.00000000000E+00  0.11368683772E-12  0.17120000000E+03  0.17120000000E+03 0.  0.
         13    1    1    2    0    0  0.17947190912E+02  0.19652828547E+02  0.84644350590E+02  0.88729998210E+02  0.10566000000E+00 0.  1.
        994    1    1    2    0    0 -0.26894925876E+02 -0.45555416889E+02  0.12835369878E+02  0.17964637421E+03  0.17120000000E+03 0.  0.
        998    1    1    2    0    0  0.89477349641E+01  0.25902588342E+02  0.14025202758E+04  0.14028236276E+04  0.10000000000E+02 0.  1.
</event>
<event>
 5    1  0.1572996E-008  0.3838914E+03  0.7957747E-01  0.3434388E+00
         13   -1    0    0    0    0  0.00000000000E+00  0.00000000000E+00  0.14999999963E+04  0.15000000000E+04  0.10566000000E+00 0.  1.
        994   -1    0    0    0    0 -0.00000000000E+00 -0.00000000000E+00  0.11368683772E-12  0.17120000000E+03  0.17120000000E+03 0.  0.
         13    1    1    2    0    0 -0.97462303447E+01  0.32448724777E+02  0.23266200181E+02  0.41100316063E+02  0.10566000000E+00 0.  1.
        994    1    1    2    0    0  0.57967712435E+01 -0.31494515954E+02  0.22260224038E+02  0.17558606057E+03  0.17120000000E+03 0.  0.
        998    1    1    2    0    0  0.39494591012E+01 -0.95420882356E+00  0.14544735721E+04  0.14545136234E+04  0.10000000000E+02 0.  1.
</event>
<event>
 5    1  0.1919860E-008  0.3861731E+03  0.7957747E-01  0.3424712E+00
         13   -1    0    0    0    0  0.00000000000E+00  0.00000000000E+00  0.14999999963E+04  0.15000000000E+04  0.10566000000E+00 0. -1.
        994   -1    0    0    0    0 -0.00000000000E+00 -0.00000000000E+00  0.11368683772E-12  0.17120000000E+03  0.17120000000E+03 0.  0.
         13    1    1    2    0    0  0.98523731366E+01  0.32643319670E+01  0.57106330015E+02  0.58041960782E+02  0.10566000000E+00 0. -1.
        994    1    1    2    0    0  0.39021876500E+01  0.47936860155E+01  0.11740040908E+01  0.17131557074E+03  0.17120000000E+03 0.  0.
        998    1    1    2    0    0 -0.13754560787E+02 -0.80580179825E+01  0.14417196622E+04  0.14418424685E+04  0.10000000000E+02 0. -1.
</event>
<event>
 5    1  0.1572996E-008  0.3850720E+03  0.7957747E-01  0.3429367E+00
         13   -1    0    0    0    0  0.00000000000E+00  0.00000000000E+00  0.14999999963E+04  0.15000000000E+04  0.10566000000E+00 0.  1.
        994   -1    0    0    0    0 -0.00000000000E+00 -0.00000000000E+00  0.11368683772E-12  0.17120000000E+03  0.17120000000E+03 0.  0.
         13    1    1    2    0    0  0.52329485294E+02  0.61776147411E+01  0.68773391208E+02  0.86639070040E+02  0.10566000000E+00 0.  1.
        994    1    1    2    0    0 -0.22309718077E+02  0.70142367540E+01  0.21163517308E+02  0.17408118078E+03  0.17120000000E+03 0.  0.
        998    1    1    2    0    0 -0.30019767217E+02 -0.13191851495E+02  0.14100630878E+04  0.14104797492E+04  0.10000000000E+02 0.  1.
</event>
<event>
 5    1  0.1572996E-008  0.3857326E+03  0.7957747E-01  0.3426571E+00
         13   -1    0    0    0    0  0.00000000000E+00  0.00000000000E+00  0.14999999963E+04  0.15000000000E+04  0.10566000000E+00 0. -1.
        994   -1    0    0    0    0 -0.00000000000E+00 -0.00000000000E+00  0.11368683772E-12  0.17120000000E+03  0.17120000000E+03 0.  0.
         13    1    1    2    0    0 -0.68370448405E+01 -0.80074629280E+01  0.46600460587E+02  0.47775294197E+02  0.10566000000E+00 0. -1.
        994    1    1    2    0    0  0.41890064750E+02 -0.33981670447E+02  0.10871452415E+02  0.17982535953E+03  0.17120000000E+03 0.  0.
        998    1    1    2    0    0 -0.35053019910E+02  0.41989133375E+02  0.14425280833E+04  0.14435993463E+04  0.10000000000E+02 0. -1.
</event>
<event>
 5    1  0.1572996E-008  0.3817903E+03  0.7957747E-01  0.3443400E+00
         13   -1    0    0    0    0  0.00000000000E+00  0.00000000000E+00  0.14999999963E+04  0.15000000000E+04  0.10566000000E+00 0. -1.
        994   -1    0    0    0    0 -0.00000000000E+00 -0.00000000000E+00  0.11368683772E-12  0.17120000000E+03  0.17120000000E+03 0.  0.
         13    1    1    2    0    0  0.96161466588E+01  0.16389485194E+02  0.56191596135E+02  0.59317721987E+02  0.10566000000E+00 0. -1.
        994    1    1    2    0    0 -0.18043577035E+02  0.29554486449E+01  0.43438817003E+01  0.17222837936E+03  0.17120000000E+03 0.  0.
        998    1    1    2    0    0  0.84274303762E+01 -0.19344933839E+02  0.14394645184E+04  0.14396538987E+04  0.10000000000E+02 0. -1.
</event>
<event>
 5    1  0.1572996E-008  0.3835003E+03  0.7957747E-01  0.3436058E+00
         13   -1    0    0    0    0  0.00000000000E+00  0.00000000000E+00  0.14999999963E+04  0.15000000000E+04  0.10566000000E+00 0. -1.
        994   -1    0    0    0    0 -0.00000000000E+00 -0.00000000000E+00  0.11368683772E-12  0.17120000000E+03  0.17120000000E+03 0.  0.
         13    1    1    2    0    0  0.68501579267E+01  0.13758590148E+02  0.49608500146E+02  0.51934939273E+02  0.10566000000E+00 0. -1.
        994    1    1    2    0    0  0.32453981400E+01 -0.10380895791E+02  0.27675812126E+01  0.17156746519E+03  0.17120000000E+03 0.  0.
        998    1    1    2    0    0 -0.10095556067E+02 -0.33776943574E+01  0.14476239149E+04  0.14476975955E+04  0.10000000000E+02 0. -1.
</event>
<event>
 5    1  0.1572996E-008  0.3822276E+03  0.7957747E-01  0.3441516E+00
         13   -1    0    0    0    0  0.00000000000E+00  0.00000000000E+00  0.14999999963E+04  0.15000000000E+04  0.10566000000E+00 0. -1.
        994   -1    0    0    0    0 -0.00000000000E+00 -0.00000000000E+00  0.11368683772E-12  0.17120000000E+03  0.17120000000E+03 0.  0.
         13    1    1    2    0    0  0.19206132316E+02 -0.74138134098E+01  0.72996161777E+02  0.75843858986E+02  0.10566000000E+00 0. -1.
        994    1    1    2    0    0  0.19801612958E+01  0.14276335359E+02  0.37025568981E+01  0.17184552283E+03  0.17120000000E+03 0.  0.
        998    1    1    2    0    0 -0.21186293612E+02 -0.68625219495E+01  0.14233012776E+04  0.14235106182E+04  0.10000000000E+02 0. -1.
</event>
<event>
 5    1  0.1572996E-008  0.3829744E+03  0.7957747E-01  0.3438309E+00
         13   -1    0    0    0    0  0.00000000000E+00  0.00000000000E+00  0.14999999963E+04  0.15000000000E+04  0.10566000000E+00 0. -1.
        994   -1    0    0    0    0 -0.00000000000E+00 -0.00000000000E+00  0.11368683772E-12  0.17120000000E+03  0.17120000000E+03 0.  0.
         13    1    1    2    0    0 -0.21496508477E+02  0.17445302538E+02  0.13926252940E+03  0.14198768157E+03  0.10566000000E+00 0. -1.
        994    1    1    2    0    0  0.12567409501E+02 -0.18768814373E+02  0.43299873140E+01  0.17273794304E+03  0.17120000000E+03 0.  0.
        998    1    1    2    0    0  0.89290989761E+01  0.13235118348E+01  0.13564074796E+04  0.13564743754E+04  0.10000000000E+02 0. -1.
</event>
<event>
 5    1  0.1572996E-008  0.3843034E+03  0.7957747E-01  0.3432632E+00
         13   -1    0    0    0    0  0.00000000000E+00  0.00000000000E+00  0.14999999963E+04  0.15000000000E+04  0.10566000000E+00 0. -1.
        994   -1    0    0    0    0 -0.00000000000E+00 -0.00000000000E+00  0.11368683772E-12  0.17120000000E+03  0.17120000000E+03 0.  0.
         13    1    1    2    0    0  0.31402556515E+01 -0.22916211029E+02  0.13921004747E+03  0.14111861115E+03  0.10566000000E+00 0. -1.
        994    1    1    2    0    0 -0.28354472730E+02  0.82004949244E+01  0.48532866019E+01  0.17379360929E+03  0.17120000000E+03 0.  0.
        998    1    1    2    0    0  0.25214217078E+02  0.14715716104E+02  0.13559366622E+04  0.13562877796E+04  0.10000000000E+02 0. -1.
</event>
<event>
 5    1  0.1572996E-008  0.3703857E+03  0.7957747E-01  0.3494120E+00
         13   -1    0    0    0    0  0.00000000000E+00  0.00000000000E+00  0.14999999963E+04  0.15000000000E+04  0.10566000000E+00 0. -1.
        994   -1    0    0    0    0 -0.00000000000E+00 -0.00000000000E+00  0.11368683772E-12  0.17120000000E+03  0.17120000000E+03 0.  0.
         13    1    1    2    0    0  0.10063758704E+02  0.17601574681E+02  0.12584551198E+02  0.23863712272E+02  0.10566000000E+00 0. -1.
        994    1    1    2    0    0 -0.44107611002E+02 -0.26423745100E+02  0.20455747299E+02  0.17992101948E+03  0.17120000000E+03 0.  0.
        998    1    1    2    0    0  0.34043852298E+02  0.88221704192E+01  0.14669596978E+04  0.14674152682E+04  0.10000000000E+02 0. -1.
</event>
<event>
 5    1  0.1572996E-008  0.3839137E+03  0.7957747E-01  0.3434292E+00
         13   -1    0    0    0    0  0.00000000000E+00  0.00000000000E+00  0.14999999963E+04  0.15000000000E+04  0.10566000000E+00 0.  1.
        994   -1    0    0    0    0 -0.00000000000E+00 -0.00000000000E+00  0.11368683772E-12  0.17120000000E+03  0.17120000000E+03 0.  0.
         13    1    1    2    0    0  0.21141545848E+02 -0.12794473484E+02  0.11996658406E+03  0.12248532960E+03  0.10566000000E+00 0.  1.
        994    1    1    2    0    0 -0.20338163740E+02  0.37971012296E+02  0.83180776067E+01  0.17673163015E+03  0.17120000000E+03 0.  0.
        998    1    1    2    0    0 -0.80338210788E+00 -0.25176538813E+02  0.13717153346E+04  0.13719830403E+04  0.10000000000E+02 0.  1.
</event>
<event>
 5    1  0.1572996E-008  0.3793938E+03  0.7957747E-01  0.3453802E+00
         13   -1    0    0    0    0  0.00000000000E+00  0.00000000000E+00  0.14999999963E+04  0.15000000000E+04  0.10566000000E+00 0. -1.
        994   -1    0    0    0    0 -0.00000000000E+00 -0.00000000000E+00  0.11368683772E-12  0.17120000000E+03  0.17120000000E+03 0.  0.
         13    1    1    2    0    0  0.29451848401E+02  0.20616966200E+02  0.16633668901E+03  0.17017748366E+03  0.10566000000E+00 0. -1.
        994    1    1    2    0    0 -0.20248286502E+01  0.39730061416E+01  0.45060704088E+01  0.17131733531E+03  0.17120000000E+03 0.  0.
        998    1    1    2    0    0 -0.27427019751E+02 -0.24589972341E+02  0.13291572369E+04  0.13297051810E+04  0.10000000000E+02 0. -1.
</event>
<event>
 5    1  0.1572996E-008  0.3752737E+03  0.7957747E-01  0.3472000E+00
         13   -1    0    0    0    0  0.00000000000E+00  0.00000000000E+00  0.14999999963E+04  0.15000000000E+04  0.10566000000E+00 0.  1.
        994   -1    0    0    0    0 -0.00000000000E+00 -0.00000000000E+00  0.11368683772E-12  0.17120000000E+03  0.17120000000E+03 0.  0.
         13    1    1    2    0    0 -0.53035513625E+01  0.13021121589E+02  0.12677512811E+02  0.18931660244E+02  0.10566000000E+00 0.  1.
        994    1    1    2    0    0 -0.11701336142E+02  0.20791676448E+01  0.70180523193E+01  0.17175545774E+03  0.17120000000E+03 0.  0.
        998    1    1    2    0    0  0.17004887504E+02 -0.15100289234E+02  0.14803044311E+04  0.14805128820E+04  0.10000000000E+02 0.  1.
</event>
<event>
 5    1  0.1572996E-008  0.3836434E+03  0.7957747E-01  0.3435446E+00
         13   -1    0    0    0    0  0.00000000000E+00  0.00000000000E+00  0.14999999963E+04  0.15000000000E+04  0.10566000000E+00 0. -1.
        994   -1    0    0    0    0 -0.00000000000E+00 -0.00000000000E+00  0.11368683772E-12  0.17120000000E+03  0.17120000000E+03 0.  0.
         13    1    1    2    0    0 -0.53367913834E+01  0.92571086483E+01  0.23577143709E+02  0.25885676972E+02  0.10566000000E+00 0. -1.
        994    1    1    2    0    0  0.83357407286E+01 -0.97872519107E+01  0.28512996140E+01  0.17170569234E+03  0.17120000000E+03 0.  0.
        998    1    1    2    0    0 -0.29989493452E+01  0.53014326245E+00  0.14735715530E+04  0.14736086307E+04  0.10000000000E+02 0. -1.
</event>
<event>
 5    1  0.1572996E-008  0.3830726E+03  0.7957747E-01  0.3437888E+00
         13   -1    0    0    0    0  0.00000000000E+00  0.00000000000E+00  0.14999999963E+04  0.15000000000E+04  0.10566000000E+00 0. -1.
        994   -1    0    0    0    0 -0.00000000000E+00 -0.00000000000E+00  0.11368683772E-12  0.17120000000E+03  0.17120000000E+03 0.  0.
         13    1    1    2    0    0  0.23229595189E+02  0.29303274638E+00  0.10605062568E+03  0.10856540117E+03  0.10566000000E+00 0. -1.
        994    1    1    2    0    0 -0.10642080374E+02  0.41029649870E+01  0.30207170279E+01  0.17160609817E+03  0.17120000000E+03 0.  0.
        998    1    1    2    0    0 -0.12587514815E+02 -0.43959977334E+01  0.13909286536E+04  0.13910285007E+04  0.10000000000E+02 0. -1.
</event>
<event>
 5    1  0.1572996E-008  0.3847488E+03  0.7957747E-01  0.3430738E+00
         13   -1    0    0    0    0  0.00000000000E+00  0.00000000000E+00  0.14999999963E+04  0.15000000000E+04  0.10566000000E+00 0. -1.
        994   -1    0    0    0    0 -0.00000000000E+00 -0.00000000000E+00  0.11368683772E-12  0.17120000000E+03  0.17120000000E+03 0.  0.
         13    1    1    2    0    0 -0.19714027278E+03  0.69450822123E+02  0.12023840276E+04  0.12204159393E+04  0.10566000000E+00 0. -1.
        994    1    1    2    0    0  0.19795252037E+03 -0.71680660847E+02  0.16460386453E+03  0.31737547114E+03  0.17120000000E+03 0.  0.
        998    1    1    2    0    0 -0.81224759008E+00  0.22298387237E+01  0.13301210414E+03  0.13340858958E+03  0.10000000000E+02 0.  0.
</event>
<event>
 5    1  0.1572996E-008  0.3795399E+03  0.7957747E-01  0.3453164E+00
         13   -1    0    0    0    0  0.00000000000E+00  0.00000000000E+00  0.14999999963E+04  0.15000000000E+04  0.10566000000E+00 0. -1.
        994   -1    0    0    0    0 -0.00000000000E+00 -0.00000000000E+00  0.11368683772E-12  0.17120000000E+03  0.17120000000E+03 0.  0.
         13    1    1    2    0    0  0.43989714646E+02  0.94000261059E+01  0.20374162127E+03  0.20864830430E+03  0.10566000000E+00 0. -1.
        994    1    1    2    0    0 -0.45521205687E+02  0.56815159410E+01  0.11443742147E+02  0.17760872452E+03  0.17120000000E+03 0.  0.
        998    1    1    2    0    0  0.15314910405E+01 -0.15081542047E+02  0.12848146329E+04  0.12849429712E+04  0.10000000000E+02 0. -1.
</event>
<event>
 5    1  0.1572996E-008  0.3860641E+03  0.7957747E-01  0.3425172E+00
         13   -1    0    0    0    0  0.00000000000E+00  0.00000000000E+00  0.14999999963E+04  0.15000000000E+04  0.10566000000E+00 0. -1.
        994   -1    0    0    0    0 -0.00000000000E+00 -0.00000000000E+00  0.11368683772E-12  0.17120000000E+03  0.17120000000E+03 0.  0.
         13    1    1    2    0    0 -0.49201588168E+01  0.10789782893E+02  0.63779870200E+02  0.64873032798E+02  0.10566000000E+00 0. -1.
        994    1    1    2    0    0  0.90418060085E+01 -0.64292533697E+01  0.15062813618E+01  0.17156572629E+03  0.17120000000E+03 0.  0.
        998    1    1    2    0    0 -0.41216471917E+01 -0.43605295228E+01  0.14347138447E+04  0.14347612409E+04  0.10000000000E+02 0. -1.
</event>
<event>
 5    1  0.1572996E-008  0.3843026E+03  0.7957747E-01  0.3432635E+00
         13   -1    0    0    0    0  0.00000000000E+00  0.00000000000E+00  0.14999999963E+04  0.15000000000E+04  0.10566000000E+00 0.  1.
        994   -1    0    0    0    0 -0.00000000000E+00 -0.00000000000E+00  0.11368683772E-12  0.17120000000E+03  0.17120000000E+03 0.  0.
         13    1    1    2    0    0 -0.63336429423E+02  0.98685405558E+01  0.10716935347E+03  0.12487663061E+03  0.10566000000E+00 0.  1.
        994    1    1    2    0    0  0.34433839109E+02  0.79046075428E+01  0.23320008058E+02  0.17635598904E+03  0.17120000000E+03 0.  0.
        998    1    1    2    0    0  0.28902590313E+02 -0.17773148099E+02  0.13695106347E+04  0.13699673803E+04  0.10000000000E+02 0.  1.
</event>
<event>
 5    1  0.1572996E-008  0.3824381E+03  0.7957747E-01  0.3440611E+00
         13   -1    0    0    0    0  0.00000000000E+00  0.00000000000E+00  0.14999999963E+04  0.15000000000E+04  0.10566000000E+00 0.  1.
        994   -1    0    0    0    0 -0.00000000000E+00 -0.00000000000E+00  0.11368683772E-12  0.17120000000E+03  0.17120000000E+03 0.  0.
         13    1    1    2    0    0 -0.10681665266E+02 -0.19597655692E+02  0.85140285162E+02  0.88017301725E+02  0.10566000000E+00 0.  1.
        994    1    1    2    0    0  0.13982411491E+02  0.74860582271E+01  0.37420924087E+01  0.17197381241E+03  0.17120000000E+03 0.  0.
        998    1    1    2    0    0 -0.33007462244E+01  0.12111597465E+02  0.14111176187E+04  0.14112088859E+04  0.10000000000E+02 0.  1.
</event>
<event>
 5    1  0.1572996E-008  0.3851448E+03  0.7957747E-01  0.3429058E+00
         13   -1    0    0    0    0  0.00000000000E+00  0.00000000000E+00  0.14999999963E+04  0.15000000000E+04  0.10566000000E+00 0.  1.
        994   -1    0    0    0    0 -0.00000000000E+00 -0.00000000000E+00  0.11368683772E-12  0.17120000000E+03  0.17120000000E+03 0.  0.
         13    1    1    2    0    0  0.60407866515E+01  0.13320429942E+02  0.67603834635E+02  0.69168017021E+02  0.10566000000E+00 0.  1.
        994    1    1    2    0    0 -0.67627257548E+01 -0.10323104618E+02  0.20590350707E+01  0.17165657743E+03  0.17120000000E+03 0.  0.
        998    1    1    2    0    0  0.72193910330E+00 -0.29973253239E+01  0.14303371266E+04  0.14303754056E+04  0.10000000000E+02 0.  1.
</event>
<event>
 5    1  0.1572996E-008  0.3783562E+03  0.7957747E-01  0.3458347E+00
         13   -1    0    0    0    0  0.00000000000E+00  0.00000000000E+00  0.14999999963E+04  0.15000000000E+04  0.10566000000E+00 0. -1.
        994   -1    0    0    0    0 -0.00000000000E+00 -0.00000000000E+00  0.11368683772E-12  0.17120000000E+03  0.17120000000E+03 0.  0.
         13    1    1    2    0    0 -0.80316297876E+02 -0.35601853792E+02  0.52235198541E+03  0.52968840607E+03  0.10566000000E+00 0. -1.
        994    1    1    2    0    0  0.80038238113E+02  0.28372140073E+02  0.29598841883E+02  0.19338208121E+03  0.17120000000E+03 0.  0.
        998    1    1    2    0    0  0.27805976323E+00  0.72297137195E+01  0.94804916898E+03  0.94812951272E+03  0.10000000000E+02 0. -1.
</event>
<event>
 5    1  0.1572996E-008  0.3852876E+03  0.7957747E-01  0.3428453E+00
         13   -1    0    0    0    0  0.00000000000E+00  0.00000000000E+00  0.14999999963E+04  0.15000000000E+04  0.10566000000E+00 0.  1.
        994   -1    0    0    0    0 -0.00000000000E+00 -0.00000000000E+00  0.11368683772E-12  0.17120000000E+03  0.17120000000E+03 0.  0.
         13    1    1    2    0    0  0.26326632205E+00  0.10502878888E+02  0.40014708132E+02  0.41371098669E+02  0.10566000000E+00 0.  1.
        994    1    1    2    0    0 -0.25279513904E+01  0.72941907752E+01  0.16832529859E+01  0.17138223099E+03  0.17120000000E+03 0.  0.
        998    1    1    2    0    0  0.22646850683E+01 -0.17797069663E+02  0.14583020352E+04  0.14584466703E+04  0.10000000000E+02 0.  1.
</event>
<event>
 5    1  0.1572996E-008  0.3756020E+03  0.7957747E-01  0.3470535E+00
         13   -1    0    0    0    0  0.00000000000E+00  0.00000000000E+00  0.14999999963E+04  0.15000000000E+04  0.10566000000E+00 0. -1.
        994   -1    0    0    0    0 -0.00000000000E+00 -0.00000000000E+00  0.11368683772E-12  0.17120000000E+03  0.17120000000E+03 0.  0.
         13    1    1    2    0    0  0.37559926337E+02  0.28441030041E+02  0.15989951160E+03  0.16669584647E+03  0.10566000000E+00 0. -1.
        994    1    1    2    0    0 -0.21345216833E+02 -0.40744118253E+02  0.13581010748E+02  0.17779084708E+03  0.17120000000E+03 0.  0.
        998    1    1    2    0    0 -0.16214709504E+02  0.12303088212E+02  0.13265194739E+04  0.13267133065E+04  0.10000000000E+02 0. -1.
</event>
<event>
 5    1  0.1572996E-008  0.3710470E+03  0.7957747E-01  0.3491093E+00
         13   -1    0    0    0    0  0.00000000000E+00  0.00000000000E+00  0.14999999963E+04  0.15000000000E+04  0.10566000000E+00 0.  1.
        994   -1    0    0    0    0 -0.00000000000E+00 -0.00000000000E+00  0.11368683772E-12  0.17120000000E+03  0.17120000000E+03 0.  0.
         13    1    1    2    0    0  0.18026359229E+02 -0.15612836535E+02  0.29444198320E+02  0.37890398131E+02  0.10566000000E+00 0.  1.
        994    1    1    2    0    0 -0.98650496073E+01  0.47957667714E+01  0.91374396783E+01  0.17179421232E+03  0.17120000000E+03 0.  0.
        998    1    1    2    0    0 -0.81613096220E+01  0.10817069763E+02  0.14614183583E+04  0.14615153895E+04  0.10000000000E+02 0.  1.
</event>
<event>
 5    1  0.1572996E-008  0.3814423E+03  0.7957747E-01  0.3444902E+00
         13   -1    0    0    0    0  0.00000000000E+00  0.00000000000E+00  0.14999999963E+04  0.15000000000E+04  0.10566000000E+00 0. -1.
        994   -1    0    0    0    0 -0.00000000000E+00 -0.00000000000E+00  0.11368683772E-12  0.17120000000E+03  0.17120000000E+03 0.  0.
         13    1    1    2    0    0 -0.11515263237E+02 -0.69525335639E+01  0.25505904683E+02  0.28835765086E+02  0.10566000000E+00 0. -1.
        994    1    1    2    0    0  0.54337089625E+01  0.20748323958E+01  0.35194305468E+01  0.17133492497E+03  0.17120000000E+03 0.  0.
        998    1    1    2    0    0  0.60815542742E+01  0.48777011682E+01  0.14709746610E+04  0.14710293099E+04  0.10000000000E+02 0. -1.
</event>
<event>
 5    1  0.1572996E-008  0.3715682E+03  0.7957747E-01  0.3488715E+00
         13   -1    0    0    0    0  0.00000000000E+00  0.00000000000E+00  0.14999999963E+04  0.15000000000E+04  0.10566000000E+00 0. -1.
        994   -1    0    0    0    0 -0.00000000000E+00 -0.00000000000E+00  0.11368683772E-12  0.17120000000E+03  0.17120000000E+03 0.  0.
         13    1    1    2    0    0  0.82525035127E+01  0.24133793018E+02  0.35870278049E+02  0.44013995400E+02  0.10566000000E+00 0. -1.
        994    1    1    2    0    0 -0.86075417004E+01 -0.65436165018E+01  0.88538523950E+01  0.17176943673E+03  0.17120000000E+03 0.  0.
        998    1    1    2    0    0  0.35503818764E+00 -0.17590176517E+02  0.14552758658E+04  0.14554165679E+04  0.10000000000E+02 0. -1.
</event>
<event>
 5    1  0.1572996E-008  0.3748937E+03  0.7957747E-01  0.3473698E+00
         13   -1    0    0    0    0  0.00000000000E+00  0.00000000000E+00  0.14999999963E+04  0.15000000000E+04  0.10566000000E+00 0. -1.
        994   -1    0    0    0    0 -0.00000000000E+00 -0.00000000000E+00  0.11368683772E-12  0.17120000000E+03  0.17120000000E+03 0.  0.
         13    1    1    2    0    0  0.25866548933E+01  0.47631019673E+02  0.18128538967E+03  0.18745615085E+03  0.10566000000E+00 0. -1.
        994    1    1    2    0    0  0.56957355033E+02 -0.19579418605E+02  0.19169992647E+02  0.18249499320E+03  0.17120000000E+03 0.  0.
        998    1    1    2    0    0 -0.59544009926E+02 -0.28051601068E+02  0.12995446140E+04  0.13012488560E+04  0.10000000000E+02 0. -1.
</event>
<event>
 5    1  0.1572996E-008  0.3844011E+03  0.7957747E-01  0.3432216E+00
         13   -1    0    0    0    0  0.00000000000E+00  0.00000000000E+00  0.14999999963E+04  0.15000000000E+04  0.10566000000E+00 0.  1.
        994   -1    0    0    0    0 -0.00000000000E+00 -0.00000000000E+00  0.11368683772E-12  0.17120000000E+03  0.17120000000E+03 0.  0.
         13    1    1    2    0    0  0.11300142803E+02 -0.83186152540E+01  0.52847133010E+02  0.54678361520E+02  0.10566000000E+00 0.  1.
        994    1    1    2    0    0  0.19320820733E+01  0.56374945676E+01  0.20447826523E+01  0.17131589366E+03  0.17120000000E+03 0.  0.
        998    1    1    2    0    0 -0.13232224877E+02  0.26811206863E+01  0.14451080806E+04  0.14452057448E+04  0.10000000000E+02 0.  1.
</event>
<event>
 5    1  0.1572996E-008  0.3782315E+03  0.7957747E-01  0.3458895E+00
         13   -1    0    0    0    0  0.00000000000E+00  0.00000000000E+00  0.14999999963E+04  0.15000000000E+04  0.10566000000E+00 0. -1.
        994   -1    0    0    0    0 -0.00000000000E+00 -0.00000000000E+00  0.11368683772E-12  0.17120000000E+03  0.17120000000E+03 0.  0.
         13    1    1    2    0    0  0.12896361787E+03 -0.15720635481E+02  0.74422341434E+03  0.75547816297E+03  0.10566000000E+00 0. -1.
        994    1    1    2    0    0 -0.13217456918E+03  0.17432593974E+02  0.67330357832E+02  0.22719337393E+03  0.17120000000E+03 0.  0.
        998    1    1    2    0    0  0.32109513125E+01 -0.17119584929E+01  0.68844622411E+03  0.68852846310E+03  0.10000000000E+02 0.  0.
</event>
<event>
 5    1  0.1572996E-008  0.3732156E+03  0.7957747E-01  0.3481242E+00
         13   -1    0    0    0    0  0.00000000000E+00  0.00000000000E+00  0.14999999963E+04  0.15000000000E+04  0.10566000000E+00 0.  1.
        994   -1    0    0    0    0 -0.00000000000E+00 -0.00000000000E+00  0.11368683772E-12  0.17120000000E+03  0.17120000000E+03 0.  0.
         13    1    1    2    0    0 -0.48870167466E+02  0.59931753155E+01  0.15240144439E+03  0.16015749384E+03  0.10566000000E+00 0.  1.
        994    1    1    2    0    0  0.35362262974E+02 -0.14543556881E+01  0.11893640352E+02  0.17522415209E+03  0.17120000000E+03 0.  0.
        998    1    1    2    0    0  0.13507904492E+02 -0.45388196274E+01  0.13357049115E+04  0.13358183541E+04  0.10000000000E+02 0.  1.
</event>
<event>
 5    1  0.1572996E-008  0.3793965E+03  0.7957747E-01  0.3453791E+00
         13   -1    0    0    0    0  0.00000000000E+00  0.00000000000E+00  0.14999999963E+04  0.15000000000E+04  0.10566000000E+00 0.  1.
        994   -1    0    0    0    0 -0.00000000000E+00 -0.00000000000E+00  0.11368683772E-12  0.17120000000E+03  0.17120000000E+03 0.  0.
         13    1    1    2    0    0  0.26008852695E+02 -0.29634646349E+02  0.19529038787E+03  0.19923107047E+03  0.10566000000E+00 0.  1.
        994    1    1    2    0    0  0.57867616176E+01  0.14124794749E+02  0.52189416805E+01  0.17195834899E+03  0.17120000000E+03 0.  0.
        998    1    1    2    0    0 -0.31795614313E+02  0.15509851599E+02  0.12994906667E+04  0.13000105805E+04  0.10000000000E+02 0.  1.
</event>
<event>
 5    1  0.1572996E-008  0.3783457E+03  0.7957747E-01  0.3458394E+00
         13   -1    0    0    0    0  0.00000000000E+00  0.00000000000E+00  0.14999999963E+04  0.15000000000E+04  0.10566000000E+00 0.  1.
        994   -1    0    0    0    0 -0.00000000000E+00 -0.00000000000E+00  0.11368683772E-12  0.17120000000E+03  0.17120000000E+03 0.  0.
         13    1    1    2    0    0  0.16394779247E+02 -0.14526379701E+02  0.44849317496E+02  0.49912693152E+02  0.10566000000E+00 0.  1.
        994    1    1    2    0    0 -0.16817607652E+02  0.17447642049E+02  0.69470059203E+01  0.17304610088E+03  0.17120000000E+03 0.  0.
        998    1    1    2    0    0  0.42282840475E+00 -0.29212623479E+01  0.14482036729E+04  0.14482412060E+04  0.10000000000E+02 0.  1.
</event>
<event>
 5    1  0.1572996E-008  0.3833639E+03  0.7957747E-01  0.3436641E+00
         13   -1    0    0    0    0  0.00000000000E+00  0.00000000000E+00  0.14999999963E+04  0.15000000000E+04  0.10566000000E+00 0. -1.
        994   -1    0    0    0    0 -0.00000000000E+00 -0.00000000000E+00  0.11368683772E-12  0.17120000000E+03  0.17120000000E+03 0.  0.
         13    1    1    2    0    0 -0.12565675729E+02 -0.20254919012E+02  0.12254770886E+03  0.12484434333E+03  0.10566000000E+00 0. -1.
        994    1    1    2    0    0  0.55468151796E+01  0.42740964697E+01  0.26067633918E+01  0.17136297813E+03  0.17120000000E+03 0.  0.
        998    1    1    2    0    0  0.70188605490E+01  0.15980822542E+02  0.13748455240E+04  0.13749926785E+04  0.10000000000E+02 0. -1.
</event>
<event>
 5    1  0.1572996E-008  0.3690752E+03  0.7957747E-01  0.3500152E+00
         13   -1    0    0    0    0  0.00000000000E+00  0.00000000000E+00  0.14999999963E+04  0.15000000000E+04  0.10566000000E+00 0.  1.
        994   -1    0    0    0    0 -0.00000000000E+00 -0.00000000000E+00  0.11368683772E-12  0.17120000000E+03  0.17120000000E+03 0.  0.
         13    1    1    2    0    0 -0.33440125562E+02 -0.34867067334E+02  0.12593599970E+03  0.13488454902E+03  0.10566000000E+00 0.  1.
        994    1    1    2    0    0  0.10546185914E+02 -0.21239616109E+02  0.12412667984E+02  0.17327970930E+03  0.17120000000E+03 0.  0.
        998    1    1    2    0    0  0.22893939648E+02  0.56106683444E+02  0.13616513286E+04  0.13630357417E+04  0.10000000000E+02 0.  1.
</event>
<event>
 5    1  0.1572996E-008  0.3695857E+03  0.7957747E-01  0.3497797E+00
         13   -1    0    0    0    0  0.00000000000E+00  0.00000000000E+00  0.14999999963E+04  0.15000000000E+04  0.10566000000E+00 0.  1.
        994   -1    0    0    0    0 -0.00000000000E+00 -0.00000000000E+00  0.11368683772E-12  0.17120000000E+03  0.17120000000E+03 0.  0.
         13    1    1    2    0    0  0.18404321142E+02 -0.15791932665E+01  0.11523415891E+02  0.21771843420E+02  0.10566000000E+00 0.  1.
        994    1    1    2    0    0  0.10642692202E+01  0.18509743303E+02  0.11920794890E+02  0.17261311832E+03  0.17120000000E+03 0.  0.
        998    1    1    2    0    0 -0.19468590363E+02 -0.16930550036E+02  0.14765557855E+04  0.14768150383E+04  0.10000000000E+02 0.  1.
</event>
<event>
 5    1  0.1572996E-008  0.3856997E+03  0.7957747E-01  0.3426710E+00
         13   -1    0    0    0    0  0.00000000000E+00  0.00000000000E+00  0.14999999963E+04  0.15000000000E+04  0.10566000000E+00 0.  1.
        994   -1    0    0    0    0 -0.00000000000E+00 -0.00000000000E+00  0.11368683772E-12  0.17120000000E+03  0.17120000000E+03 0.  0.
         13    1    1    2    0    0 -0.52854940629E+01 -0.91992158218E+01  0.44391069201E+02  0.45641430829E+02  0.10566000000E+00 0.  1.
        994    1    1    2    0    0 -0.78950370307E+00  0.76587760677E+01  0.14776620756E+01  0.17137941432E+03  0.17120000000E+03 0.  0.
        998    1    1    2    0    0  0.60749977660E+01  0.15404397540E+01  0.14541312650E+04  0.14541791549E+04  0.10000000000E+02 0.  1.
</event>
<event>
 5    1  0.1572996E-008  0.3978447E+03  0.7957747E-01  0.3376958E+00
         13   -1    0    0    0    0  0.00000000000E+00  0.00000000000E+00  0.14999999963E+04  0.15000000000E+04  0.10566000000E+00 0. -1.
        994   -1    0    0    0    0 -0.00000000000E+00 -0.00000000000E+00  0.11368683772E-12  0.17120000000E+03  0.17120000000E+03 0.  0.
         13    1    1    2    0    0  0.53302647310E+02  0.13232653652E+03  0.41865142043E+03  0.44229007164E+03  0.10566000000E+00 0. -1.
        994    1    1    2    0    0 -0.42828045126E+02 -0.56728017904E+02  0.46380535555E+02  0.19108349888E+03  0.17120000000E+03 0.  0.
        998    1    1    2    0    0 -0.10474602184E+02 -0.75598518616E+02  0.10349680403E+04  0.10378264295E+04  0.10000000000E+02 0. -1.
</event>
<event>
 5    1  0.1572996E-008  0.3820106E+03  0.7957747E-01  0.3442450E+00
         13   -1    0    0    0    0  0.00000000000E+00  0.00000000000E+00  0.14999999963E+04  0.15000000000E+04  0.10566000000E+00 0.  1.
        994   -1    0    0    0    0 -0.00000000000E+00 -0.00000000000E+00  0.11368683772E-12  0.17120000000E+03  0.17120000000E+03 0.  0.
         13    1    1    2    0    0  0.12163451911E+02 -0.91289622439E+01  0.36461894366E+02  0.39506561719E+02  0.10566000000E+00 0.  1.
        994    1    1    2    0    0 -0.51273310550E+01  0.35653377309E+01  0.32511665200E+01  0.17134471466E+03  0.17120000000E+03 0.  0.
        998    1    1    2    0    0 -0.70361208564E+01  0.55636245131E+01  0.14602869354E+04  0.14603487236E+04  0.10000000000E+02 0.  1.
</event>
<event>
 5    1  0.1572996E-008  0.3810716E+03  0.7957747E-01  0.3446506E+00
         13   -1    0    0    0    0  0.00000000000E+00  0.00000000000E+00  0.14999999963E+04  0.15000000000E+04  0.10566000000E+00 0. -1.
        994   -1    0    0    0    0 -0.00000000000E+00 -0.00000000000E+00  0.11368683772E-12  0.17120000000E+03  0.17120000000E+03 0.  0.
         13    1    1    2    0    0  0.10989768779E+02  0.27352345258E+02  0.13462651063E+03  0.13781594370E+03  0.10566000000E+00 0. -1.
        994    1    1    2    0    0  0.50762952592E+01 -0.15616093987E+01  0.36871610774E+01  0.17132204340E+03  0.17120000000E+03 0.  0.
        998    1    1    2    0    0 -0.16066064039E+02 -0.25790735859E+02  0.13616863246E+04  0.13620620129E+04  0.10000000000E+02 0. -1.
</event>
<event>
 5    1  0.1572996E-008  0.3763932E+03  0.7957747E-01  0.3467015E+00
         13   -1    0    0    0    0  0.00000000000E+00  0.00000000000E+00  0.14999999963E+04  0.15000000000E+04  0.10566000000E+00 0.  1.
        994   -1    0    0    0    0 -0.00000000000E+00 -0.00000000000E+00  0.11368683772E-12  0.17120000000E+03  0.17120000000E+03 0.  0.
         13    1    1    2    0    0 -0.54561848716E+02 -0.16817210647E+02  0.11070387105E+03  0.12455991385E+03  0.10566000000E+00 0.  1.
        994    1    1    2    0    0  0.27404430477E+02  0.18663215556E+02  0.18301518290E+02  0.17533882627E+03  0.17120000000E+03 0.  0.
        998    1    1    2    0    0  0.27157418239E+02 -0.18460049096E+01  0.13709946069E+04  0.13713012599E+04  0.10000000000E+02 0.  1.
</event>
<event>
 5    1  0.1572996E-008  0.2983094E+03  0.7957747E-01  0.3908163E+00
         13   -1    0    0    0    0  0.00000000000E+00  0.00000000000E+00  0.14999999963E+04  0.15000000000E+04  0.10566000000E+00 0. -1.
        994   -1    0    0    0    0 -0.00000000000E+00 -0.00000000000E+00  0.11368683772E-12  0.17120000000E+03  0.17120000000E+03 0.  0.
         13    1    1    2    0    0 -0.12897225183E+03  0.65387698005E+02  0.79856679983E+03  0.81155304063E+03  0.10566000000E+00 0. -1.
        994    1    1    2    0    0  0.29260224222E+02 -0.12702963732E+03  0.83821591704E+02  0.23092896898E+03  0.17120000000E+03 0.  0.
        998    1    1    2    0    0  0.99712027609E+02  0.61641939311E+02  0.61761160474E+03  0.62871799039E+03  0.10000000000E+02 0. -1.
</event>
<event>
 5    1  0.1572996E-008  0.3839900E+03  0.7957747E-01  0.3433967E+00
         13   -1    0    0    0    0  0.00000000000E+00  0.00000000000E+00  0.14999999963E+04  0.15000000000E+04  0.10566000000E+00 0.  1.
        994   -1    0    0    0    0 -0.00000000000E+00 -0.00000000000E+00  0.11368683772E-12  0.17120000000E+03  0.17120000000E+03 0.  0.
         13    1    1    2    0    0 -0.18787356945E+02  0.38408638261E+01  0.10388104548E+03  0.10563616706E+03  0.10566000000E+00 0.  1.
        994    1    1    2    0    0 -0.11120811770E+02  0.14296577171E+02  0.32156062458E+01  0.17218549502E+03  0.17120000000E+03 0.  0.
        998    1    1    2    0    0  0.29908168715E+02 -0.18137440997E+02  0.13929033445E+04  0.13933783379E+04  0.10000000000E+02 0.  1.
</event>
<event>
 5    1  0.1572996E-008  0.3755289E+03  0.7957747E-01  0.3470861E+00
         13   -1    0    0    0    0  0.00000000000E+00  0.00000000000E+00  0.14999999963E+04  0.15000000000E+04  0.10566000000E+00 0. -1.
        994   -1    0    0    0    0 -0.00000000000E+00 -0.00000000000E+00  0.11368683772E-12  0.17120000000E+03  0.17120000000E+03 0.  0.
         13    1    1    2    0    0 -0.28551757951E+02 -0.13406238957E+03  0.70380607414E+03  0.71702923814E+03  0.10566000000E+00 0. -1.
        994    1    1    2    0    0  0.26350498231E+02  0.13626285491E+03  0.74852963090E+02  0.23275377649E+03  0.17120000000E+03 0.  0.
        998    1    1    2    0    0  0.22012597191E+01 -0.22004653389E+01  0.72134095905E+03  0.72141698538E+03  0.10000000000E+02 0.  0.
</event>
<event>
 5    1  0.1572996E-008  0.3687057E+03  0.7957747E-01  0.3501861E+00
         13   -1    0    0    0    0  0.00000000000E+00  0.00000000000E+00  0.14999999963E+04  0.15000000000E+04  0.10566000000E+00 0. -1.
        994   -1    0    0    0    0 -0.00000000000E+00 -0.00000000000E+00  0.11368683772E-12  0.17120000000E+03  0.17120000000E+03 0.  0.
         13    1    1    2    0    0  0.30803884595E+02  0.12373290601E+02  0.48927103808E+02  0.59125715873E+02  0.10566000000E+00 0. -1.
        994    1    1    2    0    0 -0.28510834983E+02 -0.56543068781E+01  0.13201903164E+02  0.17415099525E+03  0.17120000000E+03 0.  0.
        998    1    1    2    0    0 -0.22930496121E+01 -0.67189837228E+01  0.14378709893E+04  0.14379232889E+04  0.10000000000E+02 0. -1.
</event>
<event>
 5    1  0.1572996E-008  0.3822090E+03  0.7957747E-01  0.3441596E+00
         13   -1    0    0    0    0  0.00000000000E+00  0.00000000000E+00  0.14999999963E+04  0.15000000000E+04  0.10566000000E+00 0.  1.
        994   -1    0    0    0    0 -0.00000000000E+00 -0.00000000000E+00  0.11368683772E-12  0.17120000000E+03  0.17120000000E+03 0.  0.
         13    1    1    2    0    0 -0.18038683052E+02 -0.15421925683E+02  0.87543256044E+02  0.90703157171E+02  0.10566000000E+00 0.  1.
        994    1    1    2    0    0  0.21058634012E+02  0.12693443294E+02  0.50311964707E+01  0.17302988906E+03  0.17120000000E+03 0.  0.
        998    1    1    2    0    0 -0.30199509599E+01  0.27284823890E+01  0.14074255438E+04  0.14074669538E+04  0.10000000000E+02 0.  1.
</event>
<event>
 5    1  0.1572996E-008  0.3858882E+03  0.7957747E-01  0.3425914E+00
         13   -1    0    0    0    0  0.00000000000E+00  0.00000000000E+00  0.14999999963E+04  0.15000000000E+04  0.10566000000E+00 0.  1.
        994   -1    0    0    0    0 -0.00000000000E+00 -0.00000000000E+00  0.11368683772E-12  0.17120000000E+03  0.17120000000E+03 0.  0.
         13    1    1    2    0    0  0.32072732453E+01 -0.12727373551E+02  0.73177142384E+02  0.74344992909E+02  0.10566000000E+00 0.  1.
        994    1    1    2    0    0 -0.32231658489E+00  0.87464252218E+01  0.14410402049E+01  0.17142963699E+03  0.17120000000E+03 0.  0.
        998    1    1    2    0    0 -0.28849566604E+01  0.39809483295E+01  0.14253818137E+04  0.14254253701E+04  0.10000000000E+02 0.  1.
</event>
<event>
 5    1  0.1572996E-008  0.3812191E+03  0.7957747E-01  0.3445867E+00
         13   -1    0    0    0    0  0.00000000000E+00  0.00000000000E+00  0.14999999963E+04  0.15000000000E+04  0.10566000000E+00 0. -1.
        994   -1    0    0    0    0 -0.00000000000E+00 -0.00000000000E+00  0.11368683772E-12  0.17120000000E+03  0.17120000000E+03 0.  0.
         13    1    1    2    0    0  0.36145805670E+02  0.21727421121E+02  0.45059133418E+02  0.61716584194E+02  0.10566000000E+00 0. -1.
        994    1    1    2    0    0 -0.31724215196E+02 -0.21052780642E+02  0.22293197764E+02  0.17679386887E+03  0.17120000000E+03 0.  0.
        998    1    1    2    0    0 -0.44215904734E+01 -0.67464047982E+00  0.14326476651E+04  0.14326895469E+04  0.10000000000E+02 0. -1.
</event>
<event>
 5    1  0.1572996E-008  0.3824325E+03  0.7957747E-01  0.3440635E+00
         13   -1    0    0    0    0  0.00000000000E+00  0.00000000000E+00  0.14999999963E+04  0.15000000000E+04  0.10566000000E+00 0. -1.
        994   -1    0    0    0    0 -0.00000000000E+00 -0.00000000000E+00  0.11368683772E-12  0.17120000000E+03  0.17120000000E+03 0.  0.
         13    1    1    2    0    0 -0.62303209577E+01  0.10842835131E+02  0.25707936823E+02  0.28588339453E+02  0.10566000000E+00 0. -1.
        994    1    1    2    0    0  0.15983256803E+01 -0.10213789837E+02  0.32647390170E+01  0.17154292369E+03  0.17120000000E+03 0.  0.
        998    1    1    2    0    0  0.46319952774E+01 -0.62904529393E+00  0.14710273204E+04  0.14710687369E+04  0.10000000000E+02 0. -1.
</event>
<event>
 5    1  0.1572996E-008  0.3813162E+03  0.7957747E-01  0.3445447E+00
         13   -1    0    0    0    0  0.00000000000E+00  0.00000000000E+00  0.14999999963E+04  0.15000000000E+04  0.10566000000E+00 0. -1.
        994   -1    0    0    0    0 -0.00000000000E+00 -0.00000000000E+00  0.11368683772E-12  0.17120000000E+03  0.17120000000E+03 0.  0.
         13    1    1    2    0    0  0.24216268288E+02 -0.12449794603E+02  0.93130531181E+02  0.97029542086E+02  0.10566000000E+00 0. -1.
        994    1    1    2    0    0 -0.38404202927E+02  0.14097637407E+02  0.90608788427E+01  0.17625312964E+03  0.17120000000E+03 0.  0.
        998    1    1    2    0    0  0.14187934639E+02 -0.16478428038E+01  0.13978085863E+04  0.13979173283E+04  0.10000000000E+02 0. -1.
</event>
<event>
 5    1  0.1572996E-008  0.3854016E+03  0.7957747E-01  0.3427971E+00
         13   -1    0    0    0    0  0.00000000000E+00  0.00000000000E+00  0.14999999963E+04  0.15000000000E+04  0.10566000000E+00 0. -1.
        994   -1    0    0    0    0 -0.00000000000E+00 -0.00000000000E+00  0.11368683772E-12  0.17120000000E+03  0.17120000000E+03 0.  0.
         13    1    1    2    0    0 -0.20524313249E+01  0.14432756720E+02  0.73140047213E+02  0.74578781240E+02  0.10566000000E+00 0. -1.
        994    1    1    2    0    0 -0.23612152027E+01 -0.12764504076E+02  0.19845340184E+01  0.17170290119E+03  0.17120000000E+03 0.  0.
        998    1    1    2    0    0  0.44136465276E+01 -0.16682526447E+01  0.14248754150E+04  0.14249183176E+04  0.10000000000E+02 0. -1.
</event>
<event>
 5    1  0.1572996E-008  0.3801582E+03  0.7957747E-01  0.3450470E+00
         13   -1    0    0    0    0  0.00000000000E+00  0.00000000000E+00  0.14999999963E+04  0.15000000000E+04  0.10566000000E+00 0. -1.
        994   -1    0    0    0    0 -0.00000000000E+00 -0.00000000000E+00  0.11368683772E-12  0.17120000000E+03  0.17120000000E+03 0.  0.
         13    1    1    2    0    0 -0.19868012833E+02 -0.15564782593E+01  0.47008961373E+02  0.51058928425E+02  0.10566000000E+00 0. -1.
        994    1    1    2    0    0  0.15644775417E+02  0.21811464124E+01  0.48874211271E+01  0.17199663742E+03  0.17120000000E+03 0.  0.
        998    1    1    2    0    0  0.42232374161E+01 -0.62466815308E+00  0.14481036138E+04  0.14481444342E+04  0.10000000000E+02 0. -1.
</event>
<event>
 5    1  0.1572996E-008  0.3998084E+03  0.7957747E-01  0.3369198E+00
         13   -1    0    0    0    0  0.00000000000E+00  0.00000000000E+00  0.14999999963E+04  0.15000000000E+04  0.10566000000E+00 0.  1.
        994   -1    0    0    0    0 -0.00000000000E+00 -0.00000000000E+00  0.11368683772E-12  0.17120000000E+03  0.17120000000E+03 0.  0.
         13    1    1    2    0    0 -0.14262107103E+03 -0.82824314593E+02  0.35405726552E+03  0.39058570816E+03  0.10566000000E+00 0.  1.
        994    1    1    2    0    0  0.13657432845E+03  0.83106428605E+02  0.13651337925E+03  0.27111725947E+03  0.17120000000E+03 0.  0.
        998    1    1    2    0    0  0.60467425807E+01 -0.28211401202E+00  0.10094293515E+04  0.10094970324E+04  0.10000000000E+02 0.  1.
</event>
<event>
 5    1  0.1572996E-008  0.3757815E+03  0.7957747E-01  0.3469735E+00
         13   -1    0    0    0    0  0.00000000000E+00  0.00000000000E+00  0.14999999963E+04  0.15000000000E+04  0.10566000000E+00 0.  1.
        994   -1    0    0    0    0 -0.00000000000E+00 -0.00000000000E+00  0.11368683772E-12  0.17120000000E+03  0.17120000000E+03 0.  0.
         13    1    1    2    0    0 -0.62467846583E+01  0.11772797788E+02  0.11385139506E+02  0.17528652313E+02  0.10566000000E+00 0.  1.
        994    1    1    2    0    0  0.22493670398E+01 -0.80677989255E+01  0.65158204186E+01  0.17152855432E+03  0.17120000000E+03 0.  0.
        998    1    1    2    0    0  0.39974176185E+01 -0.37049988625E+01  0.14820990364E+04  0.14821427934E+04  0.10000000000E+02 0.  1.
</event>
<event>
 5    1  0.1572996E-008  0.3815478E+03  0.7957747E-01  0.3444447E+00
         13   -1    0    0    0    0  0.00000000000E+00  0.00000000000E+00  0.14999999963E+04  0.15000000000E+04  0.10566000000E+00 0.  1.
        994   -1    0    0    0    0 -0.00000000000E+00 -0.00000000000E+00  0.11368683772E-12  0.17120000000E+03  0.17120000000E+03 0.  0.
         13    1    1    2    0    0 -0.28987346375E+02  0.25485247986E+01  0.12118114214E+03  0.12462600693E+03  0.10566000000E+00 0.  1.
        994    1    1    2    0    0  0.24883955930E+02  0.18666692780E+02  0.65788918097E+01  0.17412747773E+03  0.17120000000E+03 0.  0.
        998    1    1    2    0    0  0.41033904453E+01 -0.21215217578E+02  0.13722399623E+04  0.13724465153E+04  0.10000000000E+02 0.  1.
</event>
<event>
 5    1  0.1641053E-008  0.3862723E+03  0.7957747E-01  0.3424294E+00
         13   -1    0    0    0    0  0.00000000000E+00  0.00000000000E+00  0.14999999963E+04  0.15000000000E+04  0.10566000000E+00 0. -1.
        994   -1    0    0    0    0 -0.00000000000E+00 -0.00000000000E+00  0.11368683772E-12  0.17120000000E+03  0.17120000000E+03 0.  0.
         13    1    1    2    0    0  0.10650662155E+02  0.26170838977E+01  0.59130090214E+02  0.60138710206E+02  0.10566000000E+00 0. -1.
        994    1    1    2    0    0 -0.12905736355E+02  0.28456900139E+01  0.15720197149E+01  0.17171653161E+03  0.17120000000E+03 0.  0.
        998    1    1    2    0    0  0.22550741999E+01 -0.54627739117E+01  0.14392978863E+04  0.14393447582E+04  0.10000000000E+02 0. -1.
</event>
<event>
 5    1  0.1572996E-008  0.3684236E+03  0.7957747E-01  0.3503167E+00
         13   -1    0    0    0    0  0.00000000000E+00  0.00000000000E+00  0.14999999963E+04  0.15000000000E+04  0.10566000000E+00 0. -1.
        994   -1    0    0    0    0 -0.00000000000E+00 -0.00000000000E+00  0.11368683772E-12  0.17120000000E+03  0.17120000000E+03 0.  0.
         13    1    1    2    0    0  0.68280858501E+02 -0.18875045096E+02  0.38767086193E+03  0.39409041008E+03  0.10566000000E+00 0. -1.
        994    1    1    2    0    0  0.20520170782E+02  0.15747585732E+02  0.12437335551E+02  0.17358914477E+03  0.17120000000E+03 0.  0.
        998    1    1    2    0    0 -0.88801029283E+02  0.31274593638E+01  0.10998917988E+04  0.11035204451E+04  0.10000000000E+02 0. -1.
</event>
<event>
 5    1  0.1572996E-008  0.3703551E+03  0.7957747E-01  0.3494260E+00
         13   -1    0    0    0    0  0.00000000000E+00  0.00000000000E+00  0.14999999963E+04  0.15000000000E+04  0.10566000000E+00 0. -1.
        994   -1    0    0    0    0 -0.00000000000E+00 -0.00000000000E+00  0.11368683772E-12  0.17120000000E+03  0.17120000000E+03 0.  0.
         13    1    1    2    0    0 -0.76111777892E+02 -0.17102309319E+02  0.45216470333E+03  0.45884465979E+03  0.10566000000E+00 0. -1.
        994    1    1    2    0    0  0.25527211351E+02 -0.43460867537E+02  0.17908582429E+02  0.17936176530E+03  0.17120000000E+03 0.  0.
        998    1    1    2    0    0  0.50584566541E+02  0.60563176855E+02  0.10299267105E+04  0.10329935749E+04  0.10000000000E+02 0. -1.
</event>
<event>
 5    1  0.1572996E-008  0.3779044E+03  0.7957747E-01  0.3460334E+00
         13   -1    0    0    0    0  0.00000000000E+00  0.00000000000E+00  0.14999999963E+04  0.15000000000E+04  0.10566000000E+00 0.  1.
        994   -1    0    0    0    0 -0.00000000000E+00 -0.00000000000E+00  0.11368683772E-12  0.17120000000E+03  0.17120000000E+03 0.  0.
         13    1    1    2    0    0  0.53592278806E+02 -0.10928465778E+03  0.32565745480E+03  0.34766083732E+03  0.10566000000E+00 0.  1.
        994    1    1    2    0    0 -0.64517390735E+02  0.12520954936E+03  0.90465365980E+02  0.23944382932E+03  0.17120000000E+03 0.  0.
        998    1    1    2    0    0  0.10925111929E+02 -0.15924891581E+02  0.10838771755E+04  0.10840953334E+04  0.10000000000E+02 0.  1.
</event>
<event>
 5    1  0.1572996E-008  0.3718092E+03  0.7957747E-01  0.3487617E+00
         13   -1    0    0    0    0  0.00000000000E+00  0.00000000000E+00  0.14999999963E+04  0.15000000000E+04  0.10566000000E+00 0. -1.
        994   -1    0    0    0    0 -0.00000000000E+00 -0.00000000000E+00  0.11368683772E-12  0.17120000000E+03  0.17120000000E+03 0.  0.
         13    1    1    2    0    0  0.10896771803E+02  0.31630789522E+02  0.42949691959E+02  0.54442021316E+02  0.10566000000E+00 0. -1.
        994    1    1    2    0    0  0.54063901159E+01 -0.21124347610E+02  0.13573229408E+02  0.17311597174E+03  0.17120000000E+03 0.  0.
        998    1    1    2    0    0 -0.16303161919E+02 -0.10506441911E+02  0.14434770749E+04  0.14436420069E+04  0.10000000000E+02 0. -1.
</event>
<event>
 5    1  0.1572996E-008  0.3791132E+03  0.7957747E-01  0.3455029E+00
         13   -1    0    0    0    0  0.00000000000E+00  0.00000000000E+00  0.14999999963E+04  0.15000000000E+04  0.10566000000E+00 0. -1.
        994   -1    0    0    0    0 -0.00000000000E+00 -0.00000000000E+00  0.11368683772E-12  0.17120000000E+03  0.17120000000E+03 0.  0.
         13    1    1    2    0    0 -0.12126063554E+02  0.99681848229E+00  0.13895076362E+02  0.18469417303E+02  0.10566000000E+00 0. -1.
        994    1    1    2    0    0  0.16965302439E+02  0.42176390179E+01  0.56067489481E+01  0.17218154837E+03  0.17120000000E+03 0.  0.
        998    1    1    2    0    0 -0.48392388859E+01 -0.52144575002E+01  0.14804981710E+04  0.14805490343E+04  0.10000000000E+02 0. -1.
</event>
<event>
 5    1  0.1572996E-008  0.3778968E+03  0.7957747E-01  0.3460368E+00
         13   -1    0    0    0    0  0.00000000000E+00  0.00000000000E+00  0.14999999963E+04  0.15000000000E+04  0.10566000000E+00 0.  1.
        994   -1    0    0    0    0 -0.00000000000E+00 -0.00000000000E+00  0.11368683772E-12  0.17120000000E+03  0.17120000000E+03 0.  0.
         13    1    1    2    0    0 -0.19591961684E+02 -0.29638067323E+01  0.35257570377E+02  0.40444239959E+02  0.10566000000E+00 0.  1.
        994    1    1    2    0    0  0.16508678314E+02  0.65887649967E+01  0.62628894151E+01  0.17223417799E+03  0.17120000000E+03 0.  0.
        998    1    1    2    0    0  0.30832833698E+01 -0.36249582644E+01  0.14584795365E+04  0.14585215821E+04  0.10000000000E+02 0.  1.
</event>
<event>
 5    1  0.1572996E-008  0.3834398E+03  0.7957747E-01  0.3436316E+00
         13   -1    0    0    0    0  0.00000000000E+00  0.00000000000E+00  0.14999999963E+04  0.15000000000E+04  0.10566000000E+00 0.  1.
        994   -1    0    0    0    0 -0.00000000000E+00 -0.00000000000E+00  0.11368683772E-12  0.17120000000E+03  0.17120000000E+03 0.  0.
         13    1    1    2    0    0  0.12044450115E+02 -0.28517465150E+02  0.18474860008E+03  0.18732424027E+03  0.10566000000E+00 0.  1.
        994    1    1    2    0    0 -0.25508286203E+02  0.18232441375E+02  0.56630177642E+01  0.17413961167E+03  0.17120000000E+03 0.  0.
        998    1    1    2    0    0  0.13463836088E+02  0.10285023775E+02  0.13095883784E+04  0.13097361481E+04  0.10000000000E+02 0.  1.
</event>
<event>
 5    1  0.1572996E-008  0.3811088E+03  0.7957747E-01  0.3446345E+00
         13   -1    0    0    0    0  0.00000000000E+00  0.00000000000E+00  0.14999999963E+04  0.15000000000E+04  0.10566000000E+00 0. -1.
        994   -1    0    0    0    0 -0.00000000000E+00 -0.00000000000E+00  0.11368683772E-12  0.17120000000E+03  0.17120000000E+03 0.  0.
         13    1    1    2    0    0  0.26724015066E+02  0.10754944245E+01  0.99627188408E+02  0.10315482298E+03  0.10566000000E+00 0. -1.
        994    1    1    2    0    0 -0.14487805418E+02 -0.19759508529E+02  0.55765871626E+01  0.17303431165E+03  0.17120000000E+03 0.  0.
        998    1    1    2    0    0 -0.12236209648E+02  0.18684014105E+02  0.13947962207E+04  0.13950108654E+04  0.10000000000E+02 0. -1.
</event>
<event>
 5    1  0.1572996E-008  0.3845846E+03  0.7957747E-01  0.3431436E+00
         13   -1    0    0    0    0  0.00000000000E+00  0.00000000000E+00  0.14999999963E+04  0.15000000000E+04  0.10566000000E+00 0. -1.
        994   -1    0    0    0    0 -0.00000000000E+00 -0.00000000000E+00  0.11368683772E-12  0.17120000000E+03  0.17120000000E+03 0.  0.
         13    1    1    2    0    0  0.80065562938E+02 -0.65228329325E+02  0.33468971708E+03  0.35026054188E+03  0.10566000000E+00 0. -1.
        994    1    1    2    0    0 -0.26598878292E+02  0.11035585293E+02  0.21930861284E+02  0.17498481976E+03  0.17120000000E+03 0.  0.
        998    1    1    2    0    0 -0.53466684645E+02  0.54192744032E+02  0.11433794179E+04  0.11459546384E+04  0.10000000000E+02 0. -1.
</event>
<event>
 5    1  0.1572996E-008  0.3836024E+03  0.7957747E-01  0.3435621E+00
         13   -1    0    0    0    0  0.00000000000E+00  0.00000000000E+00  0.14999999963E+04  0.15000000000E+04  0.10566000000E+00 0.  1.
        994   -1    0    0    0    0 -0.00000000000E+00 -0.00000000000E+00  0.11368683772E-12  0.17120000000E+03  0.17120000000E+03 0.  0.
         13    1    1    2    0    0 -0.15746076201E+02  0.51209180686E+01  0.60198352065E+02  0.62434089030E+02  0.10566000000E+00 0.  1.
        994    1    1    2    0    0  0.68502688904E+01  0.51329129774E+01  0.25677222455E+01  0.17143309534E+03  0.17120000000E+03 0.  0.
        998    1    1    2    0    0  0.88958073102E+01 -0.10253831046E+02  0.14372339220E+04  0.14373328156E+04  0.10000000000E+02 0.  1.
</event>
<event>
 5    1  0.1572996E-008  0.3773953E+03  0.7957747E-01  0.3462579E+00
         13   -1    0    0    0    0  0.00000000000E+00  0.00000000000E+00  0.14999999963E+04  0.15000000000E+04  0.10566000000E+00 0.  1.
        994   -1    0    0    0    0 -0.00000000000E+00 -0.00000000000E+00  0.11368683772E-12  0.17120000000E+03  0.17120000000E+03 0.  0.
         13    1    1    2    0    0  0.10099498891E+02 -0.34845918852E+02  0.99342568989E+02  0.10576008281E+03  0.10566000000E+00 0.  1.
        994    1    1    2    0    0 -0.34980649251E+02  0.54016276456E+02  0.19548254350E+02  0.18393743010E+03  0.17120000000E+03 0.  0.
        998    1    1    2    0    0  0.24881150360E+02 -0.19170357604E+02  0.13811091729E+04  0.13815024871E+04  0.10000000000E+02 0.  1.
</event>
<event>
 5    1  0.1572996E-008  0.3839105E+03  0.7957747E-01  0.3434306E+00
         13   -1    0    0    0    0  0.00000000000E+00  0.00000000000E+00  0.14999999963E+04  0.15000000000E+04  0.10566000000E+00 0. -1.
        994   -1    0    0    0    0 -0.00000000000E+00 -0.00000000000E+00  0.11368683772E-12  0.17120000000E+03  0.17120000000E+03 0.  0.
         13    1    1    2    0    0 -0.13562163559E+02  0.12038533506E+02  0.77250842148E+02  0.79350881192E+02  0.10566000000E+00 0. -1.
        994    1    1    2    0    0 -0.62002787002E+00 -0.11876279150E+02  0.26389130864E+01  0.17163284739E+03  0.17120000000E+03 0.  0.
        998    1    1    2    0    0  0.14182191429E+02 -0.16225435681E+00  0.14201102410E+04  0.14202162714E+04  0.10000000000E+02 0. -1.
</event>
<event>
 5    1  0.1572996E-008  0.3784407E+03  0.7957747E-01  0.3457976E+00
         13   -1    0    0    0    0  0.00000000000E+00  0.00000000000E+00  0.14999999963E+04  0.15000000000E+04  0.10566000000E+00 0.  1.
        994   -1    0    0    0    0 -0.00000000000E+00 -0.00000000000E+00  0.11368683772E-12  0.17120000000E+03  0.17120000000E+03 0.  0.
         13    1    1    2    0    0  0.64516294857E+01 -0.20346373536E+02  0.43798733161E+02  0.48723081077E+02  0.10566000000E+00 0.  1.
        994    1    1    2    0    0 -0.65383249966E+01  0.16773659746E+02  0.60121478555E+01  0.17224892243E+03  0.17120000000E+03 0.  0.
        998    1    1    2    0    0  0.86695510909E-01  0.35727137900E+01  0.14501891153E+04  0.14502279965E+04  0.10000000000E+02 0.  1.
</event>
<event>
 5    1  0.1572996E-008  0.3849914E+03  0.7957747E-01  0.3429709E+00
         13   -1    0    0    0    0  0.00000000000E+00  0.00000000000E+00  0.14999999963E+04  0.15000000000E+04  0.10566000000E+00 0.  1.
        994   -1    0    0    0    0 -0.00000000000E+00 -0.00000000000E+00  0.11368683772E-12  0.17120000000E+03  0.17120000000E+03 0.  0.
         13    1    1    2    0    0 -0.17946872144E+02  0.34143105361E+01  0.98977757320E+02  0.10064966639E+03  0.10566000000E+00 0.  1.
        994    1    1    2    0    0  0.15977082183E+02 -0.21950441007E+00  0.24745448550E+01  0.17196185248E+03  0.17120000000E+03 0.  0.
        998    1    1    2    0    0  0.19697899607E+01 -0.31948061261E+01  0.13985476941E+04  0.13985884811E+04  0.10000000000E+02 0.  1.
</event>
<event>
 5    1  0.1572996E-008  0.3794128E+03  0.7957747E-01  0.3453719E+00
         13   -1    0    0    0    0  0.00000000000E+00  0.00000000000E+00  0.14999999963E+04  0.15000000000E+04  0.10566000000E+00 0.  1.
        994   -1    0    0    0    0 -0.00000000000E+00 -0.00000000000E+00  0.11368683772E-12  0.17120000000E+03  0.17120000000E+03 0.  0.
         13    1    1    2    0    0  0.30866470265E+02  0.26173571194E+02  0.16672026084E+03  0.17156180039E+03  0.10566000000E+00 0.  1.
        994    1    1    2    0    0 -0.24033909811E+02 -0.31196254636E+02  0.96418006020E+01  0.17593532744E+03  0.17120000000E+03 0.  0.
        998    1    1    2    0    0 -0.68325604537E+01  0.50226834428E+01  0.13236379348E+04  0.13237028722E+04  0.10000000000E+02 0.  1.
</event>
<event>
 5    1  0.2168754E-008  0.3857668E+03  0.7957747E-01  0.3426427E+00
         13   -1    0    0    0    0  0.00000000000E+00  0.00000000000E+00  0.14999999963E+04  0.15000000000E+04  0.10566000000E+00 0.  1.
        994   -1    0    0    0    0 -0.00000000000E+00 -0.00000000000E+00  0.11368683772E-12  0.17120000000E+03  0.17120000000E+03 0.  0.
         13    1    1    2    0    0  0.38042109598E+01  0.12474081622E+02  0.67324154708E+02  0.68575707831E+02  0.10566000000E+00 0.  1.
        994    1    1    2    0    0 -0.51261976641E+01 -0.10168476144E+02  0.16754457062E+01  0.17158648819E+03  0.17120000000E+03 0.  0.
        998    1    1    2    0    0  0.13219867043E+01 -0.23056054777E+01  0.14310003959E+04  0.14310378040E+04  0.10000000000E+02 0.  1.
</event>
<event>
 5    1  0.1572996E-008  0.3833958E+03  0.7957747E-01  0.3436505E+00
         13   -1    0    0    0    0  0.00000000000E+00  0.00000000000E+00  0.14999999963E+04  0.15000000000E+04  0.10566000000E+00 0.  1.
        994   -1    0    0    0    0 -0.00000000000E+00 -0.00000000000E+00  0.11368683772E-12  0.17120000000E+03  0.17120000000E+03 0.  0.
         13    1    1    2    0    0  0.14742993823E+02 -0.21377121154E+02  0.15557979971E+03  0.15773212234E+03  0.10566000000E+00 0.  1.
        994    1    1    2    0    0  0.40819016496E+01  0.47399874277E+01  0.25580769291E+01  0.17133333931E+03  0.17120000000E+03 0.  0.
        998    1    1    2    0    0 -0.18824895473E+02  0.16637133727E+02  0.13418621196E+04  0.13421345384E+04  0.10000000000E+02 0.  1.
</event>
<event>
 5    1  0.1572996E-008  0.3860538E+03  0.7957747E-01  0.3425215E+00
         13   -1    0    0    0    0  0.00000000000E+00  0.00000000000E+00  0.14999999963E+04  0.15000000000E+04  0.10566000000E+00 0.  1.
        994   -1    0    0    0    0 -0.00000000000E+00 -0.00000000000E+00  0.11368683772E-12  0.17120000000E+03  0.17120000000E+03 0.  0.
         13    1    1    2    0    0 -0.46198679480E+01 -0.93771424952E+01  0.50115853727E+02  0.51194569439E+02  0.10566000000E+00 0.  1.
        994    1    1    2    0    0 -0.32905196049E+01  0.89684144294E+01  0.14069832124E+01  0.17147209563E+03  0.17120000000E+03 0.  0.
        998    1    1    2    0    0  0.79103875529E+01  0.40872806585E+00  0.14484771593E+04  0.14485333349E+04  0.10000000000E+02 0.  1.
</event>
<event>
 5    1  0.1572996E-008  0.3800072E+03  0.7957747E-01  0.3451127E+00
         13   -1    0    0    0    0  0.00000000000E+00  0.00000000000E+00  0.14999999963E+04  0.15000000000E+04  0.10566000000E+00 0. -1.
        994   -1    0    0    0    0 -0.00000000000E+00 -0.00000000000E+00  0.11368683772E-12  0.17120000000E+03  0.17120000000E+03 0.  0.
         13    1    1    2    0    0  0.60379666543E+02 -0.60198697118E+01  0.34693613953E+03  0.35220255399E+03  0.10566000000E+00 0. -1.
        994    1    1    2    0    0 -0.60452651408E+02 -0.26938108181E+01  0.16468910228E+02  0.18232510711E+03  0.17120000000E+03 0.  0.
        998    1    1    2    0    0  0.72984865044E-01  0.87136805298E+01  0.11365949465E+04  0.11366723389E+04  0.10000000000E+02 0.  0.
</event>
<event>
 5    1  0.1572996E-008  0.4039854E+03  0.7957747E-01  0.3352939E+00
         13   -1    0    0    0    0  0.00000000000E+00  0.00000000000E+00  0.14999999963E+04  0.15000000000E+04  0.10566000000E+00 0. -1.
        994   -1    0    0    0    0 -0.00000000000E+00 -0.00000000000E+00  0.11368683772E-12  0.17120000000E+03  0.17120000000E+03 0.  0.
         13    1    1    2    0    0 -0.99401913943E+02 -0.57806747907E+02  0.34702256649E+03  0.36557767084E+03  0.10566000000E+00 0. -1.
        994    1    1    2    0    0 -0.35760720640E+02  0.30834999772E+01  0.35325467566E+02  0.17845353953E+03  0.17120000000E+03 0.  0.
        998    1    1    2    0    0  0.13516263458E+03  0.54723247930E+02  0.11176519622E+04  0.11271687896E+04  0.10000000000E+02 0.  1.
</event>
<event>
 5    1  0.1572996E-008  0.3821302E+03  0.7957747E-01  0.3441935E+00
         13   -1    0    0    0    0  0.00000000000E+00  0.00000000000E+00  0.14999999963E+04  0.15000000000E+04  0.10566000000E+00 0. -1.
        994   -1    0    0    0    0 -0.00000000000E+00 -0.00000000000E+00  0.11368683772E-12  0.17120000000E+03  0.17120000000E+03 0.  0.
         13    1    1    2    0    0  0.16125643368E+02 -0.18046571566E+02  0.88804071751E+02  0.92042867420E+02  0.10566000000E+00 0. -1.
        994    1    1    2    0    0 -0.18287643181E+02  0.19421422314E+02  0.54275754944E+01  0.17335088149E+03  0.17120000000E+03 0.  0.
        998    1    1    2    0    0  0.21619998132E+01 -0.13748507479E+01  0.14057683490E+04  0.14058062511E+04  0.10000000000E+02 0. -1.
</event>
<event>
 5    1  0.1572996E-008  0.3840784E+03  0.7957747E-01  0.3433590E+00
         13   -1    0    0    0    0  0.00000000000E+00  0.00000000000E+00  0.14999999963E+04  0.15000000000E+04  0.10566000000E+00 0. -1.
        994   -1    0    0    0    0 -0.00000000000E+00 -0.00000000000E+00  0.11368683772E-12  0.17120000000E+03  0.17120000000E+03 0.  0.
         13    1    1    2    0    0  0.12814175039E+02  0.59644744534E+01  0.46070785125E+02  0.48190314831E+02  0.10566000000E+00 0. -1.
        994    1    1    2    0    0 -0.15006375340E+02 -0.39445704743E+01  0.28829074350E+01  0.17192586220E+03  0.17120000000E+03 0.  0.
        998    1    1    2    0    0  0.21922003018E+01 -0.20199039792E+01  0.14510463037E+04  0.14510838230E+04  0.10000000000E+02 0. -1.
</event>
<event>
 5    1  0.1572996E-008  0.3803726E+03  0.7957747E-01  0.3449538E+00
         13   -1    0    0    0    0  0.00000000000E+00  0.00000000000E+00  0.14999999963E+04  0.15000000000E+04  0.10566000000E+00 0. -1.
        994   -1    0    0    0    0 -0.00000000000E+00 -0.00000000000E+00  0.11368683772E-12  0.17120000000E+03  0.17120000000E+03 0.  0.
         13    1    1    2    0    0  0.14684192060E+02  0.13146257149E+01  0.25285393886E+02  0.29269712079E+02  0.10566000000E+00 0. -1.
        994    1    1    2    0    0 -0.19674229017E+02  0.54648837799E+01  0.53384822805E+01  0.17249602788E+03  0.17120000000E+03 0.  0.
        998    1    1    2    0    0  0.49900369569E+01 -0.67795094948E+01  0.14693761201E+04  0.14694342600E+04  0.10000000000E+02 0. -1.
</event>
<event>
 5    1  0.1572996E-008  0.3709842E+03  0.7957747E-01  0.3491380E+00
         13   -1    0    0    0    0  0.00000000000E+00  0.00000000000E+00  0.14999999963E+04  0.15000000000E+04  0.10566000000E+00 0. -1.
        994   -1    0    0    0    0 -0.00000000000E+00 -0.00000000000E+00  0.11368683772E-12  0.17120000000E+03  0.17120000000E+03 0.  0.
         13    1    1    2    0    0  0.10256444860E+02  0.40597742526E+02  0.10261910956E+03  0.11083349751E+03  0.10566000000E+00 0. -1.
        994    1    1    2    0    0 -0.28775947895E+02 -0.49250014001E+01  0.11698186702E+02  0.17406492578E+03  0.17120000000E+03 0.  0.
        998    1    1    2    0    0  0.18519503035E+02 -0.35672741126E+02  0.13856827000E+04  0.13863015767E+04  0.10000000000E+02 0. -1.
</event>
<event>
 5    1  0.1572996E-008  0.3830607E+03  0.7957747E-01  0.3437939E+00
         13   -1    0    0    0    0  0.00000000000E+00  0.00000000000E+00  0.14999999963E+04  0.15000000000E+04  0.10566000000E+00 0.  1.
        994   -1    0    0    0    0 -0.00000000000E+00 -0.00000000000E+00  0.11368683772E-12  0.17120000000E+03  0.17120000000E+03 0.  0.
         13    1    1    2    0    0 -0.12276565374E+02 -0.49168364723E+01  0.33377346802E+02  0.35901918916E+02  0.10566000000E+00 0.  1.
        994    1    1    2    0    0  0.30795896916E-01  0.12582307795E+02  0.31201377150E+01  0.17169010070E+03  0.17120000000E+03 0.  0.
        998    1    1    2    0    0  0.12245769477E+02 -0.76654713225E+01  0.14635025118E+04  0.14636079804E+04  0.10000000000E+02 0.  1.
</event>
<event>
 5    1  0.1572996E-008  0.3699030E+03  0.7957747E-01  0.3496337E+00
         13   -1    0    0    0    0  0.00000000000E+00  0.00000000000E+00  0.14999999963E+04  0.15000000000E+04  0.10566000000E+00 0. -1.
        994   -1    0    0    0    0 -0.00000000000E+00 -0.00000000000E+00  0.11368683772E-12  0.17120000000E+03  0.17120000000E+03 0.  0.
         13    1    1    2    0    0  0.11952702521E+02 -0.66199026992E+02  0.27758015063E+03  0.28561500216E+03  0.10566000000E+00 0. -1.
        994    1    1    2    0    0 -0.68951225215E+01  0.15084455623E+02  0.10271797694E+02  0.17230796077E+03  0.17120000000E+03 0.  0.
        998    1    1    2    0    0 -0.50575799997E+01  0.51114571368E+02  0.12121480480E+04  0.12132770371E+04  0.10000000000E+02 0. -1.
</event>
<event>
 5    1  0.1572996E-008  0.3833852E+03  0.7957747E-01  0.3436550E+00
         13   -1    0    0    0    0  0.00000000000E+00  0.00000000000E+00  0.14999999963E+04  0.15000000000E+04  0.10566000000E+00 0. -1.
        994   -1    0    0    0    0 -0.00000000000E+00 -0.00000000000E+00  0.11368683772E-12  0.17120000000E+03  0.17120000000E+03 0.  0.
         13    1    1    2    0    0  0.23760853100E+02  0.67994933874E+01  0.11922086985E+03  0.12175564965E+03  0.10566000000E+00 0. -1.
        994    1    1    2    0    0 -0.21372911683E+02 -0.38023067948E+01  0.39934774651E+01  0.17261705232E+03  0.17120000000E+03 0.  0.
        998    1    1    2    0    0 -0.23879414168E+01 -0.29971865926E+01  0.13767856490E+04  0.13768272980E+04  0.10000000000E+02 0. -1.
</event>
<event>
 5    1  0.1669717E-008  0.3860784E+03  0.7957747E-01  0.3425112E+00
         13   -1    0    0    0    0  0.00000000000E+00  0.00000000000E+00  0.14999999963E+04  0.15000000000E+04  0.10566000000E+00 0. -1.
        994   -1    0    0    0    0 -0.00000000000E+00 -0.00000000000E+00  0.11368683772E-12  0.17120000000E+03  0.17120000000E+03 0.  0.
         13    1    1    2    0    0  0.51407257096E+01 -0.12050893287E+02  0.77033405822E+02  0.78139668968E+02  0.10566000000E+00 0. -1.
        994    1    1    2    0    0 -0.14651300249E+01  0.12608935207E+02  0.16239300105E+01  0.17167763105E+03  0.17120000000E+03 0.  0.
        998    1    1    2    0    0 -0.36755956847E+01 -0.55804192014E+00  0.14213426604E+04  0.14213827000E+04  0.10000000000E+02 0. -1.
</event>
<event>
 5    1  0.1572996E-008  0.3821662E+03  0.7957747E-01  0.3441780E+00
         13   -1    0    0    0    0  0.00000000000E+00  0.00000000000E+00  0.14999999963E+04  0.15000000000E+04  0.10566000000E+00 0. -1.
        994   -1    0    0    0    0 -0.00000000000E+00 -0.00000000000E+00  0.11368683772E-12  0.17120000000E+03  0.17120000000E+03 0.  0.
         13    1    1    2    0    0 -0.45761142100E+01  0.12722875699E+02  0.28656513302E+02  0.31686263679E+02  0.10566000000E+00 0. -1.
        994    1    1    2    0    0  0.20887227594E+02 -0.51464758485E+01  0.45811265073E+01  0.17260703697E+03  0.17120000000E+03 0.  0.
        998    1    1    2    0    0 -0.16311113384E+02 -0.75763998503E+01  0.14667623565E+04  0.14669066994E+04  0.10000000000E+02 0. -1.
</event>
<event>
 5    1  0.1572996E-008  0.3860782E+03  0.7957747E-01  0.3425112E+00
         13   -1    0    0    0    0  0.00000000000E+00  0.00000000000E+00  0.14999999963E+04  0.15000000000E+04  0.10566000000E+00 0.  1.
        994   -1    0    0    0    0 -0.00000000000E+00 -0.00000000000E+00  0.11368683772E-12  0.17120000000E+03  0.17120000000E+03 0.  0.
         13    1    1    2    0    0 -0.21894548304E+01 -0.13035744361E+02  0.79927826223E+02  0.81013535365E+02  0.10566000000E+00 0.  1.
        994    1    1    2    0    0  0.19197024247E+01  0.96755067603E+01  0.14147273533E+01  0.17148977270E+03  0.17120000000E+03 0.  0.
        998    1    1    2    0    0  0.26975240574E+00  0.33602376012E+01  0.14186574427E+04  0.14186966919E+04  0.10000000000E+02 0.  1.
</event>
<event>
 5    1  0.1572996E-008  0.3826100E+03  0.7957747E-01  0.3439872E+00
         13   -1    0    0    0    0  0.00000000000E+00  0.00000000000E+00  0.14999999963E+04  0.15000000000E+04  0.10566000000E+00 0. -1.
        994   -1    0    0    0    0 -0.00000000000E+00 -0.00000000000E+00  0.11368683772E-12  0.17120000000E+03  0.17120000000E+03 0.  0.
         13    1    1    2    0    0 -0.13884875818E+01 -0.10659266041E+02  0.20299405968E+02  0.22970087005E+02  0.10566000000E+00 0. -1.
        994    1    1    2    0    0  0.24668561413E+00 -0.75909538367E+01  0.30126107495E+01  0.17139486357E+03  0.17120000000E+03 0.  0.
        998    1    1    2    0    0  0.11418019677E+01  0.18250219878E+02  0.14766879796E+04  0.14768350494E+04  0.10000000000E+02 0. -1.
</event>
<event>
 5    1  0.1572996E-008  0.3844355E+03  0.7957747E-01  0.3432070E+00
         13   -1    0    0    0    0  0.00000000000E+00  0.00000000000E+00  0.14999999963E+04  0.15000000000E+04  0.10566000000E+00 0.  1.
        994   -1    0    0    0    0 -0.00000000000E+00 -0.00000000000E+00  0.11368683772E-12  0.17120000000E+03  0.17120000000E+03 0.  0.
         13    1    1    2    0    0  0.12514827632E+02  0.18891447724E+02  0.12877893856E+03  0.13075753856E+03  0.10566000000E+00 0.  1.
        994    1    1    2    0    0  0.92166002383E+01 -0.30007695527E+02  0.51639958825E+01  0.17413073929E+03  0.17120000000E+03 0.  0.
        998    1    1    2    0    0 -0.21731427870E+02  0.11116247803E+02  0.13660570618E+04  0.13663117222E+04  0.10000000000E+02 0.  1.
</event>
<event>
 5    1  0.1572996E-008  0.3845308E+03  0.7957747E-01  0.3431665E+00
         13   -1    0    0    0    0  0.00000000000E+00  0.00000000000E+00  0.14999999963E+04  0.15000000000E+04  0.10566000000E+00 0.  1.
        994   -1    0    0    0    0 -0.00000000000E+00 -0.00000000000E+00  0.11368683772E-12  0.17120000000E+03  0.17120000000E+03 0.  0.
         13    1    1    2    0    0  0.13096953221E+02 -0.10027093530E+02  0.74891325704E+02  0.76686339188E+02  0.10566000000E+00 0.  1.
        994    1    1    2    0    0 -0.41292444977E+01  0.49936476486E+01  0.20015728934E+01  0.17133427407E+03  0.17120000000E+03 0.  0.
        998    1    1    2    0    0 -0.89677087231E+01  0.50334458811E+01  0.14231070977E+04  0.14231793867E+04  0.10000000000E+02 0.  1.
</event>
<event>
 5    1  0.1572996E-008  0.3840829E+03  0.7957747E-01  0.3433571E+00
         13   -1    0    0    0    0  0.00000000000E+00  0.00000000000E+00  0.14999999963E+04  0.15000000000E+04  0.10566000000E+00 0. -1.
        994   -1    0    0    0    0 -0.00000000000E+00 -0.00000000000E+00  0.11368683772E-12  0.17120000000E+03  0.17120000000E+03 0.  0.
         13    1    1    2    0    0  0.74042712627E+01 -0.10724845149E+02  0.38632045914E+02  0.40771211313E+02  0.10566000000E+00 0. -1.
        994    1    1    2    0    0 -0.12131329866E+02  0.13348971732E+02  0.31600983150E+01  0.17217662568E+03  0.17120000000E+03 0.  0.
        998    1    1    2    0    0  0.47270586030E+01 -0.26241265835E+01  0.14582078520E+04  0.14582521630E+04  0.10000000000E+02 0. -1.
</event>
<event>
 5    1  0.1572996E-008  0.3799301E+03  0.7957747E-01  0.3451463E+00
         13   -1    0    0    0    0  0.00000000000E+00  0.00000000000E+00  0.14999999963E+04  0.15000000000E+04  0.10566000000E+00 0. -1.
        994   -1    0    0    0    0 -0.00000000000E+00 -0.00000000000E+00  0.11368683772E-12  0.17120000000E+03  0.17120000000E+03 0.  0.
         13    1    1    2    0    0  0.26212685909E+02 -0.12415621238E+02  0.96816726480E+02  0.10106800801E+03  0.10566000000E+00 0. -1.
        994    1    1    2    0    0 -0.20225845313E+02  0.11131060731E+02  0.59526087922E+01  0.17285213011E+03  0.17120000000E+03 0.  0.
        998    1    1    2    0    0 -0.59868405959E+01  0.12845605071E+01  0.13972306610E+04  0.13972798619E+04  0.10000000000E+02 0. -1.
</event>
<event>
 5    1  0.1572996E-008  0.3785566E+03  0.7957747E-01  0.3457467E+00
         13   -1    0    0    0    0  0.00000000000E+00  0.00000000000E+00  0.14999999963E+04  0.15000000000E+04  0.10566000000E+00 0. -1.
        994   -1    0    0    0    0 -0.00000000000E+00 -0.00000000000E+00  0.11368683772E-12  0.17120000000E+03  0.17120000000E+03 0.  0.
         13    1    1    2    0    0  0.27346005064E+00 -0.16059390793E+02  0.24146486806E+02  0.29000737959E+02  0.10566000000E+00 0. -1.
        994    1    1    2    0    0  0.84053918928E+00  0.16527089167E+02  0.57839178087E+01  0.17209516230E+03  0.17120000000E+03 0.  0.
        998    1    1    2    0    0 -0.11139992399E+01 -0.46769837429E+00  0.14700695917E+04  0.14701040997E+04  0.10000000000E+02 0. -1.
</event>
<event>
 5    1  0.1572996E-008  0.3787764E+03  0.7957747E-01  0.3456504E+00
         13   -1    0    0    0    0  0.00000000000E+00  0.00000000000E+00  0.14999999963E+04  0.15000000000E+04  0.10566000000E+00 0. -1.
        994   -1    0    0    0    0 -0.00000000000E+00 -0.00000000000E+00  0.11368683772E-12  0.17120000000E+03  0.17120000000E+03 0.  0.
         13    1    1    2    0    0 -0.18622810288E+02 -0.24407682880E+02  0.96538991335E+02  0.10130316905E+03  0.10566000000E+00 0. -1.
        994    1    1    2    0    0  0.68071115630E+01  0.21011504667E+02  0.63911574636E+01  0.17273710369E+03  0.17120000000E+03 0.  0.
        998    1    1    2    0    0  0.11815698725E+02  0.33961782133E+01  0.13970698475E+04  0.13971597273E+04  0.10000000000E+02 0. -1.
</event>
<event>
 5    1  0.1572996E-008  0.3835449E+03  0.7957747E-01  0.3435867E+00
         13   -1    0    0    0    0  0.00000000000E+00  0.00000000000E+00  0.14999999963E+04  0.15000000000E+04  0.10566000000E+00 0. -1.
        994   -1    0    0    0    0 -0.00000000000E+00 -0.00000000000E+00  0.11368683772E-12  0.17120000000E+03  0.17120000000E+03 0.  0.
         13    1    1    2    0    0  0.12969621108E+01  0.18833068228E+02  0.70576397900E+02  0.73057550425E+02  0.10566000000E+00 0. -1.
        994    1    1    2    0    0  0.44197991349E+00 -0.23469353324E+02  0.41770624186E+01  0.17285223094E+03  0.17120000000E+03 0.  0.
        998    1    1    2    0    0 -0.17389420243E+01  0.46362850963E+01  0.14252465360E+04  0.14252902186E+04  0.10000000000E+02 0. -1.
</event>
<event>
 5    1  0.1572996E-008  0.3701455E+03  0.7957747E-01  0.3495222E+00
         13   -1    0    0    0    0  0.00000000000E+00  0.00000000000E+00  0.14999999963E+04  0.15000000000E+04  0.10566000000E+00 0.  1.
        994   -1    0    0    0    0 -0.00000000000E+00 -0.00000000000E+00  0.11368683772E-12  0.17120000000E+03  0.17120000000E+03 0.  0.
         13    1    1    2    0    0  0.19209609633E+02 -0.48003306916E+02  0.13617295713E+03  0.14565854591E+03  0.10566000000E+00 0.  1.
        994    1    1    2    0    0 -0.57832755983E+02 -0.25813651918E+02  0.25180121006E+02  0.18426733510E+03  0.17120000000E+03 0.  0.
        998    1    1    2    0    0  0.38623146350E+02  0.73816958834E+02  0.13386469181E+04  0.13412741190E+04  0.10000000000E+02 0.  1.
</event>
<event>
 5    1  0.1572996E-008  0.2648047E+03  0.7957747E-01  0.4184473E+00
         13   -1    0    0    0    0  0.00000000000E+00  0.00000000000E+00  0.14999999963E+04  0.15000000000E+04  0.10566000000E+00 0. -1.
        994   -1    0    0    0    0 -0.00000000000E+00 -0.00000000000E+00  0.11368683772E-12  0.17120000000E+03  0.17120000000E+03 0.  0.
         13    1    1    2    0    0 -0.12933915633E+03  0.22011704034E+02  0.61050633643E+03  0.62444465764E+03  0.10566000000E+00 0. -1.
        994    1    1    2    0    0  0.61137181100E+01 -0.20561016006E+02  0.26037599523E+02  0.17449220475E+03  0.17120000000E+03 0.  0.
        998    1    1    2    0    0  0.12322543822E+03 -0.14506880279E+01  0.86345606033E+03  0.87226313761E+03  0.10000000000E+02 0.  1.
</event>
<event>
 5    1  0.1572996E-008  0.3711951E+03  0.7957747E-01  0.3490417E+00
         13   -1    0    0    0    0  0.00000000000E+00  0.00000000000E+00  0.14999999963E+04  0.15000000000E+04  0.10566000000E+00 0.  1.
        994   -1    0    0    0    0 -0.00000000000E+00 -0.00000000000E+00  0.11368683772E-12  0.17120000000E+03  0.17120000000E+03 0.  0.
         13    1    1    2    0    0  0.12171809227E+03 -0.16616304971E+01  0.55208592762E+03  0.56534674107E+03  0.10566000000E+00 0.  1.
        994    1    1    2    0    0 -0.11606468661E+03  0.10275822438E+02  0.56955355796E+02  0.21477885501E+03  0.17120000000E+03 0.  0.
        998    1    1    2    0    0 -0.56534056577E+01 -0.86141919405E+01  0.89095871286E+03  0.89107440392E+03  0.10000000000E+02 0.  1.
</event>
<event>
 5    1  0.1572996E-008  0.3845438E+03  0.7957747E-01  0.3431609E+00
         13   -1    0    0    0    0  0.00000000000E+00  0.00000000000E+00  0.14999999963E+04  0.15000000000E+04  0.10566000000E+00 0. -1.
        994   -1    0    0    0    0 -0.00000000000E+00 -0.00000000000E+00  0.11368683772E-12  0.17120000000E+03  0.17120000000E+03 0.  0.
         13    1    1    2    0    0 -0.85156922218E+00  0.11858137835E+02  0.49502305628E+02  0.50910018951E+02  0.10566000000E+00 0. -1.
        994    1    1    2    0    0  0.11528428108E+02  0.42256927390E+02  0.82013325605E+01  0.17690464783E+03  0.17120000000E+03 0.  0.
        998    1    1    2    0    0 -0.10676858886E+02 -0.54115065225E+02  0.14422963581E+04  0.14433853332E+04  0.10000000000E+02 0. -1.
</event>
<event>
 5    1  0.1572996E-008  0.3818390E+03  0.7957747E-01  0.3443190E+00
         13   -1    0    0    0    0  0.00000000000E+00  0.00000000000E+00  0.14999999963E+04  0.15000000000E+04  0.10566000000E+00 0.  1.
        994   -1    0    0    0    0 -0.00000000000E+00 -0.00000000000E+00  0.11368683772E-12  0.17120000000E+03  0.17120000000E+03 0.  0.
         13    1    1    2    0    0 -0.17801020726E+02 -0.84830689352E+01  0.58255192460E+02  0.61502174027E+02  0.10566000000E+00 0.  1.
        994    1    1    2    0    0  0.13659785028E+02  0.12309776976E+02  0.43319756399E+01  0.17223915452E+03  0.17120000000E+03 0.  0.
        998    1    1    2    0    0  0.41412356984E+01 -0.38267080408E+01  0.14374128282E+04  0.14374586715E+04  0.10000000000E+02 0.  1.
</event>
<event>
 5    1  0.1572996E-008  0.3851175E+03  0.7957747E-01  0.3429174E+00
         13   -1    0    0    0    0  0.00000000000E+00  0.00000000000E+00  0.14999999963E+04  0.15000000000E+04  0.10566000000E+00 0.  1.
        994   -1    0    0    0    0 -0.00000000000E+00 -0.00000000000E+00  0.11368683772E-12  0.17120000000E+03  0.17120000000E+03 0.  0.
         13    1    1    2    0    0 -0.14728389983E+02  0.45877814636E+01  0.75594173340E+02  0.77152209412E+02  0.10566000000E+00 0.  1.
        994    1    1    2    0    0  0.10267890571E+02 -0.23361523169E+01  0.19364348394E+01  0.17153447748E+03  0.17120000000E+03 0.  0.
        998    1    1    2    0    0  0.44604994114E+01 -0.22516291467E+01  0.14224693881E+04  0.14225133131E+04  0.10000000000E+02 0.  1.
</event>
<event>
 5    1  0.1572996E-008  0.3829514E+03  0.7957747E-01  0.3438407E+00
         13   -1    0    0    0    0  0.00000000000E+00  0.00000000000E+00  0.14999999963E+04  0.15000000000E+04  0.10566000000E+00 0.  1.
        994   -1    0    0    0    0 -0.00000000000E+00 -0.00000000000E+00  0.11368683772E-12  0.17120000000E+03  0.17120000000E+03 0.  0.
         13    1    1    2    0    0 -0.18329012950E+02  0.10141787598E+01  0.60621247853E+02  0.63339783150E+02  0.10566000000E+00 0.  1.
        994    1    1    2    0    0  0.18962909772E+02 -0.24355271207E+01  0.38617112004E+01  0.17230750579E+03  0.17120000000E+03 0.  0.
        998    1    1    2    0    0 -0.63389682181E+00  0.14213483608E+01  0.14355170372E+04  0.14355527111E+04  0.10000000000E+02 0.  1.
</event>
<event>
 5    1  0.1572996E-008  0.3855645E+03  0.7957747E-01  0.3427282E+00
         13   -1    0    0    0    0  0.00000000000E+00  0.00000000000E+00  0.14999999963E+04  0.15000000000E+04  0.10566000000E+00 0.  1.
        994   -1    0    0    0    0 -0.00000000000E+00 -0.00000000000E+00  0.11368683772E-12  0.17120000000E+03  0.17120000000E+03 0.  0.
         13    1    1    2    0    0  0.14041022858E+02  0.45853054698E+01  0.83129245972E+02  0.84431380713E+02  0.10566000000E+00 0.  1.
        994    1    1    2    0    0 -0.74898510537E+01  0.11167284829E+01  0.15384076428E+01  0.17137430277E+03  0.17120000000E+03 0.  0.
        998    1    1    2    0    0 -0.65511718041E+01 -0.57020339527E+01  0.14153323427E+04  0.14153943165E+04  0.10000000000E+02 0.  1.
</event>
<event>
 5    1  0.1572996E-008  0.3718696E+03  0.7957747E-01  0.3487343E+00
         13   -1    0    0    0    0  0.00000000000E+00  0.00000000000E+00  0.14999999963E+04  0.15000000000E+04  0.10566000000E+00 0.  1.
        994   -1    0    0    0    0 -0.00000000000E+00 -0.00000000000E+00  0.11368683772E-12  0.17120000000E+03  0.17120000000E+03 0.  0.
         13    1    1    2    0    0  0.39375062122E+02 -0.41313515266E+01  0.91494567026E+02  0.99693182023E+02  0.10566000000E+00 0.  1.
        994    1    1    2    0    0 -0.25772593413E+02 -0.72717843742E+01  0.10762690587E+02  0.17361561257E+03  0.17120000000E+03 0.  0.
        998    1    1    2    0    0 -0.13602468709E+02  0.11403135901E+02  0.13977427387E+04  0.13978912054E+04  0.10000000000E+02 0.  1.
</event>
<event>
 5    1  0.1572996E-008  0.3854304E+03  0.7957747E-01  0.3427849E+00
         13   -1    0    0    0    0  0.00000000000E+00  0.00000000000E+00  0.14999999963E+04  0.15000000000E+04  0.10566000000E+00 0.  1.
        994   -1    0    0    0    0 -0.00000000000E+00 -0.00000000000E+00  0.11368683772E-12  0.17120000000E+03  0.17120000000E+03 0.  0.
         13    1    1    2    0    0 -0.94103967519E+01 -0.13146725338E+02  0.90337943403E+02  0.91773346547E+02  0.10566000000E+00 0.  1.
        994    1    1    2    0    0  0.60068230510E+01  0.12466495974E+02  0.20457452656E+01  0.17177054613E+03  0.17120000000E+03 0.  0.
        998    1    1    2    0    0  0.34035737009E+01  0.68022936436E+00  0.14076163076E+04  0.14076561073E+04  0.10000000000E+02 0.  1.
</event>
<event>
 5    1  0.1572996E-008  0.3829355E+03  0.7957747E-01  0.3438475E+00
         13   -1    0    0    0    0  0.00000000000E+00  0.00000000000E+00  0.14999999963E+04  0.15000000000E+04  0.10566000000E+00 0.  1.
        994   -1    0    0    0    0 -0.00000000000E+00 -0.00000000000E+00  0.11368683772E-12  0.17120000000E+03  0.17120000000E+03 0.  0.
         13    1    1    2    0    0 -0.10924018290E+02 -0.10292694176E+02  0.41000519066E+02  0.43661510014E+02  0.10566000000E+00 0.  1.
        994    1    1    2    0    0  0.57774395843E+01  0.13049030004E+02  0.33331342718E+01  0.17182609166E+03  0.17120000000E+03 0.  0.
        998    1    1    2    0    0  0.51465787056E+01 -0.27563358281E+01  0.14556663429E+04  0.14557123983E+04  0.10000000000E+02 0.  1.
</event>
<event>
 5    1  0.1572996E-008  0.3757847E+03  0.7957747E-01  0.3469721E+00
         13   -1    0    0    0    0  0.00000000000E+00  0.00000000000E+00  0.14999999963E+04  0.15000000000E+04  0.10566000000E+00 0. -1.
        994   -1    0    0    0    0 -0.00000000000E+00 -0.00000000000E+00  0.11368683772E-12  0.17120000000E+03  0.17120000000E+03 0.  0.
         13    1    1    2    0    0 -0.35336248834E+02 -0.77306821967E+01  0.95581019851E+02  0.10219665576E+03  0.10566000000E+00 0. -1.
        994    1    1    2    0    0  0.38875802656E+02 -0.18825722920E+01  0.11429359589E+02  0.17594016702E+03  0.17120000000E+03 0.  0.
        998    1    1    2    0    0 -0.35395538228E+01  0.96132544887E+01  0.13929896168E+04  0.13930631772E+04  0.10000000000E+02 0. -1.
</event>
<event>
 5    1  0.1572996E-008  0.3798058E+03  0.7957747E-01  0.3452004E+00
         13   -1    0    0    0    0  0.00000000000E+00  0.00000000000E+00  0.14999999963E+04  0.15000000000E+04  0.10566000000E+00 0.  1.
        994   -1    0    0    0    0 -0.00000000000E+00 -0.00000000000E+00  0.11368683772E-12  0.17120000000E+03  0.17120000000E+03 0.  0.
         13    1    1    2    0    0  0.49738462517E+02  0.81018835752E+01  0.24919809376E+03  0.25424251468E+03  0.10566000000E+00 0.  1.
        994    1    1    2    0    0 -0.51252527074E+02 -0.44535768314E+01  0.13135767322E+02  0.17924464918E+03  0.17120000000E+03 0.  0.
        998    1    1    2    0    0  0.15140645568E+01 -0.36483067438E+01  0.12376661352E+04  0.12377128361E+04  0.10000000000E+02 0.  0.
</event>
<event>
 5    1  0.1572996E-008  0.3750240E+03  0.7957747E-01  0.3473115E+00
         13   -1    0    0    0    0  0.00000000000E+00  0.00000000000E+00  0.14999999963E+04  0.15000000000E+04  0.10566000000E+00 0. -1.
        994   -1    0    0    0    0 -0.00000000000E+00 -0.00000000000E+00  0.11368683772E-12  0.17120000000E+03  0.17120000000E+03 0.  0.
         13    1    1    2    0    0 -0.19072043437E+02  0.28256610058E+02  0.87385739364E+02  0.93800093076E+02  0.10566000000E+00 0. -1.
        994    1    1    2    0    0  0.13286717364E+02 -0.73681356862E+01  0.74513538828E+01  0.17203426681E+03  0.17120000000E+03 0.  0.
        998    1    1    2    0    0  0.57853260733E+01 -0.20888474372E+02  0.14051629030E+04  0.14053656401E+04  0.10000000000E+02 0. -1.
</event>
<event>
 5    1  0.1572996E-008  0.3799833E+03  0.7957747E-01  0.3451231E+00
         13   -1    0    0    0    0  0.00000000000E+00  0.00000000000E+00  0.14999999963E+04  0.15000000000E+04  0.10566000000E+00 0. -1.
        994   -1    0    0    0    0 -0.00000000000E+00 -0.00000000000E+00  0.11368683772E-12  0.17120000000E+03  0.17120000000E+03 0.  0.
         13    1    1    2    0    0  0.23549679588E+02 -0.70436021343E+00  0.71989975441E+02  0.75747285496E+02  0.10566000000E+00 0. -1.
        994    1    1    2    0    0  0.47628769245E+01 -0.31736984561E+02  0.75923490409E+01  0.17434736863E+03  0.17120000000E+03 0.  0.
        998    1    1    2    0    0 -0.28312556513E+02  0.32441344775E+02  0.14204176718E+04  0.14211053459E+04  0.10000000000E+02 0. -1.
</event>
<event>
 5    1  0.1572996E-008  0.3747412E+03  0.7957747E-01  0.3474381E+00
         13   -1    0    0    0    0  0.00000000000E+00  0.00000000000E+00  0.14999999963E+04  0.15000000000E+04  0.10566000000E+00 0.  1.
        994   -1    0    0    0    0 -0.00000000000E+00 -0.00000000000E+00  0.11368683772E-12  0.17120000000E+03  0.17120000000E+03 0.  0.
         13    1    1    2    0    0 -0.20138689198E+02 -0.22731092606E+02  0.62090993901E+02  0.69119983083E+02  0.10566000000E+00 0.  1.
        994    1    1    2    0    0  0.25847965455E+02  0.21800836497E+02  0.10711583560E+02  0.17483584247E+03  0.17120000000E+03 0.  0.
        998    1    1    2    0    0 -0.57092762570E+01  0.93025610991E+00  0.14271974188E+04  0.14272441744E+04  0.10000000000E+02 0.  1.
</event>
<event>
 5    1  0.1572996E-008  0.3778155E+03  0.7957747E-01  0.3460726E+00
         13   -1    0    0    0    0  0.00000000000E+00  0.00000000000E+00  0.14999999963E+04  0.15000000000E+04  0.10566000000E+00 0. -1.
        994   -1    0    0    0    0 -0.00000000000E+00 -0.00000000000E+00  0.11368683772E-12  0.17120000000E+03  0.17120000000E+03 0.  0.
         13    1    1    2    0    0 -0.26495617544E+02  0.15009555862E+01  0.66120935102E+02  0.71247876035E+02  0.10566000000E+00 0. -1.
        994    1    1    2    0    0  0.16277744616E+02  0.41108096231E+02  0.11850763012E+02  0.17721377240E+03  0.17120000000E+03 0.  0.
        998    1    1    2    0    0  0.10217872928E+02 -0.42609051817E+02  0.14220282982E+04  0.14227383516E+04  0.10000000000E+02 0. -1.
</event>
<event>
 5    1  0.1572996E-008  0.3814437E+03  0.7957747E-01  0.3444896E+00
         13   -1    0    0    0    0  0.00000000000E+00  0.00000000000E+00  0.14999999963E+04  0.15000000000E+04  0.10566000000E+00 0. -1.
        994   -1    0    0    0    0 -0.00000000000E+00 -0.00000000000E+00  0.11368683772E-12  0.17120000000E+03  0.17120000000E+03 0.  0.
         13    1    1    2    0    0  0.78090273829E+01  0.21388641266E+02  0.74594002034E+02  0.77991866161E+02  0.10566000000E+00 0. -1.
        994    1    1    2    0    0 -0.37171355904E+01 -0.14971795706E+02  0.41982847260E+01  0.17194486721E+03  0.17120000000E+03 0.  0.
        998    1    1    2    0    0 -0.40918917925E+01 -0.64168455592E+01  0.14212077095E+04  0.14212632666E+04  0.10000000000E+02 0. -1.
</event>
<event>
 5    1  0.1572996E-008  0.3745460E+03  0.7957747E-01  0.3475256E+00
         13   -1    0    0    0    0  0.00000000000E+00  0.00000000000E+00  0.14999999963E+04  0.15000000000E+04  0.10566000000E+00 0. -1.
        994   -1    0    0    0    0 -0.00000000000E+00 -0.00000000000E+00  0.11368683772E-12  0.17120000000E+03  0.17120000000E+03 0.  0.
         13    1    1    2    0    0  0.31799611599E+02 -0.10299249719E+03  0.38871294620E+03  0.40338125327E+03  0.10566000000E+00 0. -1.
        994    1    1    2    0    0 -0.45536791582E+02  0.15028002998E+03  0.96119168333E+02  0.25140807727E+03  0.17120000000E+03 0.  0.
        998    1    1    2    0    0  0.13737179983E+02 -0.47287532786E+02  0.10151678817E+04  0.10164106695E+04  0.10000000000E+02 0. -1.
</event>
<event>
 5    1  0.1572996E-008  0.3730877E+03  0.7957747E-01  0.3481820E+00
         13   -1    0    0    0    0  0.00000000000E+00  0.00000000000E+00  0.14999999963E+04  0.15000000000E+04  0.10566000000E+00 0.  1.
        994   -1    0    0    0    0 -0.00000000000E+00 -0.00000000000E+00  0.11368683772E-12  0.17120000000E+03  0.17120000000E+03 0.  0.
         13    1    1    2    0    0 -0.73978383253E+02  0.32244066972E+02  0.20852646156E+03  0.22359735548E+03  0.10566000000E+00 0.  1.
        994    1    1    2    0    0  0.66821276774E+02 -0.75055333975E+02  0.49185857995E+02  0.20451668591E+03  0.17120000000E+03 0.  0.
        998    1    1    2    0    0  0.71571064797E+01  0.42811267003E+02  0.12422876767E+04  0.12430859586E+04  0.10000000000E+02 0.  1.
</event>
<event>
 5    1  0.1572996E-008  0.3794696E+03  0.7957747E-01  0.3453471E+00
         13   -1    0    0    0    0  0.00000000000E+00  0.00000000000E+00  0.14999999963E+04  0.15000000000E+04  0.10566000000E+00 0. -1.
        994   -1    0    0    0    0 -0.00000000000E+00 -0.00000000000E+00  0.11368683772E-12  0.17120000000E+03  0.17120000000E+03 0.  0.
         13    1    1    2    0    0 -0.64729553514E+01 -0.37318836335E+02  0.16028504909E+03  0.16469943176E+03  0.10566000000E+00 0. -1.
        994    1    1    2    0    0  0.97447330871E+01  0.22017423026E+02  0.63449105349E+01  0.17300122725E+03  0.17120000000E+03 0.  0.
        998    1    1    2    0    0 -0.32717777357E+01  0.15301413309E+02  0.13333700367E+04  0.13334993410E+04  0.10000000000E+02 0. -1.
</event>
<event>
 5    1  0.1572996E-008  0.3808737E+03  0.7957747E-01  0.3447363E+00
         13   -1    0    0    0    0  0.00000000000E+00  0.00000000000E+00  0.14999999963E+04  0.15000000000E+04  0.10566000000E+00 0. -1.
        994   -1    0    0    0    0 -0.00000000000E+00 -0.00000000000E+00  0.11368683772E-12  0.17120000000E+03  0.17120000000E+03 0.  0.
         13    1    1    2    0    0  0.22996385210E+03  0.23233897312E+03  0.88829902429E+03  0.94654103948E+03  0.10566000000E+00 0. -1.
        994    1    1    2    0    0 -0.22528469927E+03 -0.23882254970E+03  0.55959718516E+03  0.67100510849E+03  0.17120000000E+03 0.  0.
        998    1    1    2    0    0 -0.46791528219E+01  0.64835765790E+01  0.52103786821E+02  0.53653852028E+02  0.10000000000E+02 0.  1.
</event>
<event>
 5    1  0.1572996E-008  0.3735056E+03  0.7957747E-01  0.3479933E+00
         13   -1    0    0    0    0  0.00000000000E+00  0.00000000000E+00  0.14999999963E+04  0.15000000000E+04  0.10566000000E+00 0.  1.
        994   -1    0    0    0    0 -0.00000000000E+00 -0.00000000000E+00  0.11368683772E-12  0.17120000000E+03  0.17120000000E+03 0.  0.
         13    1    1    2    0    0  0.39376234284E-01  0.42743157697E+02  0.10985204921E+03  0.11787477660E+03  0.10566000000E+00 0.  1.
        994    1    1    2    0    0 -0.15256455605E+00 -0.47082254992E+02  0.15059634661E+02  0.17819369968E+03  0.17120000000E+03 0.  0.
        998    1    1    2    0    0  0.11318832177E+00  0.43390972956E+01  0.13750883124E+04  0.13751315237E+04  0.10000000000E+02 0.  1.
</event>
<event>
 5    1  0.1572996E-008  0.3806030E+03  0.7957747E-01  0.3448537E+00
         13   -1    0    0    0    0  0.00000000000E+00  0.00000000000E+00  0.14999999963E+04  0.15000000000E+04  0.10566000000E+00 0. -1.
        994   -1    0    0    0    0 -0.00000000000E+00 -0.00000000000E+00  0.11368683772E-12  0.17120000000E+03  0.17120000000E+03 0.  0.
         13    1    1    2    0    0  0.24435901205E+02 -0.48600924365E+00  0.74733689755E+02  0.78628779853E+02  0.10566000000E+00 0. -1.
        994    1    1    2    0    0 -0.20734452437E+02  0.67108588318E+01  0.54152646317E+01  0.17266649425E+03  0.17120000000E+03 0.  0.
        998    1    1    2    0    0 -0.37014487684E+01 -0.62248495881E+01  0.14198510419E+04  0.14199047259E+04  0.10000000000E+02 0. -1.
</event>
<event>
 5    1  0.1572996E-008  0.4203215E+03  0.7957747E-01  0.3292422E+00
         13   -1    0    0    0    0  0.00000000000E+00  0.00000000000E+00  0.14999999963E+04  0.15000000000E+04  0.10566000000E+00 0.  1.
        994   -1    0    0    0    0 -0.00000000000E+00 -0.00000000000E+00  0.11368683772E-12  0.17120000000E+03  0.17120000000E+03 0.  0.
         13    1    1    2    0    0  0.35773867008E+02  0.38077661859E+02  0.18610594003E+02  0.55462088552E+02  0.10566000000E+00 0.  1.
        994    1    1    2    0    0 -0.38903166971E+02 -0.31271842700E+02  0.51253115366E+02  0.18554704627E+03  0.17120000000E+03 0.  0.
        998    1    1    2    0    0  0.31292999634E+01 -0.68058191591E+01  0.14301362869E+04  0.14301908652E+04  0.10000000000E+02 0.  1.
</event>
<event>
 5    1  0.1572996E-008  0.3787919E+03  0.7957747E-01  0.3456436E+00
         13   -1    0    0    0    0  0.00000000000E+00  0.00000000000E+00  0.14999999963E+04  0.15000000000E+04  0.10566000000E+00 0.  1.
        994   -1    0    0    0    0 -0.00000000000E+00 -0.00000000000E+00  0.11368683772E-12  0.17120000000E+03  0.17120000000E+03 0.  0.
         13    1    1    2    0    0 -0.33921185743E+02  0.63122101771E+01  0.14048495133E+03  0.14466002749E+03  0.10566000000E+00 0.  1.
        994    1    1    2    0    0 -0.29044567038E+01 -0.10421121844E+02  0.51371319882E+01  0.17161837248E+03  0.17120000000E+03 0.  0.
        998    1    1    2    0    0  0.36825642447E+02  0.41089116665E+01  0.13543779130E+04  0.13549216000E+04  0.10000000000E+02 0.  1.
</event>
<event>
 5    1  0.1572996E-008  0.3853837E+03  0.7957747E-01  0.3428046E+00
         13   -1    0    0    0    0  0.00000000000E+00  0.00000000000E+00  0.14999999963E+04  0.15000000000E+04  0.10566000000E+00 0. -1.
        994   -1    0    0    0    0 -0.00000000000E+00 -0.00000000000E+00  0.11368683772E-12  0.17120000000E+03  0.17120000000E+03 0.  0.
         13    1    1    2    0    0 -0.10957150901E+02 -0.71603878065E+01  0.59617773327E+02  0.61037860135E+02  0.10566000000E+00 0. -1.
        994    1    1    2    0    0  0.97602284078E+01  0.14940107843E+01  0.17600278540E+01  0.17149353290E+03  0.17120000000E+03 0.  0.
        998    1    1    2    0    0  0.11969224931E+01  0.56663770222E+01  0.14386221951E+04  0.14386686070E+04  0.10000000000E+02 0. -1.
</event>
<event>
 5    1  0.1572996E-008  0.4095967E+03  0.7957747E-01  0.3331615E+00
         13   -1    0    0    0    0  0.00000000000E+00  0.00000000000E+00  0.14999999963E+04  0.15000000000E+04  0.10566000000E+00 0.  1.
        994   -1    0    0    0    0 -0.00000000000E+00 -0.00000000000E+00  0.11368683772E-12  0.17120000000E+03  0.17120000000E+03 0.  0.
         13    1    1    2    0    0  0.54859608275E+02  0.12551090693E+03  0.22214225769E+03  0.26097846309E+03  0.10566000000E+00 0.  1.
        994    1    1    2    0    0 -0.51983024463E+02 -0.12801040030E+03  0.11673406321E+03  0.24904854734E+03  0.17120000000E+03 0.  0.
        998    1    1    2    0    0 -0.28765838119E+01  0.24994933658E+01  0.11611236754E+04  0.11611729896E+04  0.10000000000E+02 0.  0.
</event>
<event>
 5    1  0.1572996E-008  0.2995100E+03  0.7957747E-01  0.3899523E+00
         13   -1    0    0    0    0  0.00000000000E+00  0.00000000000E+00  0.14999999963E+04  0.15000000000E+04  0.10566000000E+00 0.  1.
        994   -1    0    0    0    0 -0.00000000000E+00 -0.00000000000E+00  0.11368683772E-12  0.17120000000E+03  0.17120000000E+03 0.  0.
         13    1    1    2    0    0  0.14262043657E+03 -0.10539892194E+03  0.65838833607E+03  0.68185389484E+03  0.10566000000E+00 0.  1.
        994    1    1    2    0    0 -0.14587359595E+03  0.91561225725E+02  0.12611170924E+03  0.27363509873E+03  0.17120000000E+03 0.  0.
        998    1    1    2    0    0  0.32531593711E+01  0.13837696215E+02  0.71549995097E+03  0.71571100643E+03  0.10000000000E+02 0. -1.
</event>
<event>
 5    1  0.1572996E-008  0.3933658E+03  0.7957747E-01  0.3394949E+00
         13   -1    0    0    0    0  0.00000000000E+00  0.00000000000E+00  0.14999999963E+04  0.15000000000E+04  0.10566000000E+00 0. -1.
        994   -1    0    0    0    0 -0.00000000000E+00 -0.00000000000E+00  0.11368683772E-12  0.17120000000E+03  0.17120000000E+03 0.  0.
         13    1    1    2    0    0 -0.65298556844E+02  0.82076643347E+02  0.18690824541E+03  0.21432494087E+03  0.10566000000E+00 0. -1.
        994    1    1    2    0    0  0.65581449905E+02 -0.93524933049E+02  0.75546304241E+02  0.21923622821E+03  0.17120000000E+03 0.  0.
        998    1    1    2    0    0 -0.28289306112E+00  0.11448289701E+02  0.12375454466E+04  0.12376388309E+04  0.10000000000E+02 0. -1.
</event>
<event>
 5    1  0.1572996E-008  0.3703905E+03  0.7957747E-01  0.3494098E+00
         13   -1    0    0    0    0  0.00000000000E+00  0.00000000000E+00  0.14999999963E+04  0.15000000000E+04  0.10566000000E+00 0.  1.
        994   -1    0    0    0    0 -0.00000000000E+00 -0.00000000000E+00  0.11368683772E-12  0.17120000000E+03  0.17120000000E+03 0.  0.
         13    1    1    2    0    0  0.29648180380E+03  0.13634672767E+03  0.74864472251E+03  0.81667669358E+03  0.10566000000E+00 0.  1.
        994    1    1    2    0    0 -0.28238952455E+03 -0.15988013565E+03  0.62407011366E+03  0.72393262677E+03  0.17120000000E+03 0.  0.
        998    1    1    2    0    0 -0.14092279252E+02  0.23533407984E+02  0.12728516011E+03  0.13059067965E+03  0.10000000000E+02 0.  1.
</event>
<event>
 5    1  0.1572996E-008  0.3781743E+03  0.7957747E-01  0.3459147E+00
         13   -1    0    0    0    0  0.00000000000E+00  0.00000000000E+00  0.14999999963E+04  0.15000000000E+04  0.10566000000E+00 0. -1.
        994   -1    0    0    0    0 -0.00000000000E+00 -0.00000000000E+00  0.11368683772E-12  0.17120000000E+03  0.17120000000E+03 0.  0.
         13    1    1    2    0    0 -0.72612205454E+02  0.18180667392E+02  0.15518615295E+03  0.17229574074E+03  0.10566000000E+00 0. -1.
        994    1    1    2    0    0  0.79407776056E+02 -0.20604821810E+02  0.39971168119E+02  0.19400331920E+03  0.17120000000E+03 0.  0.
        998    1    1    2    0    0 -0.67955706016E+01  0.24241544176E+01  0.13048426752E+04  0.13049009401E+04  0.10000000000E+02 0. -1.
</event>
<event>
 5    1  0.1572996E-008  0.3748953E+03  0.7957747E-01  0.3473691E+00
         13   -1    0    0    0    0  0.00000000000E+00  0.00000000000E+00  0.14999999963E+04  0.15000000000E+04  0.10566000000E+00 0. -1.
        994   -1    0    0    0    0 -0.00000000000E+00 -0.00000000000E+00  0.11368683772E-12  0.17120000000E+03  0.17120000000E+03 0.  0.
         13    1    1    2    0    0 -0.19815852324E+02  0.57420167874E+01  0.29446015985E+02  0.35954384733E+02  0.10566000000E+00 0. -1.
        994    1    1    2    0    0  0.48960007980E+01 -0.53779554370E+01  0.69123847308E+01  0.17149377333E+03  0.17120000000E+03 0.  0.
        998    1    1    2    0    0  0.14919851526E+02 -0.36406135041E+00  0.14636415956E+04  0.14637518419E+04  0.10000000000E+02 0. -1.
</event>
<event>
 5    1  0.1572996E-008  0.3800287E+03  0.7957747E-01  0.3451034E+00
         13   -1    0    0    0    0  0.00000000000E+00  0.00000000000E+00  0.14999999963E+04  0.15000000000E+04  0.10566000000E+00 0.  1.
        994   -1    0    0    0    0 -0.00000000000E+00 -0.00000000000E+00  0.11368683772E-12  0.17120000000E+03  0.17120000000E+03 0.  0.
         13    1    1    2    0    0  0.12242914011E+02  0.13551127855E+02  0.39487267098E+02  0.43506062067E+02  0.10566000000E+00 0.  1.
        994    1    1    2    0    0 -0.68515609372E+01 -0.44013076299E+01  0.43403705186E+01  0.17144851767E+03  0.17120000000E+03 0.  0.
        998    1    1    2    0    0 -0.53913530734E+01 -0.91498202250E+01  0.14561723587E+04  0.14562454203E+04  0.10000000000E+02 0.  1.
</event>
<event>
 5    1  0.1572996E-008  0.3784463E+03  0.7957747E-01  0.3457952E+00
         13   -1    0    0    0    0  0.00000000000E+00  0.00000000000E+00  0.14999999963E+04  0.15000000000E+04  0.10566000000E+00 0.  1.
        994   -1    0    0    0    0 -0.00000000000E+00 -0.00000000000E+00  0.11368683772E-12  0.17120000000E+03  0.17120000000E+03 0.  0.
         13    1    1    2    0    0  0.30644832015E+02  0.76261969544E+01  0.10324355914E+03  0.10796531053E+03  0.10566000000E+00 0.  1.
        994    1    1    2    0    0 -0.10250844431E+02 -0.80253068966E+01  0.54892079694E+01  0.17178200362E+03  0.17120000000E+03 0.  0.
        998    1    1    2    0    0 -0.20393987584E+02  0.39910994227E+00  0.13912672292E+04  0.13914526859E+04  0.10000000000E+02 0.  1.
</event>
<event>
 5    1  0.1572996E-008  0.3856677E+03  0.7957747E-01  0.3426845E+00
         13   -1    0    0    0    0  0.00000000000E+00  0.00000000000E+00  0.14999999963E+04  0.15000000000E+04  0.10566000000E+00 0. -1.
        994   -1    0    0    0    0 -0.00000000000E+00 -0.00000000000E+00  0.11368683772E-12  0.17120000000E+03  0.17120000000E+03 0.  0.
         13    1    1    2    0    0  0.13841424195E+02  0.36328101292E+01  0.85134711207E+02  0.86329094456E+02  0.10566000000E+00 0. -1.
        994    1    1    2    0    0  0.35855373863E+01 -0.19543837764E+02  0.25956920743E+01  0.17236877702E+03  0.17120000000E+03 0.  0.
        998    1    1    2    0    0 -0.17426961582E+02  0.15911027635E+02  0.14122695930E+04  0.14125021285E+04  0.10000000000E+02 0. -1.
</event>
<event>
 5    1  0.1572996E-008  0.3549460E+03  0.7957747E-01  0.3568073E+00
         13   -1    0    0    0    0  0.00000000000E+00  0.00000000000E+00  0.14999999963E+04  0.15000000000E+04  0.10566000000E+00 0. -1.
        994   -1    0    0    0    0 -0.00000000000E+00 -0.00000000000E+00  0.11368683772E-12  0.17120000000E+03  0.17120000000E+03 0.  0.
         13    1    1    2    0    0  0.92337248096E+01 -0.22764250154E+03  0.10461854857E+04  0.10707055860E+04  0.10566000000E+00 0. -1.
        994    1    1    2    0    0 -0.13917627821E+01  0.20607439499E+03  0.17377114332E+03  0.31933437573E+03  0.17120000000E+03 0.  0.
        998    1    1    2    0    0 -0.78419620275E+01  0.21568106548E+02  0.28004336723E+03  0.28116003827E+03  0.10000000000E+02 0. -1.
</event>
<event>
 5    1  0.1582057E-008  0.3857430E+03  0.7957747E-01  0.3426527E+00
         13   -1    0    0    0    0  0.00000000000E+00  0.00000000000E+00  0.14999999963E+04  0.15000000000E+04  0.10566000000E+00 0.  1.
        994   -1    0    0    0    0 -0.00000000000E+00 -0.00000000000E+00  0.11368683772E-12  0.17120000000E+03  0.17120000000E+03 0.  0.
         13    1    1    2    0    0  0.12485020082E+02  0.27213640763E+00  0.60777696168E+02  0.62047476179E+02  0.10566000000E+00 0.  1.
        994    1    1    2    0    0 -0.11945432936E+02  0.15979006700E+01  0.17383575016E+01  0.17163248102E+03  0.17120000000E+03 0.  0.
        998    1    1    2    0    0 -0.53958714633E+00 -0.18700370776E+01  0.14374839426E+04  0.14375200428E+04  0.10000000000E+02 0.  1.
</event>
<event>
 5    1  0.1572996E-008  0.3768356E+03  0.7957747E-01  0.3465054E+00
         13   -1    0    0    0    0  0.00000000000E+00  0.00000000000E+00  0.14999999963E+04  0.15000000000E+04  0.10566000000E+00 0.  1.
        994   -1    0    0    0    0 -0.00000000000E+00 -0.00000000000E+00  0.11368683772E-12  0.17120000000E+03  0.17120000000E+03 0.  0.
         13    1    1    2    0    0 -0.52123127369E+02 -0.14764060930E+01  0.20156632701E+03  0.20820181442E+03  0.10566000000E+00 0.  1.
        994    1    1    2    0    0  0.54619675428E+02 -0.35208853781E+01  0.15927271976E+02  0.18044063725E+03  0.17120000000E+03 0.  0.
        998    1    1    2    0    0 -0.24965480586E+01  0.49972914711E+01  0.12825063973E+04  0.12825575483E+04  0.10000000000E+02 0.  1.
</event>
<event>
 5    1  0.1572996E-008  0.3850774E+03  0.7957747E-01  0.3429344E+00
         13   -1    0    0    0    0  0.00000000000E+00  0.00000000000E+00  0.14999999963E+04  0.15000000000E+04  0.10566000000E+00 0. -1.
        994   -1    0    0    0    0 -0.00000000000E+00 -0.00000000000E+00  0.11368683772E-12  0.17120000000E+03  0.17120000000E+03 0.  0.
         13    1    1    2    0    0  0.11913217789E+02 -0.98989935517E+01  0.84392216289E+02  0.85801935675E+02  0.10566000000E+00 0. -1.
        994    1    1    2    0    0 -0.10829814340E+01 -0.88807868516E+01  0.18549240551E+01  0.17144364079E+03  0.17120000000E+03 0.  0.
        998    1    1    2    0    0 -0.10830236355E+02  0.18779780403E+02  0.14137528559E+04  0.14139544235E+04  0.10000000000E+02 0. -1.
</event>
<event>
 5    1  0.1572996E-008  0.3717059E+03  0.7957747E-01  0.3488087E+00
         13   -1    0    0    0    0  0.00000000000E+00  0.00000000000E+00  0.14999999963E+04  0.15000000000E+04  0.10566000000E+00 0.  1.
        994   -1    0    0    0    0 -0.00000000000E+00 -0.00000000000E+00  0.11368683772E-12  0.17120000000E+03  0.17120000000E+03 0.  0.
         13    1    1    2    0    0  0.42039292149E+02 -0.75100163567E+02  0.44314102718E+03  0.45142144144E+03  0.10566000000E+00 0.  1.
        994    1    1    2    0    0 -0.85090776896E+02  0.17146020880E+02  0.34742035217E+02  0.19506633578E+03  0.17120000000E+03 0.  0.
        998    1    1    2    0    0  0.43051484747E+02  0.57954142687E+02  0.10221169339E+04  0.10247122228E+04  0.10000000000E+02 0. -1.
</event>
<event>
 5    1  0.1572996E-008  0.3832030E+03  0.7957747E-01  0.3437329E+00
         13   -1    0    0    0    0  0.00000000000E+00  0.00000000000E+00  0.14999999963E+04  0.15000000000E+04  0.10566000000E+00 0.  1.
        994   -1    0    0    0    0 -0.00000000000E+00 -0.00000000000E+00  0.11368683772E-12  0.17120000000E+03  0.17120000000E+03 0.  0.
         13    1    1    2    0    0 -0.11265351209E+02  0.36027195390E-01  0.25227477653E+02  0.27628721082E+02  0.10566000000E+00 0.  1.
        994    1    1    2    0    0 -0.36814079414E+01 -0.98823934062E+01  0.28929238931E+01  0.17154889528E+03  0.17120000000E+03 0.  0.
        998    1    1    2    0    0  0.14946759151E+02  0.98463662108E+01  0.14718795947E+04  0.14720223836E+04  0.10000000000E+02 0.  1.
</event>
<event>
 5    1  0.1572996E-008  0.3835814E+03  0.7957747E-01  0.3435711E+00
         13   -1    0    0    0    0  0.00000000000E+00  0.00000000000E+00  0.14999999963E+04  0.15000000000E+04  0.10566000000E+00 0. -1.
        994   -1    0    0    0    0 -0.00000000000E+00 -0.00000000000E+00  0.11368683772E-12  0.17120000000E+03  0.17120000000E+03 0.  0.
         13    1    1    2    0    0  0.96474150488E+01  0.72280743867E+01  0.29640816219E+02  0.31998544133E+02  0.10566000000E+00 0. -1.
        994    1    1    2    0    0 -0.13468818938E+02 -0.67200117090E+01  0.30849816657E+01  0.17188811696E+03  0.17120000000E+03 0.  0.
        998    1    1    2    0    0  0.38214038888E+01 -0.50806267772E+00  0.14672741984E+04  0.14673133389E+04  0.10000000000E+02 0. -1.
</event>
<event>
 5    1  0.1572996E-008  0.3699409E+03  0.7957747E-01  0.3496162E+00
         13   -1    0    0    0    0  0.00000000000E+00  0.00000000000E+00  0.14999999963E+04  0.15000000000E+04  0.10566000000E+00 0.  1.
        994   -1    0    0    0    0 -0.00000000000E+00 -0.00000000000E+00  0.11368683772E-12  0.17120000000E+03  0.17120000000E+03 0.  0.
         13    1    1    2    0    0  0.15725627702E+02  0.21553212819E+02  0.34663674735E+02  0.43742632061E+02  0.10566000000E+00 0.  1.
        994    1    1    2    0    0 -0.65482434941E+01 -0.15957231476E+02  0.10329501248E+02  0.17237648136E+03  0.17120000000E+03 0.  0.
        998    1    1    2    0    0 -0.91773842077E+01 -0.55959813421E+01  0.14550068203E+04  0.14550808866E+04  0.10000000000E+02 0.  1.
</event>
<event>
 5    1  0.1572996E-008  0.3835965E+03  0.7957747E-01  0.3435646E+00
         13   -1    0    0    0    0  0.00000000000E+00  0.00000000000E+00  0.14999999963E+04  0.15000000000E+04  0.10566000000E+00 0.  1.
        994   -1    0    0    0    0 -0.00000000000E+00 -0.00000000000E+00  0.11368683772E-12  0.17120000000E+03  0.17120000000E+03 0.  0.
         13    1    1    2    0    0 -0.19969680135E+02  0.23197909714E+02  0.16896922498E+03  0.17171936785E+03  0.10566000000E+00 0.  1.
        994    1    1    2    0    0  0.23365495909E+02 -0.30403145862E+02  0.72011473560E+01  0.17558927701E+03  0.17120000000E+03 0.  0.
        998    1    1    2    0    0 -0.33958157742E+01  0.72052361484E+01  0.13238296239E+04  0.13238913551E+04  0.10000000000E+02 0.  1.
</event>
<event>
 5    1  0.1572996E-008  0.3849364E+03  0.7957747E-01  0.3429942E+00
         13   -1    0    0    0    0  0.00000000000E+00  0.00000000000E+00  0.14999999963E+04  0.15000000000E+04  0.10566000000E+00 0. -1.
        994   -1    0    0    0    0 -0.00000000000E+00 -0.00000000000E+00  0.11368683772E-12  0.17120000000E+03  0.17120000000E+03 0.  0.
         13    1    1    2    0    0 -0.10803399448E+02 -0.20357909032E+01  0.35462147194E+02  0.37127253223E+02  0.10566000000E+00 0. -1.
        994    1    1    2    0    0  0.11552536289E+02  0.16355100366E+01  0.21096386808E+01  0.17161010041E+03  0.17120000000E+03 0.  0.
        998    1    1    2    0    0 -0.74913684137E+00  0.40028086660E+00  0.14624282104E+04  0.14624626464E+04  0.10000000000E+02 0. -1.
</event>
<event>
 5    1  0.1572996E-008  0.3825762E+03  0.7957747E-01  0.3440017E+00
         13   -1    0    0    0    0  0.00000000000E+00  0.00000000000E+00  0.14999999963E+04  0.15000000000E+04  0.10566000000E+00 0.  1.
        994   -1    0    0    0    0 -0.00000000000E+00 -0.00000000000E+00  0.11368683772E-12  0.17120000000E+03  0.17120000000E+03 0.  0.
         13    1    1    2    0    0  0.53699632072E+01  0.13089091726E+02  0.33451431966E+02  0.36320383970E+02  0.10566000000E+00 0.  1.
        994    1    1    2    0    0 -0.32838997202E+01 -0.16232097627E+02  0.37479655643E+01  0.17203997279E+03  0.17120000000E+03 0.  0.
        998    1    1    2    0    0 -0.20860634871E+01  0.31430059011E+01  0.14628005987E+04  0.14628396432E+04  0.10000000000E+02 0.  1.
</event>
<event>
 5    1  0.1572996E-008  0.3801024E+03  0.7957747E-01  0.3450713E+00
         13   -1    0    0    0    0  0.00000000000E+00  0.00000000000E+00  0.14999999963E+04  0.15000000000E+04  0.10566000000E+00 0.  1.
        994   -1    0    0    0    0 -0.00000000000E+00 -0.00000000000E+00  0.11368683772E-12  0.17120000000E+03  0.17120000000E+03 0.  0.
         13    1    1    2    0    0 -0.37218144192E+02  0.86982697747E+01  0.20547703623E+03  0.20900161181E+03  0.10566000000E+00 0.  1.
        994    1    1    2    0    0  0.40654285128E+01  0.29154502096E+01  0.41650874351E+01  0.17132371556E+03  0.17120000000E+03 0.  0.
        998    1    1    2    0    0  0.33152715680E+02 -0.11613719984E+02  0.12903578726E+04  0.12908746726E+04  0.10000000000E+02 0.  1.
</event>
<event>
 5    1  0.2373481E-008  0.3860392E+03  0.7957747E-01  0.3425277E+00
         13   -1    0    0    0    0  0.00000000000E+00  0.00000000000E+00  0.14999999963E+04  0.15000000000E+04  0.10566000000E+00 0.  1.
        994   -1    0    0    0    0 -0.00000000000E+00 -0.00000000000E+00  0.11368683772E-12  0.17120000000E+03  0.17120000000E+03 0.  0.
         13    1    1    2    0    0  0.10551980765E+02 -0.36814131162E+01  0.57234524665E+02  0.58315513187E+02  0.10566000000E+00 0.  1.
        994    1    1    2    0    0 -0.53396077173E+01  0.34827597156E+01  0.12483084739E+01  0.17132320129E+03  0.17120000000E+03 0.  0.
        998    1    1    2    0    0 -0.52123730472E+01  0.19865340058E+00  0.14415171631E+04  0.14415612855E+04  0.10000000000E+02 0.  1.
</event>
<event>
 5    1  0.1572996E-008  0.3801200E+03  0.7957747E-01  0.3450636E+00
         13   -1    0    0    0    0  0.00000000000E+00  0.00000000000E+00  0.14999999963E+04  0.15000000000E+04  0.10566000000E+00 0. -1.
        994   -1    0    0    0    0 -0.00000000000E+00 -0.00000000000E+00  0.11368683772E-12  0.17120000000E+03  0.17120000000E+03 0.  0.
         13    1    1    2    0    0 -0.17470310576E+02 -0.33892589311E+02  0.16115115941E+03  0.16560080527E+03  0.10566000000E+00 0. -1.
        994    1    1    2    0    0  0.20367305494E+02  0.30873512582E+02  0.86574091659E+01  0.17536359841E+03  0.17120000000E+03 0.  0.
        998    1    1    2    0    0 -0.28969949182E+01  0.30190767290E+01  0.13301914277E+04  0.13302355963E+04  0.10000000000E+02 0. -1.
</event>
<event>
 5    1  0.1572996E-008  0.4139802E+03  0.7957747E-01  0.3315354E+00
         13   -1    0    0    0    0  0.00000000000E+00  0.00000000000E+00  0.14999999963E+04  0.15000000000E+04  0.10566000000E+00 0. -1.
        994   -1    0    0    0    0 -0.00000000000E+00 -0.00000000000E+00  0.11368683772E-12  0.17120000000E+03  0.17120000000E+03 0.  0.
         13    1    1    2    0    0 -0.96105873018E+02 -0.39624143210E+02  0.13469580268E+03  0.17014517912E+03  0.10566000000E+00 0. -1.
        994    1    1    2    0    0  0.78318024341E+02  0.29863632571E+02  0.66247485045E+02  0.20180118623E+03  0.17120000000E+03 0.  0.
        998    1    1    2    0    0  0.17787848676E+02  0.97605106385E+01  0.12990567086E+04  0.12992536347E+04  0.10000000000E+02 0. -1.
</event>
<event>
 5    1  0.1572996E-008  0.3824904E+03  0.7957747E-01  0.3440386E+00
         13   -1    0    0    0    0  0.00000000000E+00  0.00000000000E+00  0.14999999963E+04  0.15000000000E+04  0.10566000000E+00 0.  1.
        994   -1    0    0    0    0 -0.00000000000E+00 -0.00000000000E+00  0.11368683772E-12  0.17120000000E+03  0.17120000000E+03 0.  0.
         13    1    1    2    0    0  0.19784104374E+02  0.12392069006E+02  0.90146813782E+02  0.93120531352E+02  0.10566000000E+00 0.  1.
        994    1    1    2    0    0 -0.27887695285E+02  0.38556592736E+01  0.55136319035E+01  0.17358695168E+03  0.17120000000E+03 0.  0.
        998    1    1    2    0    0  0.81035909110E+01 -0.16247728280E+02  0.14043395506E+04  0.14044925170E+04  0.10000000000E+02 0.  1.
</event>
<event>
 5    1  0.1572996E-008  0.3788273E+03  0.7957747E-01  0.3456280E+00
         13   -1    0    0    0    0  0.00000000000E+00  0.00000000000E+00  0.14999999963E+04  0.15000000000E+04  0.10566000000E+00 0.  1.
        994   -1    0    0    0    0 -0.00000000000E+00 -0.00000000000E+00  0.11368683772E-12  0.17120000000E+03  0.17120000000E+03 0.  0.
         13    1    1    2    0    0  0.43143046490E+02 -0.91257810816E+01  0.17352609228E+03  0.17904166612E+03  0.10566000000E+00 0.  1.
        994    1    1    2    0    0 -0.53288351049E+02 -0.26655730567E+01  0.14339794130E+02  0.17989392245E+03  0.17120000000E+03 0.  0.
        998    1    1    2    0    0  0.10145304559E+02  0.11791354138E+02  0.13121341099E+04  0.13122644114E+04  0.10000000000E+02 0.  1.
</event>
<event>
 5    1  0.1572996E-008  0.3790387E+03  0.7957747E-01  0.3455355E+00
         13   -1    0    0    0    0  0.00000000000E+00  0.00000000000E+00  0.14999999963E+04  0.15000000000E+04  0.10566000000E+00 0.  1.
        994   -1    0    0    0    0 -0.00000000000E+00 -0.00000000000E+00  0.11368683772E-12  0.17120000000E+03  0.17120000000E+03 0.  0.
         13    1    1    2    0    0 -0.11725605717E+02 -0.53072132556E+01  0.15979044819E+02  0.20518220667E+02  0.10566000000E+00 0.  1.
        994    1    1    2    0    0  0.72786292938E+01  0.39048779534E+01  0.48480167702E+01  0.17146769312E+03  0.17120000000E+03 0.  0.
        998    1    1    2    0    0  0.44469764227E+01  0.14023353021E+01  0.14791729347E+04  0.14792140862E+04  0.10000000000E+02 0.  1.
</event>
<event>
 5    1  0.1572996E-008  0.3747565E+03  0.7957747E-01  0.3474312E+00
         13   -1    0    0    0    0  0.00000000000E+00  0.00000000000E+00  0.14999999963E+04  0.15000000000E+04  0.10566000000E+00 0.  1.
        994   -1    0    0    0    0 -0.00000000000E+00 -0.00000000000E+00  0.11368683772E-12  0.17120000000E+03  0.17120000000E+03 0.  0.
         13    1    1    2    0    0  0.56487532020E+02 -0.59552035616E+02  0.36205850654E+03  0.37124609027E+03  0.10566000000E+00 0.  1.
        994    1    1    2    0    0 -0.56101732733E+02  0.64150609875E+02  0.31927758001E+02  0.19388534471E+03  0.17120000000E+03 0.  0.
        998    1    1    2    0    0 -0.38579928787E+00 -0.45985742586E+01  0.11060137317E+04  0.11060685650E+04  0.10000000000E+02 0.  0.
</event>
<event>
 5    1  0.1572996E-008  0.3818151E+03  0.7957747E-01  0.3443293E+00
         13   -1    0    0    0    0  0.00000000000E+00  0.00000000000E+00  0.14999999963E+04  0.15000000000E+04  0.10566000000E+00 0. -1.
        994   -1    0    0    0    0 -0.00000000000E+00 -0.00000000000E+00  0.11368683772E-12  0.17120000000E+03  0.17120000000E+03 0.  0.
         13    1    1    2    0    0  0.65000738987E+01 -0.12106490058E+02  0.28559713417E+02  0.31693634325E+02  0.10566000000E+00 0. -1.
        994    1    1    2    0    0 -0.63603550168E+01  0.17813599070E+01  0.33646945738E+01  0.17136040537E+03  0.17120000000E+03 0.  0.
        998    1    1    2    0    0 -0.13971888185E+00  0.10325130151E+02  0.14680755883E+04  0.14681459603E+04  0.10000000000E+02 0. -1.
</event>
<event>
 5    1  0.1572996E-008  0.3791350E+03  0.7957747E-01  0.3454934E+00
         13   -1    0    0    0    0  0.00000000000E+00  0.00000000000E+00  0.14999999963E+04  0.15000000000E+04  0.10566000000E+00 0.  1.
        994   -1    0    0    0    0 -0.00000000000E+00 -0.00000000000E+00  0.11368683772E-12  0.17120000000E+03  0.17120000000E+03 0.  0.
         13    1    1    2    0    0  0.27322510917E+02 -0.77644579698E+01  0.97850799309E+02  0.10189011974E+03  0.10566000000E+00 0.  1.
        994    1    1    2    0    0  0.46635903379E+01 -0.95194706114E+01  0.49472402504E+01  0.17159919750E+03  0.17120000000E+03 0.  0.
        998    1    1    2    0    0 -0.31986101255E+02  0.17283928581E+02  0.13972019567E+04  0.13977106828E+04  0.10000000000E+02 0.  1.
</event>
<event>
 5    1  0.1572996E-008  0.3786468E+03  0.7957747E-01  0.3457072E+00
         13   -1    0    0    0    0  0.00000000000E+00  0.00000000000E+00  0.14999999963E+04  0.15000000000E+04  0.10566000000E+00 0.  1.
        994   -1    0    0    0    0 -0.00000000000E+00 -0.00000000000E+00  0.11368683772E-12  0.17120000000E+03  0.17120000000E+03 0.  0.
         13    1    1    2    0    0 -0.23533792510E+02  0.24063953299E+02  0.11286588563E+03  0.11777789496E+03  0.10566000000E+00 0.  1.
        994    1    1    2    0    0  0.24859931799E+02 -0.11355761680E+02  0.73301362550E+01  0.17352273750E+03  0.17120000000E+03 0.  0.
        998    1    1    2    0    0 -0.13261392890E+01 -0.12708191619E+02  0.13798039744E+04  0.13798993675E+04  0.10000000000E+02 0.  1.
</event>
<event>
 5    1  0.1572996E-008  0.3774634E+03  0.7957747E-01  0.3462278E+00
         13   -1    0    0    0    0  0.00000000000E+00  0.00000000000E+00  0.14999999963E+04  0.15000000000E+04  0.10566000000E+00 0.  1.
        994   -1    0    0    0    0 -0.00000000000E+00 -0.00000000000E+00  0.11368683772E-12  0.17120000000E+03  0.17120000000E+03 0.  0.
         13    1    1    2    0    0 -0.16235547602E+02  0.47029231066E-01  0.22068807554E+02  0.27397785468E+02  0.10566000000E+00 0.  1.
        994    1    1    2    0    0  0.10655717074E+02  0.15517060118E+02  0.66145363503E+01  0.17235868285E+03  0.17120000000E+03 0.  0.
        998    1    1    2    0    0  0.55798305285E+01 -0.15564089350E+02  0.14713166524E+04  0.14714435317E+04  0.10000000000E+02 0.  1.
</event>
<event>
 5    1  0.1572996E-008  0.3755907E+03  0.7957747E-01  0.3470585E+00
         13   -1    0    0    0    0  0.00000000000E+00  0.00000000000E+00  0.14999999963E+04  0.15000000000E+04  0.10566000000E+00 0. -1.
        994   -1    0    0    0    0 -0.00000000000E+00 -0.00000000000E+00  0.11368683772E-12  0.17120000000E+03  0.17120000000E+03 0.  0.
         13    1    1    2    0    0 -0.36776808474E+02 -0.13042811101E+02  0.11117750712E+03  0.11782655820E+03  0.10566000000E+00 0. -1.
        994    1    1    2    0    0  0.32536963719E+02  0.13771454109E+02  0.10622215802E+02  0.17513017565E+03  0.17120000000E+03 0.  0.
        998    1    1    2    0    0  0.42398447557E+01 -0.72864300817E+00  0.13782002734E+04  0.13782432661E+04  0.10000000000E+02 0. -1.
</event>
<event>
 5    1  0.1572996E-008  0.3800538E+03  0.7957747E-01  0.3450924E+00
         13   -1    0    0    0    0  0.00000000000E+00  0.00000000000E+00  0.14999999963E+04  0.15000000000E+04  0.10566000000E+00 0.  1.
        994   -1    0    0    0    0 -0.00000000000E+00 -0.00000000000E+00  0.11368683772E-12  0.17120000000E+03  0.17120000000E+03 0.  0.
         13    1    1    2    0    0 -0.29443457198E+02  0.30889352681E+02  0.48408743943E+02  0.64532836099E+02  0.10566000000E+00 0.  1.
        994    1    1    2    0    0  0.27514516995E+02 -0.28505402880E+02  0.22066817541E+02  0.17710446374E+03  0.17120000000E+03 0.  0.
        998    1    1    2    0    0  0.19289402026E+01 -0.23839498010E+01  0.14295244348E+04  0.14295627002E+04  0.10000000000E+02 0.  0.
</event>
<event>
 5    1  0.1572996E-008  0.3812522E+03  0.7957747E-01  0.3445724E+00
         13   -1    0    0    0    0  0.00000000000E+00  0.00000000000E+00  0.14999999963E+04  0.15000000000E+04  0.10566000000E+00 0. -1.
        994   -1    0    0    0    0 -0.00000000000E+00 -0.00000000000E+00  0.11368683772E-12  0.17120000000E+03  0.17120000000E+03 0.  0.
         13    1    1    2    0    0 -0.35612954802E+02  0.73706872795E+01  0.17579483400E+03  0.17951725379E+03  0.10566000000E+00 0. -1.
        994    1    1    2    0    0  0.29543248683E+02 -0.55990171924E+01  0.65182815810E+01  0.17394275073E+03  0.17120000000E+03 0.  0.
        998    1    1    2    0    0  0.60697061190E+01 -0.17716700872E+01  0.13176868807E+04  0.13177399955E+04  0.10000000000E+02 0. -1.
</event>
<event>
 5    1  0.1572996E-008  0.3802308E+03  0.7957747E-01  0.3450154E+00
         13   -1    0    0    0    0  0.00000000000E+00  0.00000000000E+00  0.14999999963E+04  0.15000000000E+04  0.10566000000E+00 0.  1.
        994   -1    0    0    0    0 -0.00000000000E+00 -0.00000000000E+00  0.11368683772E-12  0.17120000000E+03  0.17120000000E+03 0.  0.
         13    1    1    2    0    0 -0.40263808902E+02  0.50464886670E+02  0.38534737904E+03  0.39071791972E+03  0.10566000000E+00 0.  1.
        994    1    1    2    0    0  0.35740326338E+02 -0.54390186896E+02  0.18297432063E+02  0.18406493250E+03  0.17120000000E+03 0.  0.
        998    1    1    2    0    0  0.45234825634E+01  0.39253002264E+01  0.10963551852E+04  0.10964171478E+04  0.10000000000E+02 0.  1.
</event>
<event>
 5    1  0.1572996E-008  0.3830905E+03  0.7957747E-01  0.3437811E+00
         13   -1    0    0    0    0  0.00000000000E+00  0.00000000000E+00  0.14999999963E+04  0.15000000000E+04  0.10566000000E+00 0. -1.
        994   -1    0    0    0    0 -0.00000000000E+00 -0.00000000000E+00  0.11368683772E-12  0.17120000000E+03  0.17120000000E+03 0.  0.
         13    1    1    2    0    0  0.23153755250E+02 -0.24499259246E+01  0.98453783381E+02  0.10116944769E+03  0.10566000000E+00 0. -1.
        994    1    1    2    0    0 -0.21908289561E+02  0.21773263272E+02  0.57446496594E+01  0.17405886689E+03  0.17120000000E+03 0.  0.
        998    1    1    2    0    0 -0.12454656886E+01 -0.19323337348E+02  0.13958015632E+04  0.13959716854E+04  0.10000000000E+02 0. -1.
</event>
<event>
 5    1  0.1572996E-008  0.3837314E+03  0.7957747E-01  0.3435070E+00
         13   -1    0    0    0    0  0.00000000000E+00  0.00000000000E+00  0.14999999963E+04  0.15000000000E+04  0.10566000000E+00 0.  1.
        994   -1    0    0    0    0 -0.00000000000E+00 -0.00000000000E+00  0.11368683772E-12  0.17120000000E+03  0.17120000000E+03 0.  0.
         13    1    1    2    0    0 -0.49707502943E+01 -0.15163407004E+02  0.52463477328E+02  0.54836711132E+02  0.10566000000E+00 0.  1.
        994    1    1    2    0    0 -0.61374132145E+01  0.26313308048E+02  0.46758446664E+01  0.17338212579E+03  0.17120000000E+03 0.  0.
        998    1    1    2    0    0  0.11108163509E+02 -0.11149901044E+02  0.14428606743E+04  0.14429811631E+04  0.10000000000E+02 0.  1.
</event>
<event>
 5    1  0.1572996E-008  0.3839737E+03  0.7957747E-01  0.3434036E+00
         13   -1    0    0    0    0  0.00000000000E+00  0.00000000000E+00  0.14999999963E+04  0.15000000000E+04  0.10566000000E+00 0. -1.
        994   -1    0    0    0    0 -0.00000000000E+00 -0.00000000000E+00  0.11368683772E-12  0.17120000000E+03  0.17120000000E+03 0.  0.
         13    1    1    2    0    0 -0.12279893319E+02 -0.55510093406E+01  0.41592644285E+02  0.43721490222E+02  0.10566000000E+00 0. -1.
        994    1    1    2    0    0  0.83528408120E+01  0.75099158550E+01  0.25569405362E+01  0.17158714034E+03  0.17120000000E+03 0.  0.
        998    1    1    2    0    0  0.39270525072E+01 -0.19589065144E+01  0.14558504115E+04  0.14558913694E+04  0.10000000000E+02 0. -1.
</event>
<event>
 5    1  0.1572996E-008  0.3979875E+03  0.7957747E-01  0.3376392E+00
         13   -1    0    0    0    0  0.00000000000E+00  0.00000000000E+00  0.14999999963E+04  0.15000000000E+04  0.10566000000E+00 0.  1.
        994   -1    0    0    0    0 -0.00000000000E+00 -0.00000000000E+00  0.11368683772E-12  0.17120000000E+03  0.17120000000E+03 0.  0.
         13    1    1    2    0    0  0.31402351866E+02  0.12578095097E+03  0.27828127985E+03  0.30699745473E+03  0.10566000000E+00 0.  1.
        994    1    1    2    0    0 -0.58603628567E+02 -0.93327399307E+02  0.75487099706E+02  0.21714541433E+03  0.17120000000E+03 0.  0.
        998    1    1    2    0    0  0.27201276700E+02 -0.32453551665E+02  0.11462316167E+04  0.11470571309E+04  0.10000000000E+02 0. -1.
</event>
<event>
 5    1  0.1765203E-008  0.3859686E+03  0.7957747E-01  0.3425575E+00
         13   -1    0    0    0    0  0.00000000000E+00  0.00000000000E+00  0.14999999963E+04  0.15000000000E+04  0.10566000000E+00 0. -1.
        994   -1    0    0    0    0 -0.00000000000E+00 -0.00000000000E+00  0.11368683772E-12  0.17120000000E+03  0.17120000000E+03 0.  0.
         13    1    1    2    0    0 -0.73933540724E+01  0.87344631967E+01  0.58104124272E+02  0.59220376166E+02  0.10566000000E+00 0. -1.
        994    1    1    2    0    0  0.57310949885E+01 -0.35193190464E+01  0.12983223117E+01  0.17133696827E+03  0.17120000000E+03 0.  0.
        998    1    1    2    0    0  0.16622590840E+01 -0.52151441503E+01  0.14405975497E+04  0.14406426556E+04  0.10000000000E+02 0. -1.
</event>
<event>
 5    1  0.1572996E-008  0.3747614E+03  0.7957747E-01  0.3474290E+00
         13   -1    0    0    0    0  0.00000000000E+00  0.00000000000E+00  0.14999999963E+04  0.15000000000E+04  0.10566000000E+00 0. -1.
        994   -1    0    0    0    0 -0.00000000000E+00 -0.00000000000E+00  0.11368683772E-12  0.17120000000E+03  0.17120000000E+03 0.  0.
         13    1    1    2    0    0  0.97453219353E+01 -0.22898607778E+01  0.41679198360E+01  0.10844237262E+02  0.10566000000E+00 0. -1.
        994    1    1    2    0    0 -0.11226911847E+02  0.14221376210E+01  0.72370732759E+01  0.17172618104E+03  0.17120000000E+03 0.  0.
        998    1    1    2    0    0  0.14815899120E+01  0.86772315679E+00  0.14885950032E+04  0.14886295817E+04  0.10000000000E+02 0. -1.
</event>
<event>
 5    1  0.1572996E-008  0.3865559E+03  0.7957747E-01  0.3423100E+00
         13   -1    0    0    0    0  0.00000000000E+00  0.00000000000E+00  0.14999999963E+04  0.15000000000E+04  0.10566000000E+00 0. -1.
        994   -1    0    0    0    0 -0.00000000000E+00 -0.00000000000E+00  0.11368683772E-12  0.17120000000E+03  0.17120000000E+03 0.  0.
         13    1    1    2    0    0  0.13362924541E+01 -0.10813795994E+02  0.65371826022E+02  0.66273755460E+02  0.10566000000E+00 0. -1.
        994    1    1    2    0    0 -0.71359886715E+01  0.15651744855E+02  0.18284644156E+01  0.17207173717E+03  0.17120000000E+03 0.  0.
        998    1    1    2    0    0  0.57996962174E+01 -0.48379488619E+01  0.14327997058E+04  0.14328545074E+04  0.10000000000E+02 0. -1.
</event>
<event>
 5    1  0.1572996E-008  0.3836439E+03  0.7957747E-01  0.3435444E+00
         13   -1    0    0    0    0  0.00000000000E+00  0.00000000000E+00  0.14999999963E+04  0.15000000000E+04  0.10566000000E+00 0.  1.
        994   -1    0    0    0    0 -0.00000000000E+00 -0.00000000000E+00  0.11368683772E-12  0.17120000000E+03  0.17120000000E+03 0.  0.
         13    1    1    2    0    0 -0.60872669763E+01 -0.97661296197E+01  0.26843513736E+02  0.29206463338E+02  0.10566000000E+00 0.  1.
        994    1    1    2    0    0  0.39354947877E+01  0.20616013180E+02  0.37613443878E+01  0.17252274004E+03  0.17120000000E+03 0.  0.
        998    1    1    2    0    0  0.21517721886E+01 -0.10849883560E+02  0.14693951382E+04  0.14694707966E+04  0.10000000000E+02 0.  1.
</event>
<event>
 5    1  0.1572996E-008  0.3854667E+03  0.7957747E-01  0.3427695E+00
         13   -1    0    0    0    0  0.00000000000E+00  0.00000000000E+00  0.14999999963E+04  0.15000000000E+04  0.10566000000E+00 0.  1.
        994   -1    0    0    0    0 -0.00000000000E+00 -0.00000000000E+00  0.11368683772E-12  0.17120000000E+03  0.17120000000E+03 0.  0.
         13    1    1    2    0    0  0.13658837284E+02  0.79828741206E+01  0.90527101345E+02  0.91899169512E+02  0.10566000000E+00 0.  1.
        994    1    1    2    0    0 -0.82463653040E+01 -0.44436975588E+01  0.16868157566E+01  0.17146438212E+03  0.17120000000E+03 0.  0.
        998    1    1    2    0    0 -0.54124719801E+01 -0.35391765618E+01  0.14077860792E+04  0.14078364484E+04  0.10000000000E+02 0.  1.
</event>
<event>
 5    1  0.1572996E-008  0.3749387E+03  0.7957747E-01  0.3473497E+00
         13   -1    0    0    0    0  0.00000000000E+00  0.00000000000E+00  0.14999999963E+04  0.15000000000E+04  0.10566000000E+00 0. -1.
        994   -1    0    0    0    0 -0.00000000000E+00 -0.00000000000E+00  0.11368683772E-12  0.17120000000E+03  0.17120000000E+03 0.  0.
         13    1    1    2    0    0  0.34396837993E+02 -0.13264436232E+02  0.49654634868E+02  0.61844010708E+02  0.10566000000E+00 0. -1.
        994    1    1    2    0    0  0.47202653149E+02  0.73366608880E+02  0.41172162301E+02  0.19650785407E+03  0.17120000000E+03 0.  0.
        998    1    1    2    0    0 -0.81599491143E+02 -0.60102172648E+02  0.14091731991E+04  0.14128481352E+04  0.10000000000E+02 0. -1.
</event>
<event>
 5    1  0.1572996E-008  0.3843209E+03  0.7957747E-01  0.3432558E+00
         13   -1    0    0    0    0  0.00000000000E+00  0.00000000000E+00  0.14999999963E+04  0.15000000000E+04  0.10566000000E+00 0.  1.
        994   -1    0    0    0    0 -0.00000000000E+00 -0.00000000000E+00  0.11368683772E-12  0.17120000000E+03  0.17120000000E+03 0.  0.
         13    1    1    2    0    0  0.10681494094E+02  0.81970628975E+01  0.44643387529E+02  0.46629704806E+02  0.10566000000E+00 0.  1.
        994    1    1    2    0    0 -0.56024269791E+01 -0.15468944284E+02  0.28603094160E+01  0.17201249023E+03  0.17120000000E+03 0.  0.
        998    1    1    2    0    0 -0.50790671146E+01  0.72718813867E+01  0.14524962993E+04  0.14525578050E+04  0.10000000000E+02 0.  1.
</event>
<event>
 5    1  0.1572996E-008  0.3781001E+03  0.7957747E-01  0.3459473E+00
         13   -1    0    0    0    0  0.00000000000E+00  0.00000000000E+00  0.14999999963E+04  0.15000000000E+04  0.10566000000E+00 0.  1.
        994   -1    0    0    0    0 -0.00000000000E+00 -0.00000000000E+00  0.11368683772E-12  0.17120000000E+03  0.17120000000E+03 0.  0.
         13    1    1    2    0    0  0.23258607931E+02 -0.38537805602E+02  0.22068145892E+03  0.22522531558E+03  0.10566000000E+00 0.  1.
        994    1    1    2    0    0 -0.18937629609E+02  0.10085735998E+01  0.63060916378E+01  0.17236257664E+03  0.17120000000E+03 0.  0.
        998    1    1    2    0    0 -0.43209783220E+01  0.37529232003E+02  0.12730124457E+04  0.12736121078E+04  0.10000000000E+02 0.  1.
</event>
<event>
 5    1  0.1572996E-008  0.3840390E+03  0.7957747E-01  0.3433758E+00
         13   -1    0    0    0    0  0.00000000000E+00  0.00000000000E+00  0.14999999963E+04  0.15000000000E+04  0.10566000000E+00 0. -1.
        994   -1    0    0    0    0 -0.00000000000E+00 -0.00000000000E+00  0.11368683772E-12  0.17120000000E+03  0.17120000000E+03 0.  0.
         13    1    1    2    0    0  0.22060860558E+02  0.12224857421E+02  0.14888090816E+03  0.15100220093E+03  0.10566000000E+00 0. -1.
        994    1    1    2    0    0 -0.10602528797E+02 -0.15097455448E+02  0.32316019654E+01  0.17222145636E+03  0.17120000000E+03 0.  0.
        998    1    1    2    0    0 -0.11458331761E+02  0.28725980269E+01  0.13478874862E+04  0.13479763427E+04  0.10000000000E+02 0. -1.
</event>
<event>
 5    1  0.1572996E-008  0.3799605E+03  0.7957747E-01  0.3451330E+00
         13   -1    0    0    0    0  0.00000000000E+00  0.00000000000E+00  0.14999999963E+04  0.15000000000E+04  0.10566000000E+00 0. -1.
        994   -1    0    0    0    0 -0.00000000000E+00 -0.00000000000E+00  0.11368683772E-12  0.17120000000E+03  0.17120000000E+03 0.  0.
         13    1    1    2    0    0 -0.23138054258E+02  0.11571253692E+02  0.81862883556E+02  0.85853400253E+02  0.10566000000E+00 0. -1.
        994    1    1    2    0    0  0.70490810458E+01 -0.55461971597E+01  0.44220852505E+01  0.17149182104E+03  0.17120000000E+03 0.  0.
        998    1    1    2    0    0  0.16088973212E+02 -0.60250565325E+01  0.14137150275E+04  0.14138547787E+04  0.10000000000E+02 0. -1.
</event>
<event>
 5    1  0.1572996E-008  0.3842016E+03  0.7957747E-01  0.3433065E+00
         13   -1    0    0    0    0  0.00000000000E+00  0.00000000000E+00  0.14999999963E+04  0.15000000000E+04  0.10566000000E+00 0. -1.
        994   -1    0    0    0    0 -0.00000000000E+00 -0.00000000000E+00  0.11368683772E-12  0.17120000000E+03  0.17120000000E+03 0.  0.
         13    1    1    2    0    0 -0.19571219491E+02  0.40711377053E+01  0.95007242242E+02  0.97087558611E+02  0.10566000000E+00 0. -1.
        994    1    1    2    0    0  0.18153937353E+02  0.13053716286E+01  0.31200481928E+01  0.17219304323E+03  0.17120000000E+03 0.  0.
        998    1    1    2    0    0  0.14172821380E+01 -0.53765093339E+01  0.14018727058E+04  0.14019193982E+04  0.10000000000E+02 0. -1.
</event>
<event>
 5    1  0.1572996E-008  0.3842093E+03  0.7957747E-01  0.3433033E+00
         13   -1    0    0    0    0  0.00000000000E+00  0.00000000000E+00  0.14999999963E+04  0.15000000000E+04  0.10566000000E+00 0.  1.
        994   -1    0    0    0    0 -0.00000000000E+00 -0.00000000000E+00  0.11368683772E-12  0.17120000000E+03  0.17120000000E+03 0.  0.
         13    1    1    2    0    0 -0.10774517933E+02 -0.13808909330E+02  0.70972355725E+02  0.73101728124E+02  0.10566000000E+00 0.  1.
        994    1    1    2    0    0  0.27441846944E+02  0.65410127895E+01  0.46515946625E+01  0.17357107232E+03  0.17120000000E+03 0.  0.
        998    1    1    2    0    0 -0.16667329011E+02  0.72678965408E+01  0.14243760459E+04  0.14245271996E+04  0.10000000000E+02 0.  1.
</event>
<event>
 5    1  0.1572996E-008  0.3796617E+03  0.7957747E-01  0.3452633E+00
         13   -1    0    0    0    0  0.00000000000E+00  0.00000000000E+00  0.14999999963E+04  0.15000000000E+04  0.10566000000E+00 0.  1.
        994   -1    0    0    0    0 -0.00000000000E+00 -0.00000000000E+00  0.11368683772E-12  0.17120000000E+03  0.17120000000E+03 0.  0.
         13    1    1    2    0    0  0.80428202646E+01  0.80183674026E+01  0.13232129998E+02  0.17437935713E+02  0.10566000000E+00 0.  1.
        994    1    1    2    0    0  0.16203489400E+01 -0.76881666307E+01  0.45106172811E+01  0.17143954942E+03  0.17120000000E+03 0.  0.
        998    1    1    2    0    0 -0.96631692046E+01 -0.33020077191E+00  0.14822572490E+04  0.14823225149E+04  0.10000000000E+02 0.  1.
</event>
<event>
 5    1  0.1572996E-008  0.3837258E+03  0.7957747E-01  0.3435094E+00
         13   -1    0    0    0    0  0.00000000000E+00  0.00000000000E+00  0.14999999963E+04  0.15000000000E+04  0.10566000000E+00 0.  1.
        994   -1    0    0    0    0 -0.00000000000E+00 -0.00000000000E+00  0.11368683772E-12  0.17120000000E+03  0.17120000000E+03 0.  0.
         13    1    1    2    0    0 -0.31229855281E+01  0.11196869548E+02  0.30135832057E+02  0.32300192942E+02  0.10566000000E+00 0.  1.
        994    1    1    2    0    0 -0.95780241779E+01 -0.20956244073E+01  0.25815820701E+01  0.17149995555E+03  0.17120000000E+03 0.  0.
        998    1    1    2    0    0  0.12701009706E+02 -0.91012451408E+01  0.14672825822E+04  0.14673998515E+04  0.10000000000E+02 0.  1.
</event>
<event>
 5    1  0.1572996E-008  0.3797280E+03  0.7957747E-01  0.3452344E+00
         13   -1    0    0    0    0  0.00000000000E+00  0.00000000000E+00  0.14999999963E+04  0.15000000000E+04  0.10566000000E+00 0.  1.
        994   -1    0    0    0    0 -0.00000000000E+00 -0.00000000000E+00  0.11368683772E-12  0.17120000000E+03  0.17120000000E+03 0.  0.
         13    1    1    2    0    0 -0.64997792894E+01 -0.26940560418E+02  0.93830766991E+02  0.97837952373E+02  0.10566000000E+00 0.  1.
        994    1    1    2    0    0 -0.21588250314E+02  0.10821713409E+02  0.62241770179E+01  0.17300676985E+03  0.17120000000E+03 0.  0.
        998    1    1    2    0    0  0.28088029604E+02  0.16118847009E+02  0.13999450523E+04  0.14003552778E+04  0.10000000000E+02 0.  1.
</event>
<event>
 5    1  0.1572996E-008  0.3852894E+03  0.7957747E-01  0.3428446E+00
         13   -1    0    0    0    0  0.00000000000E+00  0.00000000000E+00  0.14999999963E+04  0.15000000000E+04  0.10566000000E+00 0.  1.
        994   -1    0    0    0    0 -0.00000000000E+00 -0.00000000000E+00  0.11368683772E-12  0.17120000000E+03  0.17120000000E+03 0.  0.
         13    1    1    2    0    0  0.66241555315E+01  0.96350081647E+01  0.44848519936E+02  0.46347747769E+02  0.10566000000E+00 0.  1.
        994    1    1    2    0    0 -0.19480000217E+01 -0.14055548118E+02  0.21483745921E+01  0.17180049083E+03  0.17120000000E+03 0.  0.
        998    1    1    2    0    0 -0.46761555097E+01  0.44205399535E+01  0.14530031018E+04  0.14530517614E+04  0.10000000000E+02 0.  1.
</event>
<event>
 5    1  0.1572996E-008  0.3813172E+03  0.7957747E-01  0.3445443E+00
         13   -1    0    0    0    0  0.00000000000E+00  0.00000000000E+00  0.14999999963E+04  0.15000000000E+04  0.10566000000E+00 0. -1.
        994   -1    0    0    0    0 -0.00000000000E+00 -0.00000000000E+00  0.11368683772E-12  0.17120000000E+03  0.17120000000E+03 0.  0.
         13    1    1    2    0    0 -0.62321866016E+02 -0.29865057700E+00  0.10960260771E+03  0.12608269888E+03  0.10566000000E+00 0. -1.
        994    1    1    2    0    0  0.37329189452E+02 -0.55646711401E+02  0.33589343857E+02  0.18688956337E+03  0.17120000000E+03 0.  0.
        998    1    1    2    0    0  0.24992676565E+02  0.55945361978E+02  0.13568080447E+04  0.13582277378E+04  0.10000000000E+02 0. -1.
</event>
<event>
 5    1  0.1572996E-008  0.3782740E+03  0.7957747E-01  0.3458709E+00
         13   -1    0    0    0    0  0.00000000000E+00  0.00000000000E+00  0.14999999963E+04  0.15000000000E+04  0.10566000000E+00 0.  1.
        994   -1    0    0    0    0 -0.00000000000E+00 -0.00000000000E+00  0.11368683772E-12  0.17120000000E+03  0.17120000000E+03 0.  0.
         13    1    1    2    0    0  0.57261776724E+02 -0.17634979815E+02  0.29935716452E+03  0.30529432798E+03  0.10566000000E+00 0.  1.
        994    1    1    2    0    0 -0.49998846988E+02  0.25622979051E+02  0.15693536656E+02  0.18086500172E+03  0.17120000000E+03 0.  0.
        998    1    1    2    0    0 -0.72629297362E+01 -0.79879992355E+01  0.11849492951E+04  0.11850406703E+04  0.10000000000E+02 0.  1.
</event>
<event>
 5    1  0.1572996E-008  0.3796167E+03  0.7957747E-01  0.3452829E+00
         13   -1    0    0    0    0  0.00000000000E+00  0.00000000000E+00  0.14999999963E+04  0.15000000000E+04  0.10566000000E+00 0. -1.
        994   -1    0    0    0    0 -0.00000000000E+00 -0.00000000000E+00  0.11368683772E-12  0.17120000000E+03  0.17120000000E+03 0.  0.
         13    1    1    2    0    0  0.13119524931E+03  0.19051237187E+03  0.10142318638E+04  0.10402756568E+04  0.10566000000E+00 0. -1.
        994    1    1    2    0    0 -0.14361704899E+03 -0.18745283038E+03  0.22172420172E+03  0.36638160708E+03  0.17120000000E+03 0.  0.
        998    1    1    2    0    0  0.12421799678E+02 -0.30595414946E+01  0.26404393072E+03  0.26454273616E+03  0.10000000000E+02 0. -1.
</event>
<event>
 5    1  0.1572996E-008  0.3821721E+03  0.7957747E-01  0.3441755E+00
         13   -1    0    0    0    0  0.00000000000E+00  0.00000000000E+00  0.14999999963E+04  0.15000000000E+04  0.10566000000E+00 0. -1.
        994   -1    0    0    0    0 -0.00000000000E+00 -0.00000000000E+00  0.11368683772E-12  0.17120000000E+03  0.17120000000E+03 0.  0.
         13    1    1    2    0    0  0.13874659090E+02 -0.16947840828E+00  0.29708959015E+02  0.32789759035E+02  0.10566000000E+00 0. -1.
        994    1    1    2    0    0 -0.17680588165E+02 -0.18683048644E+01  0.40905488660E+01  0.17216929561E+03  0.17120000000E+03 0.  0.
        998    1    1    2    0    0  0.38059290749E+01  0.20377832727E+01  0.14662004884E+04  0.14662409454E+04  0.10000000000E+02 0. -1.
</event>
<event>
 5    1  0.1572996E-008  0.3835023E+03  0.7957747E-01  0.3436049E+00
         13   -1    0    0    0    0  0.00000000000E+00  0.00000000000E+00  0.14999999963E+04  0.15000000000E+04  0.10566000000E+00 0. -1.
        994   -1    0    0    0    0 -0.00000000000E+00 -0.00000000000E+00  0.11368683772E-12  0.17120000000E+03  0.17120000000E+03 0.  0.
         13    1    1    2    0    0 -0.70498309362E+01  0.22590714607E+02  0.12777865429E+03  0.12995166855E+03  0.10566000000E+00 0. -1.
        994    1    1    2    0    0  0.80718272057E+01 -0.91315221396E+00  0.25936693996E+01  0.17141223808E+03  0.17120000000E+03 0.  0.
        998    1    1    2    0    0 -0.10219962695E+01 -0.21677562393E+02  0.13696276726E+04  0.13698360934E+04  0.10000000000E+02 0. -1.
</event>
<event>
 5    1  0.1572996E-008  0.3856799E+03  0.7957747E-01  0.3426794E+00
         13   -1    0    0    0    0  0.00000000000E+00  0.00000000000E+00  0.14999999963E+04  0.15000000000E+04  0.10566000000E+00 0. -1.
        994   -1    0    0    0    0 -0.00000000000E+00 -0.00000000000E+00  0.11368683772E-12  0.17120000000E+03  0.17120000000E+03 0.  0.
         13    1    1    2    0    0  0.39650460135E+01  0.95030865354E+01  0.40655608847E+02  0.41939479471E+02  0.10566000000E+00 0. -1.
        994    1    1    2    0    0 -0.50160498397E+01 -0.82011261369E+01  0.15962596163E+01  0.17147713338E+03  0.17120000000E+03 0.  0.
        998    1    1    2    0    0  0.10510038262E+01 -0.13019603985E+01  0.14577481278E+04  0.14577833872E+04  0.10000000000E+02 0. -1.
</event>
<event>
 5    1  0.1572996E-008  0.3817534E+03  0.7957747E-01  0.3443559E+00
         13   -1    0    0    0    0  0.00000000000E+00  0.00000000000E+00  0.14999999963E+04  0.15000000000E+04  0.10566000000E+00 0.  1.
        994   -1    0    0    0    0 -0.00000000000E+00 -0.00000000000E+00  0.11368683772E-12  0.17120000000E+03  0.17120000000E+03 0.  0.
         13    1    1    2    0    0 -0.92163449008E+01  0.15317707048E+02  0.48474879097E+02  0.51666219429E+02  0.10566000000E+00 0.  1.
        994    1    1    2    0    0  0.28059288233E+01 -0.93576798207E+01  0.35679482233E+01  0.17151562513E+03  0.17120000000E+03 0.  0.
        998    1    1    2    0    0  0.64104160775E+01 -0.59600272270E+01  0.14479571690E+04  0.14480181554E+04  0.10000000000E+02 0.  1.
</event>
<event>
 5    1  0.1572996E-008  0.3904304E+03  0.7957747E-01  0.3406963E+00
         13   -1    0    0    0    0  0.00000000000E+00  0.00000000000E+00  0.14999999963E+04  0.15000000000E+04  0.10566000000E+00 0. -1.
        994   -1    0    0    0    0 -0.00000000000E+00 -0.00000000000E+00  0.11368683772E-12  0.17120000000E+03  0.17120000000E+03 0.  0.
         13    1    1    2    0    0  0.94204115351E+02 -0.13252509229E+03  0.34961727623E+03  0.38557692675E+03  0.10566000000E+00 0. -1.
        994    1    1    2    0    0 -0.17329081367E+03  0.11046569176E+03  0.20595038661E+03  0.33757573506E+03  0.17120000000E+03 0.  0.
        998    1    1    2    0    0  0.79086698321E+02  0.22059400527E+02  0.94443233344E+03  0.94804733819E+03  0.10000000000E+02 0.  1.
</event>
<event>
 5    1  0.1572996E-008  0.3719966E+03  0.7957747E-01  0.3486765E+00
         13   -1    0    0    0    0  0.00000000000E+00  0.00000000000E+00  0.14999999963E+04  0.15000000000E+04  0.10566000000E+00 0. -1.
        994   -1    0    0    0    0 -0.00000000000E+00 -0.00000000000E+00  0.11368683772E-12  0.17120000000E+03  0.17120000000E+03 0.  0.
         13    1    1    2    0    0  0.18884467618E+02  0.19910393823E+02  0.46251269476E+02  0.53779531344E+02  0.10566000000E+00 0. -1.
        994    1    1    2    0    0  0.43475869418E+01  0.11046394101E+02  0.87132392238E+01  0.17183214156E+03  0.17120000000E+03 0.  0.
        998    1    1    2    0    0 -0.23232054560E+02 -0.30956787924E+02  0.14450354876E+04  0.14455883271E+04  0.10000000000E+02 0. -1.
</event>
<event>
 5    1  0.1572996E-008  0.3854077E+03  0.7957747E-01  0.3427945E+00
         13   -1    0    0    0    0  0.00000000000E+00  0.00000000000E+00  0.14999999963E+04  0.15000000000E+04  0.10566000000E+00 0. -1.
        994   -1    0    0    0    0 -0.00000000000E+00 -0.00000000000E+00  0.11368683772E-12  0.17120000000E+03  0.17120000000E+03 0.  0.
         13    1    1    2    0    0 -0.13544572501E+02 -0.50189734282E+01  0.72616004412E+02  0.74038779024E+02  0.10566000000E+00 0. -1.
        994    1    1    2    0    0  0.97491489735E+01  0.51762793173E+01  0.18281170059E+01  0.17156521147E+03  0.17120000000E+03 0.  0.
        998    1    1    2    0    0  0.37954235270E+01 -0.15730588903E+00  0.14255558749E+04  0.14255960095E+04  0.10000000000E+02 0. -1.
</event>
<event>
 5    1  0.1572996E-008  0.3700711E+03  0.7957747E-01  0.3495564E+00
         13   -1    0    0    0    0  0.00000000000E+00  0.00000000000E+00  0.14999999963E+04  0.15000000000E+04  0.10566000000E+00 0.  1.
        994   -1    0    0    0    0 -0.00000000000E+00 -0.00000000000E+00  0.11368683772E-12  0.17120000000E+03  0.17120000000E+03 0.  0.
         13    1    1    2    0    0  0.24701516198E+01  0.71379158923E+02  0.20903362182E+03  0.22089851107E+03  0.10566000000E+00 0.  1.
        994    1    1    2    0    0 -0.58433456870E+01 -0.60415308012E+02  0.23972780256E+02  0.18321650669E+03  0.17120000000E+03 0.  0.
        998    1    1    2    0    0  0.33731940672E+01 -0.10963850911E+02  0.12669935942E+04  0.12670849822E+04  0.10000000000E+02 0.  1.
</event>
<event>
 5    1  0.1572996E-008  0.3760842E+03  0.7957747E-01  0.3468388E+00
         13   -1    0    0    0    0  0.00000000000E+00  0.00000000000E+00  0.14999999963E+04  0.15000000000E+04  0.10566000000E+00 0. -1.
        994   -1    0    0    0    0 -0.00000000000E+00 -0.00000000000E+00  0.11368683772E-12  0.17120000000E+03  0.17120000000E+03 0.  0.
         13    1    1    2    0    0 -0.32614422812E+02 -0.16522981124E+02  0.40206080743E+02  0.54343808970E+02  0.10566000000E+00 0. -1.
        994    1    1    2    0    0  0.33460968046E+02  0.21070404519E+02  0.19799114250E+02  0.17681923893E+03  0.17120000000E+03 0.  0.
        998    1    1    2    0    0 -0.84654523331E+00 -0.45474233951E+01  0.14399948013E+04  0.14400369521E+04  0.10000000000E+02 0. -1.
</event>
<event>
 5    1  0.1572996E-008  0.3821706E+03  0.7957747E-01  0.3441761E+00
         13   -1    0    0    0    0  0.00000000000E+00  0.00000000000E+00  0.14999999963E+04  0.15000000000E+04  0.10566000000E+00 0.  1.
        994   -1    0    0    0    0 -0.00000000000E+00 -0.00000000000E+00  0.11368683772E-12  0.17120000000E+03  0.17120000000E+03 0.  0.
         13    1    1    2    0    0  0.50124242687E+01 -0.15175499682E+02  0.42346309997E+02  0.45261919116E+02  0.10566000000E+00 0.  1.
        994    1    1    2    0    0 -0.71576104650E+01 -0.10577863237E+00  0.32115225816E+01  0.17137968507E+03  0.17120000000E+03 0.  0.
        998    1    1    2    0    0  0.21451861962E+01  0.15281278315E+02  0.14544421637E+04  0.14545583958E+04  0.10000000000E+02 0.  1.
</event>
<event>
 5    1  0.1572996E-008  0.3689520E+03  0.7957747E-01  0.3500721E+00
         13   -1    0    0    0    0  0.00000000000E+00  0.00000000000E+00  0.14999999963E+04  0.15000000000E+04  0.10566000000E+00 0. -1.
        994   -1    0    0    0    0 -0.00000000000E+00 -0.00000000000E+00  0.11368683772E-12  0.17120000000E+03  0.17120000000E+03 0.  0.
         13    1    1    2    0    0  0.70844123961E+01 -0.18002191953E+02  0.13456842143E+02  0.23566195676E+02  0.10566000000E+00 0. -1.
        994    1    1    2    0    0 -0.14758153532E+02  0.10035131017E+02  0.11495887843E+02  0.17251116598E+03  0.17120000000E+03 0.  0.
        998    1    1    2    0    0  0.76737411361E+01  0.79670609366E+01  0.14750472663E+04  0.14751226383E+04  0.10000000000E+02 0. -1.
</event>
<event>
 5    1  0.1883531E-008  0.3854907E+03  0.7957747E-01  0.3427594E+00
         13   -1    0    0    0    0  0.00000000000E+00  0.00000000000E+00  0.14999999963E+04  0.15000000000E+04  0.10566000000E+00 0. -1.
        994   -1    0    0    0    0 -0.00000000000E+00 -0.00000000000E+00  0.11368683772E-12  0.17120000000E+03  0.17120000000E+03 0.  0.
         13    1    1    2    0    0 -0.98015081765E+01 -0.23651566288E+01  0.36266446694E+02  0.37642128636E+02  0.10566000000E+00 0. -1.
        994    1    1    2    0    0  0.85697373410E+01  0.40660269037E+01  0.16822065234E+01  0.17147082198E+03  0.17120000000E+03 0.  0.
        998    1    1    2    0    0  0.12317708354E+01 -0.17008702749E+01  0.14620513431E+04  0.14620870494E+04  0.10000000000E+02 0. -1.
</event>
<event>
 5    1  0.1572996E-008  0.3771853E+03  0.7957747E-01  0.3463506E+00
         13   -1    0    0    0    0  0.00000000000E+00  0.00000000000E+00  0.14999999963E+04  0.15000000000E+04  0.10566000000E+00 0.  1.
        994   -1    0    0    0    0 -0.00000000000E+00 -0.00000000000E+00  0.11368683772E-12  0.17120000000E+03  0.17120000000E+03 0.  0.
         13    1    1    2    0    0 -0.87230893722E+02  0.16721273750E+03  0.88157228454E+03  0.90152040046E+03  0.10566000000E+00 0.  1.
        994    1    1    2    0    0  0.85238691638E+02 -0.17669639809E+03  0.14890210306E+03  0.29994754199E+03  0.17120000000E+03 0.  0.
        998    1    1    2    0    0  0.19922020840E+01  0.94836605965E+01  0.46952560868E+03  0.46973205755E+03  0.10000000000E+02 0.  0.
</event>
<event>
 5    1  0.1572996E-008  0.3807153E+03  0.7957747E-01  0.3448050E+00
         13   -1    0    0    0    0  0.00000000000E+00  0.00000000000E+00  0.14999999963E+04  0.15000000000E+04  0.10566000000E+00 0. -1.
        994   -1    0    0    0    0 -0.00000000000E+00 -0.00000000000E+00  0.11368683772E-12  0.17120000000E+03  0.17120000000E+03 0.  0.
         13    1    1    2    0    0 -0.28174732192E+02 -0.15248796535E+01  0.10718757840E+03  0.11083920299E+03  0.10566000000E+00 0. -1.
        994    1    1    2    0    0  0.12261811758E+02 -0.23686983843E+01  0.42928315756E+01  0.17170856462E+03  0.17120000000E+03 0.  0.
        998    1    1    2    0    0  0.15912920434E+02  0.38935780378E+01  0.13885195863E+04  0.13886522324E+04  0.10000000000E+02 0. -1.
</event>
<event>
 5    1  0.1572996E-008  0.4021441E+03  0.7957747E-01  0.3360065E+00
         13   -1    0    0    0    0  0.00000000000E+00  0.00000000000E+00  0.14999999963E+04  0.15000000000E+04  0.10566000000E+00 0.  1.
        994   -1    0    0    0    0 -0.00000000000E+00 -0.00000000000E+00  0.11368683772E-12  0.17120000000E+03  0.17120000000E+03 0.  0.
         13    1    1    2    0    0 -0.57287574264E+02 -0.62529381291E+02  0.15673230834E+03  0.17820442568E+03  0.10566000000E+00 0.  1.
        994    1    1    2    0    0 -0.10165219561E+00 -0.50512647367E+02  0.39210503781E+02  0.18275240487E+03  0.17120000000E+03 0.  0.
        998    1    1    2    0    0  0.57389226459E+02  0.11304202866E+03  0.13040571842E+04  0.13102431695E+04  0.10000000000E+02 0.  1.
</event>
<event>
 5    1  0.1572996E-008  0.3847690E+03  0.7957747E-01  0.3430653E+00
         13   -1    0    0    0    0  0.00000000000E+00  0.00000000000E+00  0.14999999963E+04  0.15000000000E+04  0.10566000000E+00 0.  1.
        994   -1    0    0    0    0 -0.00000000000E+00 -0.00000000000E+00  0.11368683772E-12  0.17120000000E+03  0.17120000000E+03 0.  0.
         13    1    1    2    0    0 -0.10430685679E+02  0.10605322826E+02  0.64790700875E+02  0.66476448159E+02  0.10566000000E+00 0.  1.
        994    1    1    2    0    0 -0.76453768248E+01 -0.16395460969E+02  0.28226770906E+01  0.17217627721E+03  0.17120000000E+03 0.  0.
        998    1    1    2    0    0  0.18076062504E+02  0.57901381430E+01  0.14323866183E+04  0.14325472746E+04  0.10000000000E+02 0.  1.
</event>
<event>
 5    1  0.1572996E-008  0.3703335E+03  0.7957747E-01  0.3494360E+00
         13   -1    0    0    0    0  0.00000000000E+00  0.00000000000E+00  0.14999999963E+04  0.15000000000E+04  0.10566000000E+00 0.  1.
        994   -1    0    0    0    0 -0.00000000000E+00 -0.00000000000E+00  0.11368683772E-12  0.17120000000E+03  0.17120000000E+03 0.  0.
         13    1    1    2    0    0 -0.30782660743E+01 -0.13441400305E+02  0.33871003938E+01  0.14199668210E+02  0.10566000000E+00 0.  1.
        994    1    1    2    0    0 -0.38116357432E+01  0.17283391384E+02  0.12212349549E+02  0.17254514095E+03  0.17120000000E+03 0.  0.
        998    1    1    2    0    0  0.68899018175E+01 -0.38419910792E+01  0.14844005463E+04  0.14844551908E+04  0.10000000000E+02 0.  1.
</event>
<event>
 5    1  0.1572996E-008  0.3805548E+03  0.7957747E-01  0.3448747E+00
         13   -1    0    0    0    0  0.00000000000E+00  0.00000000000E+00  0.14999999963E+04  0.15000000000E+04  0.10566000000E+00 0.  1.
        994   -1    0    0    0    0 -0.00000000000E+00 -0.00000000000E+00  0.11368683772E-12  0.17120000000E+03  0.17120000000E+03 0.  0.
         13    1    1    2    0    0 -0.17494111047E+02  0.39831948367E+02  0.24985105131E+03  0.25361030546E+03  0.10566000000E+00 0.  1.
        994    1    1    2    0    0  0.17128558467E+02 -0.16986167960E+02  0.57975287856E+01  0.17298834862E+03  0.17120000000E+03 0.  0.
        998    1    1    2    0    0  0.36555258031E+00 -0.22845780408E+02  0.12443514162E+04  0.12446013459E+04  0.10000000000E+02 0.  1.
</event>
<event>
 5    1  0.1572996E-008  0.3839899E+03  0.7957747E-01  0.3433968E+00
         13   -1    0    0    0    0  0.00000000000E+00  0.00000000000E+00  0.14999999963E+04  0.15000000000E+04  0.10566000000E+00 0.  1.
        994   -1    0    0    0    0 -0.00000000000E+00 -0.00000000000E+00  0.11368683772E-12  0.17120000000E+03  0.17120000000E+03 0.  0.
         13    1    1    2    0    0 -0.15415020495E+02 -0.21597464821E+02  0.15702387840E+03  0.15925006403E+03  0.10566000000E+00 0.  1.
        994    1    1    2    0    0  0.17983641593E+02  0.13510320130E+02  0.38035931899E+01  0.17271319416E+03  0.17120000000E+03 0.  0.
        998    1    1    2    0    0 -0.25686210975E+01  0.80871446910E+01  0.13391725247E+04  0.13392367418E+04  0.10000000000E+02 0.  1.
</event>
<event>
 5    1  0.1572996E-008  0.3822578E+03  0.7957747E-01  0.3441386E+00
         13   -1    0    0    0    0  0.00000000000E+00  0.00000000000E+00  0.14999999963E+04  0.15000000000E+04  0.10566000000E+00 0.  1.
        994   -1    0    0    0    0 -0.00000000000E+00 -0.00000000000E+00  0.11368683772E-12  0.17120000000E+03  0.17120000000E+03 0.  0.
         13    1    1    2    0    0 -0.11711913804E+02 -0.22433145263E+02  0.13522164671E+03  0.13756932737E+03  0.10566000000E+00 0.  1.
        994    1    1    2    0    0 -0.49396791260E+02  0.88117974055E+01  0.11397251662E+02  0.17876528775E+03  0.17120000000E+03 0.  0.
        998    1    1    2    0    0  0.61108705064E+02  0.13621347858E+02  0.13533810979E+04  0.13548653849E+04  0.10000000000E+02 0.  1.
</event>
<event>
 5    1  0.1572996E-008  0.3809587E+03  0.7957747E-01  0.3446995E+00
         13   -1    0    0    0    0  0.00000000000E+00  0.00000000000E+00  0.14999999963E+04  0.15000000000E+04  0.10566000000E+00 0.  1.
        994   -1    0    0    0    0 -0.00000000000E+00 -0.00000000000E+00  0.11368683772E-12  0.17120000000E+03  0.17120000000E+03 0.  0.
         13    1    1    2    0    0  0.71172790310E+01 -0.14359960520E+02  0.34570110412E+02  0.38104695575E+02  0.10566000000E+00 0.  1.
        994    1    1    2    0    0 -0.44123628539E+01  0.24551515629E+01  0.37349351243E+01  0.17131516703E+03  0.17120000000E+03 0.  0.
        998    1    1    2    0    0 -0.27049161771E+01  0.11904808957E+02  0.14616949507E+04  0.14617801374E+04  0.10000000000E+02 0.  1.
</event>
<event>
 5    1  0.1572996E-008  0.3843948E+03  0.7957747E-01  0.3432243E+00
         13   -1    0    0    0    0  0.00000000000E+00  0.00000000000E+00  0.14999999963E+04  0.15000000000E+04  0.10566000000E+00 0. -1.
        994   -1    0    0    0    0 -0.00000000000E+00 -0.00000000000E+00  0.11368683772E-12  0.17120000000E+03  0.17120000000E+03 0.  0.
         13    1    1    2    0    0  0.10992326877E+02 -0.17113994124E+02  0.10251151224E+03  0.10451000598E+03  0.10566000000E+00 0. -1.
        994    1    1    2    0    0 -0.96469592581E+01  0.15783655521E+02  0.30592835946E+01  0.17222365349E+03  0.17120000000E+03 0.  0.
        998    1    1    2    0    0 -0.13453676185E+01  0.13303386023E+01  0.13944292004E+04  0.13944663405E+04  0.10000000000E+02 0. -1.
</event>
<event>
 5    1  0.1572996E-008  0.3827731E+03  0.7957747E-01  0.3439172E+00
         13   -1    0    0    0    0  0.00000000000E+00  0.00000000000E+00  0.14999999963E+04  0.15000000000E+04  0.10566000000E+00 0.  1.
        994   -1    0    0    0    0 -0.00000000000E+00 -0.00000000000E+00  0.11368683772E-12  0.17120000000E+03  0.17120000000E+03 0.  0.
         13    1    1    2    0    0  0.68691993982E+01 -0.14610377210E+02  0.45377559819E+02  0.48164126918E+02  0.10566000000E+00 0.  1.
        994    1    1    2    0    0 -0.26073089617E+01  0.18101645206E+02  0.38485573573E+01  0.17221706946E+03  0.17120000000E+03 0.  0.
        998    1    1    2    0    0 -0.42618904364E+01 -0.34912679964E+01  0.14507738791E+04  0.14508188036E+04  0.10000000000E+02 0.  1.
</event>
<event>
 5    1  0.1572996E-008  0.3841461E+03  0.7957747E-01  0.3433302E+00
         13   -1    0    0    0    0  0.00000000000E+00  0.00000000000E+00  0.14999999963E+04  0.15000000000E+04  0.10566000000E+00 0. -1.
        994   -1    0    0    0    0 -0.00000000000E+00 -0.00000000000E+00  0.11368683772E-12  0.17120000000E+03  0.17120000000E+03 0.  0.
         13    1    1    2    0    0  0.11986479767E+02 -0.26200875517E+01  0.36004665976E+02  0.38037976971E+02  0.10566000000E+00 0. -1.
        994    1    1    2    0    0 -0.10341190625E+02 -0.42419969964E+01  0.24667769016E+01  0.17158222446E+03  0.17120000000E+03 0.  0.
        998    1    1    2    0    0 -0.16452891416E+01  0.68620845482E+01  0.14615285534E+04  0.14615797986E+04  0.10000000000E+02 0. -1.
</event>
<event>
 5    1  0.1572996E-008  0.3852555E+03  0.7957747E-01  0.3428589E+00
         13   -1    0    0    0    0  0.00000000000E+00  0.00000000000E+00  0.14999999963E+04  0.15000000000E+04  0.10566000000E+00 0. -1.
        994   -1    0    0    0    0 -0.00000000000E+00 -0.00000000000E+00  0.11368683772E-12  0.17120000000E+03  0.17120000000E+03 0.  0.
         13    1    1    2    0    0 -0.15011688894E+02 -0.19913511370E+01  0.75959578209E+02  0.77454405740E+02  0.10566000000E+00 0. -1.
        994    1    1    2    0    0  0.11237547022E+02 -0.20050690952E+01  0.19316132345E+01  0.17159100762E+03  0.17120000000E+03 0.  0.
        998    1    1    2    0    0  0.37741418719E+01  0.39964202321E+01  0.14221088048E+04  0.14221545866E+04  0.10000000000E+02 0. -1.
</event>
<event>
 5    1  0.1572996E-008  0.3851970E+03  0.7957747E-01  0.3428837E+00
         13   -1    0    0    0    0  0.00000000000E+00  0.00000000000E+00  0.14999999963E+04  0.15000000000E+04  0.10566000000E+00 0.  1.
        994   -1    0    0    0    0 -0.00000000000E+00 -0.00000000000E+00  0.11368683772E-12  0.17120000000E+03  0.17120000000E+03 0.  0.
         13    1    1    2    0    0  0.12109175477E+02 -0.32656528187E+01  0.51313041334E+02  0.52823631019E+02  0.10566000000E+00 0.  1.
        994    1    1    2    0    0 -0.90738729602E+01 -0.52972696093E+00  0.18039087952E+01  0.17145060475E+03  0.17120000000E+03 0.  0.
        998    1    1    2    0    0 -0.30353025169E+01  0.37953797796E+01  0.14468830461E+04  0.14469257642E+04  0.10000000000E+02 0.  1.
</event>
<event>
 5    1  0.1572996E-008  0.3831486E+03  0.7957747E-01  0.3437562E+00
         13   -1    0    0    0    0  0.00000000000E+00  0.00000000000E+00  0.14999999963E+04  0.15000000000E+04  0.10566000000E+00 0.  1.
        994   -1    0    0    0    0 -0.00000000000E+00 -0.00000000000E+00  0.11368683772E-12  0.17120000000E+03  0.17120000000E+03 0.  0.
         13    1    1    2    0    0  0.99972440581E+01 -0.83673018276E+01  0.31869966944E+02  0.34433451551E+02  0.10566000000E+00 0.  1.
        994    1    1    2    0    0 -0.86785757380E+01  0.11158614128E+02  0.32135514464E+01  0.17181268655E+03  0.17120000000E+03 0.  0.
        998    1    1    2    0    0 -0.13186683200E+01 -0.27913123001E+01  0.14649164779E+04  0.14649538619E+04  0.10000000000E+02 0.  1.
</event>
<event>
 5    1  0.1572996E-008  0.3933902E+03  0.7957747E-01  0.3394849E+00
         13   -1    0    0    0    0  0.00000000000E+00  0.00000000000E+00  0.14999999963E+04  0.15000000000E+04  0.10566000000E+00 0.  1.
        994   -1    0    0    0    0 -0.00000000000E+00 -0.00000000000E+00  0.11368683772E-12  0.17120000000E+03  0.17120000000E+03 0.  0.
         13    1    1    2    0    0 -0.73372814044E+00 -0.58945578367E+02  0.62472625272E+02  0.85895050139E+02  0.10566000000E+00 0.  1.
        994    1    1    2    0    0  0.19511790964E+01  0.55928437940E+02  0.35923976688E+02  0.18366210652E+03  0.17120000000E+03 0.  0.
        998    1    1    2    0    0 -0.12174509560E+01  0.30171404266E+01  0.14016033943E+04  0.14016428433E+04  0.10000000000E+02 0.  1.
</event>
<event>
 5    1  0.1572996E-008  0.3831310E+03  0.7957747E-01  0.3437638E+00
         13   -1    0    0    0    0  0.00000000000E+00  0.00000000000E+00  0.14999999963E+04  0.15000000000E+04  0.10566000000E+00 0. -1.
        994   -1    0    0    0    0 -0.00000000000E+00 -0.00000000000E+00  0.11368683772E-12  0.17120000000E+03  0.17120000000E+03 0.  0.
         13    1    1    2    0    0  0.14936098732E+02  0.13378622447E+02  0.75527366956E+02  0.78143898721E+02  0.10566000000E+00 0. -1.
        994    1    1    2    0    0 -0.26237429920E+02  0.16609100107E+01  0.48511261291E+01  0.17327473785E+03  0.17120000000E+03 0.  0.
        998    1    1    2    0    0  0.11301331188E+02 -0.15039532458E+02  0.14196215032E+04  0.14197813634E+04  0.10000000000E+02 0. -1.
</event>
<event>
 5    1  0.1572996E-008  0.3839465E+03  0.7957747E-01  0.3434153E+00
         13   -1    0    0    0    0  0.00000000000E+00  0.00000000000E+00  0.14999999963E+04  0.15000000000E+04  0.10566000000E+00 0.  1.
        994   -1    0    0    0    0 -0.00000000000E+00 -0.00000000000E+00  0.11368683772E-12  0.17120000000E+03  0.17120000000E+03 0.  0.
         13    1    1    2    0    0 -0.56879437327E+01 -0.15340410450E+02  0.64241937625E+02  0.66292673883E+02  0.10566000000E+00 0.  1.
        994    1    1    2    0    0  0.89654098302E+01  0.34708382210E+00  0.24197946740E+01  0.17145201791E+03  0.17120000000E+03 0.  0.
        998    1    1    2    0    0 -0.32774660975E+01  0.14993326628E+02  0.14333382640E+04  0.14334553082E+04  0.10000000000E+02 0.  1.
</event>
<event>
 5    1  0.1572996E-008  0.3856723E+03  0.7957747E-01  0.3426826E+00
         13   -1    0    0    0    0  0.00000000000E+00  0.00000000000E+00  0.14999999963E+04  0.15000000000E+04  0.10566000000E+00 0.  1.
        994   -1    0    0    0    0 -0.00000000000E+00 -0.00000000000E+00  0.11368683772E-12  0.17120000000E+03  0.17120000000E+03 0.  0.
         13    1    1    2    0    0 -0.35356780846E+01 -0.15461738943E+02  0.94665348526E+02  0.95984924682E+02  0.10566000000E+00 0.  1.
        994    1    1    2    0    0  0.18231662135E+00  0.14213077170E+02  0.19600138113E+01  0.17180025162E+03  0.17120000000E+03 0.  0.
        998    1    1    2    0    0  0.33533614633E+01  0.12486617732E+01  0.14033746339E+04  0.14034148237E+04  0.10000000000E+02 0.  0.
</event>
<event>
 5    1  0.1572996E-008  0.3826459E+03  0.7957747E-01  0.3439718E+00
         13   -1    0    0    0    0  0.00000000000E+00  0.00000000000E+00  0.14999999963E+04  0.15000000000E+04  0.10566000000E+00 0. -1.
        994   -1    0    0    0    0 -0.00000000000E+00 -0.00000000000E+00  0.11368683772E-12  0.17120000000E+03  0.17120000000E+03 0.  0.
         13    1    1    2    0    0 -0.22169653514E+02 -0.84089682927E+01  0.10550087060E+03  0.10813255359E+03  0.10566000000E+00 0. -1.
        994    1    1    2    0    0  0.77785216263E+01 -0.54628703804E+01  0.31029140170E+01  0.17149173865E+03  0.17120000000E+03 0.  0.
        998    1    1    2    0    0  0.14391131888E+02  0.13871838673E+02  0.13913962117E+04  0.13915757078E+04  0.10000000000E+02 0. -1.
</event>
<event>
 5    1  0.1572996E-008  0.3754290E+03  0.7957747E-01  0.3471306E+00
         13   -1    0    0    0    0  0.00000000000E+00  0.00000000000E+00  0.14999999963E+04  0.15000000000E+04  0.10566000000E+00 0. -1.
        994   -1    0    0    0    0 -0.00000000000E+00 -0.00000000000E+00  0.11368683772E-12  0.17120000000E+03  0.17120000000E+03 0.  0.
         13    1    1    2    0    0  0.40299871980E+02 -0.59126649945E+01  0.15346145448E+03  0.15877489872E+03  0.10566000000E+00 0. -1.
        994    1    1    2    0    0  0.37607785714E+01 -0.44851645608E+02  0.13365964420E+02  0.17752155524E+03  0.17120000000E+03 0.  0.
        998    1    1    2    0    0 -0.44060650551E+02  0.50764310602E+02  0.13331725774E+04  0.13349035460E+04  0.10000000000E+02 0. -1.
</event>
<event>
 5    1  0.1572996E-008  0.3688868E+03  0.7957747E-01  0.3501023E+00
         13   -1    0    0    0    0  0.00000000000E+00  0.00000000000E+00  0.14999999963E+04  0.15000000000E+04  0.10566000000E+00 0. -1.
        994   -1    0    0    0    0 -0.00000000000E+00 -0.00000000000E+00  0.11368683772E-12  0.17120000000E+03  0.17120000000E+03 0.  0.
         13    1    1    2    0    0  0.37036738250E+02  0.56876255078E+01  0.63041707800E+02  0.73337147139E+02  0.10566000000E+00 0. -1.
        994    1    1    2    0    0 -0.24959693320E+02 -0.31329162319E+02  0.15959723551E+02  0.17654646833E+03  0.17120000000E+03 0.  0.
        998    1    1    2    0    0 -0.12077044930E+02  0.25641536811E+02  0.14209985649E+04  0.14213163845E+04  0.10000000000E+02 0. -1.
</event>
<event>
 5    1  0.1572996E-008  0.3716703E+03  0.7957747E-01  0.3488249E+00
         13   -1    0    0    0    0  0.00000000000E+00  0.00000000000E+00  0.14999999963E+04  0.15000000000E+04  0.10566000000E+00 0.  1.
        994   -1    0    0    0    0 -0.00000000000E+00 -0.00000000000E+00  0.11368683772E-12  0.17120000000E+03  0.17120000000E+03 0.  0.
         13    1    1    2    0    0  0.16547237984E+03  0.13840776218E+02  0.77744986116E+03  0.79498488877E+03  0.10566000000E+00 0.  1.
        994    1    1    2    0    0 -0.15928320407E+03 -0.39192358654E+01  0.10145515380E+03  0.25492957408E+03  0.17120000000E+03 0.  0.
        998    1    1    2    0    0 -0.61891757714E+01 -0.99215403527E+01  0.62109498132E+03  0.62128553716E+03  0.10000000000E+02 0.  1.
</event>
<event>
 5    1  0.1653377E-008  0.3861979E+03  0.7957747E-01  0.3424607E+00
         13   -1    0    0    0    0  0.00000000000E+00  0.00000000000E+00  0.14999999963E+04  0.15000000000E+04  0.10566000000E+00 0.  1.
        994   -1    0    0    0    0 -0.00000000000E+00 -0.00000000000E+00  0.11368683772E-12  0.17120000000E+03  0.17120000000E+03 0.  0.
         13    1    1    2    0    0  0.79103879083E+01 -0.89839316372E+01  0.69964194698E+02  0.70980877484E+02  0.10566000000E+00 0.  1.
        994    1    1    2    0    0 -0.54521717994E+01  0.62352977307E+01  0.12613213100E+01  0.17140488921E+03  0.17120000000E+03 0.  0.
        998    1    1    2    0    0 -0.24582161089E+01  0.27486339065E+01  0.14287744803E+04  0.14288142333E+04  0.10000000000E+02 0.  1.
</event>
<event>
 5    1  0.1572996E-008  0.3770927E+03  0.7957747E-01  0.3463916E+00
         13   -1    0    0    0    0  0.00000000000E+00  0.00000000000E+00  0.14999999963E+04  0.15000000000E+04  0.10566000000E+00 0. -1.
        994   -1    0    0    0    0 -0.00000000000E+00 -0.00000000000E+00  0.11368683772E-12  0.17120000000E+03  0.17120000000E+03 0.  0.
         13    1    1    2    0    0  0.13477737681E+02  0.19129777790E+02  0.45893946825E+02  0.51515661022E+02  0.10566000000E+00 0. -1.
        994    1    1    2    0    0 -0.11052118423E+02 -0.17106502113E+02  0.70092720830E+01  0.17254956283E+03  0.17120000000E+03 0.  0.
        998    1    1    2    0    0 -0.24256192578E+01 -0.20232756772E+01  0.14470967774E+04  0.14471347762E+04  0.10000000000E+02 0. -1.
</event>
<event>
 5    1  0.4474274E-008  0.3863782E+03  0.7957747E-01  0.3423848E+00
         13   -1    0    0    0    0  0.00000000000E+00  0.00000000000E+00  0.14999999963E+04  0.15000000000E+04  0.10566000000E+00 0.  1.
        994   -1    0    0    0    0 -0.00000000000E+00 -0.00000000000E+00  0.11368683772E-12  0.17120000000E+03  0.17120000000E+03 0.  0.
         13    1    1    2    0    0 -0.27917300506E+01  0.96549017564E+01  0.54640710504E+02  0.55557441383E+02  0.10566000000E+00 0.  1.
        994    1    1    2    0    0 -0.22799161140E+01 -0.69526716817E+01  0.11227464944E+01  0.17135996680E+03  0.17120000000E+03 0.  0.
        998    1    1    2    0    0  0.50716461647E+01 -0.27022300747E+01  0.14442365393E+04  0.14442825918E+04  0.10000000000E+02 0.  1.
</event>
<event>
 5    1  0.1572996E-008  0.3808709E+03  0.7957747E-01  0.3447375E+00
         13   -1    0    0    0    0  0.00000000000E+00  0.00000000000E+00  0.14999999963E+04  0.15000000000E+04  0.10566000000E+00 0.  1.
        994   -1    0    0    0    0 -0.00000000000E+00 -0.00000000000E+00  0.11368683772E-12  0.17120000000E+03  0.17120000000E+03 0.  0.
         13    1    1    2    0    0 -0.16073580735E+02 -0.75399943887E+01  0.42232365942E+02  0.45812611911E+02  0.10566000000E+00 0.  1.
        994    1    1    2    0    0  0.65212422153E+01 -0.62969753107E+00  0.38372419273E+01  0.17136828045E+03  0.17120000000E+03 0.  0.
        998    1    1    2    0    0  0.95523385194E+01  0.81696919198E+01  0.14539303884E+04  0.14540191076E+04  0.10000000000E+02 0.  1.
</event>
<event>
 5    1  0.1572996E-008  0.3844908E+03  0.7957747E-01  0.3431835E+00
         13   -1    0    0    0    0  0.00000000000E+00  0.00000000000E+00  0.14999999963E+04  0.15000000000E+04  0.10566000000E+00 0. -1.
        994   -1    0    0    0    0 -0.00000000000E+00 -0.00000000000E+00  0.11368683772E-12  0.17120000000E+03  0.17120000000E+03 0.  0.
         13    1    1    2    0    0  0.20136346073E+01  0.10460478033E+02  0.29638151827E+02  0.31494563543E+02  0.10566000000E+00 0. -1.
        994    1    1    2    0    0 -0.16091030534E+01 -0.76198217421E+01  0.20829657196E+01  0.17138970110E+03  0.17120000000E+03 0.  0.
        998    1    1    2    0    0 -0.40453155387E+00 -0.28406562910E+01  0.14682788787E+04  0.14683157354E+04  0.10000000000E+02 0. -1.
</event>
<event>
 5    1  0.1572996E-008  0.3852177E+03  0.7957747E-01  0.3428749E+00
         13   -1    0    0    0    0  0.00000000000E+00  0.00000000000E+00  0.14999999963E+04  0.15000000000E+04  0.10566000000E+00 0.  1.
        994   -1    0    0    0    0 -0.00000000000E+00 -0.00000000000E+00  0.11368683772E-12  0.17120000000E+03  0.17120000000E+03 0.  0.
         13    1    1    2    0    0  0.70400266994E+01  0.11139786978E+02  0.51349972772E+02  0.53014033025E+02  0.10566000000E+00 0.  1.
        994    1    1    2    0    0  0.32568443588E+01 -0.35041761229E+02  0.56029331638E+01  0.17486956546E+03  0.17120000000E+03 0.  0.
        998    1    1    2    0    0 -0.10296871058E+02  0.23901974251E+02  0.14430470903E+04  0.14433164015E+04  0.10000000000E+02 0.  1.
</event>
<event>
 5    1  0.1572996E-008  0.3845996E+03  0.7957747E-01  0.3431372E+00
         13   -1    0    0    0    0  0.00000000000E+00  0.00000000000E+00  0.14999999963E+04  0.15000000000E+04  0.10566000000E+00 0. -1.
        994   -1    0    0    0    0 -0.00000000000E+00 -0.00000000000E+00  0.11368683772E-12  0.17120000000E+03  0.17120000000E+03 0.  0.
         13    1    1    2    0    0  0.17492698102E+02  0.84950060589E+01  0.97974154934E+02  0.99885463476E+02  0.10566000000E+00 0. -1.
        994    1    1    2    0    0 -0.16509964713E+02 -0.10549340793E+02  0.30941378991E+01  0.17234523845E+03  0.17120000000E+03 0.  0.
        998    1    1    2    0    0 -0.98273338938E+00  0.20543347339E+01  0.13989317034E+04  0.13989692981E+04  0.10000000000E+02 0.  0.
</event>
<event>
 5    1  0.1572996E-008  0.3854163E+03  0.7957747E-01  0.3427909E+00
         13   -1    0    0    0    0  0.00000000000E+00  0.00000000000E+00  0.14999999963E+04  0.15000000000E+04  0.10566000000E+00 0.  1.
        994   -1    0    0    0    0 -0.00000000000E+00 -0.00000000000E+00  0.11368683772E-12  0.17120000000E+03  0.17120000000E+03 0.  0.
         13    1    1    2    0    0 -0.13571772134E+02 -0.14535556730E+02  0.11776022749E+03  0.11942762557E+03  0.10566000000E+00 0.  1.
        994    1    1    2    0    0  0.22922949326E+02  0.21748810558E+02  0.47096854304E+01  0.17415537173E+03  0.17120000000E+03 0.  0.
        998    1    1    2    0    0 -0.93511771919E+01 -0.72132538279E+01  0.13775300834E+04  0.13776170027E+04  0.10000000000E+02 0.  1.
</event>
<event>
 5    1  0.1572996E-008  0.3766479E+03  0.7957747E-01  0.3465885E+00
         13   -1    0    0    0    0  0.00000000000E+00  0.00000000000E+00  0.14999999963E+04  0.15000000000E+04  0.10566000000E+00 0. -1.
        994   -1    0    0    0    0 -0.00000000000E+00 -0.00000000000E+00  0.11368683772E-12  0.17120000000E+03  0.17120000000E+03 0.  0.
         13    1    1    2    0    0  0.51664102049E+02  0.97375433028E+01  0.24919354449E+03  0.25467907839E+03  0.10566000000E+00 0. -1.
        994    1    1    2    0    0 -0.33888581424E+02  0.43076471356E+02  0.16058061678E+02  0.18047526058E+03  0.17120000000E+03 0.  0.
        998    1    1    2    0    0 -0.17775520625E+02 -0.52814014659E+02  0.12347483901E+04  0.12360456610E+04  0.10000000000E+02 0. -1.
</event>
<event>
 5    1  0.1572996E-008  0.3860972E+03  0.7957747E-01  0.3425032E+00
         13   -1    0    0    0    0  0.00000000000E+00  0.00000000000E+00  0.14999999963E+04  0.15000000000E+04  0.10566000000E+00 0. -1.
        994   -1    0    0    0    0 -0.00000000000E+00 -0.00000000000E+00  0.11368683772E-12  0.17120000000E+03  0.17120000000E+03 0.  0.
         13    1    1    2    0    0  0.11164123211E+02 -0.22294259527E+01  0.51305799865E+02  0.52553822420E+02  0.10566000000E+00 0. -1.
        994    1    1    2    0    0 -0.27813357532E+02  0.29387896208E+02  0.64700473297E+01  0.17603560098E+03  0.17120000000E+03 0.  0.
        998    1    1    2    0    0  0.16649234320E+02 -0.27158470255E+02  0.14422241491E+04  0.14426105766E+04  0.10000000000E+02 0. -1.
</event>
<event>
 5    1  0.1572996E-008  0.3836442E+03  0.7957747E-01  0.3435443E+00
         13   -1    0    0    0    0  0.00000000000E+00  0.00000000000E+00  0.14999999963E+04  0.15000000000E+04  0.10566000000E+00 0.  1.
        994   -1    0    0    0    0 -0.00000000000E+00 -0.00000000000E+00  0.11368683772E-12  0.17120000000E+03  0.17120000000E+03 0.  0.
         13    1    1    2    0    0 -0.18236578424E+02 -0.13246757958E+02  0.11705328475E+03  0.11920374165E+03  0.10566000000E+00 0.  1.
        994    1    1    2    0    0 -0.71104848108E+00  0.97017258597E+01  0.26173858733E+01  0.17149612177E+03  0.17120000000E+03 0.  0.
        998    1    1    2    0    0  0.18947626905E+02  0.35450320982E+01  0.13803293257E+04  0.13805001366E+04  0.10000000000E+02 0.  1.
</event>
<event>
 5    1  0.1572996E-008  0.3807039E+03  0.7957747E-01  0.3448099E+00
         13   -1    0    0    0    0  0.00000000000E+00  0.00000000000E+00  0.14999999963E+04  0.15000000000E+04  0.10566000000E+00 0. -1.
        994   -1    0    0    0    0 -0.00000000000E+00 -0.00000000000E+00  0.11368683772E-12  0.17120000000E+03  0.17120000000E+03 0.  0.
         13    1    1    2    0    0  0.66655777912E+01 -0.10838098235E+02  0.20008801797E+02  0.23711971956E+02  0.10566000000E+00 0. -1.
        994    1    1    2    0    0 -0.64730242909E+01  0.35335653973E+01  0.39596333322E+01  0.17140450643E+03  0.17120000000E+03 0.  0.
        998    1    1    2    0    0 -0.19255350025E+00  0.73045328373E+01  0.14760315611E+04  0.14760835216E+04  0.10000000000E+02 0. -1.
</event>
<event>
 5    1  0.1572996E-008  0.3845726E+03  0.7957747E-01  0.3431487E+00
         13   -1    0    0    0    0  0.00000000000E+00  0.00000000000E+00  0.14999999963E+04  0.15000000000E+04  0.10566000000E+00 0. -1.
        994   -1    0    0    0    0 -0.00000000000E+00 -0.00000000000E+00  0.11368683772E-12  0.17120000000E+03  0.17120000000E+03 0.  0.
         13    1    1    2    0    0  0.20286844150E+02  0.41538152889E+01  0.12010705074E+03  0.12187914107E+03  0.10566000000E+00 0. -1.
        994    1    1    2    0    0 -0.11598191068E+02  0.10905114330E+02  0.26775610632E+01  0.17195943966E+03  0.17120000000E+03 0.  0.
        998    1    1    2    0    0 -0.86886530823E+01 -0.15058929619E+02  0.13772153845E+04  0.13773614193E+04  0.10000000000E+02 0. -1.
</event>
<event>
 5    1  0.1572996E-008  0.3850547E+03  0.7957747E-01  0.3429440E+00
         13   -1    0    0    0    0  0.00000000000E+00  0.00000000000E+00  0.14999999963E+04  0.15000000000E+04  0.10566000000E+00 0.  1.
        994   -1    0    0    0    0 -0.00000000000E+00 -0.00000000000E+00  0.11368683772E-12  0.17120000000E+03  0.17120000000E+03 0.  0.
         13    1    1    2    0    0  0.12038251926E+02 -0.12482691618E+02  0.90040785196E+02  0.91695644728E+02  0.10566000000E+00 0.  1.
        994    1    1    2    0    0 -0.13669282289E+02  0.10160532335E+02  0.25573755788E+01  0.17206413300E+03  0.17120000000E+03 0.  0.
        998    1    1    2    0    0  0.16310303633E+01  0.23221592826E+01  0.14074018355E+04  0.14074402223E+04  0.10000000000E+02 0.  1.
</event>
<event>
 5    1  0.1572996E-008  0.3814037E+03  0.7957747E-01  0.3445069E+00
         13   -1    0    0    0    0  0.00000000000E+00  0.00000000000E+00  0.14999999963E+04  0.15000000000E+04  0.10566000000E+00 0. -1.
        994   -1    0    0    0    0 -0.00000000000E+00 -0.00000000000E+00  0.11368683772E-12  0.17120000000E+03  0.17120000000E+03 0.  0.
         13    1    1    2    0    0 -0.42233272873E+02  0.18200795908E+01  0.25319295896E+03  0.25669758015E+03  0.10566000000E+00 0. -1.
        994    1    1    2    0    0  0.26991571253E+02 -0.24449257326E+02  0.78520906981E+01  0.17520675338E+03  0.17120000000E+03 0.  0.
        998    1    1    2    0    0  0.15241701620E+02  0.22629177735E+02  0.12389549466E+04  0.12392956665E+04  0.10000000000E+02 0. -1.
</event>
<event>
 5    1  0.1572996E-008  0.3799232E+03  0.7957747E-01  0.3451493E+00
         13   -1    0    0    0    0  0.00000000000E+00  0.00000000000E+00  0.14999999963E+04  0.15000000000E+04  0.10566000000E+00 0. -1.
        994   -1    0    0    0    0 -0.00000000000E+00 -0.00000000000E+00  0.11368683772E-12  0.17120000000E+03  0.17120000000E+03 0.  0.
         13    1    1    2    0    0  0.54890151203E+02 -0.16944954505E+02  0.32849809166E+03  0.33348323432E+03  0.10566000000E+00 0. -1.
        994    1    1    2    0    0 -0.44297248676E+02  0.34689288014E+02  0.14830477309E+02  0.18081752128E+03  0.17120000000E+03 0.  0.
        998    1    1    2    0    0 -0.10592902528E+02 -0.17744333509E+02  0.11566714273E+04  0.11568992444E+04  0.10000000000E+02 0. -1.
</event>
<event>
 5    1  0.1572996E-008  0.3797785E+03  0.7957747E-01  0.3452123E+00
         13   -1    0    0    0    0  0.00000000000E+00  0.00000000000E+00  0.14999999963E+04  0.15000000000E+04  0.10566000000E+00 0.  1.
        994   -1    0    0    0    0 -0.00000000000E+00 -0.00000000000E+00  0.11368683772E-12  0.17120000000E+03  0.17120000000E+03 0.  0.
         13    1    1    2    0    0 -0.93321953055E+01 -0.16610951958E+02  0.45109110530E+02  0.48967914097E+02  0.10566000000E+00 0.  1.
        994    1    1    2    0    0  0.95613263036E+00 -0.15677563188E+02  0.50707230027E+01  0.17199375689E+03  0.17120000000E+03 0.  0.
        998    1    1    2    0    0  0.83760626752E+01  0.32288515145E+02  0.14498201627E+04  0.14502383290E+04  0.10000000000E+02 0.  1.
</event>
<event>
 5    1  0.1572996E-008  0.3691232E+03  0.7957747E-01  0.3499930E+00
         13   -1    0    0    0    0  0.00000000000E+00  0.00000000000E+00  0.14999999963E+04  0.15000000000E+04  0.10566000000E+00 0. -1.
        994   -1    0    0    0    0 -0.00000000000E+00 -0.00000000000E+00  0.11368683772E-12  0.17120000000E+03  0.17120000000E+03 0.  0.
         13    1    1    2    0    0 -0.86804346034E+02 -0.66405729957E+02  0.49581081575E+03  0.50771359214E+03  0.10566000000E+00 0. -1.
        994    1    1    2    0    0  0.76188533973E+02  0.44338105103E+02  0.37183319519E+02  0.19611884031E+03  0.17120000000E+03 0.  0.
        998    1    1    2    0    0  0.10615812061E+02  0.22067624854E+02  0.96700586101E+03  0.96736756755E+03  0.10000000000E+02 0. -1.
</event>
<event>
 5    1  0.1572996E-008  0.3730673E+03  0.7957747E-01  0.3481912E+00
         13   -1    0    0    0    0  0.00000000000E+00  0.00000000000E+00  0.14999999963E+04  0.15000000000E+04  0.10566000000E+00 0. -1.
        994   -1    0    0    0    0 -0.00000000000E+00 -0.00000000000E+00  0.11368683772E-12  0.17120000000E+03  0.17120000000E+03 0.  0.
         13    1    1    2    0    0  0.52972741161E+02 -0.14624080137E+03  0.78814040932E+03  0.80334164541E+03  0.10566000000E+00 0. -1.
        994    1    1    2    0    0 -0.24471634658E+02  0.14884680962E+03  0.90035824096E+02  0.24529599111E+03  0.17120000000E+03 0.  0.
        998    1    1    2    0    0 -0.28501106503E+02 -0.26060082488E+01  0.62182376287E+03  0.62256236347E+03  0.10000000000E+02 0. -1.
</event>
<event>
 5    1  0.1572996E-008  0.3808661E+03  0.7957747E-01  0.3447396E+00
         13   -1    0    0    0    0  0.00000000000E+00  0.00000000000E+00  0.14999999963E+04  0.15000000000E+04  0.10566000000E+00 0.  1.
        994   -1    0    0    0    0 -0.00000000000E+00 -0.00000000000E+00  0.11368683772E-12  0.17120000000E+03  0.17120000000E+03 0.  0.
         13    1    1    2    0    0 -0.13039185407E+02 -0.24533979825E+02  0.13055933155E+03  0.13348290804E+03  0.10566000000E+00 0.  1.
        994    1    1    2    0    0  0.10074544151E+02 -0.27177146313E+02  0.65019890175E+01  0.17375790509E+03  0.17120000000E+03 0.  0.
        998    1    1    2    0    0  0.29646412561E+01  0.51711126138E+02  0.13629386757E+04  0.13639591869E+04  0.10000000000E+02 0.  1.
</event>
<event>
 5    1  0.1572996E-008  0.3848450E+03  0.7957747E-01  0.3430330E+00
         13   -1    0    0    0    0  0.00000000000E+00  0.00000000000E+00  0.14999999963E+04  0.15000000000E+04  0.10566000000E+00 0. -1.
        994   -1    0    0    0    0 -0.00000000000E+00 -0.00000000000E+00  0.11368683772E-12  0.17120000000E+03  0.17120000000E+03 0.  0.
         13    1    1    2    0    0 -0.11422944245E+02  0.10375940569E+02  0.67227072326E+02  0.68975605945E+02  0.10566000000E+00 0. -1.
        994    1    1    2    0    0  0.13389102229E+02 -0.88787237310E+01  0.25567756577E+01  0.17197115135E+03  0.17120000000E+03 0.  0.
        998    1    1    2    0    0 -0.19661579839E+01 -0.14972168376E+01  0.14302161483E+04  0.14302532427E+04  0.10000000000E+02 0. -1.
</event>
<event>
 5    1  0.1572996E-008  0.3918767E+03  0.7957747E-01  0.3401021E+00
         13   -1    0    0    0    0  0.00000000000E+00  0.00000000000E+00  0.14999999963E+04  0.15000000000E+04  0.10566000000E+00 0. -1.
        994   -1    0    0    0    0 -0.00000000000E+00 -0.00000000000E+00  0.11368683772E-12  0.17120000000E+03  0.17120000000E+03 0.  0.
         13    1    1    2    0    0  0.43853506009E+02 -0.59410352252E+02  0.11836944574E+03  0.13951364375E+03  0.10566000000E+00 0. -1.
        994    1    1    2    0    0 -0.13179103918E+02  0.29064793706E+02  0.26879225726E+02  0.17621119087E+03  0.17120000000E+03 0.  0.
        998    1    1    2    0    0 -0.30674402091E+02  0.30345558546E+02  0.13547513248E+04  0.13554751654E+04  0.10000000000E+02 0. -1.
</event>
<event>
 5    1  0.1572996E-008  0.3694137E+03  0.7957747E-01  0.3498590E+00
         13   -1    0    0    0    0  0.00000000000E+00  0.00000000000E+00  0.14999999963E+04  0.15000000000E+04  0.10566000000E+00 0.  1.
        994   -1    0    0    0    0 -0.00000000000E+00 -0.00000000000E+00  0.11368683772E-12  0.17120000000E+03  0.17120000000E+03 0.  0.
         13    1    1    2    0    0  0.40764028219E+02  0.63476474565E+02  0.43152037155E+03  0.43806484799E+03  0.10566000000E+00 0.  1.
        994    1    1    2    0    0 -0.26816502830E+02  0.15744241921E+02  0.12933542150E+02  0.17448129553E+03  0.17120000000E+03 0.  0.
        998    1    1    2    0    0 -0.13947525389E+02 -0.79220716486E+02  0.10555460826E+04  0.10586538565E+04  0.10000000000E+02 0.  1.
</event>
<event>
 5    1  0.1572996E-008  0.3743310E+03  0.7957747E-01  0.3476220E+00
         13   -1    0    0    0    0  0.00000000000E+00  0.00000000000E+00  0.14999999963E+04  0.15000000000E+04  0.10566000000E+00 0. -1.
        994   -1    0    0    0    0 -0.00000000000E+00 -0.00000000000E+00  0.11368683772E-12  0.17120000000E+03  0.17120000000E+03 0.  0.
         13    1    1    2    0    0  0.61815752009E+01  0.10646146655E+02 -0.49048795511E+00  0.12320878744E+02  0.10566000000E+00 0. -1.
        994    1    1    2    0    0 -0.31249904402E+02 -0.45958711088E+00  0.16722703981E+02  0.17483093712E+03  0.17120000000E+03 0.  0.
        998    1    1    2    0    0  0.25068329201E+02 -0.10186559544E+02  0.14837677803E+04  0.14840481841E+04  0.10000000000E+02 0. -1.
</event>
<event>
 5    1  0.1572996E-008  0.3849523E+03  0.7957747E-01  0.3429874E+00
         13   -1    0    0    0    0  0.00000000000E+00  0.00000000000E+00  0.14999999963E+04  0.15000000000E+04  0.10566000000E+00 0. -1.
        994   -1    0    0    0    0 -0.00000000000E+00 -0.00000000000E+00  0.11368683772E-12  0.17120000000E+03  0.17120000000E+03 0.  0.
         13    1    1    2    0    0  0.72549518545E+00 -0.18555700610E+02  0.10269761390E+03  0.10436307505E+03  0.10566000000E+00 0. -1.
        994    1    1    2    0    0  0.10170178075E+02  0.14356488167E+02  0.26726003968E+01  0.17212241013E+03  0.17120000000E+03 0.  0.
        998    1    1    2    0    0 -0.10895673261E+02  0.41992124423E+01  0.13946297820E+04  0.13947145148E+04  0.10000000000E+02 0. -1.
</event>
<event>
 5    1  0.1572996E-008  0.3710630E+03  0.7957747E-01  0.3491020E+00
         13   -1    0    0    0    0  0.00000000000E+00  0.00000000000E+00  0.14999999963E+04  0.15000000000E+04  0.10566000000E+00 0. -1.
        994   -1    0    0    0    0 -0.00000000000E+00 -0.00000000000E+00  0.11368683772E-12  0.17120000000E+03  0.17120000000E+03 0.  0.
         13    1    1    2    0    0 -0.39284867298E+01  0.12160438611E+02  0.17150667221E+01  0.12894258144E+02  0.10566000000E+00 0. -1.
        994    1    1    2    0    0  0.39122163843E+01 -0.16463710230E+02  0.12507433654E+02  0.17248836218E+03  0.17120000000E+03 0.  0.
        998    1    1    2    0    0  0.16270345484E-01  0.43032716193E+01  0.14857774959E+04  0.14858173797E+04  0.10000000000E+02 0. -1.
</event>
<event>
 5    1  0.1572996E-008  0.3722201E+03  0.7957747E-01  0.3485749E+00
         13   -1    0    0    0    0  0.00000000000E+00  0.00000000000E+00  0.14999999963E+04  0.15000000000E+04  0.10566000000E+00 0.  1.
        994   -1    0    0    0    0 -0.00000000000E+00 -0.00000000000E+00  0.11368683772E-12  0.17120000000E+03  0.17120000000E+03 0.  0.
         13    1    1    2    0    0  0.68780708036E+01  0.11703488684E+02  0.75820560545E+01  0.15549220026E+02  0.10566000000E+00 0.  1.
        994    1    1    2    0    0 -0.92583992874E+01 -0.12109912932E+02  0.89109735508E+01  0.17210814449E+03  0.17120000000E+03 0.  0.
        998    1    1    2    0    0  0.23803284838E+01  0.40642424711E+00  0.14835069667E+04  0.14835426355E+04  0.10000000000E+02 0.  1.
</event>
<event>
 5    1  0.1572996E-008  0.3845000E+03  0.7957747E-01  0.3431796E+00
         13   -1    0    0    0    0  0.00000000000E+00  0.00000000000E+00  0.14999999963E+04  0.15000000000E+04  0.10566000000E+00 0.  1.
        994   -1    0    0    0    0 -0.00000000000E+00 -0.00000000000E+00  0.11368683772E-12  0.17120000000E+03  0.17120000000E+03 0.  0.
         13    1    1    2    0    0  0.26682370419E+01 -0.14239606836E+02  0.56460263623E+02  0.58289436643E+02  0.10566000000E+00 0.  1.
        994    1    1    2    0    0 -0.69817509079E+01  0.56894657810E+01  0.21458359872E+01  0.17145016617E+03  0.17120000000E+03 0.  0.
        998    1    1    2    0    0  0.43135138659E+01  0.85501410549E+01  0.14413938967E+04  0.14414603972E+04  0.10000000000E+02 0.  1.
</event>
<event>
 5    1  0.1572996E-008  0.3768267E+03  0.7957747E-01  0.3465093E+00
         13   -1    0    0    0    0  0.00000000000E+00  0.00000000000E+00  0.14999999963E+04  0.15000000000E+04  0.10566000000E+00 0. -1.
        994   -1    0    0    0    0 -0.00000000000E+00 -0.00000000000E+00  0.11368683772E-12  0.17120000000E+03  0.17120000000E+03 0.  0.
         13    1    1    2    0    0  0.21527607211E+02  0.12279354846E+01  0.38988876715E+02  0.44554341756E+02  0.10566000000E+00 0. -1.
        994    1    1    2    0    0 -0.72542584128E+01 -0.55630926522E+01  0.60260668599E+01  0.17154977629E+03  0.17120000000E+03 0.  0.
        998    1    1    2    0    0 -0.14273348799E+02  0.43351571675E+01  0.14549850527E+04  0.14550958819E+04  0.10000000000E+02 0. -1.
</event>
<event>
 5    1  0.1572996E-008  0.3702142E+03  0.7957747E-01  0.3494907E+00
         13   -1    0    0    0    0  0.00000000000E+00  0.00000000000E+00  0.14999999963E+04  0.15000000000E+04  0.10566000000E+00 0. -1.
        994   -1    0    0    0    0 -0.00000000000E+00 -0.00000000000E+00  0.11368683772E-12  0.17120000000E+03  0.17120000000E+03 0.  0.
         13    1    1    2    0    0 -0.25448935566E+02  0.43410386033E+01  0.31609645365E+02  0.40812666928E+02  0.10566000000E+00 0. -1.
        994    1    1    2    0    0  0.27609294595E+02 -0.19512184742E+02  0.13116576899E+02  0.17499852311E+03  0.17120000000E+03 0.  0.
        998    1    1    2    0    0 -0.21603590288E+01  0.15171146139E+02  0.14552737740E+04  0.14553888100E+04  0.10000000000E+02 0. -1.
</event>
<event>
 5    1  0.1572996E-008  0.3854681E+03  0.7957747E-01  0.3427689E+00
         13   -1    0    0    0    0  0.00000000000E+00  0.00000000000E+00  0.14999999963E+04  0.15000000000E+04  0.10566000000E+00 0.  1.
        994   -1    0    0    0    0 -0.00000000000E+00 -0.00000000000E+00  0.11368683772E-12  0.17120000000E+03  0.17120000000E+03 0.  0.
         13    1    1    2    0    0  0.46350443757E+01  0.99982580065E+01  0.47194528920E+02  0.48464249953E+02  0.10566000000E+00 0.  1.
        994    1    1    2    0    0 -0.69286251904E+00  0.69706678331E+01  0.15590696893E+01  0.17135034569E+03  0.17120000000E+03 0.  0.
        998    1    1    2    0    0 -0.39421818567E+01 -0.16968925840E+02  0.14512463977E+04  0.14513854044E+04  0.10000000000E+02 0.  1.
</event>
<event>
 5    1  0.1572996E-008  0.3842643E+03  0.7957747E-01  0.3432799E+00
         13   -1    0    0    0    0  0.00000000000E+00  0.00000000000E+00  0.14999999963E+04  0.15000000000E+04  0.10566000000E+00 0. -1.
        994   -1    0    0    0    0 -0.00000000000E+00 -0.00000000000E+00  0.11368683772E-12  0.17120000000E+03  0.17120000000E+03 0.  0.
         13    1    1    2    0    0 -0.17234417359E+02 -0.13129521806E+02  0.12561071634E+03  0.12746557460E+03  0.10566000000E+00 0. -1.
        994    1    1    2    0    0  0.95748758696E+01 -0.41021277475E+01  0.23536272901E+01  0.17153275274E+03  0.17120000000E+03 0.  0.
        998    1    1    2    0    0  0.76595414897E+01  0.17231649554E+02  0.13720356526E+04  0.13722016727E+04  0.10000000000E+02 0. -1.
</event>
<event>
 5    1  0.1572996E-008  0.3842755E+03  0.7957747E-01  0.3432751E+00
         13   -1    0    0    0    0  0.00000000000E+00  0.00000000000E+00  0.14999999963E+04  0.15000000000E+04  0.10566000000E+00 0.  1.
        994   -1    0    0    0    0 -0.00000000000E+00 -0.00000000000E+00  0.11368683772E-12  0.17120000000E+03  0.17120000000E+03 0.  0.
         13    1    1    2    0    0  0.10502659583E+02  0.96577479906E+01  0.50695761073E+02  0.52665447016E+02  0.10566000000E+00 0.  1.
        994    1    1    2    0    0 -0.77310219283E+01 -0.60730736028E+01  0.23089166843E+01  0.17149758605E+03  0.17120000000E+03 0.  0.
        998    1    1    2    0    0 -0.27716376543E+01 -0.35846743878E+01  0.14469953185E+04  0.14470369669E+04  0.10000000000E+02 0.  1.
</event>
<event>
 5    1  0.1572996E-008  0.3803493E+03  0.7957747E-01  0.3449639E+00
         13   -1    0    0    0    0  0.00000000000E+00  0.00000000000E+00  0.14999999963E+04  0.15000000000E+04  0.10566000000E+00 0. -1.
        994   -1    0    0    0    0 -0.00000000000E+00 -0.00000000000E+00  0.11368683772E-12  0.17120000000E+03  0.17120000000E+03 0.  0.
         13    1    1    2    0    0  0.42812211462E+02  0.12294589542E+02  0.20529270597E+03  0.21006939014E+03  0.10566000000E+00 0. -1.
        994    1    1    2    0    0 -0.51849234436E+02 -0.75994205994E+01  0.13181313527E+02  0.17952515515E+03  0.17120000000E+03 0.  0.
        998    1    1    2    0    0  0.90370229742E+01 -0.46951689425E+01  0.12815259768E+04  0.12816054547E+04  0.10000000000E+02 0. -1.
</event>
<event>
 5    1  0.1572996E-008  0.3810168E+03  0.7957747E-01  0.3446743E+00
         13   -1    0    0    0    0  0.00000000000E+00  0.00000000000E+00  0.14999999963E+04  0.15000000000E+04  0.10566000000E+00 0. -1.
        994   -1    0    0    0    0 -0.00000000000E+00 -0.00000000000E+00  0.11368683772E-12  0.17120000000E+03  0.17120000000E+03 0.  0.
         13    1    1    2    0    0  0.19975028616E+02 -0.12480242239E+02  0.76286835064E+02  0.79840156455E+02  0.10566000000E+00 0. -1.
        994    1    1    2    0    0 -0.10932144527E+02  0.56018136790E+01  0.41236550536E+01  0.17168965208E+03  0.17120000000E+03 0.  0.
        998    1    1    2    0    0 -0.90428840894E+01  0.68784285603E+01  0.14195895062E+04  0.14196701915E+04  0.10000000000E+02 0. -1.
</event>
<event>
 5    1  0.1572996E-008  0.3757338E+03  0.7957747E-01  0.3469947E+00
         13   -1    0    0    0    0  0.00000000000E+00  0.00000000000E+00  0.14999999963E+04  0.15000000000E+04  0.10566000000E+00 0.  1.
        994   -1    0    0    0    0 -0.00000000000E+00 -0.00000000000E+00  0.11368683772E-12  0.17120000000E+03  0.17120000000E+03 0.  0.
         13    1    1    2    0    0 -0.18071914473E+02 -0.15600041683E+02  0.41584494387E+02  0.47950356941E+02  0.10566000000E+00 0.  1.
        994    1    1    2    0    0  0.21797089755E+02  0.12721961747E+02  0.84651942703E+01  0.17325721037E+03  0.17120000000E+03 0.  0.
        998    1    1    2    0    0 -0.37251752822E+01  0.28780799363E+01  0.14499503076E+04  0.14499924327E+04  0.10000000000E+02 0.  1.
</event>
<event>
 5    1  0.1572996E-008  0.3856490E+03  0.7957747E-01  0.3426925E+00
         13   -1    0    0    0    0  0.00000000000E+00  0.00000000000E+00  0.14999999963E+04  0.15000000000E+04  0.10566000000E+00 0. -1.
        994   -1    0    0    0    0 -0.00000000000E+00 -0.00000000000E+00  0.11368683772E-12  0.17120000000E+03  0.17120000000E+03 0.  0.
         13    1    1    2    0    0  0.12538593941E+02 -0.81725783877E+00  0.60938117639E+02  0.62220170313E+02  0.10566000000E+00 0. -1.
        994    1    1    2    0    0 -0.79868431886E+01 -0.80134229979E+00  0.15197590448E+01  0.17139481171E+03  0.17120000000E+03 0.  0.
        998    1    1    2    0    0 -0.45517507528E+01  0.16186001386E+01  0.14375421196E+04  0.14375850180E+04  0.10000000000E+02 0. -1.
</event>
<event>
 5    1  0.1572996E-008  0.3858337E+03  0.7957747E-01  0.3426144E+00
         13   -1    0    0    0    0  0.00000000000E+00  0.00000000000E+00  0.14999999963E+04  0.15000000000E+04  0.10566000000E+00 0. -1.
        994   -1    0    0    0    0 -0.00000000000E+00 -0.00000000000E+00  0.11368683772E-12  0.17120000000E+03  0.17120000000E+03 0.  0.
         13    1    1    2    0    0  0.10968741841E+01  0.13124751969E+02  0.72804703324E+02  0.73986473341E+02  0.10566000000E+00 0. -1.
        994    1    1    2    0    0 -0.27875044774E+01 -0.69371706047E+01  0.14001477045E+01  0.17136888554E+03  0.17120000000E+03 0.  0.
        998    1    1    2    0    0  0.16906302932E+01 -0.61875813644E+01  0.14257951452E+04  0.14258446411E+04  0.10000000000E+02 0. -1.
</event>
<event>
 5    1  0.1572996E-008  0.2241509E+03  0.7957747E-01  0.4650231E+00
         13   -1    0    0    0    0  0.00000000000E+00  0.00000000000E+00  0.14999999963E+04  0.15000000000E+04  0.10566000000E+00 0. -1.
        994   -1    0    0    0    0 -0.00000000000E+00 -0.00000000000E+00  0.11368683772E-12  0.17120000000E+03  0.17120000000E+03 0.  0.
         13    1    1    2    0    0  0.12166976631E+03 -0.67139723822E+02  0.13233180118E+03  0.19189317683E+03  0.10566000000E+00 0. -1.
        994    1    1    2    0    0 -0.17335751192E+03 -0.26662879957E+02  0.22855990369E+03  0.33513102763E+03  0.17120000000E+03 0.  0.
        998    1    1    2    0    0  0.51687745611E+02  0.93802603779E+02  0.11391082914E+04  0.11441757955E+04  0.10000000000E+02 0. -1.
</event>
<event>
 5    1  0.1572996E-008  0.3753004E+03  0.7957747E-01  0.3471880E+00
         13   -1    0    0    0    0  0.00000000000E+00  0.00000000000E+00  0.14999999963E+04  0.15000000000E+04  0.10566000000E+00 0.  1.
        994   -1    0    0    0    0 -0.00000000000E+00 -0.00000000000E+00  0.11368683772E-12  0.17120000000E+03  0.17120000000E+03 0.  0.
         13    1    1    2    0    0  0.59660718002E+02  0.20589729725E+02  0.19837735507E+03  0.20817522526E+03  0.10566000000E+00 0.  1.
        994    1    1    2    0    0 -0.82903081652E+02 -0.11022294272E+03  0.74132945640E+02  0.23200679231E+03  0.17120000000E+03 0.  0.
        998    1    1    2    0    0  0.23242363650E+02  0.89633212995E+02  0.12274896956E+04  0.12310179824E+04  0.10000000000E+02 0.  1.
</event>
<event>
 5    1  0.1572996E-008  0.3836954E+03  0.7957747E-01  0.3435224E+00
         13   -1    0    0    0    0  0.00000000000E+00  0.00000000000E+00  0.14999999963E+04  0.15000000000E+04  0.10566000000E+00 0. -1.
        994   -1    0    0    0    0 -0.00000000000E+00 -0.00000000000E+00  0.11368683772E-12  0.17120000000E+03  0.17120000000E+03 0.  0.
         13    1    1    2    0    0 -0.51003431914E+01 -0.11993929688E+02  0.36008484974E+02  0.38294777767E+02  0.10566000000E+00 0. -1.
        994    1    1    2    0    0  0.42317284034E+01  0.12232128186E+02  0.28327448681E+01  0.17171195919E+03  0.17120000000E+03 0.  0.
        998    1    1    2    0    0  0.86861478796E+00 -0.23819849827E+00  0.14611587664E+04  0.14611932630E+04  0.10000000000E+02 0. -1.
</event>
<event>
 5    1  0.1572996E-008  0.4283002E+03  0.7957747E-01  0.3264515E+00
         13   -1    0    0    0    0  0.00000000000E+00  0.00000000000E+00  0.14999999963E+04  0.15000000000E+04  0.10566000000E+00 0.  1.
        994   -1    0    0    0    0 -0.00000000000E+00 -0.00000000000E+00  0.11368683772E-12  0.17120000000E+03  0.17120000000E+03 0.  0.
         13    1    1    2    0    0 -0.69123718203E+02  0.53769571604E+01  0.42210637032E+02  0.81171110188E+02  0.10566000000E+00 0.  1.
        994    1    1    2    0    0  0.84590877191E+01  0.85610244655E+02  0.79607165559E+02  0.20747870002E+03  0.17120000000E+03 0.  0.
        998    1    1    2    0    0  0.60664630484E+02 -0.90987201815E+02  0.13781821937E+04  0.13825501898E+04  0.10000000000E+02 0.  1.
</event>
<event>
 5    1  0.1572996E-008  0.3863199E+03  0.7957747E-01  0.3424093E+00
         13   -1    0    0    0    0  0.00000000000E+00  0.00000000000E+00  0.14999999963E+04  0.15000000000E+04  0.10566000000E+00 0.  1.
        994   -1    0    0    0    0 -0.00000000000E+00 -0.00000000000E+00  0.11368683772E-12  0.17120000000E+03  0.17120000000E+03 0.  0.
         13    1    1    2    0    0  0.10832796147E+02  0.20472486347E+01  0.62209725762E+02  0.63179125055E+02  0.10566000000E+00 0.  1.
        994    1    1    2    0    0 -0.11644817728E+02  0.85191421946E+01  0.16582319054E+01  0.17181492164E+03  0.17120000000E+03 0.  0.
        998    1    1    2    0    0  0.81202158051E+00 -0.10566390829E+02  0.14361320386E+04  0.14362059533E+04  0.10000000000E+02 0.  1.
</event>
<event>
 5    1  0.1572996E-008  0.3836794E+03  0.7957747E-01  0.3435292E+00
         13   -1    0    0    0    0  0.00000000000E+00  0.00000000000E+00  0.14999999963E+04  0.15000000000E+04  0.10566000000E+00 0. -1.
        994   -1    0    0    0    0 -0.00000000000E+00 -0.00000000000E+00  0.11368683772E-12  0.17120000000E+03  0.17120000000E+03 0.  0.
         13    1    1    2    0    0  0.33718196300E+02 -0.34457454126E+01  0.19917504508E+03  0.20203836188E+03  0.10566000000E+00 0. -1.
        994    1    1    2    0    0 -0.43173635795E+02  0.36269238954E+02  0.12859828019E+02  0.18070483031E+03  0.17120000000E+03 0.  0.
        998    1    1    2    0    0  0.94554394952E+01 -0.32823493542E+02  0.12879651232E+04  0.12884568078E+04  0.10000000000E+02 0. -1.
</event>
<event>
 5    1  0.1572996E-008  0.3833585E+03  0.7957747E-01  0.3436664E+00
         13   -1    0    0    0    0  0.00000000000E+00  0.00000000000E+00  0.14999999963E+04  0.15000000000E+04  0.10566000000E+00 0. -1.
        994   -1    0    0    0    0 -0.00000000000E+00 -0.00000000000E+00  0.11368683772E-12  0.17120000000E+03  0.17120000000E+03 0.  0.
         13    1    1    2    0    0 -0.11276763443E+01  0.14862035976E+02  0.42402582465E+02  0.44945989043E+02  0.10566000000E+00 0. -1.
        994    1    1    2    0    0 -0.55078059561E+01 -0.22625909708E+02  0.42422292931E+01  0.17282853996E+03  0.17120000000E+03 0.  0.
        998    1    1    2    0    0  0.66354823004E+01  0.77638737327E+01  0.14533551845E+04  0.14534254710E+04  0.10000000000E+02 0. -1.
</event>
<event>
 5    1  0.1572996E-008  0.3803696E+03  0.7957747E-01  0.3449551E+00
         13   -1    0    0    0    0  0.00000000000E+00  0.00000000000E+00  0.14999999963E+04  0.15000000000E+04  0.10566000000E+00 0. -1.
        994   -1    0    0    0    0 -0.00000000000E+00 -0.00000000000E+00  0.11368683772E-12  0.17120000000E+03  0.17120000000E+03 0.  0.
         13    1    1    2    0    0 -0.40476705472E+01 -0.38152173052E+02  0.19781663206E+03  0.20150286109E+03  0.10566000000E+00 0. -1.
        994    1    1    2    0    0 -0.16766670235E+01  0.13747871972E+02  0.45873878919E+01  0.17182054395E+03  0.17120000000E+03 0.  0.
        998    1    1    2    0    0  0.57243375707E+01  0.24404301080E+02  0.12975959763E+04  0.12978765950E+04  0.10000000000E+02 0. -1.
</event>
<event>
 5    1  0.1572996E-008  0.3808188E+03  0.7957747E-01  0.3447601E+00
         13   -1    0    0    0    0  0.00000000000E+00  0.00000000000E+00  0.14999999963E+04  0.15000000000E+04  0.10566000000E+00 0. -1.
        994   -1    0    0    0    0 -0.00000000000E+00 -0.00000000000E+00  0.11368683772E-12  0.17120000000E+03  0.17120000000E+03 0.  0.
         13    1    1    2    0    0 -0.34467698801E+02  0.51480545229E+01  0.16074787745E+03  0.16448226650E+03  0.10566000000E+00 0. -1.
        994    1    1    2    0    0  0.20903553940E+02 -0.58304557921E+01  0.52920907175E+01  0.17265109037E+03  0.17120000000E+03 0.  0.
        998    1    1    2    0    0  0.13564144861E+02  0.68240126919E+00  0.13339600281E+04  0.13340666431E+04  0.10000000000E+02 0. -1.
</event>
<event>
 5    1  0.1572996E-008  0.4189678E+03  0.7957747E-01  0.3297260E+00
         13   -1    0    0    0    0  0.00000000000E+00  0.00000000000E+00  0.14999999963E+04  0.15000000000E+04  0.10566000000E+00 0. -1.
        994   -1    0    0    0    0 -0.00000000000E+00 -0.00000000000E+00  0.11368683772E-12  0.17120000000E+03  0.17120000000E+03 0.  0.
         13    1    1    2    0    0 -0.12681707159E+02 -0.67767759929E+02  0.46254235225E+02  0.83022650058E+02  0.10566000000E+00 0. -1.
        994    1    1    2    0    0  0.16900449384E+01  0.62784695925E+02  0.56593616254E+02  0.19093729781E+03  0.17120000000E+03 0.  0.
        998    1    1    2    0    0  0.10991662221E+02  0.49830640039E+01  0.13971521448E+04  0.13972400521E+04  0.10000000000E+02 0. -1.
</event>
<event>
 5    1  0.1572996E-008  0.3830918E+03  0.7957747E-01  0.3437806E+00
         13   -1    0    0    0    0  0.00000000000E+00  0.00000000000E+00  0.14999999963E+04  0.15000000000E+04  0.10566000000E+00 0. -1.
        994   -1    0    0    0    0 -0.00000000000E+00 -0.00000000000E+00  0.11368683772E-12  0.17120000000E+03  0.17120000000E+03 0.  0.
         13    1    1    2    0    0 -0.19858913151E+02  0.16302821191E+02  0.13698370963E+03  0.13937254492E+03  0.10566000000E+00 0. -1.
        994    1    1    2    0    0  0.90780619016E+01  0.19096713534E+01  0.28653309917E+01  0.17147509491E+03  0.17120000000E+03 0.  0.
        998    1    1    2    0    0  0.10780851249E+02 -0.18212492544E+02  0.13601509557E+04  0.13603523602E+04  0.10000000000E+02 0. -1.
</event>
<event>
 5    1  0.1572996E-008  0.3781008E+03  0.7957747E-01  0.3459470E+00
         13   -1    0    0    0    0  0.00000000000E+00  0.00000000000E+00  0.14999999963E+04  0.15000000000E+04  0.10566000000E+00 0.  1.
        994   -1    0    0    0    0 -0.00000000000E+00 -0.00000000000E+00  0.11368683772E-12  0.17120000000E+03  0.17120000000E+03 0.  0.
         13    1    1    2    0    0 -0.12780299347E+02 -0.19861102791E+02  0.55225515322E+02  0.60063867359E+02  0.10566000000E+00 0.  1.
        994    1    1    2    0    0 -0.63812587965E+00  0.38662012098E+01  0.51466172998E+01  0.17132215965E+03  0.17120000000E+03 0.  0.
        998    1    1    2    0    0  0.13418425226E+02  0.15994901582E+02  0.14396278637E+04  0.14398139730E+04  0.10000000000E+02 0.  1.
</event>
<event>
 5    1  0.1572996E-008  0.3824895E+03  0.7957747E-01  0.3440390E+00
         13   -1    0    0    0    0  0.00000000000E+00  0.00000000000E+00  0.14999999963E+04  0.15000000000E+04  0.10566000000E+00 0. -1.
        994   -1    0    0    0    0 -0.00000000000E+00 -0.00000000000E+00  0.11368683772E-12  0.17120000000E+03  0.17120000000E+03 0.  0.
         13    1    1    2    0    0  0.26027582087E+02  0.22858489910E+01  0.12075525516E+03  0.12354959712E+03  0.10566000000E+00 0. -1.
        994    1    1    2    0    0 -0.12365419370E+02  0.50616223177E+01  0.34738639887E+01  0.17175573163E+03  0.17120000000E+03 0.  0.
        998    1    1    2    0    0 -0.13662162718E+02 -0.73474713087E+01  0.13757708771E+04  0.13758946712E+04  0.10000000000E+02 0. -1.
</event>
<event>
 5    1  0.1572996E-008  0.3855834E+03  0.7957747E-01  0.3427202E+00
         13   -1    0    0    0    0  0.00000000000E+00  0.00000000000E+00  0.14999999963E+04  0.15000000000E+04  0.10566000000E+00 0. -1.
        994   -1    0    0    0    0 -0.00000000000E+00 -0.00000000000E+00  0.11368683772E-12  0.17120000000E+03  0.17120000000E+03 0.  0.
         13    1    1    2    0    0 -0.68461519145E+01 -0.98035302261E+01  0.47766795240E+02  0.49240805157E+02  0.10566000000E+00 0. -1.
        994    1    1    2    0    0  0.21673157007E+02  0.18731350555E+02  0.40389670990E+01  0.17362702118E+03  0.17120000000E+03 0.  0.
        998    1    1    2    0    0 -0.14827005092E+02 -0.89278203286E+01  0.14481942339E+04  0.14483321737E+04  0.10000000000E+02 0. -1.
</event>
<event>
 5    1  0.1572996E-008  0.3776213E+03  0.7957747E-01  0.3461582E+00
         13   -1    0    0    0    0  0.00000000000E+00  0.00000000000E+00  0.14999999963E+04  0.15000000000E+04  0.10566000000E+00 0. -1.
        994   -1    0    0    0    0 -0.00000000000E+00 -0.00000000000E+00  0.11368683772E-12  0.17120000000E+03  0.17120000000E+03 0.  0.
         13    1    1    2    0    0 -0.37039149870E+02  0.14143211219E+02  0.15776242538E+03  0.16266813785E+03  0.10566000000E+00 0. -1.
        994    1    1    2    0    0  0.86740309930E+01 -0.35660796556E+01  0.56351595694E+01  0.17154926628E+03  0.17120000000E+03 0.  0.
        998    1    1    2    0    0  0.28365118877E+02 -0.10577131563E+02  0.13366024113E+04  0.13369825959E+04  0.10000000000E+02 0. -1.
</event>
<event>
 5    1  0.1572996E-008  0.3831552E+03  0.7957747E-01  0.3437534E+00
         13   -1    0    0    0    0  0.00000000000E+00  0.00000000000E+00  0.14999999963E+04  0.15000000000E+04  0.10566000000E+00 0.  1.
        994   -1    0    0    0    0 -0.00000000000E+00 -0.00000000000E+00  0.11368683772E-12  0.17120000000E+03  0.17120000000E+03 0.  0.
         13    1    1    2    0    0 -0.14626308873E+02  0.18950955606E+01  0.40560089114E+02  0.43158455619E+02  0.10566000000E+00 0.  1.
        994    1    1    2    0    0  0.16596129271E+02 -0.95024530080E+01  0.37597648778E+01  0.17230584422E+03  0.17120000000E+03 0.  0.
        998    1    1    2    0    0 -0.19698203986E+01  0.76073574474E+01  0.14556801423E+04  0.14557357002E+04  0.10000000000E+02 0.  1.
</event>
<event>
 5    1  0.1572996E-008  0.3787194E+03  0.7957747E-01  0.3456754E+00
         13   -1    0    0    0    0  0.00000000000E+00  0.00000000000E+00  0.14999999963E+04  0.15000000000E+04  0.10566000000E+00 0.  1.
        994   -1    0    0    0    0 -0.00000000000E+00 -0.00000000000E+00  0.11368683772E-12  0.17120000000E+03  0.17120000000E+03 0.  0.
         13    1    1    2    0    0 -0.15073469529E+02 -0.32926962912E+02  0.15562289499E+03  0.15978075911E+03  0.10566000000E+00 0.  1.
        994    1    1    2    0    0  0.86150273775E+01 -0.50286396396E+01  0.51151158352E+01  0.17156663523E+03  0.17120000000E+03 0.  0.
        998    1    1    2    0    0  0.64584421520E+01  0.37955602551E+02  0.13392619854E+04  0.13398526057E+04  0.10000000000E+02 0.  1.
</event>
<event>
 5    1  0.1572996E-008  0.3858088E+03  0.7957747E-01  0.3426249E+00
         13   -1    0    0    0    0  0.00000000000E+00  0.00000000000E+00  0.14999999963E+04  0.15000000000E+04  0.10566000000E+00 0.  1.
        994   -1    0    0    0    0 -0.00000000000E+00 -0.00000000000E+00  0.11368683772E-12  0.17120000000E+03  0.17120000000E+03 0.  0.
         13    1    1    2    0    0 -0.10429049511E+02 -0.67590908183E+01  0.63087561992E+02  0.64300093503E+02  0.10566000000E+00 0.  1.
        994    1    1    2    0    0  0.85153257636E+01  0.33162718958E+01  0.15030716630E+01  0.17145030667E+03  0.17120000000E+03 0.  0.
        998    1    1    2    0    0  0.19137237476E+01  0.34428189225E+01  0.14354093626E+04  0.14354495998E+04  0.10000000000E+02 0.  1.
</event>
<event>
 5    1  0.1572996E-008  0.3752315E+03  0.7957747E-01  0.3472188E+00
         13   -1    0    0    0    0  0.00000000000E+00  0.00000000000E+00  0.14999999963E+04  0.15000000000E+04  0.10566000000E+00 0. -1.
        994   -1    0    0    0    0 -0.00000000000E+00 -0.00000000000E+00  0.11368683772E-12  0.17120000000E+03  0.17120000000E+03 0.  0.
         13    1    1    2    0    0  0.33527677712E+02  0.47922924188E+02  0.24502744607E+03  0.25191104050E+03  0.10566000000E+00 0. -1.
        994    1    1    2    0    0 -0.18648328954E+02 -0.37778721286E+02  0.12612685573E+02  0.17675834292E+03  0.17120000000E+03 0.  0.
        998    1    1    2    0    0 -0.14879348757E+02 -0.10144202903E+02  0.12423598646E+04  0.12425306166E+04  0.10000000000E+02 0. -1.
</event>
<event>
 5    1  0.1572996E-008  0.3781721E+03  0.7957747E-01  0.3459157E+00
         13   -1    0    0    0    0  0.00000000000E+00  0.00000000000E+00  0.14999999963E+04  0.15000000000E+04  0.10566000000E+00 0. -1.
        994   -1    0    0    0    0 -0.00000000000E+00 -0.00000000000E+00  0.11368683772E-12  0.17120000000E+03  0.17120000000E+03 0.  0.
         13    1    1    2    0    0  0.21127442272E+02  0.21446548208E+02  0.86134985266E+02  0.91244562018E+02  0.10566000000E+00 0. -1.
        994    1    1    2    0    0 -0.24307249825E+02 -0.82011585340E+01  0.72752381551E+01  0.17326416388E+03  0.17120000000E+03 0.  0.
        998    1    1    2    0    0  0.31798075534E+01 -0.13245389674E+02  0.14065897729E+04  0.14066912741E+04  0.10000000000E+02 0. -1.
</event>
<event>
 5    1  0.1572996E-008  0.3810294E+03  0.7957747E-01  0.3446689E+00
         13   -1    0    0    0    0  0.00000000000E+00  0.00000000000E+00  0.14999999963E+04  0.15000000000E+04  0.10566000000E+00 0. -1.
        994   -1    0    0    0    0 -0.00000000000E+00 -0.00000000000E+00  0.11368683772E-12  0.17120000000E+03  0.17120000000E+03 0.  0.
         13    1    1    2    0    0 -0.72599892401E+01 -0.15166122764E+02  0.40418057526E+02  0.43776126618E+02  0.10566000000E+00 0. -1.
        994    1    1    2    0    0 -0.27977532884E+01 -0.69799178188E+01  0.38028424117E+01  0.17140725856E+03  0.17120000000E+03 0.  0.
        998    1    1    2    0    0  0.10057742529E+02  0.22146040583E+02  0.14557790963E+04  0.14560166148E+04  0.10000000000E+02 0. -1.
</event>
<event>
 5    1  0.1572996E-008  0.3846475E+03  0.7957747E-01  0.3431168E+00
         13   -1    0    0    0    0  0.00000000000E+00  0.00000000000E+00  0.14999999963E+04  0.15000000000E+04  0.10566000000E+00 0. -1.
        994   -1    0    0    0    0 -0.00000000000E+00 -0.00000000000E+00  0.11368683772E-12  0.17120000000E+03  0.17120000000E+03 0.  0.
         13    1    1    2    0    0  0.18374443883E+02  0.76094114639E+01  0.10281929427E+03  0.10472507708E+03  0.10566000000E+00 0. -1.
        994    1    1    2    0    0 -0.16793572285E+02 -0.14018616520E+02  0.33823869174E+01  0.17262510310E+03  0.17120000000E+03 0.  0.
        998    1    1    2    0    0 -0.15808715971E+01  0.64092050558E+01  0.13937983151E+04  0.13938498198E+04  0.10000000000E+02 0. -1.
</event>
<event>
 5    1  0.1572996E-008  0.3800725E+03  0.7957747E-01  0.3450843E+00
         13   -1    0    0    0    0  0.00000000000E+00  0.00000000000E+00  0.14999999963E+04  0.15000000000E+04  0.10566000000E+00 0.  1.
        994   -1    0    0    0    0 -0.00000000000E+00 -0.00000000000E+00  0.11368683772E-12  0.17120000000E+03  0.17120000000E+03 0.  0.
         13    1    1    2    0    0  0.26706611043E+02  0.75187841913E+01  0.90129181318E+02  0.94302999307E+02  0.10566000000E+00 0.  1.
        994    1    1    2    0    0 -0.21548857544E+02 -0.61348154903E+01  0.57760310181E+01  0.17275645214E+03  0.17120000000E+03 0.  0.
        998    1    1    2    0    0 -0.51577534995E+01 -0.13839687010E+01  0.14040947839E+04  0.14041405486E+04  0.10000000000E+02 0.  1.
</event>
<event>
 5    1  0.1572996E-008  0.3803247E+03  0.7957747E-01  0.3449746E+00
         13   -1    0    0    0    0  0.00000000000E+00  0.00000000000E+00  0.14999999963E+04  0.15000000000E+04  0.10566000000E+00 0.  1.
        994   -1    0    0    0    0 -0.00000000000E+00 -0.00000000000E+00  0.11368683772E-12  0.17120000000E+03  0.17120000000E+03 0.  0.
         13    1    1    2    0    0 -0.33815070684E+02 -0.36611461091E+02  0.64443052709E+02  0.81466412067E+02  0.10566000000E+00 0.  1.
        994    1    1    2    0    0  0.38621145527E+02  0.47186786563E+02  0.30121254223E+02  0.18421431992E+03  0.17120000000E+03 0.  0.
        998    1    1    2    0    0 -0.48060748436E+01 -0.10575325472E+02  0.14054356893E+04  0.14055192680E+04  0.10000000000E+02 0.  1.
</event>
<event>
 5    1  0.1572996E-008  0.3864919E+03  0.7957747E-01  0.3423369E+00
         13   -1    0    0    0    0  0.00000000000E+00  0.00000000000E+00  0.14999999963E+04  0.15000000000E+04  0.10566000000E+00 0. -1.
        994   -1    0    0    0    0 -0.00000000000E+00 -0.00000000000E+00  0.11368683772E-12  0.17120000000E+03  0.17120000000E+03 0.  0.
         13    1    1    2    0    0 -0.47471952044E+01 -0.99545786771E+01  0.65193574518E+02  0.66119912443E+02  0.10566000000E+00 0. -1.
        994    1    1    2    0    0  0.26840188856E+02  0.51625600480E+01  0.33399984426E+01  0.17340024035E+03  0.17120000000E+03 0.  0.
        998    1    1    2    0    0 -0.22092993651E+02  0.47920186290E+01  0.14314664233E+04  0.14316798472E+04  0.10000000000E+02 0. -1.
</event>
<event>
 5    1  0.1572996E-008  0.3722575E+03  0.7957747E-01  0.3485580E+00
         13   -1    0    0    0    0  0.00000000000E+00  0.00000000000E+00  0.14999999963E+04  0.15000000000E+04  0.10566000000E+00 0.  1.
        994   -1    0    0    0    0 -0.00000000000E+00 -0.00000000000E+00  0.11368683772E-12  0.17120000000E+03  0.17120000000E+03 0.  0.
         13    1    1    2    0    0 -0.38408494485E+02 -0.10275697758E+02  0.59210614489E+02  0.71321178098E+02  0.10566000000E+00 0.  1.
        994    1    1    2    0    0  0.30860589342E+02  0.20170558641E+02  0.16942417598E+02  0.17594235682E+03  0.17120000000E+03 0.  0.
        998    1    1    2    0    0  0.75479051431E+01 -0.98948608831E+01  0.14238469642E+04  0.14239364651E+04  0.10000000000E+02 0.  1.
</event>
<event>
 5    1  0.1572996E-008  0.3736651E+03  0.7957747E-01  0.3479214E+00
         13   -1    0    0    0    0  0.00000000000E+00  0.00000000000E+00  0.14999999963E+04  0.15000000000E+04  0.10566000000E+00 0. -1.
        994   -1    0    0    0    0 -0.00000000000E+00 -0.00000000000E+00  0.11368683772E-12  0.17120000000E+03  0.17120000000E+03 0.  0.
         13    1    1    2    0    0 -0.11812647902E+02  0.50272540691E+02  0.15681550963E+03  0.16509991588E+03  0.10566000000E+00 0. -1.
        994    1    1    2    0    0  0.11687201228E+02 -0.55260574551E+02  0.18338804583E+02  0.18120726676E+03  0.17120000000E+03 0.  0.
        998    1    1    2    0    0  0.12544667421E+00  0.49880338601E+01  0.13248456821E+04  0.13248928174E+04  0.10000000000E+02 0. -1.
</event>
<event>
 5    1  0.1572996E-008  0.3731143E+03  0.7957747E-01  0.3481699E+00
         13   -1    0    0    0    0  0.00000000000E+00  0.00000000000E+00  0.14999999963E+04  0.15000000000E+04  0.10566000000E+00 0.  1.
        994   -1    0    0    0    0 -0.00000000000E+00 -0.00000000000E+00  0.11368683772E-12  0.17120000000E+03  0.17120000000E+03 0.  0.
         13    1    1    2    0    0 -0.52909063046E+01  0.15344196567E+02  0.47111873075E+01  0.16901020907E+02  0.10566000000E+00 0.  1.
        994    1    1    2    0    0 -0.36996213221E+01 -0.17855760958E+02  0.13771262505E+02  0.17271827659E+03  0.17120000000E+03 0.  0.
        998    1    1    2    0    0  0.89905276267E+01  0.25115643908E+01  0.14815175465E+04  0.14815807025E+04  0.10000000000E+02 0.  1.
</event>
<event>
 5    1  0.1572996E-008  0.3726656E+03  0.7957747E-01  0.3483729E+00
         13   -1    0    0    0    0  0.00000000000E+00  0.00000000000E+00  0.14999999963E+04  0.15000000000E+04  0.10566000000E+00 0. -1.
        994   -1    0    0    0    0 -0.00000000000E+00 -0.00000000000E+00  0.11368683772E-12  0.17120000000E+03  0.17120000000E+03 0.  0.
         13    1    1    2    0    0 -0.21582061776E+02 -0.59961895825E+02  0.20914608307E+03  0.21863967977E+03  0.10566000000E+00 0. -1.
        994    1    1    2    0    0  0.23425831844E+02  0.68506360629E+02  0.26061281374E+02  0.18769795266E+03  0.17120000000E+03 0.  0.
        998    1    1    2    0    0 -0.18437700680E+01 -0.85444648043E+01  0.12647926318E+04  0.12648623676E+04  0.10000000000E+02 0. -1.
</event>
<event>
 5    1  0.1572996E-008  0.3821842E+03  0.7957747E-01  0.3441703E+00
         13   -1    0    0    0    0  0.00000000000E+00  0.00000000000E+00  0.14999999963E+04  0.15000000000E+04  0.10566000000E+00 0.  1.
        994   -1    0    0    0    0 -0.00000000000E+00 -0.00000000000E+00  0.11368683772E-12  0.17120000000E+03  0.17120000000E+03 0.  0.
         13    1    1    2    0    0  0.10977251657E+02  0.41915041285E+01  0.21504771387E+02  0.24505818028E+02  0.10566000000E+00 0.  1.
        994    1    1    2    0    0 -0.88048623612E+01 -0.29470580077E+01  0.33208172678E+01  0.17148375602E+03  0.17120000000E+03 0.  0.
        998    1    1    2    0    0 -0.21723892959E+01 -0.12444461208E+01  0.14751744076E+04  0.14752104259E+04  0.10000000000E+02 0.  1.
</event>
<event>
 5    1  0.1572996E-008  0.3804670E+03  0.7957747E-01  0.3449128E+00
         13   -1    0    0    0    0  0.00000000000E+00  0.00000000000E+00  0.14999999963E+04  0.15000000000E+04  0.10566000000E+00 0.  1.
        994   -1    0    0    0    0 -0.00000000000E+00 -0.00000000000E+00  0.11368683772E-12  0.17120000000E+03  0.17120000000E+03 0.  0.
         13    1    1    2    0    0 -0.35430278603E+02  0.19450824516E+02  0.22167306757E+03  0.22532775965E+03  0.10566000000E+00 0.  1.
        994    1    1    2    0    0  0.22030025963E+02  0.67994306170E+01  0.56738054843E+01  0.17283861365E+03  0.17120000000E+03 0.  0.
        998    1    1    2    0    0  0.13400252640E+02 -0.26250255133E+02  0.12726531232E+04  0.12730336267E+04  0.10000000000E+02 0.  1.
</event>
<event>
 5    1  0.1572996E-008  0.3813088E+03  0.7957747E-01  0.3445479E+00
         13   -1    0    0    0    0  0.00000000000E+00  0.00000000000E+00  0.14999999963E+04  0.15000000000E+04  0.10566000000E+00 0. -1.
        994   -1    0    0    0    0 -0.00000000000E+00 -0.00000000000E+00  0.11368683772E-12  0.17120000000E+03  0.17120000000E+03 0.  0.
         13    1    1    2    0    0 -0.25595592145E+02  0.20257188731E+02  0.18016166682E+03  0.18309485353E+03  0.10566000000E+00 0. -1.
        994    1    1    2    0    0 -0.16135643207E+02 -0.17802534224E+02  0.53978087955E+01  0.17296203499E+03  0.17120000000E+03 0.  0.
        998    1    1    2    0    0  0.41731235352E+02 -0.24546545069E+01  0.13144405207E+04  0.13151431115E+04  0.10000000000E+02 0. -1.
</event>
<event>
 5    1  0.1572996E-008  0.3764702E+03  0.7957747E-01  0.3466674E+00
         13   -1    0    0    0    0  0.00000000000E+00  0.00000000000E+00  0.14999999963E+04  0.15000000000E+04  0.10566000000E+00 0. -1.
        994   -1    0    0    0    0 -0.00000000000E+00 -0.00000000000E+00  0.11368683772E-12  0.17120000000E+03  0.17120000000E+03 0.  0.
         13    1    1    2    0    0  0.91317461027E+02 -0.12179259942E+03  0.48760355084E+03  0.51081263681E+03  0.10566000000E+00 0. -1.
        994    1    1    2    0    0 -0.86826040244E+02  0.12939608749E+03  0.10723770064E+03  0.25513030623E+03  0.17120000000E+03 0.  0.
        998    1    1    2    0    0 -0.44914207831E+01 -0.76034880691E+01  0.90515874480E+03  0.90525705696E+03  0.10000000000E+02 0. -1.
</event>
<event>
 5    1  0.1572996E-008  0.3838982E+03  0.7957747E-01  0.3434358E+00
         13   -1    0    0    0    0  0.00000000000E+00  0.00000000000E+00  0.14999999963E+04  0.15000000000E+04  0.10566000000E+00 0.  1.
        994   -1    0    0    0    0 -0.00000000000E+00 -0.00000000000E+00  0.11368683772E-12  0.17120000000E+03  0.17120000000E+03 0.  0.
         13    1    1    2    0    0 -0.12610264467E+02 -0.11759953812E+01  0.36538864426E+02  0.38671714633E+02  0.10566000000E+00 0.  1.
        994    1    1    2    0    0  0.66037452966E+01  0.10736071414E+01  0.23258824459E+01  0.17134646718E+03  0.17120000000E+03 0.  0.
        998    1    1    2    0    0  0.60065191708E+01  0.10238823985E+00  0.14611352494E+04  0.14611818182E+04  0.10000000000E+02 0.  1.
</event>
<event>
 5    1  0.1572996E-008  0.3809995E+03  0.7957747E-01  0.3446818E+00
         13   -1    0    0    0    0  0.00000000000E+00  0.00000000000E+00  0.14999999963E+04  0.15000000000E+04  0.10566000000E+00 0.  1.
        994   -1    0    0    0    0 -0.00000000000E+00 -0.00000000000E+00  0.11368683772E-12  0.17120000000E+03  0.17120000000E+03 0.  0.
         13    1    1    2    0    0  0.17178300482E+02 -0.20181823713E+02  0.90090007656E+02  0.93907511198E+02  0.10566000000E+00 0.  1.
        994    1    1    2    0    0 -0.26735429385E+02  0.13773197922E+02  0.66489576753E+01  0.17394864990E+03  0.17120000000E+03 0.  0.
        998    1    1    2    0    0  0.95571289023E+01  0.64086257911E+01  0.14032610309E+04  0.14033438389E+04  0.10000000000E+02 0.  1.
</event>
<event>
 5    1  0.1572996E-008  0.3864594E+03  0.7957747E-01  0.3423506E+00
         13   -1    0    0    0    0  0.00000000000E+00  0.00000000000E+00  0.14999999963E+04  0.15000000000E+04  0.10566000000E+00 0.  1.
        994   -1    0    0    0    0 -0.00000000000E+00 -0.00000000000E+00  0.11368683772E-12  0.17120000000E+03  0.17120000000E+03 0.  0.
         13    1    1    2    0    0  0.89255838609E+01  0.76064693119E+01  0.70421807900E+02  0.71391642470E+02  0.10566000000E+00 0.  1.
        994    1    1    2    0    0 -0.17258483995E+02 -0.85694797741E+01  0.21235570083E+01  0.17229405314E+03  0.17120000000E+03 0.  0.
        998    1    1    2    0    0  0.83329001339E+01  0.96301046217E+00  0.14274546314E+04  0.14275143044E+04  0.10000000000E+02 0.  1.
</event>
<event>
 5    1  0.1572996E-008  0.3813144E+03  0.7957747E-01  0.3445455E+00
         13   -1    0    0    0    0  0.00000000000E+00  0.00000000000E+00  0.14999999963E+04  0.15000000000E+04  0.10566000000E+00 0. -1.
        994   -1    0    0    0    0 -0.00000000000E+00 -0.00000000000E+00  0.11368683772E-12  0.17120000000E+03  0.17120000000E+03 0.  0.
         13    1    1    2    0    0  0.19723286489E+02 -0.37877271983E+02  0.23602393424E+03  0.23985621623E+03  0.10566000000E+00 0. -1.
        994    1    1    2    0    0 -0.26754910219E+02  0.27324147879E+02  0.83540835080E+01  0.17561795179E+03  0.17120000000E+03 0.  0.
        998    1    1    2    0    0  0.70316237297E+01  0.10553124104E+02  0.12556219785E+04  0.12557258320E+04  0.10000000000E+02 0. -1.
</event>
<event>
 5    1  0.1572996E-008  0.3704774E+03  0.7957747E-01  0.3493700E+00
         13   -1    0    0    0    0  0.00000000000E+00  0.00000000000E+00  0.14999999963E+04  0.15000000000E+04  0.10566000000E+00 0.  1.
        994   -1    0    0    0    0 -0.00000000000E+00 -0.00000000000E+00  0.11368683772E-12  0.17120000000E+03  0.17120000000E+03 0.  0.
         13    1    1    2    0    0 -0.96138285768E+01  0.31411947088E+02  0.57454976017E+02  0.66183242236E+02  0.10566000000E+00 0.  1.
        994    1    1    2    0    0  0.37756508199E+02 -0.44364434930E+01  0.14025102715E+02  0.17593004135E+03  0.17120000000E+03 0.  0.
        998    1    1    2    0    0 -0.28142679622E+02 -0.26975503595E+02  0.14285199175E+04  0.14290867164E+04  0.10000000000E+02 0.  1.
</event>
<event>
 5    1  0.1572996E-008  0.3864656E+03  0.7957747E-01  0.3423480E+00
         13   -1    0    0    0    0  0.00000000000E+00  0.00000000000E+00  0.14999999963E+04  0.15000000000E+04  0.10566000000E+00 0. -1.
        994   -1    0    0    0    0 -0.00000000000E+00 -0.00000000000E+00  0.11368683772E-12  0.17120000000E+03  0.17120000000E+03 0.  0.
         13    1    1    2    0    0 -0.34137803017E+01  0.10232247672E+02  0.64238846701E+02  0.65138263547E+02  0.10566000000E+00 0. -1.
        994    1    1    2    0    0 -0.44788905225E+01 -0.12028293821E+02  0.14436413958E+01  0.17168652950E+03  0.17120000000E+03 0.  0.
        998    1    1    2    0    0  0.78926708242E+01  0.17960461485E+01  0.14343175082E+04  0.14343752069E+04  0.10000000000E+02 0. -1.
</event>
<event>
 5    1  0.1572996E-008  0.3725281E+03  0.7957747E-01  0.3484352E+00
         13   -1    0    0    0    0  0.00000000000E+00  0.00000000000E+00  0.14999999963E+04  0.15000000000E+04  0.10566000000E+00 0.  1.
        994   -1    0    0    0    0 -0.00000000000E+00 -0.00000000000E+00  0.11368683772E-12  0.17120000000E+03  0.17120000000E+03 0.  0.
         13    1    1    2    0    0  0.19520064411E+02 -0.57737215276E+02  0.28052582850E+03  0.28707032337E+03  0.10566000000E+00 0.  1.
        994    1    1    2    0    0  0.30856540275E+01  0.84819223278E+01  0.82328823494E+01  0.17163532451E+03  0.17120000000E+03 0.  0.
        998    1    1    2    0    0 -0.22605718438E+02  0.49255292948E+02  0.12112412854E+04  0.12124943521E+04  0.10000000000E+02 0.  1.
</event>
<event>
 5    1  0.1572996E-008  0.3805602E+03  0.7957747E-01  0.3448723E+00
         13   -1    0    0    0    0  0.00000000000E+00  0.00000000000E+00  0.14999999963E+04  0.15000000000E+04  0.10566000000E+00 0. -1.
        994   -1    0    0    0    0 -0.00000000000E+00 -0.00000000000E+00  0.11368683772E-12  0.17120000000E+03  0.17120000000E+03 0.  0.
         13    1    1    2    0    0  0.31912730341E+02  0.26288839565E+02  0.16604107418E+03  0.17111158617E+03  0.10566000000E+00 0. -1.
        994    1    1    2    0    0 -0.60845904885E+02 -0.31983883587E+02  0.19781645798E+02  0.18554230370E+03  0.17120000000E+03 0.  0.
        998    1    1    2    0    0  0.28933174544E+02  0.56950440222E+01  0.13141772763E+04  0.13145461101E+04  0.10000000000E+02 0. -1.
</event>
<event>
 5    1  0.1572996E-008  0.3840014E+03  0.7957747E-01  0.3433918E+00
         13   -1    0    0    0    0  0.00000000000E+00  0.00000000000E+00  0.14999999963E+04  0.15000000000E+04  0.10566000000E+00 0. -1.
        994   -1    0    0    0    0 -0.00000000000E+00 -0.00000000000E+00  0.11368683772E-12  0.17120000000E+03  0.17120000000E+03 0.  0.
         13    1    1    2    0    0 -0.18763734786E+02  0.55073942195E+01  0.75746936168E+02  0.78230547979E+02  0.10566000000E+00 0. -1.
        994    1    1    2    0    0  0.40183833478E+02 -0.80269186207E+01  0.76866446801E+01  0.17620356524E+03  0.17120000000E+03 0.  0.
        998    1    1    2    0    0 -0.21420098692E+02  0.25195244013E+01  0.14165664154E+04  0.14167658868E+04  0.10000000000E+02 0. -1.
</event>
<event>
 5    1  0.1572996E-008  0.3822284E+03  0.7957747E-01  0.3441512E+00
         13   -1    0    0    0    0  0.00000000000E+00  0.00000000000E+00  0.14999999963E+04  0.15000000000E+04  0.10566000000E+00 0.  1.
        994   -1    0    0    0    0 -0.00000000000E+00 -0.00000000000E+00  0.11368683772E-12  0.17120000000E+03  0.17120000000E+03 0.  0.
         13    1    1    2    0    0  0.30802398413E+02  0.34883077449E+01  0.18716239303E+03  0.18971222567E+03  0.10566000000E+00 0.  1.
        994    1    1    2    0    0  0.21856452065E-01  0.99382214582E+01  0.33402915956E+01  0.17152074589E+03  0.17120000000E+03 0.  0.
        998    1    1    2    0    0 -0.30824254865E+02 -0.13426529203E+02  0.13094973116E+04  0.13099670284E+04  0.10000000000E+02 0.  1.
</event>
<event>
 5    1  0.1572996E-008  0.3720878E+03  0.7957747E-01  0.3486350E+00
         13   -1    0    0    0    0  0.00000000000E+00  0.00000000000E+00  0.14999999963E+04  0.15000000000E+04  0.10566000000E+00 0.  1.
        994   -1    0    0    0    0 -0.00000000000E+00 -0.00000000000E+00  0.11368683772E-12  0.17120000000E+03  0.17120000000E+03 0.  0.
         13    1    1    2    0    0  0.26339875499E+02 -0.22134444239E+02  0.67533318702E+02  0.75792367439E+02  0.10566000000E+00 0.  1.
        994    1    1    2    0    0 -0.15367691896E+02  0.28170236126E+02  0.11725037386E+02  0.17457561301E+03  0.17120000000E+03 0.  0.
        998    1    1    2    0    0 -0.10972183603E+02 -0.60357918873E+01  0.14207416402E+04  0.14208320195E+04  0.10000000000E+02 0.  1.
</event>
<event>
 5    1  0.1572996E-008  0.3838633E+03  0.7957747E-01  0.3434508E+00
         13   -1    0    0    0    0  0.00000000000E+00  0.00000000000E+00  0.14999999963E+04  0.15000000000E+04  0.10566000000E+00 0.  1.
        994   -1    0    0    0    0 -0.00000000000E+00 -0.00000000000E+00  0.11368683772E-12  0.17120000000E+03  0.17120000000E+03 0.  0.
         13    1    1    2    0    0 -0.33662934232E+01  0.12283464826E+02  0.35746769844E+02  0.37948098211E+02  0.10566000000E+00 0.  1.
        994    1    1    2    0    0  0.12211700859E+01 -0.12775309635E+02  0.27393881037E+01  0.17170219579E+03  0.17120000000E+03 0.  0.
        998    1    1    2    0    0  0.21451233373E+01  0.49184480869E+00  0.14615138383E+04  0.14615497060E+04  0.10000000000E+02 0.  1.
</event>
<event>
 5    1  0.1572996E-008  0.3899155E+03  0.7957747E-01  0.3409089E+00
         13   -1    0    0    0    0  0.00000000000E+00  0.00000000000E+00  0.14999999963E+04  0.15000000000E+04  0.10566000000E+00 0. -1.
        994   -1    0    0    0    0 -0.00000000000E+00 -0.00000000000E+00  0.11368683772E-12  0.17120000000E+03  0.17120000000E+03 0.  0.
         13    1    1    2    0    0  0.41100981331E+02  0.30624756899E+02  0.51904007801E+02  0.72946580394E+02  0.10566000000E+00 0. -1.
        994    1    1    2    0    0 -0.30770407750E+02 -0.26149590858E+02  0.28041408662E+02  0.17811900431E+03  0.17120000000E+03 0.  0.
        998    1    1    2    0    0 -0.10330573580E+02 -0.44751660402E+01  0.14200545798E+04  0.14201344153E+04  0.10000000000E+02 0. -1.
</event>
<event>
 5    1  0.1572996E-008  0.3719955E+03  0.7957747E-01  0.3486770E+00
         13   -1    0    0    0    0  0.00000000000E+00  0.00000000000E+00  0.14999999963E+04  0.15000000000E+04  0.10566000000E+00 0. -1.
        994   -1    0    0    0    0 -0.00000000000E+00 -0.00000000000E+00  0.11368683772E-12  0.17120000000E+03  0.17120000000E+03 0.  0.
         13    1    1    2    0    0 -0.50199432425E+02 -0.93569212532E+01  0.23685320669E+03  0.24229524897E+03  0.10566000000E+00 0. -1.
        994    1    1    2    0    0 -0.38798470645E+02  0.18232184045E+02  0.14567059675E+02  0.17708577890E+03  0.17120000000E+03 0.  0.
        998    1    1    2    0    0  0.88997903069E+02 -0.88752627922E+01  0.12485797299E+04  0.12518189721E+04  0.10000000000E+02 0. -1.
</event>
<event>
 5    1  0.1572996E-008  0.3810473E+03  0.7957747E-01  0.3446611E+00
         13   -1    0    0    0    0  0.00000000000E+00  0.00000000000E+00  0.14999999963E+04  0.15000000000E+04  0.10566000000E+00 0.  1.
        994   -1    0    0    0    0 -0.00000000000E+00 -0.00000000000E+00  0.11368683772E-12  0.17120000000E+03  0.17120000000E+03 0.  0.
         13    1    1    2    0    0  0.13750985477E+02 -0.22628343073E+01  0.25487742228E+02  0.29049030769E+02  0.10566000000E+00 0.  1.
        994    1    1    2    0    0 -0.10048157404E+02 -0.15621626766E+00  0.39419275249E+01  0.17153999144E+03  0.17120000000E+03 0.  0.
        998    1    1    2    0    0 -0.37028280728E+01  0.24190505749E+01  0.14705703265E+04  0.14706109778E+04  0.10000000000E+02 0.  1.
</event>
<event>
 5    1  0.1572996E-008  0.3730719E+03  0.7957747E-01  0.3481891E+00
         13   -1    0    0    0    0  0.00000000000E+00  0.00000000000E+00  0.14999999963E+04  0.15000000000E+04  0.10566000000E+00 0. -1.
        994   -1    0    0    0    0 -0.00000000000E+00 -0.00000000000E+00  0.11368683772E-12  0.17120000000E+03  0.17120000000E+03 0.  0.
         13    1    1    2    0    0 -0.19746815974E+02 -0.12461013030E+02  0.32184134199E+02  0.39762334502E+02  0.10566000000E+00 0. -1.
        994    1    1    2    0    0  0.19070280640E+02  0.44153458724E+01  0.89843092326E+01  0.17254949636E+03  0.17120000000E+03 0.  0.
        998    1    1    2    0    0  0.67653533421E+00  0.80456671577E+01  0.14588315528E+04  0.14588881691E+04  0.10000000000E+02 0. -1.
</event>
<event>
 5    1  0.1572996E-008  0.3821159E+03  0.7957747E-01  0.3441997E+00
         13   -1    0    0    0    0  0.00000000000E+00  0.00000000000E+00  0.14999999963E+04  0.15000000000E+04  0.10566000000E+00 0.  1.
        994   -1    0    0    0    0 -0.00000000000E+00 -0.00000000000E+00  0.11368683772E-12  0.17120000000E+03  0.17120000000E+03 0.  0.
         13    1    1    2    0    0  0.93814255605E+01  0.13597374526E+02  0.42073430172E+02  0.45200491480E+02  0.10566000000E+00 0.  1.
        994    1    1    2    0    0 -0.20490861284E+02 -0.89275065106E+01  0.47290603856E+01  0.17271763020E+03  0.17120000000E+03 0.  0.
        998    1    1    2    0    0  0.11109435724E+02 -0.46698680152E+01  0.14531975057E+04  0.14532818783E+04  0.10000000000E+02 0.  1.
</event>
<event>
 5    1  0.1572996E-008  0.3824736E+03  0.7957747E-01  0.3440458E+00
         13   -1    0    0    0    0  0.00000000000E+00  0.00000000000E+00  0.14999999963E+04  0.15000000000E+04  0.10566000000E+00 0.  1.
        994   -1    0    0    0    0 -0.00000000000E+00 -0.00000000000E+00  0.11368683772E-12  0.17120000000E+03  0.17120000000E+03 0.  0.
         13    1    1    2    0    0 -0.25002474913E+02 -0.44559393172E+02  0.69038784744E+02  0.85889628213E+02  0.10566000000E+00 0.  1.
        994    1    1    2    0    0 -0.30744385856E-01  0.31965850394E+02  0.21438038797E+02  0.17547320606E+03  0.17120000000E+03 0.  0.
        998    1    1    2    0    0  0.25033219299E+02  0.12593542778E+02  0.14095231727E+04  0.14098371657E+04  0.10000000000E+02 0.  1.
</event>
<event>
 5    1  0.1572996E-008  0.3823545E+03  0.7957747E-01  0.3440970E+00
         13   -1    0    0    0    0  0.00000000000E+00  0.00000000000E+00  0.14999999963E+04  0.15000000000E+04  0.10566000000E+00 0. -1.
        994   -1    0    0    0    0 -0.00000000000E+00 -0.00000000000E+00  0.11368683772E-12  0.17120000000E+03  0.17120000000E+03 0.  0.
         13    1    1    2    0    0  0.10957138280E+02 -0.26859482591E+02  0.14812964433E+03  0.15094334492E+03  0.10566000000E+00 0. -1.
        994    1    1    2    0    0 -0.30796866557E+00  0.12095336781E+02  0.34350309689E+01  0.17166138603E+03  0.17120000000E+03 0.  0.
        998    1    1    2    0    0 -0.10649169614E+02  0.14764145810E+02  0.13484353210E+04  0.13485952690E+04  0.10000000000E+02 0. -1.
</event>
<event>
 5    1  0.1572996E-008  0.3688754E+03  0.7957747E-01  0.3501075E+00
         13   -1    0    0    0    0  0.00000000000E+00  0.00000000000E+00  0.14999999963E+04  0.15000000000E+04  0.10566000000E+00 0.  1.
        994   -1    0    0    0    0 -0.00000000000E+00 -0.00000000000E+00  0.11368683772E-12  0.17120000000E+03  0.17120000000E+03 0.  0.
         13    1    1    2    0    0  0.12429011746E+03  0.89661420319E+02  0.81365157701E+03  0.82795899870E+03  0.10566000000E+00 0.  1.
        994    1    1    2    0    0 -0.11625519001E+03 -0.52082557563E+02  0.68502299927E+02  0.22412020681E+03  0.17120000000E+03 0.  0.
        998    1    1    2    0    0 -0.80349274489E+01 -0.37578862756E+02  0.61784611934E+03  0.61912079449E+03  0.10000000000E+02 0.  1.
</event>
<event>
 5    1  0.1572996E-008  0.3695435E+03  0.7957747E-01  0.3497992E+00
         13   -1    0    0    0    0  0.00000000000E+00  0.00000000000E+00  0.14999999963E+04  0.15000000000E+04  0.10566000000E+00 0. -1.
        994   -1    0    0    0    0 -0.00000000000E+00 -0.00000000000E+00  0.11368683772E-12  0.17120000000E+03  0.17120000000E+03 0.  0.
         13    1    1    2    0    0 -0.36364228552E+02 -0.66475973323E+02  0.25917022953E+03  0.27001968666E+03  0.10566000000E+00 0. -1.
        994    1    1    2    0    0  0.70362459119E+02  0.19187740903E+02  0.29501295727E+02  0.18841128285E+03  0.17120000000E+03 0.  0.
        998    1    1    2    0    0 -0.33998230567E+02  0.47288232419E+02  0.12113284710E+04  0.12127690305E+04  0.10000000000E+02 0. -1.
</event>
<event>
 5    1  0.1572996E-008  0.3781652E+03  0.7957747E-01  0.3459187E+00
         13   -1    0    0    0    0  0.00000000000E+00  0.00000000000E+00  0.14999999963E+04  0.15000000000E+04  0.10566000000E+00 0. -1.
        994   -1    0    0    0    0 -0.00000000000E+00 -0.00000000000E+00  0.11368683772E-12  0.17120000000E+03  0.17120000000E+03 0.  0.
         13    1    1    2    0    0 -0.21792639008E+02  0.46365442589E+01  0.48663641436E+02  0.53521750900E+02  0.10566000000E+00 0. -1.
        994    1    1    2    0    0  0.55978248323E+01  0.23035345505E+01  0.51854505323E+01  0.17138544516E+03  0.17120000000E+03 0.  0.
        998    1    1    2    0    0  0.16194814175E+02 -0.69400788093E+01  0.14461509043E+04  0.14462928039E+04  0.10000000000E+02 0. -1.
</event>
<event>
 5    1  0.1572996E-008  0.3806296E+03  0.7957747E-01  0.3448422E+00
         13   -1    0    0    0    0  0.00000000000E+00  0.00000000000E+00  0.14999999963E+04  0.15000000000E+04  0.10566000000E+00 0. -1.
        994   -1    0    0    0    0 -0.00000000000E+00 -0.00000000000E+00  0.11368683772E-12  0.17120000000E+03  0.17120000000E+03 0.  0.
         13    1    1    2    0    0  0.18074653759E+02 -0.24883642758E+02  0.12822504188E+03  0.13186190244E+03  0.10566000000E+00 0. -1.
        994    1    1    2    0    0  0.36112827549E+01  0.16524238853E+02  0.47706373537E+01  0.17209965373E+03  0.17120000000E+03 0.  0.
        998    1    1    2    0    0 -0.21685936514E+02  0.83594039051E+01  0.13670043170E+04  0.13672384438E+04  0.10000000000E+02 0. -1.
</event>
<event>
 5    1  0.1572996E-008  0.3819853E+03  0.7957747E-01  0.3442559E+00
         13   -1    0    0    0    0  0.00000000000E+00  0.00000000000E+00  0.14999999963E+04  0.15000000000E+04  0.10566000000E+00 0.  1.
        994   -1    0    0    0    0 -0.00000000000E+00 -0.00000000000E+00  0.11368683772E-12  0.17120000000E+03  0.17120000000E+03 0.  0.
         13    1    1    2    0    0  0.97137619885E+01  0.10043426828E+02  0.28848801930E+02  0.32054518110E+02  0.10566000000E+00 0.  1.
        994    1    1    2    0    0 -0.14736691400E+02 -0.15086668046E+02  0.46128554842E+01  0.17255577667E+03  0.17120000000E+03 0.  0.
        998    1    1    2    0    0  0.50229294118E+01  0.50432412184E+01  0.14665383389E+04  0.14665897052E+04  0.10000000000E+02 0.  1.
</event>
<event>
 5    1  0.1572996E-008  0.3793255E+03  0.7957747E-01  0.3454101E+00
         13   -1    0    0    0    0  0.00000000000E+00  0.00000000000E+00  0.14999999963E+04  0.15000000000E+04  0.10566000000E+00 0.  1.
        994   -1    0    0    0    0 -0.00000000000E+00 -0.00000000000E+00  0.11368683772E-12  0.17120000000E+03  0.17120000000E+03 0.  0.
         13    1    1    2    0    0  0.28746230546E+02  0.30833380003E+01  0.19343331504E+02  0.34785462215E+02  0.10566000000E+00 0.  1.
        994    1    1    2    0    0 -0.25778548124E+02 -0.87750800039E+01  0.18642080800E+02  0.17435166403E+03  0.17120000000E+03 0.  0.
        998    1    1    2    0    0 -0.29676824225E+01  0.56917420035E+01  0.14620145840E+04  0.14620628738E+04  0.10000000000E+02 0.  1.
</event>
<event>
 5    1  0.1572996E-008  0.3823059E+03  0.7957747E-01  0.3441179E+00
         13   -1    0    0    0    0  0.00000000000E+00  0.00000000000E+00  0.14999999963E+04  0.15000000000E+04  0.10566000000E+00 0. -1.
        994   -1    0    0    0    0 -0.00000000000E+00 -0.00000000000E+00  0.11368683772E-12  0.17120000000E+03  0.17120000000E+03 0.  0.
         13    1    1    2    0    0  0.27217614094E+02  0.11086491466E+01  0.13760860236E+03  0.14027888732E+03  0.10566000000E+00 0. -1.
        994    1    1    2    0    0 -0.13877034869E+01 -0.72078850196E+01  0.31524247801E+01  0.17138628040E+03  0.17120000000E+03 0.  0.
        998    1    1    2    0    0 -0.25829910607E+02  0.60992358730E+01  0.13592389691E+04  0.13595348323E+04  0.10000000000E+02 0. -1.
</event>
<event>
 5    1  0.1572996E-008  0.3776437E+03  0.7957747E-01  0.3461483E+00
         13   -1    0    0    0    0  0.00000000000E+00  0.00000000000E+00  0.14999999963E+04  0.15000000000E+04  0.10566000000E+00 0.  1.
        994   -1    0    0    0    0 -0.00000000000E+00 -0.00000000000E+00  0.11368683772E-12  0.17120000000E+03  0.17120000000E+03 0.  0.
         13    1    1    2    0    0  0.12503302894E+02  0.48273430037E+02  0.21093118910E+03  0.21674555205E+03  0.10566000000E+00 0.  1.
        994    1    1    2    0    0 -0.19019405533E+02 -0.39196870140E+02  0.11749309214E+02  0.17704693921E+03  0.17120000000E+03 0.  0.
        998    1    1    2    0    0  0.65161026393E+01 -0.90765598960E+01  0.12773194980E+04  0.12774075087E+04  0.10000000000E+02 0.  1.
</event>
<event>
 5    1  0.1572996E-008  0.3719328E+03  0.7957747E-01  0.3487055E+00
         13   -1    0    0    0    0  0.00000000000E+00  0.00000000000E+00  0.14999999963E+04  0.15000000000E+04  0.10566000000E+00 0.  1.
        994   -1    0    0    0    0 -0.00000000000E+00 -0.00000000000E+00  0.11368683772E-12  0.17120000000E+03  0.17120000000E+03 0.  0.
         13    1    1    2    0    0  0.12219543092E+03  0.34563224837E+02  0.46357915503E+03  0.48065786584E+03  0.10566000000E+00 0.  1.
        994    1    1    2    0    0 -0.11646467013E+03 -0.37406651867E+02  0.66672890127E+02  0.22072152425E+03  0.17120000000E+03 0.  0.
        998    1    1    2    0    0 -0.57307607959E+01  0.28434270297E+01  0.96974795112E+03  0.96982060990E+03  0.10000000000E+02 0.  1.
</event>
<event>
 5    1  0.1572996E-008  0.3836348E+03  0.7957747E-01  0.3435483E+00
         13   -1    0    0    0    0  0.00000000000E+00  0.00000000000E+00  0.14999999963E+04  0.15000000000E+04  0.10566000000E+00 0.  1.
        994   -1    0    0    0    0 -0.00000000000E+00 -0.00000000000E+00  0.11368683772E-12  0.17120000000E+03  0.17120000000E+03 0.  0.
         13    1    1    2    0    0 -0.69782784672E+01  0.14508687912E+02  0.59097132706E+02  0.61250964510E+02  0.10566000000E+00 0.  1.
        994    1    1    2    0    0 -0.11752856294E+02 -0.42923180523E+01  0.28267496752E+01  0.17167988857E+03  0.17120000000E+03 0.  0.
        998    1    1    2    0    0  0.18731134761E+02 -0.10216369860E+02  0.14380761139E+04  0.14382691469E+04  0.10000000000E+02 0.  1.
</event>
<event>
 5    1  0.1572996E-008  0.3878633E+03  0.7957747E-01  0.3417619E+00
         13   -1    0    0    0    0  0.00000000000E+00  0.00000000000E+00  0.14999999963E+04  0.15000000000E+04  0.10566000000E+00 0.  1.
        994   -1    0    0    0    0 -0.00000000000E+00 -0.00000000000E+00  0.11368683772E-12  0.17120000000E+03  0.17120000000E+03 0.  0.
         13    1    1    2    0    0 -0.96356306798E+02 -0.28772082682E+02  0.43597755136E+03  0.44742463840E+03  0.10566000000E+00 0.  1.
        994    1    1    2    0    0 -0.20309143069E+02 -0.38099004334E+02  0.27703093713E+02  0.17872016345E+03  0.17120000000E+03 0.  0.
        998    1    1    2    0    0  0.11666544987E+03  0.66871087016E+02  0.10363193512E+04  0.10450551981E+04  0.10000000000E+02 0.  1.
</event>
<event>
 5    1  0.1572996E-008  0.3854067E+03  0.7957747E-01  0.3427949E+00
         13   -1    0    0    0    0  0.00000000000E+00  0.00000000000E+00  0.14999999963E+04  0.15000000000E+04  0.10566000000E+00 0. -1.
        994   -1    0    0    0    0 -0.00000000000E+00 -0.00000000000E+00  0.11368683772E-12  0.17120000000E+03  0.17120000000E+03 0.  0.
         13    1    1    2    0    0  0.10023675837E+02 -0.90138282132E+00  0.34042430426E+02  0.35499081701E+02  0.10566000000E+00 0. -1.
        994    1    1    2    0    0 -0.15052823700E+02  0.17681383905E+01  0.21831499928E+01  0.17188344876E+03  0.17120000000E+03 0.  0.
        998    1    1    2    0    0  0.50291478635E+01 -0.86675556922E+00  0.14637744159E+04  0.14638174695E+04  0.10000000000E+02 0. -1.
</event>
<event>
 5    1  0.1572996E-008  0.3843324E+03  0.7957747E-01  0.3432508E+00
         13   -1    0    0    0    0  0.00000000000E+00  0.00000000000E+00  0.14999999963E+04  0.15000000000E+04  0.10566000000E+00 0. -1.
        994   -1    0    0    0    0 -0.00000000000E+00 -0.00000000000E+00  0.11368683772E-12  0.17120000000E+03  0.17120000000E+03 0.  0.
         13    1    1    2    0    0  0.13082858384E+02 -0.96353950371E+01  0.68896593910E+02  0.70786678390E+02  0.10566000000E+00 0. -1.
        994    1    1    2    0    0 -0.78854902613E+01 -0.69592231506E+00  0.21685081809E+01  0.17139663851E+03  0.17120000000E+03 0.  0.
        998    1    1    2    0    0 -0.51973681231E+01  0.10331317352E+02  0.14289348942E+04  0.14290166831E+04  0.10000000000E+02 0. -1.
</event>
<event>
 5    1  0.1572996E-008  0.3840731E+03  0.7957747E-01  0.3433613E+00
         13   -1    0    0    0    0  0.00000000000E+00  0.00000000000E+00  0.14999999963E+04  0.15000000000E+04  0.10566000000E+00 0.  1.
        994   -1    0    0    0    0 -0.00000000000E+00 -0.00000000000E+00  0.11368683772E-12  0.17120000000E+03  0.17120000000E+03 0.  0.
         13    1    1    2    0    0 -0.90763111862E+01  0.88325108420E+01  0.38305904647E+02  0.40345336377E+02  0.10566000000E+00 0.  1.
        994    1    1    2    0    0 -0.83348903161E+00 -0.92511647064E+01  0.23756513068E+01  0.17146825500E+03  0.17120000000E+03 0.  0.
        998    1    1    2    0    0  0.99098002179E+01  0.41865386443E+00  0.14593184403E+04  0.14593864086E+04  0.10000000000E+02 0.  1.
</event>
<event>
 5    1  0.1572996E-008  0.3827135E+03  0.7957747E-01  0.3439428E+00
         13   -1    0    0    0    0  0.00000000000E+00  0.00000000000E+00  0.14999999963E+04  0.15000000000E+04  0.10566000000E+00 0.  1.
        994   -1    0    0    0    0 -0.00000000000E+00 -0.00000000000E+00  0.11368683772E-12  0.17120000000E+03  0.17120000000E+03 0.  0.
         13    1    1    2    0    0  0.61530384423E+01  0.31093775864E+02  0.15339075558E+03  0.15663147143E+03  0.10566000000E+00 0.  1.
        994    1    1    2    0    0 -0.70226945176E+01 -0.39952151727E+02  0.82406903430E+01  0.17613302258E+03  0.17120000000E+03 0.  0.
        998    1    1    2    0    0  0.86965607528E+00  0.88583758639E+01  0.13383685504E+04  0.13384355060E+04  0.10000000000E+02 0.  1.
</event>
<event>
 5    1  0.1660509E-008  0.3860774E+03  0.7957747E-01  0.3425116E+00
         13   -1    0    0    0    0  0.00000000000E+00  0.00000000000E+00  0.14999999963E+04  0.15000000000E+04  0.10566000000E+00 0. -1.
        994   -1    0    0    0    0 -0.00000000000E+00 -0.00000000000E+00  0.11368683772E-12  0.17120000000E+03  0.17120000000E+03 0.  0.
         13    1    1    2    0    0  0.47049578217E+01 -0.11168062082E+02  0.65141115171E+02  0.66258873281E+02  0.10566000000E+00 0. -1.
        994    1    1    2    0    0 -0.83885307701E+01  0.11061256020E+02  0.17279972438E+01  0.17177061683E+03  0.17120000000E+03 0.  0.
        998    1    1    2    0    0  0.36835729485E+01  0.10680606236E+00  0.14331308839E+04  0.14331705099E+04  0.10000000000E+02 0. -1.
</event>
<event>
 5    1  0.1572996E-008  0.3775377E+03  0.7957747E-01  0.3461950E+00
         13   -1    0    0    0    0  0.00000000000E+00  0.00000000000E+00  0.14999999963E+04  0.15000000000E+04  0.10566000000E+00 0. -1.
        994   -1    0    0    0    0 -0.00000000000E+00 -0.00000000000E+00  0.11368683772E-12  0.17120000000E+03  0.17120000000E+03 0.  0.
         13    1    1    2    0    0  0.55884176382E+01  0.10137387296E+02  0.99227135137E+01  0.15246915767E+02  0.10566000000E+00 0. -1.
        994    1    1    2    0    0 -0.74504537420E+01 -0.11230155656E+02  0.59936512941E+01  0.17183419192E+03  0.17120000000E+03 0.  0.
        998    1    1    2    0    0  0.18620361038E+01  0.10927683600E+01  0.14840836315E+04  0.14841188923E+04  0.10000000000E+02 0. -1.
</event>
<event>
 5    1  0.1572996E-008  0.3691226E+03  0.7957747E-01  0.3499933E+00
         13   -1    0    0    0    0  0.00000000000E+00  0.00000000000E+00  0.14999999963E+04  0.15000000000E+04  0.10566000000E+00 0. -1.
        994   -1    0    0    0    0 -0.00000000000E+00 -0.00000000000E+00  0.11368683772E-12  0.17120000000E+03  0.17120000000E+03 0.  0.
         13    1    1    2    0    0 -0.10829690843E+02  0.17053673949E+02  0.16573885327E+02  0.26130725933E+02  0.10566000000E+00 0. -1.
        994    1    1    2    0    0  0.12733592761E+02 -0.15294196294E+02  0.11103174856E+02  0.17271009616E+03  0.17120000000E+03 0.  0.
        998    1    1    2    0    0 -0.19039019188E+01 -0.17594776553E+01  0.14723229361E+04  0.14723591779E+04  0.10000000000E+02 0. -1.
</event>
<event>
 5    1  0.1572996E-008  0.3839080E+03  0.7957747E-01  0.3434317E+00
         13   -1    0    0    0    0  0.00000000000E+00  0.00000000000E+00  0.14999999963E+04  0.15000000000E+04  0.10566000000E+00 0. -1.
        994   -1    0    0    0    0 -0.00000000000E+00 -0.00000000000E+00  0.11368683772E-12  0.17120000000E+03  0.17120000000E+03 0.  0.
         13    1    1    2    0    0 -0.40385977850E+01 -0.28333894108E+02  0.17096257512E+03  0.17334166575E+03  0.10566000000E+00 0. -1.
        994    1    1    2    0    0  0.17347378989E+01  0.27630872946E+02  0.47069857353E+01  0.17348795396E+03  0.17120000000E+03 0.  0.
        998    1    1    2    0    0  0.23038598861E+01  0.70302116194E+00  0.13243304354E+04  0.13243703803E+04  0.10000000000E+02 0.  1.
</event>
<event>
 5    1  0.1572996E-008  0.3750214E+03  0.7957747E-01  0.3473127E+00
         13   -1    0    0    0    0  0.00000000000E+00  0.00000000000E+00  0.14999999963E+04  0.15000000000E+04  0.10566000000E+00 0.  1.
        994   -1    0    0    0    0 -0.00000000000E+00 -0.00000000000E+00  0.11368683772E-12  0.17120000000E+03  0.17120000000E+03 0.  0.
         13    1    1    2    0    0 -0.90037065323E+01 -0.36543861913E+02  0.12176595655E+03  0.12744991139E+03  0.10566000000E+00 0.  1.
        994    1    1    2    0    0 -0.11462490873E+02 -0.83513341771E+01  0.73516793352E+01  0.17194365551E+03  0.17120000000E+03 0.  0.
        998    1    1    2    0    0  0.20466197406E+02  0.44895196090E+02  0.13708823604E+04  0.13718064331E+04  0.10000000000E+02 0.  1.
</event>
<event>
 5    1  0.1572996E-008  0.3856573E+03  0.7957747E-01  0.3426889E+00
         13   -1    0    0    0    0  0.00000000000E+00  0.00000000000E+00  0.14999999963E+04  0.15000000000E+04  0.10566000000E+00 0. -1.
        994   -1    0    0    0    0 -0.00000000000E+00 -0.00000000000E+00  0.11368683772E-12  0.17120000000E+03  0.17120000000E+03 0.  0.
         13    1    1    2    0    0  0.10981421499E+02 -0.37731864656E+01  0.51839478482E+02  0.53124111734E+02  0.10566000000E+00 0. -1.
        994    1    1    2    0    0 -0.10405858104E+02 -0.42951928756E+01  0.17201616740E+01  0.17157834805E+03  0.17120000000E+03 0.  0.
        998    1    1    2    0    0 -0.57556339450E+00  0.80683793411E+01  0.14464403561E+04  0.14464975402E+04  0.10000000000E+02 0. -1.
</event>
<event>
 5    1  0.1572996E-008  0.3835186E+03  0.7957747E-01  0.3435979E+00
         13   -1    0    0    0    0  0.00000000000E+00  0.00000000000E+00  0.14999999963E+04  0.15000000000E+04  0.10566000000E+00 0. -1.
        994   -1    0    0    0    0 -0.00000000000E+00 -0.00000000000E+00  0.11368683772E-12  0.17120000000E+03  0.17120000000E+03 0.  0.
         13    1    1    2    0    0 -0.36838745448E+01  0.20252274262E+02  0.86361098457E+02  0.88780493551E+02  0.10566000000E+00 0. -1.
        994    1    1    2    0    0  0.70662884228E+00 -0.17914024056E+02  0.34302451573E+01  0.17217031731E+03  0.17120000000E+03 0.  0.
        998    1    1    2    0    0  0.29772457026E+01 -0.23382502056E+01  0.14102086527E+04  0.14102491891E+04  0.10000000000E+02 0. -1.
</event>
<event>
 5    1  0.1572996E-008  0.3824145E+03  0.7957747E-01  0.3440712E+00
         13   -1    0    0    0    0  0.00000000000E+00  0.00000000000E+00  0.14999999963E+04  0.15000000000E+04  0.10566000000E+00 0.  1.
        994   -1    0    0    0    0 -0.00000000000E+00 -0.00000000000E+00  0.11368683772E-12  0.17120000000E+03  0.17120000000E+03 0.  0.
         13    1    1    2    0    0 -0.27292257735E+02 -0.97474264923E+01  0.17275289941E+03  0.17516693488E+03  0.10566000000E+00 0.  1.
        994    1    1    2    0    0 -0.66951875935E+01  0.19419164020E+01  0.30804410123E+01  0.17136955883E+03  0.17120000000E+03 0.  0.
        998    1    1    2    0    0  0.33987445328E+02  0.78055100903E+01  0.13241666559E+04  0.13246635063E+04  0.10000000000E+02 0.  1.
</event>
<event>
 5    1  0.1572996E-008  0.3816962E+03  0.7957747E-01  0.3443806E+00
         13   -1    0    0    0    0  0.00000000000E+00  0.00000000000E+00  0.14999999963E+04  0.15000000000E+04  0.10566000000E+00 0.  1.
        994   -1    0    0    0    0 -0.00000000000E+00 -0.00000000000E+00  0.11368683772E-12  0.17120000000E+03  0.17120000000E+03 0.  0.
         13    1    1    2    0    0 -0.21534950780E+02 -0.11885321893E+01  0.70657642927E+02  0.73876115098E+02  0.10566000000E+00 0.  1.
        994    1    1    2    0    0  0.11669696012E+02 -0.68306103766E+01  0.38873907826E+01  0.17177715462E+03  0.17120000000E+03 0.  0.
        998    1    1    2    0    0  0.98652547677E+01  0.80191425659E+01  0.14254549626E+04  0.14255467303E+04  0.10000000000E+02 0.  0.
</event>
<event>
 5    1  0.1572996E-008  0.3711521E+03  0.7957747E-01  0.3490613E+00
         13   -1    0    0    0    0  0.00000000000E+00  0.00000000000E+00  0.14999999963E+04  0.15000000000E+04  0.10566000000E+00 0. -1.
        994   -1    0    0    0    0 -0.00000000000E+00 -0.00000000000E+00  0.11368683772E-12  0.17120000000E+03  0.17120000000E+03 0.  0.
         13    1    1    2    0    0  0.98832558170E+01  0.38367918024E+02  0.65888669364E+02  0.76883703043E+02  0.10566000000E+00 0. -1.
        994    1    1    2    0    0 -0.44778621160E+02 -0.35217233407E+01  0.18664826610E+02  0.17797568149E+03  0.17120000000E+03 0.  0.
        998    1    1    2    0    0  0.34895365343E+02 -0.34846194683E+02  0.14154465003E+04  0.14163406155E+04  0.10000000000E+02 0. -1.
</event>
<event>
 5    1  0.1572996E-008  0.3744398E+03  0.7957747E-01  0.3475732E+00
         13   -1    0    0    0    0  0.00000000000E+00  0.00000000000E+00  0.14999999963E+04  0.15000000000E+04  0.10566000000E+00 0.  1.
        994   -1    0    0    0    0 -0.00000000000E+00 -0.00000000000E+00  0.11368683772E-12  0.17120000000E+03  0.17120000000E+03 0.  0.
         13    1    1    2    0    0  0.12367898404E+02  0.29618938496E+02  0.70058871917E+02  0.77061683909E+02  0.10566000000E+00 0.  1.
        994    1    1    2    0    0 -0.23051788173E+02 -0.18084973483E+02  0.98957829541E+01  0.17397073813E+03  0.17120000000E+03 0.  0.
        998    1    1    2    0    0  0.10683889770E+02 -0.11533965013E+02  0.14200453414E+04  0.14201675780E+04  0.10000000000E+02 0.  1.
</event>
<event>
 5    1  0.1572996E-008  0.3734408E+03  0.7957747E-01  0.3480226E+00
         13   -1    0    0    0    0  0.00000000000E+00  0.00000000000E+00  0.14999999963E+04  0.15000000000E+04  0.10566000000E+00 0. -1.
        994   -1    0    0    0    0 -0.00000000000E+00 -0.00000000000E+00  0.11368683772E-12  0.17120000000E+03  0.17120000000E+03 0.  0.
         13    1    1    2    0    0  0.25152573460E+02  0.47861563062E+02  0.19663296888E+03  0.20393115697E+03  0.10566000000E+00 0. -1.
        994    1    1    2    0    0  0.73505155787E+01 -0.36236156348E+02  0.12167540239E+02  0.17556929726E+03  0.17120000000E+03 0.  0.
        998    1    1    2    0    0 -0.32503089039E+02 -0.11625406714E+02  0.12911994872E+04  0.12916995458E+04  0.10000000000E+02 0. -1.
</event>
<event>
 5    1  0.1572996E-008  0.3816491E+03  0.7957747E-01  0.3444009E+00
         13   -1    0    0    0    0  0.00000000000E+00  0.00000000000E+00  0.14999999963E+04  0.15000000000E+04  0.10566000000E+00 0. -1.
        994   -1    0    0    0    0 -0.00000000000E+00 -0.00000000000E+00  0.11368683772E-12  0.17120000000E+03  0.17120000000E+03 0.  0.
         13    1    1    2    0    0  0.75419603935E+01 -0.27226496306E+02  0.11479412916E+03  0.11821956911E+03  0.10566000000E+00 0. -1.
        994    1    1    2    0    0 -0.13901028446E+02  0.21154597431E+02  0.54362977084E+01  0.17314661105E+03  0.17120000000E+03 0.  0.
        998    1    1    2    0    0  0.63590680526E+01  0.60718988741E+01  0.13797695694E+04  0.13798338198E+04  0.10000000000E+02 0. -1.
</event>
<event>
 5    1  0.1572996E-008  0.3816516E+03  0.7957747E-01  0.3443998E+00
         13   -1    0    0    0    0  0.00000000000E+00  0.00000000000E+00  0.14999999963E+04  0.15000000000E+04  0.10566000000E+00 0. -1.
        994   -1    0    0    0    0 -0.00000000000E+00 -0.00000000000E+00  0.11368683772E-12  0.17120000000E+03  0.17120000000E+03 0.  0.
         13    1    1    2    0    0  0.30382503169E+02  0.55333169239E+01  0.16995370274E+03  0.17273675444E+03  0.10566000000E+00 0. -1.
        994    1    1    2    0    0  0.28201052497E+01  0.56941754050E+01  0.34359891863E+01  0.17135233482E+03  0.17120000000E+03 0.  0.
        998    1    1    2    0    0 -0.33202608419E+02 -0.11227492329E+02  0.13266103044E+04  0.13271109107E+04  0.10000000000E+02 0. -1.
</event>
<event>
 5    1  0.1572996E-008  0.3838723E+03  0.7957747E-01  0.3434469E+00
         13   -1    0    0    0    0  0.00000000000E+00  0.00000000000E+00  0.14999999963E+04  0.15000000000E+04  0.10566000000E+00 0.  1.
        994   -1    0    0    0    0 -0.00000000000E+00 -0.00000000000E+00  0.11368683772E-12  0.17120000000E+03  0.17120000000E+03 0.  0.
         13    1    1    2    0    0 -0.24116042640E+02 -0.15321949677E+02  0.15649930675E+03  0.15908610823E+03  0.10566000000E+00 0.  1.
        994    1    1    2    0    0  0.20863294649E+02  0.38652768056E+02  0.85853501682E+01  0.17695327570E+03  0.17120000000E+03 0.  0.
        998    1    1    2    0    0  0.32527479911E+01 -0.23330818379E+02  0.13349153394E+04  0.13351606161E+04  0.10000000000E+02 0.  1.
</event>
<event>
 5    1  0.1572996E-008  0.3714661E+03  0.7957747E-01  0.3489180E+00
         13   -1    0    0    0    0  0.00000000000E+00  0.00000000000E+00  0.14999999963E+04  0.15000000000E+04  0.10566000000E+00 0.  1.
        994   -1    0    0    0    0 -0.00000000000E+00 -0.00000000000E+00  0.11368683772E-12  0.17120000000E+03  0.17120000000E+03 0.  0.
         13    1    1    2    0    0 -0.23789035827E+02  0.49886641123E+02  0.11750370944E+03  0.12985271689E+03  0.10566000000E+00 0.  1.
        994    1    1    2    0    0  0.31352833233E+02 -0.45252805676E+02  0.22443772183E+02  0.18122908013E+03  0.17120000000E+03 0.  0.
        998    1    1    2    0    0 -0.75637974063E+01 -0.46338354468E+01  0.13600525147E+04  0.13601182030E+04  0.10000000000E+02 0.  1.
</event>
<event>
 5    1  0.1572996E-008  0.3817393E+03  0.7957747E-01  0.3443620E+00
         13   -1    0    0    0    0  0.00000000000E+00  0.00000000000E+00  0.14999999963E+04  0.15000000000E+04  0.10566000000E+00 0. -1.
        994   -1    0    0    0    0 -0.00000000000E+00 -0.00000000000E+00  0.11368683772E-12  0.17120000000E+03  0.17120000000E+03 0.  0.
         13    1    1    2    0    0  0.70608945806E+01  0.10730429882E+02  0.23614489777E+02  0.26882218085E+02  0.10566000000E+00 0. -1.
        994    1    1    2    0    0 -0.64029347452E+01 -0.13721646229E+02  0.40202058438E+01  0.17191533731E+03  0.17120000000E+03 0.  0.
        998    1    1    2    0    0 -0.65795983546E+00  0.29912163470E+01  0.14723653007E+04  0.14724024446E+04  0.10000000000E+02 0. -1.
</event>
<event>
 5    1  0.1572996E-008  0.3839388E+03  0.7957747E-01  0.3434185E+00
         13   -1    0    0    0    0  0.00000000000E+00  0.00000000000E+00  0.14999999963E+04  0.15000000000E+04  0.10566000000E+00 0. -1.
        994   -1    0    0    0    0 -0.00000000000E+00 -0.00000000000E+00  0.11368683772E-12  0.17120000000E+03  0.17120000000E+03 0.  0.
         13    1    1    2    0    0  0.11855027815E+02  0.19294673446E+01  0.32703904599E+02  0.34839934971E+02  0.10566000000E+00 0. -1.
        994    1    1    2    0    0 -0.93467730474E+01  0.20906532417E+00  0.24464042990E+01  0.17147253649E+03  0.17120000000E+03 0.  0.
        998    1    1    2    0    0 -0.25082547673E+01 -0.21385326688E+01  0.14648496874E+04  0.14648875285E+04  0.10000000000E+02 0. -1.
</event>
<event>
 5    1  0.1572996E-008  0.3863136E+03  0.7957747E-01  0.3424120E+00
         13   -1    0    0    0    0  0.00000000000E+00  0.00000000000E+00  0.14999999963E+04  0.15000000000E+04  0.10566000000E+00 0. -1.
        994   -1    0    0    0    0 -0.00000000000E+00 -0.00000000000E+00  0.11368683772E-12  0.17120000000E+03  0.17120000000E+03 0.  0.
         13    1    1    2    0    0  0.32477237916E+02  0.66815490362E+02  0.11935799656E+03  0.14058955595E+03  0.10566000000E+00 0. -1.
        994    1    1    2    0    0 -0.53348207900E+02 -0.65014599821E+02  0.46580387158E+02  0.19634689186E+03  0.17120000000E+03 0.  0.
        998    1    1    2    0    0  0.20870969984E+02 -0.18008905416E+01  0.13340616126E+04  0.13342635522E+04  0.10000000000E+02 0. -1.
</event>
<event>
 5    1  0.1572996E-008  0.3847959E+03  0.7957747E-01  0.3430538E+00
         13   -1    0    0    0    0  0.00000000000E+00  0.00000000000E+00  0.14999999963E+04  0.15000000000E+04  0.10566000000E+00 0. -1.
        994   -1    0    0    0    0 -0.00000000000E+00 -0.00000000000E+00  0.11368683772E-12  0.17120000000E+03  0.17120000000E+03 0.  0.
         13    1    1    2    0    0 -0.77020870225E+01 -0.17386897292E+02  0.10139339383E+03  0.10316131939E+03  0.10566000000E+00 0. -1.
        994    1    1    2    0    0  0.44695880770E+01  0.15349950189E+02  0.25730866022E+01  0.17196412115E+03  0.17120000000E+03 0.  0.
        998    1    1    2    0    0  0.32324989455E+01  0.20369471028E+01  0.13960335158E+04  0.13960745595E+04  0.10000000000E+02 0. -1.
</event>
<event>
 5    1  0.1572996E-008  0.3846943E+03  0.7957747E-01  0.3430970E+00
         13   -1    0    0    0    0  0.00000000000E+00  0.00000000000E+00  0.14999999963E+04  0.15000000000E+04  0.10566000000E+00 0.  1.
        994   -1    0    0    0    0 -0.00000000000E+00 -0.00000000000E+00  0.11368683772E-12  0.17120000000E+03  0.17120000000E+03 0.  0.
         13    1    1    2    0    0 -0.36103598433E+01  0.12612879466E+02  0.46796018259E+02  0.48600390076E+02  0.10566000000E+00 0.  1.
        994    1    1    2    0    0  0.24995555074E+01 -0.13878701132E+02  0.24369128670E+01  0.17179710320E+03  0.17120000000E+03 0.  0.
        998    1    1    2    0    0  0.11108043359E+01  0.12658216659E+01  0.14507670652E+04  0.14508025067E+04  0.10000000000E+02 0.  1.
</event>
<event>
 5    1  0.1572996E-008  0.3711057E+03  0.7957747E-01  0.3490825E+00
         13   -1    0    0    0    0  0.00000000000E+00  0.00000000000E+00  0.14999999963E+04  0.15000000000E+04  0.10566000000E+00 0. -1.
        994   -1    0    0    0    0 -0.00000000000E+00 -0.00000000000E+00  0.11368683772E-12  0.17120000000E+03  0.17120000000E+03 0.  0.
         13    1    1    2    0    0 -0.55897910419E+02 -0.71555044485E+02  0.51862341280E+03  0.52651206657E+03  0.10566000000E+00 0. -1.
        994    1    1    2    0    0  0.20848060895E+02  0.38333447398E+02  0.15279614173E+02  0.17733302411E+03  0.17120000000E+03 0.  0.
        998    1    1    2    0    0  0.35049849524E+02  0.33221597087E+02  0.96609696931E+03  0.96735490931E+03  0.10000000000E+02 0.  1.
</event>
<event>
 5    1  0.1572996E-008  0.3807339E+03  0.7957747E-01  0.3447969E+00
         13   -1    0    0    0    0  0.00000000000E+00  0.00000000000E+00  0.14999999963E+04  0.15000000000E+04  0.10566000000E+00 0. -1.
        994   -1    0    0    0    0 -0.00000000000E+00 -0.00000000000E+00  0.11368683772E-12  0.17120000000E+03  0.17120000000E+03 0.  0.
         13    1    1    2    0    0 -0.97419051088E+01 -0.26343680979E+01  0.11939284040E+02  0.15633370649E+02  0.10566000000E+00 0. -1.
        994    1    1    2    0    0  0.60157950137E+01  0.34370885349E+00  0.38842535549E+01  0.17135003750E+03  0.17120000000E+03 0.  0.
        998    1    1    2    0    0  0.37261100951E+01  0.22906592444E+01  0.14841764587E+04  0.14842165919E+04  0.10000000000E+02 0. -1.
</event>
<event>
 5    1  0.1572996E-008  0.3859226E+03  0.7957747E-01  0.3425769E+00
         13   -1    0    0    0    0  0.00000000000E+00  0.00000000000E+00  0.14999999963E+04  0.15000000000E+04  0.10566000000E+00 0. -1.
        994   -1    0    0    0    0 -0.00000000000E+00 -0.00000000000E+00  0.11368683772E-12  0.17120000000E+03  0.17120000000E+03 0.  0.
         13    1    1    2    0    0  0.60524381125E+00  0.12636156243E+02  0.64790785875E+02  0.66014361036E+02  0.10566000000E+00 0. -1.
        994    1    1    2    0    0 -0.15060522785E+01 -0.16849121360E+02  0.21116156973E+01  0.17204667973E+03  0.17120000000E+03 0.  0.
        998    1    1    2    0    0  0.90080846722E+00  0.42129651172E+01  0.14330975947E+04  0.14331389592E+04  0.10000000000E+02 0. -1.
</event>
<event>
 5    1  0.1572996E-008  0.3854914E+03  0.7957747E-01  0.3427591E+00
         13   -1    0    0    0    0  0.00000000000E+00  0.00000000000E+00  0.14999999963E+04  0.15000000000E+04  0.10566000000E+00 0.  1.
        994   -1    0    0    0    0 -0.00000000000E+00 -0.00000000000E+00  0.11368683772E-12  0.17120000000E+03  0.17120000000E+03 0.  0.
         13    1    1    2    0    0 -0.13488586177E+02  0.27419685493E+00  0.63259540348E+02  0.64682283123E+02  0.10566000000E+00 0.  1.
        994    1    1    2    0    0  0.15264436593E+02  0.20471264955E+01  0.21655528933E+01  0.17190498355E+03  0.17120000000E+03 0.  0.
        998    1    1    2    0    0 -0.17758504166E+01 -0.23213233505E+01  0.14345749030E+04  0.14346127333E+04  0.10000000000E+02 0.  1.
</event>
<event>
 5    1  0.1572996E-008  0.3840131E+03  0.7957747E-01  0.3433869E+00
         13   -1    0    0    0    0  0.00000000000E+00  0.00000000000E+00  0.14999999963E+04  0.15000000000E+04  0.10566000000E+00 0. -1.
        994   -1    0    0    0    0 -0.00000000000E+00 -0.00000000000E+00  0.11368683772E-12  0.17120000000E+03  0.17120000000E+03 0.  0.
         13    1    1    2    0    0 -0.84628839699E+01 -0.22678243615E+02  0.13754750558E+03  0.13966119931E+03  0.10566000000E+00 0. -1.
        994    1    1    2    0    0  0.77874123853E+01  0.12978163798E+02  0.28770441304E+01  0.17189180873E+03  0.17120000000E+03 0.  0.
        998    1    1    2    0    0  0.67547158464E+00  0.97000798171E+01  0.13595754466E+04  0.13596469920E+04  0.10000000000E+02 0. -1.
</event>
<event>
 5    1  0.1572996E-008  0.3740923E+03  0.7957747E-01  0.3477292E+00
         13   -1    0    0    0    0  0.00000000000E+00  0.00000000000E+00  0.14999999963E+04  0.15000000000E+04  0.10566000000E+00 0. -1.
        994   -1    0    0    0    0 -0.00000000000E+00 -0.00000000000E+00  0.11368683772E-12  0.17120000000E+03  0.17120000000E+03 0.  0.
         13    1    1    2    0    0 -0.16662671336E+02 -0.97734777625E+01  0.23093231119E+02  0.30107706176E+02  0.10566000000E+00 0. -1.
        994    1    1    2    0    0  0.15837641223E+02 -0.44540907346E+00  0.80019808472E+01  0.17211769510E+03  0.17120000000E+03 0.  0.
        998    1    1    2    0    0  0.82503011289E+00  0.10218886836E+02  0.14689047843E+04  0.14689745987E+04  0.10000000000E+02 0. -1.
</event>
<event>
 5    1  0.1572996E-008  0.3740486E+03  0.7957747E-01  0.3477489E+00
         13   -1    0    0    0    0  0.00000000000E+00  0.00000000000E+00  0.14999999963E+04  0.15000000000E+04  0.10566000000E+00 0.  1.
        994   -1    0    0    0    0 -0.00000000000E+00 -0.00000000000E+00  0.11368683772E-12  0.17120000000E+03  0.17120000000E+03 0.  0.
         13    1    1    2    0    0 -0.44934927948E+02 -0.34294503809E+02  0.26703349558E+03  0.27295083746E+03  0.10566000000E+00 0.  1.
        994    1    1    2    0    0  0.14520955840E+02 -0.96774409505E+01  0.82071913221E+01  0.17228264280E+03  0.17120000000E+03 0.  0.
        998    1    1    2    0    0  0.30413972109E+02  0.43971944760E+02  0.12247593094E+04  0.12259665197E+04  0.10000000000E+02 0.  1.
</event>
<event>
 5    1  0.1572996E-008  0.3803284E+03  0.7957747E-01  0.3449730E+00
         13   -1    0    0    0    0  0.00000000000E+00  0.00000000000E+00  0.14999999963E+04  0.15000000000E+04  0.10566000000E+00 0. -1.
        994   -1    0    0    0    0 -0.00000000000E+00 -0.00000000000E+00  0.11368683772E-12  0.17120000000E+03  0.17120000000E+03 0.  0.
         13    1    1    2    0    0 -0.18842502769E+02  0.18927517991E+01  0.44792036542E+02  0.48630855653E+02  0.10566000000E+00 0. -1.
        994    1    1    2    0    0  0.66455454447E+01  0.81691220089E+01  0.43378517710E+01  0.17157842168E+03  0.17120000000E+03 0.  0.
        998    1    1    2    0    0  0.12196957324E+02 -0.10061873808E+02  0.14508701080E+04  0.14509907227E+04  0.10000000000E+02 0. -1.
</event>
<event>
 5    1  0.1572996E-008  0.3762052E+03  0.7957747E-01  0.3467850E+00
         13   -1    0    0    0    0  0.00000000000E+00  0.00000000000E+00  0.14999999963E+04  0.15000000000E+04  0.10566000000E+00 0. -1.
        994   -1    0    0    0    0 -0.00000000000E+00 -0.00000000000E+00  0.11368683772E-12  0.17120000000E+03  0.17120000000E+03 0.  0.
         13    1    1    2    0    0 -0.46886045251E+02 -0.83047060518E+02  0.48268829481E+03  0.49201942706E+03  0.10566000000E+00 0. -1.
        994    1    1    2    0    0  0.55849964428E+02  0.81639634068E+02  0.39939100966E+02  0.20171469992E+03  0.17120000000E+03 0.  0.
        998    1    1    2    0    0 -0.89639191767E+01  0.14074264503E+01  0.97737260051E+03  0.97746587302E+03  0.10000000000E+02 0.  0.
</event>
<event>
 5    1  0.1572996E-008  0.3838044E+03  0.7957747E-01  0.3434759E+00
         13   -1    0    0    0    0  0.00000000000E+00  0.00000000000E+00  0.14999999963E+04  0.15000000000E+04  0.10566000000E+00 0. -1.
        994   -1    0    0    0    0 -0.00000000000E+00 -0.00000000000E+00  0.11368683772E-12  0.17120000000E+03  0.17120000000E+03 0.  0.
         13    1    1    2    0    0 -0.34888939740E+00  0.20614327770E+02  0.97322312852E+02  0.99482239501E+02  0.10566000000E+00 0. -1.
        994    1    1    2    0    0  0.18705003336E+01 -0.93908700971E+01  0.25276390506E+01  0.17148619820E+03  0.17120000000E+03 0.  0.
        998    1    1    2    0    0 -0.15216109362E+01 -0.11223457673E+02  0.14001500444E+04  0.14002315623E+04  0.10000000000E+02 0. -1.
</event>
<event>
 5    1  0.1572996E-008  0.3709217E+03  0.7957747E-01  0.3491666E+00
         13   -1    0    0    0    0  0.00000000000E+00  0.00000000000E+00  0.14999999963E+04  0.15000000000E+04  0.10566000000E+00 0.  1.
        994   -1    0    0    0    0 -0.00000000000E+00 -0.00000000000E+00  0.11368683772E-12  0.17120000000E+03  0.17120000000E+03 0.  0.
         13    1    1    2    0    0  0.18354784878E+01 -0.19421513194E+02  0.18305017825E+02  0.26751616729E+02  0.10566000000E+00 0.  1.
        994    1    1    2    0    0  0.21414724056E+02  0.50985111653E+01  0.10460093489E+02  0.17292610786E+03  0.17120000000E+03 0.  0.
        998    1    1    2    0    0 -0.23250202544E+02  0.14323002028E+02  0.14712348850E+04  0.14715222754E+04  0.10000000000E+02 0.  1.
</event>
<event>
 5    1  0.1572996E-008  0.3816023E+03  0.7957747E-01  0.3444211E+00
         13   -1    0    0    0    0  0.00000000000E+00  0.00000000000E+00  0.14999999963E+04  0.15000000000E+04  0.10566000000E+00 0. -1.
        994   -1    0    0    0    0 -0.00000000000E+00 -0.00000000000E+00  0.11368683772E-12  0.17120000000E+03  0.17120000000E+03 0.  0.
         13    1    1    2    0    0 -0.77198152129E+01  0.48233056687E+02  0.27003074206E+03  0.27441325792E+03  0.10566000000E+00 0. -1.
        994    1    1    2    0    0 -0.17001022249E+02 -0.63238800668E+02  0.17719675825E+02  0.18415104555E+03  0.17120000000E+03 0.  0.
        998    1    1    2    0    0  0.24720837462E+02  0.15005743981E+02  0.12122495784E+04  0.12126356965E+04  0.10000000000E+02 0. -1.
</event>
<event>
 5    1  0.1572996E-008  0.3857292E+03  0.7957747E-01  0.3426586E+00
         13   -1    0    0    0    0  0.00000000000E+00  0.00000000000E+00  0.14999999963E+04  0.15000000000E+04  0.10566000000E+00 0. -1.
        994   -1    0    0    0    0 -0.00000000000E+00 -0.00000000000E+00  0.11368683772E-12  0.17120000000E+03  0.17120000000E+03 0.  0.
         13    1    1    2    0    0 -0.11197758072E+02 -0.77687561920E+01  0.70794156857E+02  0.72094154879E+02  0.10566000000E+00 0. -1.
        994    1    1    2    0    0  0.12478832067E+02  0.75953978528E+01  0.19690443477E+01  0.17183343229E+03  0.17120000000E+03 0.  0.
        998    1    1    2    0    0 -0.12810739951E+01  0.17335833915E+00  0.14272367951E+04  0.14272724128E+04  0.10000000000E+02 0. -1.
</event>
<event>
 5    1  0.1572996E-008  0.3821926E+03  0.7957747E-01  0.3441667E+00
         13   -1    0    0    0    0  0.00000000000E+00  0.00000000000E+00  0.14999999963E+04  0.15000000000E+04  0.10566000000E+00 0.  1.
        994   -1    0    0    0    0 -0.00000000000E+00 -0.00000000000E+00  0.11368683772E-12  0.17120000000E+03  0.17120000000E+03 0.  0.
         13    1    1    2    0    0  0.17752014640E+02  0.22351702134E+02  0.13156145384E+03  0.13462228609E+03  0.10566000000E+00 0.  1.
        994    1    1    2    0    0 -0.19478566073E+02 -0.92282599859E+01  0.45738108654E+01  0.17261209420E+03  0.17120000000E+03 0.  0.
        998    1    1    2    0    0  0.17265514326E+01 -0.13123442148E+02  0.13638647316E+04  0.13639656197E+04  0.10000000000E+02 0.  1.
</event>
<event>
 5    1  0.1572996E-008  0.3816491E+03  0.7957747E-01  0.3444009E+00
         13   -1    0    0    0    0  0.00000000000E+00  0.00000000000E+00  0.14999999963E+04  0.15000000000E+04  0.10566000000E+00 0. -1.
        994   -1    0    0    0    0 -0.00000000000E+00 -0.00000000000E+00  0.11368683772E-12  0.17120000000E+03  0.17120000000E+03 0.  0.
         13    1    1    2    0    0 -0.11842108737E+02  0.14061597504E+02  0.55046090697E+02  0.58034880277E+02  0.10566000000E+00 0. -1.
        994    1    1    2    0    0 -0.24505436736E+02 -0.77212873419E+01  0.55009036063E+01  0.17320460343E+03  0.17120000000E+03 0.  0.
        998    1    1    2    0    0  0.36347545473E+02 -0.63403101625E+01  0.14394530020E+04  0.14399605163E+04  0.10000000000E+02 0. -1.
</event>
<event>
 5    1  0.1572996E-008  0.3760373E+03  0.7957747E-01  0.3468597E+00
         13   -1    0    0    0    0  0.00000000000E+00  0.00000000000E+00  0.14999999963E+04  0.15000000000E+04  0.10566000000E+00 0. -1.
        994   -1    0    0    0    0 -0.00000000000E+00 -0.00000000000E+00  0.11368683772E-12  0.17120000000E+03  0.17120000000E+03 0.  0.
         13    1    1    2    0    0 -0.36439838915E+02 -0.56863178110E+02  0.32493090593E+03  0.33187556053E+03  0.10566000000E+00 0. -1.
        994    1    1    2    0    0  0.28037573248E+02  0.46451951872E+02  0.16184959631E+02  0.18031994417E+03  0.17120000000E+03 0.  0.
        998    1    1    2    0    0  0.84022656668E+01  0.10411226238E+02  0.11588841307E+04  0.11590044953E+04  0.10000000000E+02 0. -1.
</event>
<event>
 5    1  0.1572996E-008  0.3738285E+03  0.7957747E-01  0.3478479E+00
         13   -1    0    0    0    0  0.00000000000E+00  0.00000000000E+00  0.14999999963E+04  0.15000000000E+04  0.10566000000E+00 0. -1.
        994   -1    0    0    0    0 -0.00000000000E+00 -0.00000000000E+00  0.11368683772E-12  0.17120000000E+03  0.17120000000E+03 0.  0.
         13    1    1    2    0    0 -0.84954850186E+02  0.18508676577E+03  0.91060264794E+03  0.93309786787E+03  0.10566000000E+00 0. -1.
        994    1    1    2    0    0  0.13461712347E+03 -0.17081135304E+03  0.19110262893E+03  0.33634497624E+03  0.17120000000E+03 0.  0.
        998    1    1    2    0    0 -0.49662273281E+02 -0.14275412732E+02  0.39829471941E+03  0.40175715588E+03  0.10000000000E+02 0. -1.
</event>
<event>
 5    1  0.1572996E-008  0.3750418E+03  0.7957747E-01  0.3473036E+00
         13   -1    0    0    0    0  0.00000000000E+00  0.00000000000E+00  0.14999999963E+04  0.15000000000E+04  0.10566000000E+00 0.  1.
        994   -1    0    0    0    0 -0.00000000000E+00 -0.00000000000E+00  0.11368683772E-12  0.17120000000E+03  0.17120000000E+03 0.  0.
         13    1    1    2    0    0  0.94994182983E+01  0.51040283711E+01  0.56214829841E+01  0.12161508484E+02  0.10566000000E+00 0.  1.
        994    1    1    2    0    0 -0.85023401131E+01 -0.83924530740E+01  0.71425032933E+01  0.17176489283E+03  0.17120000000E+03 0.  0.
        998    1    1    2    0    0 -0.99707818523E+00  0.32884247028E+01  0.14872360100E+04  0.14872735987E+04  0.10000000000E+02 0.  1.
</event>
<event>
 5    1  0.1572996E-008  0.3710044E+03  0.7957747E-01  0.3491287E+00
         13   -1    0    0    0    0  0.00000000000E+00  0.00000000000E+00  0.14999999963E+04  0.15000000000E+04  0.10566000000E+00 0.  1.
        994   -1    0    0    0    0 -0.00000000000E+00 -0.00000000000E+00  0.11368683772E-12  0.17120000000E+03  0.17120000000E+03 0.  0.
         13    1    1    2    0    0 -0.10320911764E+02  0.22367289382E+02  0.30450901931E+02  0.39167402854E+02  0.10566000000E+00 0.  1.
        994    1    1    2    0    0  0.52503711319E+01 -0.25595535838E+02  0.11100970543E+02  0.17353780395E+03  0.17120000000E+03 0.  0.
        998    1    1    2    0    0  0.50705406317E+01  0.32282464561E+01  0.14584481238E+04  0.14584947932E+04  0.10000000000E+02 0.  1.
</event>
<event>
 5    1  0.1572996E-008  0.3815852E+03  0.7957747E-01  0.3444285E+00
         13   -1    0    0    0    0  0.00000000000E+00  0.00000000000E+00  0.14999999963E+04  0.15000000000E+04  0.10566000000E+00 0.  1.
        994   -1    0    0    0    0 -0.00000000000E+00 -0.00000000000E+00  0.11368683772E-12  0.17120000000E+03  0.17120000000E+03 0.  0.
         13    1    1    2    0    0  0.39000031832E+01  0.19308202181E+02  0.58627011689E+02  0.61847832298E+02  0.10566000000E+00 0.  1.
        994    1    1    2    0    0 -0.10572308269E+02 -0.44810898198E+01  0.37736851566E+01  0.17162614768E+03  0.17120000000E+03 0.  0.
        998    1    1    2    0    0  0.66723050863E+01 -0.14827112362E+02  0.14375992994E+04  0.14377260200E+04  0.10000000000E+02 0.  1.
</event>
<event>
 5    1  0.1572996E-008  0.3774098E+03  0.7957747E-01  0.3462515E+00
         13   -1    0    0    0    0  0.00000000000E+00  0.00000000000E+00  0.14999999963E+04  0.15000000000E+04  0.10566000000E+00 0. -1.
        994   -1    0    0    0    0 -0.00000000000E+00 -0.00000000000E+00  0.11368683772E-12  0.17120000000E+03  0.17120000000E+03 0.  0.
         13    1    1    2    0    0  0.19048352649E+02 -0.36908282147E+02  0.15240146908E+03  0.15795974161E+03  0.10566000000E+00 0. -1.
        994    1    1    2    0    0 -0.24033061572E+02  0.20508661474E+02  0.88194639048E+01  0.17431413077E+03  0.17120000000E+03 0.  0.
        998    1    1    2    0    0  0.49847089232E+01  0.16399620673E+02  0.13387790633E+04  0.13389261276E+04  0.10000000000E+02 0. -1.
</event>
<event>
 5    1  0.1572996E-008  0.3731031E+03  0.7957747E-01  0.3481750E+00
         13   -1    0    0    0    0  0.00000000000E+00  0.00000000000E+00  0.14999999963E+04  0.15000000000E+04  0.10566000000E+00 0. -1.
        994   -1    0    0    0    0 -0.00000000000E+00 -0.00000000000E+00  0.11368683772E-12  0.17120000000E+03  0.17120000000E+03 0.  0.
         13    1    1    2    0    0 -0.20411797105E+02  0.12494951707E+02  0.33775146513E+02  0.41394890569E+02  0.10566000000E+00 0. -1.
        994    1    1    2    0    0  0.16798964538E+02 -0.14744960195E+02  0.93671988136E+01  0.17290692142E+03  0.17120000000E+03 0.  0.
        998    1    1    2    0    0  0.36128325668E+01  0.22500084889E+01  0.14568576510E+04  0.14568981880E+04  0.10000000000E+02 0. -1.
</event>
<event>
 5    1  0.1572996E-008  0.3740147E+03  0.7957747E-01  0.3477641E+00
         13   -1    0    0    0    0  0.00000000000E+00  0.00000000000E+00  0.14999999963E+04  0.15000000000E+04  0.10566000000E+00 0. -1.
        994   -1    0    0    0    0 -0.00000000000E+00 -0.00000000000E+00  0.11368683772E-12  0.17120000000E+03  0.17120000000E+03 0.  0.
         13    1    1    2    0    0  0.10453824283E+03  0.52516972150E+02  0.39404355887E+03  0.41104332379E+03  0.10566000000E+00 0. -1.
        994    1    1    2    0    0 -0.74457462346E+02 -0.10366320905E+03  0.73332495855E+02  0.22578102125E+03  0.17120000000E+03 0.  0.
        998    1    1    2    0    0 -0.30080780488E+02  0.51146236901E+02  0.10326239416E+04  0.10343756550E+04  0.10000000000E+02 0. -1.
</event>
<event>
 5    1  0.1572996E-008  0.3751218E+03  0.7957747E-01  0.3472678E+00
         13   -1    0    0    0    0  0.00000000000E+00  0.00000000000E+00  0.14999999963E+04  0.15000000000E+04  0.10566000000E+00 0.  1.
        994   -1    0    0    0    0 -0.00000000000E+00 -0.00000000000E+00  0.11368683772E-12  0.17120000000E+03  0.17120000000E+03 0.  0.
         13    1    1    2    0    0  0.26978572219E+02 -0.24899026255E+02  0.11045292181E+03  0.11639443272E+03  0.10566000000E+00 0.  1.
        994    1    1    2    0    0  0.45328095651E+01  0.36292986516E+01  0.67308029722E+01  0.17143063285E+03  0.17120000000E+03 0.  0.
        998    1    1    2    0    0 -0.31511381784E+02  0.21269727603E+02  0.13828162715E+04  0.13833749344E+04  0.10000000000E+02 0.  1.
</event>
<event>
 5    1  0.1572996E-008  0.3738481E+03  0.7957747E-01  0.3478391E+00
         13   -1    0    0    0    0  0.00000000000E+00  0.00000000000E+00  0.14999999963E+04  0.15000000000E+04  0.10566000000E+00 0. -1.
        994   -1    0    0    0    0 -0.00000000000E+00 -0.00000000000E+00  0.11368683772E-12  0.17120000000E+03  0.17120000000E+03 0.  0.
         13    1    1    2    0    0  0.24501899691E+02  0.56345439681E+02  0.22162468915E+03  0.22998405525E+03  0.10566000000E+00 0. -1.
        994    1    1    2    0    0 -0.12723574873E+02 -0.60403204621E+02  0.20387911587E+02  0.18312712367E+03  0.17120000000E+03 0.  0.
        998    1    1    2    0    0 -0.11778324818E+02  0.40577649401E+01  0.12579873955E+04  0.12580888211E+04  0.10000000000E+02 0. -1.
</event>
<event>
 5    1  0.1572996E-008  0.3776295E+03  0.7957747E-01  0.3461546E+00
         13   -1    0    0    0    0  0.00000000000E+00  0.00000000000E+00  0.14999999963E+04  0.15000000000E+04  0.10566000000E+00 0. -1.
        994   -1    0    0    0    0 -0.00000000000E+00 -0.00000000000E+00  0.11368683772E-12  0.17120000000E+03  0.17120000000E+03 0.  0.
         13    1    1    2    0    0  0.38916171232E+02  0.31676667927E+02  0.25157877184E+03  0.25653414836E+03  0.10566000000E+00 0. -1.
        994    1    1    2    0    0 -0.12008899483E+02 -0.15843957091E+02  0.66674096609E+01  0.17247938716E+03  0.17120000000E+03 0.  0.
        998    1    1    2    0    0 -0.26907271749E+02 -0.15832710835E+02  0.12417538148E+04  0.12421864645E+04  0.10000000000E+02 0. -1.
</event>
<event>
 5    1  0.1980504E-008  0.3857691E+03  0.7957747E-01  0.3426417E+00
         13   -1    0    0    0    0  0.00000000000E+00  0.00000000000E+00  0.14999999963E+04  0.15000000000E+04  0.10566000000E+00 0. -1.
        994   -1    0    0    0    0 -0.00000000000E+00 -0.00000000000E+00  0.11368683772E-12  0.17120000000E+03  0.17120000000E+03 0.  0.
         13    1    1    2    0    0 -0.57127695021E+01  0.84680848266E+01  0.41417286217E+02  0.42658492210E+02  0.10566000000E+00 0. -1.
        994    1    1    2    0    0  0.17115580877E+01 -0.10530743864E+02  0.16222586581E+01  0.17153978466E+03  0.17120000000E+03 0.  0.
        998    1    1    2    0    0  0.40012114144E+01  0.20626590375E+01  0.14569604514E+04  0.14570017231E+04  0.10000000000E+02 0. -1.
</event>
<event>
 5    1  0.1658816E-008  0.3859353E+03  0.7957747E-01  0.3425715E+00
         13   -1    0    0    0    0  0.00000000000E+00  0.00000000000E+00  0.14999999963E+04  0.15000000000E+04  0.10566000000E+00 0. -1.
        994   -1    0    0    0    0 -0.00000000000E+00 -0.00000000000E+00  0.11368683772E-12  0.17120000000E+03  0.17120000000E+03 0.  0.
         13    1    1    2    0    0  0.87295151751E+01 -0.78846452924E+01  0.58061113031E+02  0.59240831164E+02  0.10566000000E+00 0. -1.
        994    1    1    2    0    0 -0.84358245799E+01  0.92373701498E+01  0.16797499394E+01  0.17166465479E+03  0.17120000000E+03 0.  0.
        998    1    1    2    0    0 -0.29369059520E+00 -0.13527248574E+01  0.14402591333E+04  0.14402945140E+04  0.10000000000E+02 0. -1.
</event>
<event>
 5    1  0.1572996E-008  0.3778162E+03  0.7957747E-01  0.3460723E+00
         13   -1    0    0    0    0  0.00000000000E+00  0.00000000000E+00  0.14999999963E+04  0.15000000000E+04  0.10566000000E+00 0.  1.
        994   -1    0    0    0    0 -0.00000000000E+00 -0.00000000000E+00  0.11368683772E-12  0.17120000000E+03  0.17120000000E+03 0.  0.
         13    1    1    2    0    0  0.14688817058E+02  0.54766174621E+01  0.21394229666E+02  0.26523176892E+02  0.10566000000E+00 0.  1.
        994    1    1    2    0    0 -0.10716841497E+02  0.55994493762E+01  0.57320525482E+01  0.17172216209E+03  0.17120000000E+03 0.  0.
        998    1    1    2    0    0 -0.39719755608E+01 -0.11076066838E+02  0.14728737141E+04  0.14729546610E+04  0.10000000000E+02 0.  1.
</event>
<event>
 5    1  0.1572996E-008  0.3693805E+03  0.7957747E-01  0.3498743E+00
         13   -1    0    0    0    0  0.00000000000E+00  0.00000000000E+00  0.14999999963E+04  0.15000000000E+04  0.10566000000E+00 0.  1.
        994   -1    0    0    0    0 -0.00000000000E+00 -0.00000000000E+00  0.11368683772E-12  0.17120000000E+03  0.17120000000E+03 0.  0.
         13    1    1    2    0    0  0.21310767878E+02 -0.85903737580E+01  0.23046640482E+02  0.32543849655E+02  0.10566000000E+00 0.  1.
        994    1    1    2    0    0 -0.23557701397E+02  0.61023867340E+01  0.11647940253E+02  0.17331277775E+03  0.17120000000E+03 0.  0.
        998    1    1    2    0    0  0.22469335194E+01  0.24879870240E+01  0.14653054155E+04  0.14653433726E+04  0.10000000000E+02 0.  1.
</event>
<event>
 5    1  0.1572996E-008  0.3818654E+03  0.7957747E-01  0.3443076E+00
         13   -1    0    0    0    0  0.00000000000E+00  0.00000000000E+00  0.14999999963E+04  0.15000000000E+04  0.10566000000E+00 0. -1.
        994   -1    0    0    0    0 -0.00000000000E+00 -0.00000000000E+00  0.11368683772E-12  0.17120000000E+03  0.17120000000E+03 0.  0.
         13    1    1    2    0    0 -0.22681706763E+02 -0.29923829548E+02  0.22668774180E+03  0.22977649759E+03  0.10566000000E+00 0. -1.
        994    1    1    2    0    0 -0.12700003234E+02  0.34750913437E+02  0.77559575188E+01  0.17532401702E+03  0.17120000000E+03 0.  0.
        998    1    1    2    0    0  0.35381709997E+02 -0.48270838893E+01  0.12655562970E+04  0.12660994854E+04  0.10000000000E+02 0. -1.
</event>
<event>
 5    1  0.1572996E-008  0.3704857E+03  0.7957747E-01  0.3493662E+00
         13   -1    0    0    0    0  0.00000000000E+00  0.00000000000E+00  0.14999999963E+04  0.15000000000E+04  0.10566000000E+00 0. -1.
        994   -1    0    0    0    0 -0.00000000000E+00 -0.00000000000E+00  0.11368683772E-12  0.17120000000E+03  0.17120000000E+03 0.  0.
         13    1    1    2    0    0 -0.40998957879E+02  0.11715892144E+02  0.93428571383E+02  0.10269900579E+03  0.10566000000E+00 0. -1.
        994    1    1    2    0    0  0.36945108035E+02 -0.11832780338E+02  0.14228226283E+02  0.17611597918E+03  0.17120000000E+03 0.  0.
        998    1    1    2    0    0  0.40538498442E+01  0.11688819392E+00  0.13923431986E+04  0.13923850150E+04  0.10000000000E+02 0. -1.
</event>
<event>
 5    1  0.1572996E-008  0.3840155E+03  0.7957747E-01  0.3433858E+00
         13   -1    0    0    0    0  0.00000000000E+00  0.00000000000E+00  0.14999999963E+04  0.15000000000E+04  0.10566000000E+00 0. -1.
        994   -1    0    0    0    0 -0.00000000000E+00 -0.00000000000E+00  0.11368683772E-12  0.17120000000E+03  0.17120000000E+03 0.  0.
         13    1    1    2    0    0  0.19066886322E+02  0.18624222450E+02  0.15875336817E+03  0.16097531142E+03  0.10566000000E+00 0. -1.
        994    1    1    2    0    0 -0.13498570717E+02 -0.17462070748E+02  0.37285259290E+01  0.17265710884E+03  0.17120000000E+03 0.  0.
        998    1    1    2    0    0 -0.55683156052E+01 -0.11621517018E+01  0.13375181022E+04  0.13375675797E+04  0.10000000000E+02 0. -1.
</event>
<event>
 5    1  0.1572996E-008  0.3791988E+03  0.7957747E-01  0.3454654E+00
         13   -1    0    0    0    0  0.00000000000E+00  0.00000000000E+00  0.14999999963E+04  0.15000000000E+04  0.10566000000E+00 0. -1.
        994   -1    0    0    0    0 -0.00000000000E+00 -0.00000000000E+00  0.11368683772E-12  0.17120000000E+03  0.17120000000E+03 0.  0.
         13    1    1    2    0    0 -0.92575386364E+01  0.76055535964E+01  0.13906867176E+02  0.18356431729E+02  0.10566000000E+00 0. -1.
        994    1    1    2    0    0  0.73653833709E+01 -0.14450174288E+01  0.47269701790E+01  0.17142963920E+03  0.17120000000E+03 0.  0.
        998    1    1    2    0    0  0.18921552655E+01 -0.61605361676E+01  0.14813661589E+04  0.14814139291E+04  0.10000000000E+02 0. -1.
</event>
<event>
 5    1  0.1572996E-008  0.3777507E+03  0.7957747E-01  0.3461011E+00
         13   -1    0    0    0    0  0.00000000000E+00  0.00000000000E+00  0.14999999963E+04  0.15000000000E+04  0.10566000000E+00 0.  1.
        994   -1    0    0    0    0 -0.00000000000E+00 -0.00000000000E+00  0.11368683772E-12  0.17120000000E+03  0.17120000000E+03 0.  0.
         13    1    1    2    0    0 -0.10486273583E+01 -0.19984201086E+02  0.35237604071E+02  0.40523669837E+02  0.10566000000E+00 0.  1.
        994    1    1    2    0    0 -0.42218653316E+01  0.19554176328E+02  0.66219100378E+01  0.17249196982E+03  0.17120000000E+03 0.  0.
        998    1    1    2    0    0  0.52704926899E+01  0.43002475834E+00  0.14581404822E+04  0.14581843603E+04  0.10000000000E+02 0.  1.
</event>
<event>
 5    1  0.1572996E-008  0.3835516E+03  0.7957747E-01  0.3435838E+00
         13   -1    0    0    0    0  0.00000000000E+00  0.00000000000E+00  0.14999999963E+04  0.15000000000E+04  0.10566000000E+00 0. -1.
        994   -1    0    0    0    0 -0.00000000000E+00 -0.00000000000E+00  0.11368683772E-12  0.17120000000E+03  0.17120000000E+03 0.  0.
         13    1    1    2    0    0  0.10951183078E+02  0.85397136056E+00  0.24432582638E+02  0.26788429149E+02  0.10566000000E+00 0. -1.
        994    1    1    2    0    0 -0.12602643058E+02 -0.40956373767E+01  0.29313959516E+01  0.17173710706E+03  0.17120000000E+03 0.  0.
        998    1    1    2    0    0  0.16514599793E+01  0.32416660161E+01  0.14726360177E+04  0.14726744638E+04  0.10000000000E+02 0. -1.
</event>
<event>
 5    1  0.1572996E-008  0.3793454E+03  0.7957747E-01  0.3454014E+00
         13   -1    0    0    0    0  0.00000000000E+00  0.00000000000E+00  0.14999999963E+04  0.15000000000E+04  0.10566000000E+00 0.  1.
        994   -1    0    0    0    0 -0.00000000000E+00 -0.00000000000E+00  0.11368683772E-12  0.17120000000E+03  0.17120000000E+03 0.  0.
         13    1    1    2    0    0  0.11010963849E+02 -0.22905759508E+02  0.67405123917E+02  0.72037330862E+02  0.10566000000E+00 0.  1.
        994    1    1    2    0    0 -0.68016663845E+00  0.30446508575E+02  0.75772868253E+01  0.17405260063E+03  0.17120000000E+03 0.  0.
        998    1    1    2    0    0 -0.10330797211E+02 -0.75407490670E+01  0.14250175855E+04  0.14251100685E+04  0.10000000000E+02 0.  1.
</event>
<event>
 5    1  0.1572996E-008  0.3838458E+03  0.7957747E-01  0.3434582E+00
         13   -1    0    0    0    0  0.00000000000E+00  0.00000000000E+00  0.14999999963E+04  0.15000000000E+04  0.10566000000E+00 0.  1.
        994   -1    0    0    0    0 -0.00000000000E+00 -0.00000000000E+00  0.11368683772E-12  0.17120000000E+03  0.17120000000E+03 0.  0.
         13    1    1    2    0    0  0.15198211781E+00 -0.19722755505E+02  0.90435382741E+02  0.92561221896E+02  0.10566000000E+00 0.  1.
        994    1    1    2    0    0 -0.28503903562E+01  0.78782126801E+01  0.24359877457E+01  0.17142218350E+03  0.17120000000E+03 0.  0.
        998    1    1    2    0    0  0.26984082384E+01  0.11844542825E+02  0.14071286258E+04  0.14072165946E+04  0.10000000000E+02 0.  1.
</event>
<event>
 5    1  0.1572996E-008  0.3823928E+03  0.7957747E-01  0.3440806E+00
         13   -1    0    0    0    0  0.00000000000E+00  0.00000000000E+00  0.14999999963E+04  0.15000000000E+04  0.10566000000E+00 0. -1.
        994   -1    0    0    0    0 -0.00000000000E+00 -0.00000000000E+00  0.11368683772E-12  0.17120000000E+03  0.17120000000E+03 0.  0.
         13    1    1    2    0    0 -0.95481677897E+01  0.28181428307E+02  0.16935003831E+03  0.17194419749E+03  0.10566000000E+00 0. -1.
        994    1    1    2    0    0 -0.19045674464E+02 -0.10108190163E+02  0.44736318047E+01  0.17261044756E+03  0.17120000000E+03 0.  0.
        998    1    1    2    0    0  0.28593842253E+02 -0.18073238145E+02  0.13261763262E+04  0.13266453550E+04  0.10000000000E+02 0. -1.
</event>
<event>
 5    1  0.1572996E-008  0.3846712E+03  0.7957747E-01  0.3431068E+00
         13   -1    0    0    0    0  0.00000000000E+00  0.00000000000E+00  0.14999999963E+04  0.15000000000E+04  0.10566000000E+00 0. -1.
        994   -1    0    0    0    0 -0.00000000000E+00 -0.00000000000E+00  0.11368683772E-12  0.17120000000E+03  0.17120000000E+03 0.  0.
         13    1    1    2    0    0 -0.17689946680E+02 -0.16310816069E+02  0.12710488079E+03  0.12936243203E+03  0.10566000000E+00 0. -1.
        994    1    1    2    0    0  0.38661721851E+02  0.23209577355E+02  0.85166586253E+01  0.17724386221E+03  0.17120000000E+03 0.  0.
        998    1    1    2    0    0 -0.20971775171E+02 -0.68987612852E+01  0.13643784569E+04  0.13645937058E+04  0.10000000000E+02 0. -1.
</event>
<event>
 5    1  0.1586673E-008  0.3859834E+03  0.7957747E-01  0.3425512E+00
         13   -1    0    0    0    0  0.00000000000E+00  0.00000000000E+00  0.14999999963E+04  0.15000000000E+04  0.10566000000E+00 0.  1.
        994   -1    0    0    0    0 -0.00000000000E+00 -0.00000000000E+00  0.11368683772E-12  0.17120000000E+03  0.17120000000E+03 0.  0.
         13    1    1    2    0    0 -0.91917263892E+01  0.79395098376E+01  0.65346800838E+02  0.66466075514E+02  0.10566000000E+00 0.  1.
        994    1    1    2    0    0  0.39502193357E+01 -0.76476639230E+01  0.13856203053E+01  0.17142185082E+03  0.17120000000E+03 0.  0.
        998    1    1    2    0    0  0.52415070535E+01 -0.29184591457E+00  0.14332675751E+04  0.14333120737E+04  0.10000000000E+02 0.  0.
</event>
<event>
 5    1  0.1572996E-008  0.3742318E+03  0.7957747E-01  0.3476665E+00
         13   -1    0    0    0    0  0.00000000000E+00  0.00000000000E+00  0.14999999963E+04  0.15000000000E+04  0.10566000000E+00 0. -1.
        994   -1    0    0    0    0 -0.00000000000E+00 -0.00000000000E+00  0.11368683772E-12  0.17120000000E+03  0.17120000000E+03 0.  0.
         13    1    1    2    0    0  0.10182218023E+02  0.87723901591E+01  0.94915403437E+01  0.16453962900E+02  0.10566000000E+00 0. -1.
        994    1    1    2    0    0 -0.11820186412E+02 -0.77437101247E+01  0.77545311465E+01  0.17195713014E+03  0.17120000000E+03 0.  0.
        998    1    1    2    0    0  0.16379683882E+01 -0.10286800343E+01  0.14827539248E+04  0.14827889070E+04  0.10000000000E+02 0. -1.
</event>
<event>
 5    1  0.1572996E-008  0.3800113E+03  0.7957747E-01  0.3451109E+00
         13   -1    0    0    0    0  0.00000000000E+00  0.00000000000E+00  0.14999999963E+04  0.15000000000E+04  0.10566000000E+00 0.  1.
        994   -1    0    0    0    0 -0.00000000000E+00 -0.00000000000E+00  0.11368683772E-12  0.17120000000E+03  0.17120000000E+03 0.  0.
         13    1    1    2    0    0 -0.12155295651E+02  0.50438399722E+02  0.26458035601E+03  0.26961928590E+03  0.10566000000E+00 0.  1.
        994    1    1    2    0    0  0.16963466239E+02 -0.51466461120E+02  0.14006912475E+02  0.18011715466E+03  0.17120000000E+03 0.  0.
        998    1    1    2    0    0 -0.48081705878E+01  0.10280613980E+01  0.12214127278E+04  0.12214635594E+04  0.10000000000E+02 0.  1.
</event>
<event>
 5    1  0.1572996E-008  0.3699907E+03  0.7957747E-01  0.3495934E+00
         13   -1    0    0    0    0  0.00000000000E+00  0.00000000000E+00  0.14999999963E+04  0.15000000000E+04  0.10566000000E+00 0. -1.
        994   -1    0    0    0    0 -0.00000000000E+00 -0.00000000000E+00  0.11368683772E-12  0.17120000000E+03  0.17120000000E+03 0.  0.
         13    1    1    2    0    0 -0.53215239761E+02  0.14524201465E+01  0.15144116143E+03  0.16052541172E+03  0.10566000000E+00 0. -1.
        994    1    1    2    0    0  0.30793147590E+02  0.29600574036E+02  0.15608844129E+02  0.17713691862E+03  0.17120000000E+03 0.  0.
        998    1    1    2    0    0  0.22422092170E+02 -0.31052994182E+02  0.13329499907E+04  0.13335376697E+04  0.10000000000E+02 0. -1.
</event>
<event>
 5    1  0.1572996E-008  0.3828814E+03  0.7957747E-01  0.3438708E+00
         13   -1    0    0    0    0  0.00000000000E+00  0.00000000000E+00  0.14999999963E+04  0.15000000000E+04  0.10566000000E+00 0.  1.
        994   -1    0    0    0    0 -0.00000000000E+00 -0.00000000000E+00  0.11368683772E-12  0.17120000000E+03  0.17120000000E+03 0.  0.
         13    1    1    2    0    0 -0.39250980865E+01 -0.18024962603E+02  0.60390814042E+02  0.63145603620E+02  0.10566000000E+00 0.  1.
        994    1    1    2    0    0 -0.32446182043E+01  0.20400292765E+02  0.40999166844E+01  0.17249043107E+03  0.17120000000E+03 0.  0.
        998    1    1    2    0    0  0.71697162908E+01 -0.23753301622E+01  0.14355092656E+04  0.14355639653E+04  0.10000000000E+02 0.  1.
</event>
<event>
 5    1  0.1572996E-008  0.3838167E+03  0.7957747E-01  0.3434706E+00
         13   -1    0    0    0    0  0.00000000000E+00  0.00000000000E+00  0.14999999963E+04  0.15000000000E+04  0.10566000000E+00 0. -1.
        994   -1    0    0    0    0 -0.00000000000E+00 -0.00000000000E+00  0.11368683772E-12  0.17120000000E+03  0.17120000000E+03 0.  0.
         13    1    1    2    0    0  0.21303965174E+02 -0.39328135247E+01  0.11185276870E+03  0.11393146617E+03  0.10566000000E+00 0. -1.
        994    1    1    2    0    0 -0.55668146251E+01 -0.18029117578E+01  0.23318320542E+01  0.17131584094E+03  0.17120000000E+03 0.  0.
        998    1    1    2    0    0 -0.15737150549E+02  0.57357252825E+01  0.13858153955E+04  0.13859526929E+04  0.10000000000E+02 0.  0.
</event>
<event>
 5    1  0.1572996E-008  0.3830352E+03  0.7957747E-01  0.3438048E+00
         13   -1    0    0    0    0  0.00000000000E+00  0.00000000000E+00  0.14999999963E+04  0.15000000000E+04  0.10566000000E+00 0. -1.
        994   -1    0    0    0    0 -0.00000000000E+00 -0.00000000000E+00  0.11368683772E-12  0.17120000000E+03  0.17120000000E+03 0.  0.
         13    1    1    2    0    0 -0.16916596964E+02 -0.14555726578E+02  0.78559034085E+02  0.81667456367E+02  0.10566000000E+00 0. -1.
        994    1    1    2    0    0  0.21971150312E+02  0.49122179177E+02  0.12252583994E+02  0.17987575086E+03  0.17120000000E+03 0.  0.
        998    1    1    2    0    0 -0.50545533471E+01 -0.34566452599E+02  0.14091883782E+04  0.14096567928E+04  0.10000000000E+02 0. -1.
</event>
<event>
 5    1  0.1572996E-008  0.3853566E+03  0.7957747E-01  0.3428161E+00
         13   -1    0    0    0    0  0.00000000000E+00  0.00000000000E+00  0.14999999963E+04  0.15000000000E+04  0.10566000000E+00 0. -1.
        994   -1    0    0    0    0 -0.00000000000E+00 -0.00000000000E+00  0.11368683772E-12  0.17120000000E+03  0.17120000000E+03 0.  0.
         13    1    1    2    0    0 -0.12989145591E+02 -0.72768220974E+01  0.77931219271E+02  0.79340759664E+02  0.10566000000E+00 0. -1.
        994    1    1    2    0    0  0.26404518152E+01  0.10417861488E+02  0.18327112036E+01  0.17154679436E+03  0.17120000000E+03 0.  0.
        998    1    1    2    0    0  0.10348693776E+02 -0.31410393908E+01  0.14202360658E+04  0.14203124460E+04  0.10000000000E+02 0. -1.
</event>
<event>
 5    1  0.1572996E-008  0.3844928E+03  0.7957747E-01  0.3431826E+00
         13   -1    0    0    0    0  0.00000000000E+00  0.00000000000E+00  0.14999999963E+04  0.15000000000E+04  0.10566000000E+00 0.  1.
        994   -1    0    0    0    0 -0.00000000000E+00 -0.00000000000E+00  0.11368683772E-12  0.17120000000E+03  0.17120000000E+03 0.  0.
         13    1    1    2    0    0 -0.11432885673E+02 -0.25989653877E+01  0.36193705272E+02  0.38045511710E+02  0.10566000000E+00 0.  1.
        994    1    1    2    0    0  0.76011168862E+01  0.11501597216E+01  0.20768504120E+01  0.17138510190E+03  0.17120000000E+03 0.  0.
        998    1    1    2    0    0  0.38317687867E+01  0.14488056660E+01  0.14617294406E+04  0.14617693864E+04  0.10000000000E+02 0.  1.
</event>
<event>
 5    1  0.1572996E-008  0.3852974E+03  0.7957747E-01  0.3428412E+00
         13   -1    0    0    0    0  0.00000000000E+00  0.00000000000E+00  0.14999999963E+04  0.15000000000E+04  0.10566000000E+00 0. -1.
        994   -1    0    0    0    0 -0.00000000000E+00 -0.00000000000E+00  0.11368683772E-12  0.17120000000E+03  0.17120000000E+03 0.  0.
         13    1    1    2    0    0  0.65923959804E+01  0.98129672561E+01  0.46780940950E+02  0.48251648794E+02  0.10566000000E+00 0. -1.
        994    1    1    2    0    0  0.58791672893E+01 -0.15684775970E+02  0.24049514190E+01  0.17203430064E+03  0.17120000000E+03 0.  0.
        998    1    1    2    0    0 -0.12471563270E+02  0.58718087140E+01  0.14508141039E+04  0.14509140506E+04  0.10000000000E+02 0. -1.
</event>
<event>
 5    1  0.1572996E-008  0.3754697E+03  0.7957747E-01  0.3471125E+00
         13   -1    0    0    0    0  0.00000000000E+00  0.00000000000E+00  0.14999999963E+04  0.15000000000E+04  0.10566000000E+00 0.  1.
        994   -1    0    0    0    0 -0.00000000000E+00 -0.00000000000E+00  0.11368683772E-12  0.17120000000E+03  0.17120000000E+03 0.  0.
         13    1    1    2    0    0  0.63841676250E+01  0.18732136423E+02  0.27443427134E+02  0.33834943300E+02  0.10566000000E+00 0.  1.
        994    1    1    2    0    0 -0.10179380299E+02 -0.15324799112E+02  0.75872874444E+01  0.17235276668E+03  0.17120000000E+03 0.  0.
        998    1    1    2    0    0  0.37952126735E+01 -0.34073373108E+01  0.14649692817E+04  0.14650122900E+04  0.10000000000E+02 0.  1.
</event>
<event>
 5    1  0.1572996E-008  0.3685123E+03  0.7957747E-01  0.3502756E+00
         13   -1    0    0    0    0  0.00000000000E+00  0.00000000000E+00  0.14999999963E+04  0.15000000000E+04  0.10566000000E+00 0. -1.
        994   -1    0    0    0    0 -0.00000000000E+00 -0.00000000000E+00  0.11368683772E-12  0.17120000000E+03  0.17120000000E+03 0.  0.
         13    1    1    2    0    0 -0.16480728540E+01  0.24239856398E+02  0.24766041088E+02  0.34693727640E+02  0.10566000000E+00 0. -1.
        994    1    1    2    0    0 -0.12428393389E+01 -0.24272881940E+02  0.12104482267E+02  0.17333977022E+03  0.17120000000E+03 0.  0.
        998    1    1    2    0    0  0.28909121929E+01  0.33025542490E-01  0.14631294729E+04  0.14631665021E+04  0.10000000000E+02 0. -1.
</event>
<event>
 5    1  0.1572996E-008  0.4058093E+03  0.7957747E-01  0.3345943E+00
         13   -1    0    0    0    0  0.00000000000E+00  0.00000000000E+00  0.14999999963E+04  0.15000000000E+04  0.10566000000E+00 0.  1.
        994   -1    0    0    0    0 -0.00000000000E+00 -0.00000000000E+00  0.11368683772E-12  0.17120000000E+03  0.17120000000E+03 0.  0.
         13    1    1    2    0    0 -0.94808838087E+02  0.16010626209E+02  0.18697062578E+03  0.21024529008E+03  0.10566000000E+00 0.  1.
        994    1    1    2    0    0 -0.18456801361E+02  0.15382205560E+02  0.33616926648E+02  0.17611588095E+03  0.17120000000E+03 0.  0.
        998    1    1    2    0    0  0.11326563945E+03 -0.31392831769E+02  0.12794124438E+04  0.12848388290E+04  0.10000000000E+02 0.  1.
</event>
<event>
 5    1  0.1572996E-008  0.3832098E+03  0.7957747E-01  0.3437300E+00
         13   -1    0    0    0    0  0.00000000000E+00  0.00000000000E+00  0.14999999963E+04  0.15000000000E+04  0.10566000000E+00 0.  1.
        994   -1    0    0    0    0 -0.00000000000E+00 -0.00000000000E+00  0.11368683772E-12  0.17120000000E+03  0.17120000000E+03 0.  0.
         13    1    1    2    0    0 -0.21047023463E+02  0.13298476197E+02  0.12896185521E+03  0.13134305436E+03  0.10566000000E+00 0.  1.
        994    1    1    2    0    0  0.17734317013E+02  0.12255477859E+02  0.40602257021E+01  0.17259961811E+03  0.17120000000E+03 0.  0.
        998    1    1    2    0    0  0.33127064498E+01 -0.25553954056E+02  0.13669779154E+04  0.13672573275E+04  0.10000000000E+02 0.  1.
</event>
<event>
 5    1  0.1572996E-008  0.3826128E+03  0.7957747E-01  0.3439860E+00
         13   -1    0    0    0    0  0.00000000000E+00  0.00000000000E+00  0.14999999963E+04  0.15000000000E+04  0.10566000000E+00 0.  1.
        994   -1    0    0    0    0 -0.00000000000E+00 -0.00000000000E+00  0.11368683772E-12  0.17120000000E+03  0.17120000000E+03 0.  0.
         13    1    1    2    0    0  0.20351970371E+02 -0.74416444316E+01  0.87479889525E+02  0.90123931367E+02  0.10566000000E+00 0.  1.
        994    1    1    2    0    0 -0.47648440885E+01 -0.35910105842E+01  0.29379869871E+01  0.17132913023E+03  0.17120000000E+03 0.  0.
        998    1    1    2    0    0 -0.15587126282E+02  0.11032655016E+02  0.14095821198E+04  0.14097469384E+04  0.10000000000E+02 0.  1.
</event>
<event>
 5    1  0.1572996E-008  0.3825514E+03  0.7957747E-01  0.3440124E+00
         13   -1    0    0    0    0  0.00000000000E+00  0.00000000000E+00  0.14999999963E+04  0.15000000000E+04  0.10566000000E+00 0.  1.
        994   -1    0    0    0    0 -0.00000000000E+00 -0.00000000000E+00  0.11368683772E-12  0.17120000000E+03  0.17120000000E+03 0.  0.
         13    1    1    2    0    0  0.27654016776E+02 -0.55018660048E+01  0.12269453417E+03  0.12589271246E+03  0.10566000000E+00 0.  1.
        994    1    1    2    0    0 -0.34769857761E+02  0.66303606474E+01  0.70151917876E+01  0.17496158895E+03  0.17120000000E+03 0.  0.
        998    1    1    2    0    0  0.71158409845E+01 -0.11284946426E+01  0.13702902703E+04  0.13703456986E+04  0.10000000000E+02 0.  1.
</event>
<event>
 5    1  0.1572996E-008  0.3816552E+03  0.7957747E-01  0.3443983E+00
         13   -1    0    0    0    0  0.00000000000E+00  0.00000000000E+00  0.14999999963E+04  0.15000000000E+04  0.10566000000E+00 0.  1.
        994   -1    0    0    0    0 -0.00000000000E+00 -0.00000000000E+00  0.11368683772E-12  0.17120000000E+03  0.17120000000E+03 0.  0.
         13    1    1    2    0    0  0.16391910255E+02  0.41130185793E+01  0.41085304928E+02  0.44425500433E+02  0.10566000000E+00 0.  1.
        994    1    1    2    0    0 -0.16632666816E+02 -0.63958550769E+01  0.43564315357E+01  0.17218005420E+03  0.17120000000E+03 0.  0.
        998    1    1    2    0    0  0.24075656160E+00  0.22828364976E+01  0.14545582598E+04  0.14545944454E+04  0.10000000000E+02 0.  1.
</event>
<event>
 5    1  0.1572996E-008  0.3807178E+03  0.7957747E-01  0.3448039E+00
         13   -1    0    0    0    0  0.00000000000E+00  0.00000000000E+00  0.14999999963E+04  0.15000000000E+04  0.10566000000E+00 0.  1.
        994   -1    0    0    0    0 -0.00000000000E+00 -0.00000000000E+00  0.11368683772E-12  0.17120000000E+03  0.17120000000E+03 0.  0.
         13    1    1    2    0    0 -0.11349956845E+01  0.15358108100E+02  0.29496284738E+02  0.33274640149E+02  0.10566000000E+00 0.  1.
        994    1    1    2    0    0  0.45762180977E+01 -0.15260527116E+02  0.46182279690E+01  0.17200172525E+03  0.17120000000E+03 0.  0.
        998    1    1    2    0    0 -0.34412224132E+01 -0.97580984067E-01  0.14658854836E+04  0.14659236346E+04  0.10000000000E+02 0.  1.
</event>
<event>
 5    1  0.1572996E-008  0.3827831E+03  0.7957747E-01  0.3439129E+00
         13   -1    0    0    0    0  0.00000000000E+00  0.00000000000E+00  0.14999999963E+04  0.15000000000E+04  0.10566000000E+00 0. -1.
        994   -1    0    0    0    0 -0.00000000000E+00 -0.00000000000E+00  0.11368683772E-12  0.17120000000E+03  0.17120000000E+03 0.  0.
         13    1    1    2    0    0  0.59937281607E+01 -0.33367257129E+02  0.17527957685E+03  0.17852798059E+03  0.10566000000E+00 0. -1.
        994    1    1    2    0    0 -0.29723190452E+01  0.42061043003E+02  0.86466757272E+01  0.17652810264E+03  0.17120000000E+03 0.  0.
        998    1    1    2    0    0 -0.30214091155E+01 -0.86937858745E+01  0.13160737437E+04  0.13161439168E+04  0.10000000000E+02 0. -1.
</event>
<event>
 5    1  0.1572996E-008  0.3787433E+03  0.7957747E-01  0.3456649E+00
         13   -1    0    0    0    0  0.00000000000E+00  0.00000000000E+00  0.14999999963E+04  0.15000000000E+04  0.10566000000E+00 0. -1.
        994   -1    0    0    0    0 -0.00000000000E+00 -0.00000000000E+00  0.11368683772E-12  0.17120000000E+03  0.17120000000E+03 0.  0.
         13    1    1    2    0    0 -0.21808944830E+02  0.20042635082E+02  0.94669021725E+02  0.99194617465E+02  0.10566000000E+00 0. -1.
        994    1    1    2    0    0 -0.15942672178E+00 -0.12338403266E+02  0.52801464134E+01  0.17172530844E+03  0.17120000000E+03 0.  0.
        998    1    1    2    0    0  0.21968371551E+02 -0.77042318161E+01  0.14000508281E+04  0.14002800741E+04  0.10000000000E+02 0. -1.
</event>
<event>
 5    1  0.1572996E-008  0.3743386E+03  0.7957747E-01  0.3476186E+00
         13   -1    0    0    0    0  0.00000000000E+00  0.00000000000E+00  0.14999999963E+04  0.15000000000E+04  0.10566000000E+00 0. -1.
        994   -1    0    0    0    0 -0.00000000000E+00 -0.00000000000E+00  0.11368683772E-12  0.17120000000E+03  0.17120000000E+03 0.  0.
         13    1    1    2    0    0  0.44808423519E+02 -0.66642283493E+01  0.13364976687E+03  0.14111866676E+03  0.10566000000E+00 0. -1.
        994    1    1    2    0    0 -0.44309612558E+02 -0.80528194307E+01  0.13959991247E+02  0.17757395930E+03  0.17120000000E+03 0.  0.
        998    1    1    2    0    0 -0.49881096127E+00  0.14717047780E+02  0.13523902382E+04  0.13525073739E+04  0.10000000000E+02 0. -1.
</event>
<event>
 5    1  0.1572996E-008  0.3804402E+03  0.7957747E-01  0.3449244E+00
         13   -1    0    0    0    0  0.00000000000E+00  0.00000000000E+00  0.14999999963E+04  0.15000000000E+04  0.10566000000E+00 0. -1.
        994   -1    0    0    0    0 -0.00000000000E+00 -0.00000000000E+00  0.11368683772E-12  0.17120000000E+03  0.17120000000E+03 0.  0.
         13    1    1    2    0    0  0.55089878221E+01  0.23806384214E+02  0.70337320928E+02  0.74461015005E+02  0.10566000000E+00 0. -1.
        994    1    1    2    0    0 -0.80158940301E+01 -0.28625391378E+02  0.68664577435E+01  0.17389725654E+03  0.17120000000E+03 0.  0.
        998    1    1    2    0    0  0.25069062080E+01  0.48190071636E+01  0.14227962176E+04  0.14228417285E+04  0.10000000000E+02 0. -1.
</event>
<event>
 5    1  0.1572996E-008  0.3833948E+03  0.7957747E-01  0.3436508E+00
         13   -1    0    0    0    0  0.00000000000E+00  0.00000000000E+00  0.14999999963E+04  0.15000000000E+04  0.10566000000E+00 0. -1.
        994   -1    0    0    0    0 -0.00000000000E+00 -0.00000000000E+00  0.11368683772E-12  0.17120000000E+03  0.17120000000E+03 0.  0.
         13    1    1    2    0    0 -0.11534140884E+02 -0.15917423438E+02  0.74778308388E+02  0.77318867971E+02  0.10566000000E+00 0. -1.
        994    1    1    2    0    0  0.13491739999E+02  0.17546599743E+02  0.40504149016E+01  0.17267239522E+03  0.17120000000E+03 0.  0.
        998    1    1    2    0    0 -0.19575991155E+01 -0.16291763055E+01  0.14211712730E+04  0.14212087368E+04  0.10000000000E+02 0. -1.
</event>
<event>
 5    1  0.1572996E-008  0.3849821E+03  0.7957747E-01  0.3429748E+00
         13   -1    0    0    0    0  0.00000000000E+00  0.00000000000E+00  0.14999999963E+04  0.15000000000E+04  0.10566000000E+00 0.  1.
        994   -1    0    0    0    0 -0.00000000000E+00 -0.00000000000E+00  0.11368683772E-12  0.17120000000E+03  0.17120000000E+03 0.  0.
         13    1    1    2    0    0  0.12416557983E+02  0.16850459360E+02  0.10432255729E+03  0.10640167300E+03  0.10566000000E+00 0.  1.
        994    1    1    2    0    0 -0.44002781773E+02 -0.25030157857E+02  0.10113386404E+02  0.17881407716E+03  0.17120000000E+03 0.  0.
        998    1    1    2    0    0  0.31586223790E+02  0.81796984969E+01  0.13855640526E+04  0.13859842498E+04  0.10000000000E+02 0.  1.
</event>
<event>
 5    1  0.1572996E-008  0.3789783E+03  0.7957747E-01  0.3455619E+00
         13   -1    0    0    0    0  0.00000000000E+00  0.00000000000E+00  0.14999999963E+04  0.15000000000E+04  0.10566000000E+00 0. -1.
        994   -1    0    0    0    0 -0.00000000000E+00 -0.00000000000E+00  0.11368683772E-12  0.17120000000E+03  0.17120000000E+03 0.  0.
         13    1    1    2    0    0 -0.72124184557E+02  0.46093901488E+02  0.49258047490E+03  0.49996207973E+03  0.10566000000E+00 0. -1.
        994    1    1    2    0    0  0.81327140974E+02 -0.40974572502E+02  0.32989499313E+02  0.19669968611E+03  0.17120000000E+03 0.  0.
        998    1    1    2    0    0 -0.92029564170E+01 -0.51193289859E+01  0.97443002207E+03  0.97453823416E+03  0.10000000000E+02 0. -1.
</event>
<event>
 5    1  0.1572996E-008  0.3817434E+03  0.7957747E-01  0.3443602E+00
         13   -1    0    0    0    0  0.00000000000E+00  0.00000000000E+00  0.14999999963E+04  0.15000000000E+04  0.10566000000E+00 0. -1.
        994   -1    0    0    0    0 -0.00000000000E+00 -0.00000000000E+00  0.11368683772E-12  0.17120000000E+03  0.17120000000E+03 0.  0.
         13    1    1    2    0    0  0.82629008060E+01 -0.62834520598E+01  0.15052088039E+02  0.18284797453E+02  0.10566000000E+00 0. -1.
        994    1    1    2    0    0 -0.88877996960E+01  0.66384923014E+01  0.36648083692E+01  0.17159817419E+03  0.17120000000E+03 0.  0.
        998    1    1    2    0    0  0.62489888998E+00 -0.35504024165E+00  0.14812830999E+04  0.14813170284E+04  0.10000000000E+02 0. -1.
</event>
<event>
 5    1  0.1572996E-008  0.3746687E+03  0.7957747E-01  0.3474706E+00
         13   -1    0    0    0    0  0.00000000000E+00  0.00000000000E+00  0.14999999963E+04  0.15000000000E+04  0.10566000000E+00 0. -1.
        994   -1    0    0    0    0 -0.00000000000E+00 -0.00000000000E+00  0.11368683772E-12  0.17120000000E+03  0.17120000000E+03 0.  0.
         13    1    1    2    0    0  0.14147180958E+02 -0.67549247482E+02  0.16093699534E+03  0.17511073981E+03  0.10566000000E+00 0. -1.
        994    1    1    2    0    0  0.19636818098E+02  0.65980194282E+02  0.30469877956E+02  0.18702097242E+03  0.17120000000E+03 0.  0.
        998    1    1    2    0    0 -0.33783999056E+02  0.15690531997E+01  0.13085931230E+04  0.13090682878E+04  0.10000000000E+02 0. -1.
</event>
<event>
 5    1  0.1572996E-008  0.3852494E+03  0.7957747E-01  0.3428615E+00
         13   -1    0    0    0    0  0.00000000000E+00  0.00000000000E+00  0.14999999963E+04  0.15000000000E+04  0.10566000000E+00 0.  1.
        994   -1    0    0    0    0 -0.00000000000E+00 -0.00000000000E+00  0.11368683772E-12  0.17120000000E+03  0.17120000000E+03 0.  0.
         13    1    1    2    0    0 -0.84817775276E+01  0.12637773575E+02  0.75048546029E+02  0.76576427809E+02  0.10566000000E+00 0.  1.
        994    1    1    2    0    0  0.70005959120E+01 -0.11906618103E+02  0.21334971096E+01  0.17176951915E+03  0.17120000000E+03 0.  0.
        998    1    1    2    0    0  0.14811816156E+01 -0.73115547215E+00  0.14228179531E+04  0.14228540530E+04  0.10000000000E+02 0.  1.
</event>
<event>
 5    1  0.1572996E-008  0.3855319E+03  0.7957747E-01  0.3427420E+00
         13   -1    0    0    0    0  0.00000000000E+00  0.00000000000E+00  0.14999999963E+04  0.15000000000E+04  0.10566000000E+00 0. -1.
        994   -1    0    0    0    0 -0.00000000000E+00 -0.00000000000E+00  0.11368683772E-12  0.17120000000E+03  0.17120000000E+03 0.  0.
         13    1    1    2    0    0 -0.54203760077E+01 -0.95589552523E+01  0.46270205259E+02  0.47557303964E+02  0.10566000000E+00 0. -1.
        994    1    1    2    0    0  0.66646310801E+01 -0.33715340542E+01  0.15494736306E+01  0.17136984979E+03  0.17120000000E+03 0.  0.
        998    1    1    2    0    0 -0.12442550724E+01  0.12930489307E+02  0.14521803174E+04  0.14522728462E+04  0.10000000000E+02 0. -1.
</event>
<event>
 5    1  0.1572996E-008  0.3822767E+03  0.7957747E-01  0.3441305E+00
         13   -1    0    0    0    0  0.00000000000E+00  0.00000000000E+00  0.14999999963E+04  0.15000000000E+04  0.10566000000E+00 0.  1.
        994   -1    0    0    0    0 -0.00000000000E+00 -0.00000000000E+00  0.11368683772E-12  0.17120000000E+03  0.17120000000E+03 0.  0.
         13    1    1    2    0    0 -0.50385050169E+02  0.73947780553E+02  0.53194129646E+03  0.53941494378E+03  0.10566000000E+00 0.  1.
        994    1    1    2    0    0  0.70807641268E+02 -0.97451431007E+02  0.52728576653E+02  0.21587090184E+03  0.17120000000E+03 0.  0.
        998    1    1    2    0    0 -0.20422591099E+02  0.23503650455E+02  0.91533012316E+03  0.91591415437E+03  0.10000000000E+02 0.  1.
</event>
<event>
 5    1  0.1572996E-008  0.3767937E+03  0.7957747E-01  0.3465240E+00
         13   -1    0    0    0    0  0.00000000000E+00  0.00000000000E+00  0.14999999963E+04  0.15000000000E+04  0.10566000000E+00 0.  1.
        994   -1    0    0    0    0 -0.00000000000E+00 -0.00000000000E+00  0.11368683772E-12  0.17120000000E+03  0.17120000000E+03 0.  0.
         13    1    1    2    0    0  0.32806045096E+01 -0.30269208664E+02  0.86029283394E+02  0.91258074297E+02  0.10566000000E+00 0.  1.
        994    1    1    2    0    0 -0.65889970183E+01 -0.39564721134E+01  0.59601256425E+01  0.17147603812E+03  0.17120000000E+03 0.  0.
        998    1    1    2    0    0  0.33083925087E+01  0.34225680777E+02  0.14080105872E+04  0.14084658876E+04  0.10000000000E+02 0.  1.
</event>
<event>
 5    1  0.1572996E-008  0.3785416E+03  0.7957747E-01  0.3457533E+00
         13   -1    0    0    0    0  0.00000000000E+00  0.00000000000E+00  0.14999999963E+04  0.15000000000E+04  0.10566000000E+00 0. -1.
        994   -1    0    0    0    0 -0.00000000000E+00 -0.00000000000E+00  0.11368683772E-12  0.17120000000E+03  0.17120000000E+03 0.  0.
         13    1    1    2    0    0 -0.34359548140E+01  0.34457467812E+02  0.11746190900E+03  0.12245992856E+03  0.10566000000E+00 0. -1.
        994    1    1    2    0    0  0.12527650504E+02 -0.26060328833E+02  0.76847273234E+01  0.17379464261E+03  0.17120000000E+03 0.  0.
        998    1    1    2    0    0 -0.90916956898E+01 -0.83971389796E+01  0.13748533600E+04  0.13749454288E+04  0.10000000000E+02 0. -1.
</event>
<event>
 5    1  0.1572996E-008  0.3815347E+03  0.7957747E-01  0.3444503E+00
         13   -1    0    0    0    0  0.00000000000E+00  0.00000000000E+00  0.14999999963E+04  0.15000000000E+04  0.10566000000E+00 0.  1.
        994   -1    0    0    0    0 -0.00000000000E+00 -0.00000000000E+00  0.11368683772E-12  0.17120000000E+03  0.17120000000E+03 0.  0.
         13    1    1    2    0    0 -0.28661399180E+01 -0.10881747261E+02  0.17103396042E+02  0.20473507313E+02  0.10566000000E+00 0.  1.
        994    1    1    2    0    0  0.29250547992E+01  0.15342372566E+02  0.41722492954E+01  0.17196160038E+03  0.17120000000E+03 0.  0.
        998    1    1    2    0    0 -0.58914881252E-01 -0.44606253049E+01  0.14787243509E+04  0.14787648923E+04  0.10000000000E+02 0.  1.
</event>
<event>
 5    1  0.1572996E-008  0.3810728E+03  0.7957747E-01  0.3446501E+00
         13   -1    0    0    0    0  0.00000000000E+00  0.00000000000E+00  0.14999999963E+04  0.15000000000E+04  0.10566000000E+00 0.  1.
        994   -1    0    0    0    0 -0.00000000000E+00 -0.00000000000E+00  0.11368683772E-12  0.17120000000E+03  0.17120000000E+03 0.  0.
         13    1    1    2    0    0 -0.25744893409E+02  0.25353297286E+02  0.15497063166E+03  0.15912729829E+03  0.10566000000E+00 0.  1.
        994    1    1    2    0    0  0.32280398622E+02 -0.29871533189E+02  0.10063058045E+02  0.17704529863E+03  0.17120000000E+03 0.  0.
        998    1    1    2    0    0 -0.65355052131E+01  0.45182359023E+01  0.13349663066E+04  0.13350274031E+04  0.10000000000E+02 0.  1.
</event>
<event>
 5    1  0.1572996E-008  0.3709169E+03  0.7957747E-01  0.3491687E+00
         13   -1    0    0    0    0  0.00000000000E+00  0.00000000000E+00  0.14999999963E+04  0.15000000000E+04  0.10566000000E+00 0.  1.
        994   -1    0    0    0    0 -0.00000000000E+00 -0.00000000000E+00  0.11368683772E-12  0.17120000000E+03  0.17120000000E+03 0.  0.
         13    1    1    2    0    0 -0.19074637282E+02 -0.68557576303E+01  0.19780772644E+02  0.28321958452E+02  0.10566000000E+00 0.  1.
        994    1    1    2    0    0  0.70626485288E+01  0.11935125670E+02  0.94537577144E+01  0.17202075969E+03  0.17120000000E+03 0.  0.
        998    1    1    2    0    0  0.12011988753E+02 -0.50793680400E+01  0.14707654659E+04  0.14708572819E+04  0.10000000000E+02 0.  1.
</event>
<event>
 5    1  0.1572996E-008  0.3845691E+03  0.7957747E-01  0.3431502E+00
         13   -1    0    0    0    0  0.00000000000E+00  0.00000000000E+00  0.14999999963E+04  0.15000000000E+04  0.10566000000E+00 0. -1.
        994   -1    0    0    0    0 -0.00000000000E+00 -0.00000000000E+00  0.11368683772E-12  0.17120000000E+03  0.17120000000E+03 0.  0.
         13    1    1    2    0    0 -0.91373723495E+01 -0.47686794929E+01  0.28615003812E+02  0.30414823438E+02  0.10566000000E+00 0. -1.
        994    1    1    2    0    0  0.68205487705E+01 -0.20238250546E+01  0.20109318593E+01  0.17135956233E+03  0.17120000000E+03 0.  0.
        998    1    1    2    0    0  0.23168235790E+01  0.67925045475E+01  0.14693740606E+04  0.14694256142E+04  0.10000000000E+02 0. -1.
</event>
<event>
 5    1  0.1572996E-008  0.3835254E+03  0.7957747E-01  0.3435950E+00
         13   -1    0    0    0    0  0.00000000000E+00  0.00000000000E+00  0.14999999963E+04  0.15000000000E+04  0.10566000000E+00 0.  1.
        994   -1    0    0    0    0 -0.00000000000E+00 -0.00000000000E+00  0.11368683772E-12  0.17120000000E+03  0.17120000000E+03 0.  0.
         13    1    1    2    0    0  0.16588580828E+02  0.16885478699E+02  0.12490473311E+03  0.12712790379E+03  0.10566000000E+00 0.  1.
        994    1    1    2    0    0 -0.16231954094E+01 -0.79744974212E+01  0.25828769876E+01  0.17141277265E+03  0.17120000000E+03 0.  0.
        998    1    1    2    0    0 -0.14965385418E+02 -0.89109812774E+01  0.13725123862E+04  0.13726593236E+04  0.10000000000E+02 0.  1.
</event>
<event>
 5    1  0.1572996E-008  0.3860651E+03  0.7957747E-01  0.3425168E+00
         13   -1    0    0    0    0  0.00000000000E+00  0.00000000000E+00  0.14999999963E+04  0.15000000000E+04  0.10566000000E+00 0. -1.
        994   -1    0    0    0    0 -0.00000000000E+00 -0.00000000000E+00  0.11368683772E-12  0.17120000000E+03  0.17120000000E+03 0.  0.
         13    1    1    2    0    0  0.58875748496E+01  0.93097333237E+01  0.65596079332E+02  0.66514595841E+02  0.10566000000E+00 0. -1.
        994    1    1    2    0    0  0.15558041267E+02  0.54549086700E+01  0.19935808700E+01  0.17200355532E+03  0.17120000000E+03 0.  0.
        998    1    1    2    0    0 -0.21445616117E+02 -0.14764641994E+02  0.14324103361E+04  0.14326818488E+04  0.10000000000E+02 0. -1.
</event>
<event>
 5    1  0.1572996E-008  0.3852637E+03  0.7957747E-01  0.3428554E+00
         13   -1    0    0    0    0  0.00000000000E+00  0.00000000000E+00  0.14999999963E+04  0.15000000000E+04  0.10566000000E+00 0.  1.
        994   -1    0    0    0    0 -0.00000000000E+00 -0.00000000000E+00  0.11368683772E-12  0.17120000000E+03  0.17120000000E+03 0.  0.
         13    1    1    2    0    0  0.13314428656E+02 -0.19870247477E+01  0.57454603385E+02  0.59010718449E+02  0.10566000000E+00 0.  1.
        994    1    1    2    0    0 -0.16957747920E+02  0.54876257172E+01  0.25437937556E+01  0.17214409702E+03  0.17120000000E+03 0.  0.
        998    1    1    2    0    0  0.36433192638E+01 -0.35006009695E+01  0.14400015991E+04  0.14400451845E+04  0.10000000000E+02 0.  1.
</event>
<event>
 5    1  0.1572996E-008  0.3824603E+03  0.7957747E-01  0.3440515E+00
         13   -1    0    0    0    0  0.00000000000E+00  0.00000000000E+00  0.14999999963E+04  0.15000000000E+04  0.10566000000E+00 0.  1.
        994   -1    0    0    0    0 -0.00000000000E+00 -0.00000000000E+00  0.11368683772E-12  0.17120000000E+03  0.17120000000E+03 0.  0.
         13    1    1    2    0    0 -0.10508687041E+01 -0.11967407262E+02  0.23694660897E+02  0.26566356180E+02  0.10566000000E+00 0.  1.
        994    1    1    2    0    0  0.31817495586E+01  0.99044237511E+01  0.32552843594E+01  0.17154666425E+03  0.17120000000E+03 0.  0.
        998    1    1    2    0    0 -0.21308808545E+01  0.20629835106E+01  0.14730500510E+04  0.14730869796E+04  0.10000000000E+02 0.  1.
</event>
<event>
 5    1  0.1572996E-008  0.3728220E+03  0.7957747E-01  0.3483021E+00
         13   -1    0    0    0    0  0.00000000000E+00  0.00000000000E+00  0.14999999963E+04  0.15000000000E+04  0.10566000000E+00 0.  1.
        994   -1    0    0    0    0 -0.00000000000E+00 -0.00000000000E+00  0.11368683772E-12  0.17120000000E+03  0.17120000000E+03 0.  0.
         13    1    1    2    0    0 -0.11560737921E+02 -0.56320229485E+02  0.23881394533E+03  0.24563739650E+03  0.10566000000E+00 0.  1.
        994    1    1    2    0    0 -0.12109094190E+01  0.12851904331E+02  0.83722646526E+01  0.17189000134E+03  0.17120000000E+03 0.  0.
        998    1    1    2    0    0  0.12771647340E+02  0.43468325153E+02  0.12528137863E+04  0.12536726022E+04  0.10000000000E+02 0.  1.
</event>
<event>
 5    1  0.1572996E-008  0.3797334E+03  0.7957747E-01  0.3452320E+00
         13   -1    0    0    0    0  0.00000000000E+00  0.00000000000E+00  0.14999999963E+04  0.15000000000E+04  0.10566000000E+00 0.  1.
        994   -1    0    0    0    0 -0.00000000000E+00 -0.00000000000E+00  0.11368683772E-12  0.17120000000E+03  0.17120000000E+03 0.  0.
         13    1    1    2    0    0  0.11335662392E+02 -0.27125135904E+01  0.13944255163E+02  0.18174388240E+02  0.10566000000E+00 0.  1.
        994    1    1    2    0    0 -0.11849154847E+02  0.20154574223E+01  0.47512913467E+01  0.17168715534E+03  0.17120000000E+03 0.  0.
        998    1    1    2    0    0  0.51349245521E+00  0.69705616808E+00  0.14813044498E+04  0.14813384564E+04  0.10000000000E+02 0.  1.
</event>
<event>
 5    1  0.1572996E-008  0.3852997E+03  0.7957747E-01  0.3428402E+00
         13   -1    0    0    0    0  0.00000000000E+00  0.00000000000E+00  0.14999999963E+04  0.15000000000E+04  0.10566000000E+00 0. -1.
        994   -1    0    0    0    0 -0.00000000000E+00 -0.00000000000E+00  0.11368683772E-12  0.17120000000E+03  0.17120000000E+03 0.  0.
         13    1    1    2    0    0 -0.43859974103E+01 -0.10931895569E+02  0.45060634962E+02  0.46574835493E+02  0.10566000000E+00 0. -1.
        994    1    1    2    0    0  0.25220241316E+01  0.15354577276E+02  0.22773101644E+01  0.17192076603E+03  0.17120000000E+03 0.  0.
        998    1    1    2    0    0  0.18639732787E+01 -0.44226817069E+01  0.14526620512E+04  0.14527043985E+04  0.10000000000E+02 0. -1.
</event>
<event>
 5    1  0.1572996E-008  0.3835234E+03  0.7957747E-01  0.3435959E+00
         13   -1    0    0    0    0  0.00000000000E+00  0.00000000000E+00  0.14999999963E+04  0.15000000000E+04  0.10566000000E+00 0.  1.
        994   -1    0    0    0    0 -0.00000000000E+00 -0.00000000000E+00  0.11368683772E-12  0.17120000000E+03  0.17120000000E+03 0.  0.
         13    1    1    2    0    0  0.12411399774E+02 -0.30722498040E-01  0.31014652827E+02  0.33406042002E+02  0.10566000000E+00 0.  1.
        994    1    1    2    0    0 -0.15337333709E+02  0.49737354046E+01  0.32245702669E+01  0.17198781847E+03  0.17120000000E+03 0.  0.
        998    1    1    2    0    0  0.29259339350E+01 -0.49430129066E+01  0.14657607732E+04  0.14658061395E+04  0.10000000000E+02 0.  1.
</event>
<event>
 5    1  0.1572996E-008  0.3846793E+03  0.7957747E-01  0.3431033E+00
         13   -1    0    0    0    0  0.00000000000E+00  0.00000000000E+00  0.14999999963E+04  0.15000000000E+04  0.10566000000E+00 0.  1.
        994   -1    0    0    0    0 -0.00000000000E+00 -0.00000000000E+00  0.11368683772E-12  0.17120000000E+03  0.17120000000E+03 0.  0.
         13    1    1    2    0    0 -0.13097651146E+02 -0.49026496021E+00  0.49471893067E+02  0.51178786552E+02  0.10566000000E+00 0.  1.
        994    1    1    2    0    0  0.20227586679E+01  0.87324071822E+01  0.20539944091E+01  0.17144680044E+03  0.17120000000E+03 0.  0.
        998    1    1    2    0    0  0.11074892479E+02 -0.82421422220E+01  0.14484741088E+04  0.14485744130E+04  0.10000000000E+02 0.  1.
</event>
<event>
 5    1  0.1572996E-008  0.3847770E+03  0.7957747E-01  0.3430618E+00
         13   -1    0    0    0    0  0.00000000000E+00  0.00000000000E+00  0.14999999963E+04  0.15000000000E+04  0.10566000000E+00 0.  1.
        994   -1    0    0    0    0 -0.00000000000E+00 -0.00000000000E+00  0.11368683772E-12  0.17120000000E+03  0.17120000000E+03 0.  0.
         13    1    1    2    0    0  0.89128536646E+01 -0.90247833640E+01  0.44931026001E+02  0.46687192427E+02  0.10566000000E+00 0.  1.
        994    1    1    2    0    0 -0.12970468904E+02  0.57537319724E+01  0.24037629112E+01  0.17180383165E+03  0.17120000000E+03 0.  0.
        998    1    1    2    0    0  0.40576152394E+01  0.32710513916E+01  0.14526652074E+04  0.14527089759E+04  0.10000000000E+02 0.  1.
</event>
<event>
 5    1  0.1572996E-008  0.3778376E+03  0.7957747E-01  0.3460628E+00
         13   -1    0    0    0    0  0.00000000000E+00  0.00000000000E+00  0.14999999963E+04  0.15000000000E+04  0.10566000000E+00 0.  1.
        994   -1    0    0    0    0 -0.00000000000E+00 -0.00000000000E+00  0.11368683772E-12  0.17120000000E+03  0.17120000000E+03 0.  0.
         13    1    1    2    0    0  0.32385409618E+02  0.40308955143E+01  0.96570448841E+02  0.10193588979E+03  0.10566000000E+00 0.  1.
        994    1    1    2    0    0 -0.27007004745E+02 -0.58878134548E+01  0.78055192146E+01  0.17359265763E+03  0.17120000000E+03 0.  0.
        998    1    1    2    0    0 -0.53784048728E+01  0.18569179405E+01  0.13956240282E+04  0.13956714526E+04  0.10000000000E+02 0.  1.
</event>
<event>
 5    1  0.1572996E-008  0.3810895E+03  0.7957747E-01  0.3446428E+00
         13   -1    0    0    0    0  0.00000000000E+00  0.00000000000E+00  0.14999999963E+04  0.15000000000E+04  0.10566000000E+00 0.  1.
        994   -1    0    0    0    0 -0.00000000000E+00 -0.00000000000E+00  0.11368683772E-12  0.17120000000E+03  0.17120000000E+03 0.  0.
         13    1    1    2    0    0  0.19250839439E+02 -0.19434124136E+02  0.14550550371E+02  0.30984022982E+02  0.10566000000E+00 0.  1.
        994    1    1    2    0    0 -0.19423682639E+02  0.25757490510E+02  0.20722378354E+02  0.17544111471E+03  0.17120000000E+03 0.  0.
        998    1    1    2    0    0  0.17284319974E+00 -0.63233663741E+01  0.14647270676E+04  0.14647748623E+04  0.10000000000E+02 0.  1.
</event>
<event>
 5    1  0.1572996E-008  0.3741849E+03  0.7957747E-01  0.3476876E+00
         13   -1    0    0    0    0  0.00000000000E+00  0.00000000000E+00  0.14999999963E+04  0.15000000000E+04  0.10566000000E+00 0. -1.
        994   -1    0    0    0    0 -0.00000000000E+00 -0.00000000000E+00  0.11368683772E-12  0.17120000000E+03  0.17120000000E+03 0.  0.
         13    1    1    2    0    0 -0.13095586733E+02  0.95956094474E+01  0.15411616840E+02  0.22385245369E+02  0.10566000000E+00 0. -1.
        994    1    1    2    0    0  0.68670980555E+01 -0.12737491236E+02  0.78119440017E+01  0.17198798559E+03  0.17120000000E+03 0.  0.
        998    1    1    2    0    0  0.62284886773E+01  0.31418817883E+01  0.14767764354E+04  0.14768267690E+04  0.10000000000E+02 0. -1.
</event>
<event>
 5    1  0.1572996E-008  0.3727620E+03  0.7957747E-01  0.3483293E+00
         13   -1    0    0    0    0  0.00000000000E+00  0.00000000000E+00  0.14999999963E+04  0.15000000000E+04  0.10566000000E+00 0.  1.
        994   -1    0    0    0    0 -0.00000000000E+00 -0.00000000000E+00  0.11368683772E-12  0.17120000000E+03  0.17120000000E+03 0.  0.
         13    1    1    2    0    0 -0.12877711417E+03 -0.10430332246E+02  0.45441137556E+03  0.47242147111E+03  0.10566000000E+00 0.  1.
        994    1    1    2    0    0  0.12663126563E+03  0.13024218992E+02  0.72045063233E+02  0.22517779387E+03  0.17120000000E+03 0.  0.
        998    1    1    2    0    0  0.21458485383E+01 -0.25938867464E+01  0.97354355748E+03  0.97360073502E+03  0.10000000000E+02 0.  1.
</event>
<event>
 5    1  0.1572996E-008  0.3822069E+03  0.7957747E-01  0.3441605E+00
         13   -1    0    0    0    0  0.00000000000E+00  0.00000000000E+00  0.14999999963E+04  0.15000000000E+04  0.10566000000E+00 0. -1.
        994   -1    0    0    0    0 -0.00000000000E+00 -0.00000000000E+00  0.11368683772E-12  0.17120000000E+03  0.17120000000E+03 0.  0.
         13    1    1    2    0    0  0.18023788724E+02  0.19450761733E+01  0.55229415673E+02  0.58128648711E+02  0.10566000000E+00 0. -1.
        994    1    1    2    0    0 -0.28303782039E+01 -0.12702379934E+02  0.35855009612E+01  0.17173135216E+03  0.17120000000E+03 0.  0.
        998    1    1    2    0    0 -0.15193410520E+02  0.10757303760E+02  0.14411850796E+04  0.14413399991E+04  0.10000000000E+02 0. -1.
</event>
<event>
 5    1  0.1572996E-008  0.3695012E+03  0.7957747E-01  0.3498186E+00
         13   -1    0    0    0    0  0.00000000000E+00  0.00000000000E+00  0.14999999963E+04  0.15000000000E+04  0.10566000000E+00 0. -1.
        994   -1    0    0    0    0 -0.00000000000E+00 -0.00000000000E+00  0.11368683772E-12  0.17120000000E+03  0.17120000000E+03 0.  0.
         13    1    1    2    0    0 -0.41955528642E+02 -0.18110073515E+02  0.10510329364E+03  0.11460782976E+03  0.10566000000E+00 0. -1.
        994    1    1    2    0    0  0.51682019546E+02 -0.39176997494E+02  0.24242038735E+02  0.18466993453E+03  0.17120000000E+03 0.  0.
        998    1    1    2    0    0 -0.97264909040E+01  0.57287071009E+02  0.13706546639E+04  0.13719222357E+04  0.10000000000E+02 0. -1.
</event>
<event>
 5    1  0.1572996E-008  0.3804694E+03  0.7957747E-01  0.3449117E+00
         13   -1    0    0    0    0  0.00000000000E+00  0.00000000000E+00  0.14999999963E+04  0.15000000000E+04  0.10566000000E+00 0.  1.
        994   -1    0    0    0    0 -0.00000000000E+00 -0.00000000000E+00  0.11368683772E-12  0.17120000000E+03  0.17120000000E+03 0.  0.
         13    1    1    2    0    0 -0.87327973212E+02 -0.46800949504E+02  0.51412412729E+03  0.52358393139E+03  0.10566000000E+00 0.  1.
        994    1    1    2    0    0  0.12438419554E+03  0.50286854130E+02  0.66519352162E+02  0.22745210487E+03  0.17120000000E+03 0.  0.
        998    1    1    2    0    0 -0.37056222323E+02 -0.34859046261E+01  0.91935651683E+03  0.92016396375E+03  0.10000000000E+02 0.  1.
</event>
<event>
 5    1  0.1572996E-008  0.3772022E+03  0.7957747E-01  0.3463432E+00
         13   -1    0    0    0    0  0.00000000000E+00  0.00000000000E+00  0.14999999963E+04  0.15000000000E+04  0.10566000000E+00 0.  1.
        994   -1    0    0    0    0 -0.00000000000E+00 -0.00000000000E+00  0.11368683772E-12  0.17120000000E+03  0.17120000000E+03 0.  0.
         13    1    1    2    0    0 -0.38169566184E+02  0.23464139708E+02  0.24424730555E+03  0.24832285248E+03  0.10566000000E+00 0.  1.
        994    1    1    2    0    0 -0.10473699946E+02  0.11250084626E+02  0.63497585216E+01  0.17200587847E+03  0.17120000000E+03 0.  0.
        998    1    1    2    0    0  0.48643266131E+02 -0.34714224335E+02  0.12494029322E+04  0.12508712690E+04  0.10000000000E+02 0.  1.
</event>
<event>
 5    1  0.1572996E-008  0.3757737E+03  0.7957747E-01  0.3469770E+00
         13   -1    0    0    0    0  0.00000000000E+00  0.00000000000E+00  0.14999999963E+04  0.15000000000E+04  0.10566000000E+00 0. -1.
        994   -1    0    0    0    0 -0.00000000000E+00 -0.00000000000E+00  0.11368683772E-12  0.17120000000E+03  0.17120000000E+03 0.  0.
         13    1    1    2    0    0  0.64087245049E+01 -0.13622045106E+02  0.15249201074E+02  0.21428512783E+02  0.10566000000E+00 0. -1.
        994    1    1    2    0    0 -0.14184422442E+02  0.64388741068E+01  0.71050618767E+01  0.17205399979E+03  0.17120000000E+03 0.  0.
        998    1    1    2    0    0  0.77756979374E+01  0.71831709988E+01  0.14776457333E+04  0.14777174874E+04  0.10000000000E+02 0. -1.
</event>
<event>
 5    1  0.1572996E-008  0.3708061E+03  0.7957747E-01  0.3492194E+00
         13   -1    0    0    0    0  0.00000000000E+00  0.00000000000E+00  0.14999999963E+04  0.15000000000E+04  0.10566000000E+00 0. -1.
        994   -1    0    0    0    0 -0.00000000000E+00 -0.00000000000E+00  0.11368683772E-12  0.17120000000E+03  0.17120000000E+03 0.  0.
         13    1    1    2    0    0  0.71780852138E+02  0.27815041674E+02  0.24129711587E+03  0.25327944363E+03  0.10566000000E+00 0. -1.
        994    1    1    2    0    0 -0.50399118762E+02 -0.28771682011E+02  0.23268239192E+02  0.18226006642E+03  0.17120000000E+03 0.  0.
        998    1    1    2    0    0 -0.21381733376E+02  0.95664033760E+00  0.12354346412E+04  0.12356604899E+04  0.10000000000E+02 0. -1.
</event>
<event>
 5    1  0.1572996E-008  0.3798150E+03  0.7957747E-01  0.3451964E+00
         13   -1    0    0    0    0  0.00000000000E+00  0.00000000000E+00  0.14999999963E+04  0.15000000000E+04  0.10566000000E+00 0.  1.
        994   -1    0    0    0    0 -0.00000000000E+00 -0.00000000000E+00  0.11368683772E-12  0.17120000000E+03  0.17120000000E+03 0.  0.
         13    1    1    2    0    0 -0.23071714663E+02 -0.13227027149E+00  0.61855322579E+02  0.66018282379E+02  0.10566000000E+00 0.  1.
        994    1    1    2    0    0  0.13047782262E+02  0.17760305216E+01  0.48067743671E+01  0.17177294311E+03  0.17120000000E+03 0.  0.
        998    1    1    2    0    0  0.10023932402E+02 -0.16437602501E+01  0.14333378993E+04  0.14334087745E+04  0.10000000000E+02 0.  1.
</event>
<event>
 5    1  0.1572996E-008  0.3816954E+03  0.7957747E-01  0.3443809E+00
         13   -1    0    0    0    0  0.00000000000E+00  0.00000000000E+00  0.14999999963E+04  0.15000000000E+04  0.10566000000E+00 0.  1.
        994   -1    0    0    0    0 -0.00000000000E+00 -0.00000000000E+00  0.11368683772E-12  0.17120000000E+03  0.17120000000E+03 0.  0.
         13    1    1    2    0    0 -0.22045484951E+02  0.20011797526E+02  0.13582226353E+03  0.13904737999E+03  0.10566000000E+00 0.  1.
        994    1    1    2    0    0  0.31981994492E+01 -0.20318192694E+02  0.46873980439E+01  0.17249483799E+03  0.17120000000E+03 0.  0.
        998    1    1    2    0    0  0.18847285502E+02  0.30639516853E+00  0.13594903347E+04  0.13596577820E+04  0.10000000000E+02 0.  1.
</event>
<event>
 5    1  0.1572996E-008  0.3813584E+03  0.7957747E-01  0.3445265E+00
         13   -1    0    0    0    0  0.00000000000E+00  0.00000000000E+00  0.14999999963E+04  0.15000000000E+04  0.10566000000E+00 0. -1.
        994   -1    0    0    0    0 -0.00000000000E+00 -0.00000000000E+00  0.11368683772E-12  0.17120000000E+03  0.17120000000E+03 0.  0.
         13    1    1    2    0    0 -0.10766351028E+02  0.63099671478E+01  0.21171098525E+02  0.24575528003E+02  0.10566000000E+00 0. -1.
        994    1    1    2    0    0  0.68578723407E+01 -0.62189050846E+01  0.37342894733E+01  0.17149078725E+03  0.17120000000E+03 0.  0.
        998    1    1    2    0    0  0.39084786872E+01 -0.91062063226E-01  0.14750946083E+04  0.14751336847E+04  0.10000000000E+02 0. -1.
</event>
<event>
 5    1  0.1572996E-008  0.3847545E+03  0.7957747E-01  0.3430714E+00
         13   -1    0    0    0    0  0.00000000000E+00  0.00000000000E+00  0.14999999963E+04  0.15000000000E+04  0.10566000000E+00 0.  1.
        994   -1    0    0    0    0 -0.00000000000E+00 -0.00000000000E+00  0.11368683772E-12  0.17120000000E+03  0.17120000000E+03 0.  0.
         13    1    1    2    0    0  0.16309050551E+02  0.95676809326E+01  0.10630006743E+03  0.10796870449E+03  0.10566000000E+00 0.  1.
        994    1    1    2    0    0 -0.86938230363E+01  0.14971744695E+01  0.20082810324E+01  0.17143890248E+03  0.17120000000E+03 0.  0.
        998    1    1    2    0    0 -0.76152275147E+01 -0.11064855402E+02  0.13916916478E+04  0.13917923930E+04  0.10000000000E+02 0.  1.
</event>
<event>
 5    1  0.1572996E-008  0.3837802E+03  0.7957747E-01  0.3434862E+00
         13   -1    0    0    0    0  0.00000000000E+00  0.00000000000E+00  0.14999999963E+04  0.15000000000E+04  0.10566000000E+00 0.  1.
        994   -1    0    0    0    0 -0.00000000000E+00 -0.00000000000E+00  0.11368683772E-12  0.17120000000E+03  0.17120000000E+03 0.  0.
         13    1    1    2    0    0  0.17593655221E+02  0.67849588338E+01  0.76122865396E+02  0.78423683735E+02  0.10566000000E+00 0.  1.
        994    1    1    2    0    0 -0.18206832335E+02 -0.37663961936E+01  0.33791065504E+01  0.17223975396E+03  0.17120000000E+03 0.  0.
        998    1    1    2    0    0  0.61317711392E+00 -0.30185626402E+01  0.14204980243E+04  0.14205365623E+04  0.10000000000E+02 0.  1.
</event>
<event>
 5    1  0.1572996E-008  0.3860938E+03  0.7957747E-01  0.3425047E+00
         13   -1    0    0    0    0  0.00000000000E+00  0.00000000000E+00  0.14999999963E+04  0.15000000000E+04  0.10566000000E+00 0.  1.
        994   -1    0    0    0    0 -0.00000000000E+00 -0.00000000000E+00  0.11368683772E-12  0.17120000000E+03  0.17120000000E+03 0.  0.
         13    1    1    2    0    0  0.98160547696E+01  0.39335137165E+01  0.54898402220E+02  0.55907720323E+02  0.10566000000E+00 0.  1.
        994    1    1    2    0    0 -0.21022428584E+01  0.58084086006E+01  0.12131087293E+01  0.17131569884E+03  0.17120000000E+03 0.  0.
        998    1    1    2    0    0 -0.77138119111E+01 -0.97419223172E+01  0.14438884853E+04  0.14439765808E+04  0.10000000000E+02 0.  1.
</event>
<event>
 5    1  0.1572996E-008  0.3798073E+03  0.7957747E-01  0.3451998E+00
         13   -1    0    0    0    0  0.00000000000E+00  0.00000000000E+00  0.14999999963E+04  0.15000000000E+04  0.10566000000E+00 0.  1.
        994   -1    0    0    0    0 -0.00000000000E+00 -0.00000000000E+00  0.11368683772E-12  0.17120000000E+03  0.17120000000E+03 0.  0.
         13    1    1    2    0    0  0.27123624852E+02  0.10081823962E+02  0.93741042028E+02  0.98105699753E+02  0.10566000000E+00 0.  1.
        994    1    1    2    0    0 -0.25062321855E+02 -0.62477912859E+01  0.64653162785E+01  0.17325817495E+03  0.17120000000E+03 0.  0.
        998    1    1    2    0    0 -0.20613029972E+01 -0.38340326760E+01  0.13997936380E+04  0.13998361253E+04  0.10000000000E+02 0.  1.
</event>
<event>
 5    1  0.1572996E-008  0.3849183E+03  0.7957747E-01  0.3430019E+00
         13   -1    0    0    0    0  0.00000000000E+00  0.00000000000E+00  0.14999999963E+04  0.15000000000E+04  0.10566000000E+00 0.  1.
        994   -1    0    0    0    0 -0.00000000000E+00 -0.00000000000E+00  0.11368683772E-12  0.17120000000E+03  0.17120000000E+03 0.  0.
         13    1    1    2    0    0 -0.14588508171E+02  0.28699929402E+01  0.63671944055E+02  0.65384929869E+02  0.10566000000E+00 0.  1.
        994    1    1    2    0    0  0.15874628084E+02 -0.19014578021E+01  0.25120376303E+01  0.17196328007E+03  0.17120000000E+03 0.  0.
        998    1    1    2    0    0 -0.12861199133E+01 -0.96853513812E+00  0.14338160146E+04  0.14338517901E+04  0.10000000000E+02 0.  1.
</event>
<event>
 5    1  0.1572996E-008  0.3692153E+03  0.7957747E-01  0.3499505E+00
         13   -1    0    0    0    0  0.00000000000E+00  0.00000000000E+00  0.14999999963E+04  0.15000000000E+04  0.10566000000E+00 0.  1.
        994   -1    0    0    0    0 -0.00000000000E+00 -0.00000000000E+00  0.11368683772E-12  0.17120000000E+03  0.17120000000E+03 0.  0.
         13    1    1    2    0    0 -0.11109232328E+02  0.14896012190E+02  0.11608996806E+02  0.21910869288E+02  0.10566000000E+00 0.  1.
        994    1    1    2    0    0  0.19024508269E+02 -0.98663899937E+01  0.12127340754E+02  0.17296181648E+03  0.17120000000E+03 0.  0.
        998    1    1    2    0    0 -0.79152759401E+01 -0.50296221965E+01  0.14762636587E+04  0.14763273142E+04  0.10000000000E+02 0.  1.
</event>
<event>
 5    1  0.1572996E-008  0.3848115E+03  0.7957747E-01  0.3430472E+00
         13   -1    0    0    0    0  0.00000000000E+00  0.00000000000E+00  0.14999999963E+04  0.15000000000E+04  0.10566000000E+00 0.  1.
        994   -1    0    0    0    0 -0.00000000000E+00 -0.00000000000E+00  0.11368683772E-12  0.17120000000E+03  0.17120000000E+03 0.  0.
         13    1    1    2    0    0 -0.19247207461E+02  0.76869251646E+00  0.10847657636E+03  0.11017361148E+03  0.10566000000E+00 0.  1.
        994    1    1    2    0    0  0.11438180725E+02  0.58605826808E+01  0.22674932465E+01  0.17169670915E+03  0.17120000000E+03 0.  0.
        998    1    1    2    0    0  0.78090267359E+01 -0.66292751973E+01  0.13892559267E+04  0.13893296794E+04  0.10000000000E+02 0.  1.
</event>
<event>
 5    1  0.1572996E-008  0.3792512E+03  0.7957747E-01  0.3454425E+00
         13   -1    0    0    0    0  0.00000000000E+00  0.00000000000E+00  0.14999999963E+04  0.15000000000E+04  0.10566000000E+00 0.  1.
        994   -1    0    0    0    0 -0.00000000000E+00 -0.00000000000E+00  0.11368683772E-12  0.17120000000E+03  0.17120000000E+03 0.  0.
         13    1    1    2    0    0 -0.28843472016E+02 -0.12276520868E+02  0.10731620864E+03  0.11180088838E+03  0.10566000000E+00 0.  1.
        994    1    1    2    0    0  0.19684367074E+02  0.22688418911E+01  0.58284676044E+01  0.17244139000E+03  0.17120000000E+03 0.  0.
        998    1    1    2    0    0  0.91591049420E+01  0.10007678977E+02  0.13868553200E+04  0.13869577216E+04  0.10000000000E+02 0.  1.
</event>
<event>
 5    1  0.3077254E-008  0.3863462E+03  0.7957747E-01  0.3423983E+00
         13   -1    0    0    0    0  0.00000000000E+00  0.00000000000E+00  0.14999999963E+04  0.15000000000E+04  0.10566000000E+00 0.  1.
        994   -1    0    0    0    0 -0.00000000000E+00 -0.00000000000E+00  0.11368683772E-12  0.17120000000E+03  0.17120000000E+03 0.  0.
         13    1    1    2    0    0  0.61640842753E+01 -0.94431802644E+01  0.66558686630E+02  0.67507329368E+02  0.10566000000E+00 0.  1.
        994    1    1    2    0    0 -0.37575426287E+01  0.79296040806E+01  0.12154085159E+01  0.17142903770E+03  0.17120000000E+03 0.  0.
        998    1    1    2    0    0 -0.24065416466E+01  0.15135761838E+01  0.14322259011E+04  0.14322636329E+04  0.10000000000E+02 0.  1.
</event>
<event>
 5    1  0.1572996E-008  0.3791943E+03  0.7957747E-01  0.3454674E+00
         13   -1    0    0    0    0  0.00000000000E+00  0.00000000000E+00  0.14999999963E+04  0.15000000000E+04  0.10566000000E+00 0. -1.
        994   -1    0    0    0    0 -0.00000000000E+00 -0.00000000000E+00  0.11368683772E-12  0.17120000000E+03  0.17120000000E+03 0.  0.
         13    1    1    2    0    0 -0.20971437799E+01 -0.35355843491E+02  0.13801701320E+03  0.14248909003E+03  0.10566000000E+00 0. -1.
        994    1    1    2    0    0 -0.85908645312E+01  0.19799730430E+02  0.61033356532E+01  0.17266303306E+03  0.17120000000E+03 0.  0.
        998    1    1    2    0    0  0.10688008311E+02  0.15556113061E+02  0.13558796474E+04  0.13560478769E+04  0.10000000000E+02 0. -1.
</event>
<event>
 5    1  0.1572996E-008  0.3843596E+03  0.7957747E-01  0.3432393E+00
         13   -1    0    0    0    0  0.00000000000E+00  0.00000000000E+00  0.14999999963E+04  0.15000000000E+04  0.10566000000E+00 0. -1.
        994   -1    0    0    0    0 -0.00000000000E+00 -0.00000000000E+00  0.11368683772E-12  0.17120000000E+03  0.17120000000E+03 0.  0.
         13    1    1    2    0    0  0.11053529823E+02  0.16650736149E+02  0.94573920034E+02  0.96662635235E+02  0.10566000000E+00 0. -1.
        994    1    1    2    0    0 -0.46696708979E+01 -0.25711867762E+02  0.42021902480E+01  0.17323395849E+03  0.17120000000E+03 0.  0.
        998    1    1    2    0    0 -0.63838589256E+01  0.90611316134E+01  0.14012238860E+04  0.14013034063E+04  0.10000000000E+02 0. -1.
</event>
<event>
 5    1  0.1668372E-008  0.3862825E+03  0.7957747E-01  0.3424251E+00
         13   -1    0    0    0    0  0.00000000000E+00  0.00000000000E+00  0.14999999963E+04  0.15000000000E+04  0.10566000000E+00 0.  1.
        994   -1    0    0    0    0 -0.00000000000E+00 -0.00000000000E+00  0.11368683772E-12  0.17120000000E+03  0.17120000000E+03 0.  0.
         13    1    1    2    0    0  0.10561615579E+02 -0.39814070785E+01  0.62618876178E+02  0.63628092410E+02  0.10566000000E+00 0.  1.
        994    1    1    2    0    0 -0.10557774007E+02  0.75926411204E+01  0.15487610311E+01  0.17170018478E+03  0.17120000000E+03 0.  0.
        998    1    1    2    0    0 -0.38415725541E-02 -0.36112340418E+01  0.14358323591E+04  0.14358717228E+04  0.10000000000E+02 0.  1.
</event>
<event>
 5    1  0.1572996E-008  0.3772064E+03  0.7957747E-01  0.3463413E+00
         13   -1    0    0    0    0  0.00000000000E+00  0.00000000000E+00  0.14999999963E+04  0.15000000000E+04  0.10566000000E+00 0.  1.
        994   -1    0    0    0    0 -0.00000000000E+00 -0.00000000000E+00  0.11368683772E-12  0.17120000000E+03  0.17120000000E+03 0.  0.
         13    1    1    2    0    0  0.96530079238E+01 -0.31857997579E+02  0.30710671867E+02  0.45290938412E+02  0.10566000000E+00 0.  1.
        994    1    1    2    0    0 -0.76508885590E+01  0.34316751892E+02  0.19247956316E+02  0.17582974543E+03  0.17120000000E+03 0.  0.
        998    1    1    2    0    0 -0.20021193647E+01 -0.24587543129E+01  0.14500413681E+04  0.14500793162E+04  0.10000000000E+02 0.  1.
</event>
<event>
 5    1  0.1572996E-008  0.3791527E+03  0.7957747E-01  0.3454856E+00
         13   -1    0    0    0    0  0.00000000000E+00  0.00000000000E+00  0.14999999963E+04  0.15000000000E+04  0.10566000000E+00 0. -1.
        994   -1    0    0    0    0 -0.00000000000E+00 -0.00000000000E+00  0.11368683772E-12  0.17120000000E+03  0.17120000000E+03 0.  0.
         13    1    1    2    0    0 -0.20959120180E+02 -0.57398072720E+01  0.51913993884E+02  0.56278806236E+02  0.10566000000E+00 0. -1.
        994    1    1    2    0    0  0.29065476516E+01  0.50824318326E+01  0.46763861542E+01  0.17136390437E+03  0.17120000000E+03 0.  0.
        998    1    1    2    0    0  0.18052572528E+02  0.65737543941E+00  0.14434096162E+04  0.14435572894E+04  0.10000000000E+02 0. -1.
</event>
<event>
 5    1  0.1572996E-008  0.3848069E+03  0.7957747E-01  0.3430492E+00
         13   -1    0    0    0    0  0.00000000000E+00  0.00000000000E+00  0.14999999963E+04  0.15000000000E+04  0.10566000000E+00 0.  1.
        994   -1    0    0    0    0 -0.00000000000E+00 -0.00000000000E+00  0.11368683772E-12  0.17120000000E+03  0.17120000000E+03 0.  0.
         13    1    1    2    0    0  0.64676864544E+01 -0.89042459443E+01  0.36040509227E+02  0.37683498156E+02  0.10566000000E+00 0.  1.
        994    1    1    2    0    0  0.68310587916E+01  0.52253803367E+01  0.19695011623E+01  0.17142720583E+03  0.17120000000E+03 0.  0.
        998    1    1    2    0    0 -0.13298745246E+02  0.36788656076E+01  0.14619899859E+04  0.14620892960E+04  0.10000000000E+02 0.  1.
</event>
<event>
 5    1  0.1670622E-008  0.3859969E+03  0.7957747E-01  0.3425455E+00
         13   -1    0    0    0    0  0.00000000000E+00  0.00000000000E+00  0.14999999963E+04  0.15000000000E+04  0.10566000000E+00 0. -1.
        994   -1    0    0    0    0 -0.00000000000E+00 -0.00000000000E+00  0.11368683772E-12  0.17120000000E+03  0.17120000000E+03 0.  0.
         13    1    1    2    0    0  0.58798996588E+01  0.10910122824E+02  0.66572748986E+02  0.67716660222E+02  0.10566000000E+00 0. -1.
        994    1    1    2    0    0 -0.88890069195E+01 -0.86317030216E+01  0.16394131247E+01  0.17165560992E+03  0.17120000000E+03 0.  0.
        998    1    1    2    0    0  0.30091072608E+01 -0.22784198028E+01  0.14317878342E+04  0.14318277299E+04  0.10000000000E+02 0.  0.
</event>
<event>
 5    1  0.1572996E-008  0.3832127E+03  0.7957747E-01  0.3437288E+00
         13   -1    0    0    0    0  0.00000000000E+00  0.00000000000E+00  0.14999999963E+04  0.15000000000E+04  0.10566000000E+00 0.  1.
        994   -1    0    0    0    0 -0.00000000000E+00 -0.00000000000E+00  0.11368683772E-12  0.17120000000E+03  0.17120000000E+03 0.  0.
         13    1    1    2    0    0 -0.15177466191E+02 -0.86051099897E+01  0.56956495544E+02  0.59568926015E+02  0.10566000000E+00 0.  1.
        994    1    1    2    0    0  0.15366536183E+02  0.15600963386E+02  0.41078572194E+01  0.17264366477E+03  0.17120000000E+03 0.  0.
        998    1    1    2    0    0 -0.18906999173E+00 -0.69958533964E+01  0.14389356435E+04  0.14389874092E+04  0.10000000000E+02 0.  1.
</event>
<event>
 5    1  0.1572996E-008  0.3841310E+03  0.7957747E-01  0.3433366E+00
         13   -1    0    0    0    0  0.00000000000E+00  0.00000000000E+00  0.14999999963E+04  0.15000000000E+04  0.10566000000E+00 0. -1.
        994   -1    0    0    0    0 -0.00000000000E+00 -0.00000000000E+00  0.11368683772E-12  0.17120000000E+03  0.17120000000E+03 0.  0.
         13    1    1    2    0    0 -0.16180996550E+02  0.15316292486E+02  0.12362621218E+03  0.12561793251E+03  0.10566000000E+00 0. -1.
        994    1    1    2    0    0  0.12873925837E+02 -0.10510924304E+01  0.26126144119E+01  0.17170646032E+03  0.17120000000E+03 0.  0.
        998    1    1    2    0    0  0.33070707133E+01 -0.14265200056E+02  0.13737611697E+04  0.13738756072E+04  0.10000000000E+02 0. -1.
</event>
<event>
 5    1  0.1572996E-008  0.3822352E+03  0.7957747E-01  0.3441483E+00
         13   -1    0    0    0    0  0.00000000000E+00  0.00000000000E+00  0.14999999963E+04  0.15000000000E+04  0.10566000000E+00 0. -1.
        994   -1    0    0    0    0 -0.00000000000E+00 -0.00000000000E+00  0.11368683772E-12  0.17120000000E+03  0.17120000000E+03 0.  0.
         13    1    1    2    0    0 -0.74529011566E+01  0.72269144729E+01  0.16713858062E+02  0.19675828923E+02  0.10566000000E+00 0. -1.
        994    1    1    2    0    0  0.91298327552E+01 -0.69065178190E+00  0.32873045227E+01  0.17147617099E+03  0.17120000000E+03 0.  0.
        998    1    1    2    0    0 -0.16769315986E+01 -0.65362626910E+01  0.14799988337E+04  0.14800480001E+04  0.10000000000E+02 0. -1.
</event>
<event>
 5    1  0.1574291E-008  0.3840848E+03  0.7957747E-01  0.3433563E+00
         13   -1    0    0    0    0  0.00000000000E+00  0.00000000000E+00  0.14999999963E+04  0.15000000000E+04  0.10566000000E+00 0.  1.
        994   -1    0    0    0    0 -0.00000000000E+00 -0.00000000000E+00  0.11368683772E-12  0.17120000000E+03  0.17120000000E+03 0.  0.
         13    1    1    2    0    0  0.44599628990E+01 -0.94549210070E+01  0.25186341497E+02  0.27269942471E+02  0.10566000000E+00 0.  1.
        994    1    1    2    0    0 -0.40929591729E+01  0.10895803806E+02  0.25321856785E+01  0.17161387712E+03  0.17120000000E+03 0.  0.
        998    1    1    2    0    0 -0.36700372603E+00 -0.14408827987E+01  0.14722814691E+04  0.14723161804E+04  0.10000000000E+02 0.  1.
</event>
<event>
 5    1  0.1572996E-008  0.3684675E+03  0.7957747E-01  0.3502964E+00
         13   -1    0    0    0    0  0.00000000000E+00  0.00000000000E+00  0.14999999963E+04  0.15000000000E+04  0.10566000000E+00 0. -1.
        994   -1    0    0    0    0 -0.00000000000E+00 -0.00000000000E+00  0.11368683772E-12  0.17120000000E+03  0.17120000000E+03 0.  0.
         13    1    1    2    0    0 -0.21598593205E+02 -0.25374449643E+01  0.19366604562E+02  0.29120686662E+02  0.10566000000E+00 0. -1.
        994    1    1    2    0    0  0.11140751925E+02  0.38960893855E+01  0.10556652104E+02  0.17193073829E+03  0.17120000000E+03 0.  0.
        998    1    1    2    0    0  0.10457841280E+02 -0.13586444212E+01  0.14700767396E+04  0.14701485750E+04  0.10000000000E+02 0. -1.
</event>
<event>
 5    1  0.1572996E-008  0.3798949E+03  0.7957747E-01  0.3451616E+00
         13   -1    0    0    0    0  0.00000000000E+00  0.00000000000E+00  0.14999999963E+04  0.15000000000E+04  0.10566000000E+00 0. -1.
        994   -1    0    0    0    0 -0.00000000000E+00 -0.00000000000E+00  0.11368683772E-12  0.17120000000E+03  0.17120000000E+03 0.  0.
         13    1    1    2    0    0  0.31404096304E+02  0.37174377090E+02  0.27678067529E+03  0.28102616419E+03  0.10566000000E+00 0. -1.
        994    1    1    2    0    0 -0.11114980226E+02 -0.29646963617E+02  0.75458552623E+01  0.17426664962E+03  0.17120000000E+03 0.  0.
        998    1    1    2    0    0 -0.20289116078E+02 -0.75274134731E+01  0.12156734657E+04  0.12159071862E+04  0.10000000000E+02 0. -1.
</event>
<event>
 5    1  0.1572996E-008  0.3797100E+03  0.7957747E-01  0.3452422E+00
         13   -1    0    0    0    0  0.00000000000E+00  0.00000000000E+00  0.14999999963E+04  0.15000000000E+04  0.10566000000E+00 0. -1.
        994   -1    0    0    0    0 -0.00000000000E+00 -0.00000000000E+00  0.11368683772E-12  0.17120000000E+03  0.17120000000E+03 0.  0.
         13    1    1    2    0    0  0.41969778649E+02  0.23671987904E+02  0.26275265602E+03  0.26713441325E+03  0.10566000000E+00 0. -1.
        994    1    1    2    0    0 -0.21273107267E+02 -0.25060686724E+02  0.79038400683E+01  0.17450642911E+03  0.17120000000E+03 0.  0.
        998    1    1    2    0    0 -0.20696671383E+02  0.13886988193E+01  0.12293435002E+04  0.12295591576E+04  0.10000000000E+02 0.  0.
</event>
<event>
 5    1  0.1572996E-008  0.3711075E+03  0.7957747E-01  0.3490816E+00
         13   -1    0    0    0    0  0.00000000000E+00  0.00000000000E+00  0.14999999963E+04  0.15000000000E+04  0.10566000000E+00 0. -1.
        994   -1    0    0    0    0 -0.00000000000E+00 -0.00000000000E+00  0.11368683772E-12  0.17120000000E+03  0.17120000000E+03 0.  0.
         13    1    1    2    0    0 -0.10425654124E+02  0.19321447630E+02  0.23768470345E+02  0.32356822294E+02  0.10566000000E+00 0. -1.
        994    1    1    2    0    0  0.12436736692E+02 -0.16859955355E+02  0.10204676847E+02  0.17277877747E+03  0.17120000000E+03 0.  0.
        998    1    1    2    0    0 -0.20110825685E+01 -0.24614922746E+01  0.14660268491E+04  0.14660644002E+04  0.10000000000E+02 0. -1.
</event>
<event>
 5    1  0.1572996E-008  0.3702860E+03  0.7957747E-01  0.3494577E+00
         13   -1    0    0    0    0  0.00000000000E+00  0.00000000000E+00  0.14999999963E+04  0.15000000000E+04  0.10566000000E+00 0. -1.
        994   -1    0    0    0    0 -0.00000000000E+00 -0.00000000000E+00  0.11368683772E-12  0.17120000000E+03  0.17120000000E+03 0.  0.
         13    1    1    2    0    0 -0.54722754179E+02  0.34802937156E+01  0.11792779251E+03  0.13005255737E+03  0.10566000000E+00 0. -1.
        994    1    1    2    0    0  0.63328132043E+02 -0.41013491311E+01  0.25319731903E+02  0.18433068707E+03  0.17120000000E+03 0.  0.
        998    1    1    2    0    0 -0.86053778642E+01  0.62105541552E+00  0.13567524719E+04  0.13568167556E+04  0.10000000000E+02 0. -1.
</event>
<event>
 5    1  0.1572996E-008  0.3739832E+03  0.7957747E-01  0.3477783E+00
         13   -1    0    0    0    0  0.00000000000E+00  0.00000000000E+00  0.14999999963E+04  0.15000000000E+04  0.10566000000E+00 0. -1.
        994   -1    0    0    0    0 -0.00000000000E+00 -0.00000000000E+00  0.11368683772E-12  0.17120000000E+03  0.17120000000E+03 0.  0.
         13    1    1    2    0    0  0.11066167984E+02  0.37611529493E+02  0.14236401340E+03  0.14766384358E+03  0.10566000000E+00 0. -1.
        994    1    1    2    0    0 -0.20469226113E+02  0.44966577273E+02  0.15573812155E+02  0.17886577625E+03  0.17120000000E+03 0.  0.
        998    1    1    2    0    0  0.94030581286E+01 -0.82578106766E+02  0.13420621707E+04  0.13446703802E+04  0.10000000000E+02 0. -1.
</event>
<event>
 5    1  0.1572996E-008  0.3811711E+03  0.7957747E-01  0.3446075E+00
         13   -1    0    0    0    0  0.00000000000E+00  0.00000000000E+00  0.14999999963E+04  0.15000000000E+04  0.10566000000E+00 0.  1.
        994   -1    0    0    0    0 -0.00000000000E+00 -0.00000000000E+00  0.11368683772E-12  0.17120000000E+03  0.17120000000E+03 0.  0.
         13    1    1    2    0    0 -0.74635772583E+01 -0.42326189755E+02  0.22649106148E+03  0.23053291179E+03  0.10566000000E+00 0.  1.
        994    1    1    2    0    0  0.20784089732E+02  0.38337965572E+02  0.99021742608E+01  0.17694425971E+03  0.17120000000E+03 0.  0.
        998    1    1    2    0    0 -0.13320512474E+02  0.39882241831E+01  0.12636067605E+04  0.12637228285E+04  0.10000000000E+02 0.  1.
</event>
<event>
 5    1  0.1572996E-008  0.3846571E+03  0.7957747E-01  0.3431128E+00
         13   -1    0    0    0    0  0.00000000000E+00  0.00000000000E+00  0.14999999963E+04  0.15000000000E+04  0.10566000000E+00 0. -1.
        994   -1    0    0    0    0 -0.00000000000E+00 -0.00000000000E+00  0.11368683772E-12  0.17120000000E+03  0.17120000000E+03 0.  0.
         13    1    1    2    0    0 -0.13762667802E+02  0.42918593206E+01  0.58750475221E+02  0.60493475550E+02  0.10566000000E+00 0. -1.
        994    1    1    2    0    0  0.62793133156E+01  0.24779813953E+00  0.19305214836E+01  0.17132617457E+03  0.17120000000E+03 0.  0.
        998    1    1    2    0    0  0.74833544860E+01 -0.45396574602E+01  0.14393189996E+04  0.14393803499E+04  0.10000000000E+02 0. -1.
</event>
<event>
 5    1  0.1572996E-008  0.3798342E+03  0.7957747E-01  0.3451881E+00
         13   -1    0    0    0    0  0.00000000000E+00  0.00000000000E+00  0.14999999963E+04  0.15000000000E+04  0.10566000000E+00 0. -1.
        994   -1    0    0    0    0 -0.00000000000E+00 -0.00000000000E+00  0.11368683772E-12  0.17120000000E+03  0.17120000000E+03 0.  0.
         13    1    1    2    0    0  0.27422342005E+02 -0.51244346299E+01  0.92191606248E+02  0.96320029578E+02  0.10566000000E+00 0. -1.
        994    1    1    2    0    0 -0.14497950162E+02 -0.11035373913E+01  0.49242875172E+01  0.17188687257E+03  0.17120000000E+03 0.  0.
        998    1    1    2    0    0 -0.12924391844E+02  0.62279720212E+01  0.14028841025E+04  0.14029930979E+04  0.10000000000E+02 0. -1.
</event>
<event>
 5    1  0.1572996E-008  0.3857472E+03  0.7957747E-01  0.3426510E+00
         13   -1    0    0    0    0  0.00000000000E+00  0.00000000000E+00  0.14999999963E+04  0.15000000000E+04  0.10566000000E+00 0. -1.
        994   -1    0    0    0    0 -0.00000000000E+00 -0.00000000000E+00  0.11368683772E-12  0.17120000000E+03  0.17120000000E+03 0.  0.
         13    1    1    2    0    0 -0.89689622453E+01  0.79624648746E+01  0.57151789367E+02  0.58396757809E+02  0.10566000000E+00 0. -1.
        994    1    1    2    0    0  0.71112691048E+01 -0.56440968313E+01  0.15301054388E+01  0.17144738901E+03  0.17120000000E+03 0.  0.
        998    1    1    2    0    0  0.18576931405E+01 -0.23183680433E+01  0.14413181015E+04  0.14413558532E+04  0.10000000000E+02 0. -1.
</event>
<event>
 5    1  0.1572996E-008  0.3827491E+03  0.7957747E-01  0.3439275E+00
         13   -1    0    0    0    0  0.00000000000E+00  0.00000000000E+00  0.14999999963E+04  0.15000000000E+04  0.10566000000E+00 0. -1.
        994   -1    0    0    0    0 -0.00000000000E+00 -0.00000000000E+00  0.11368683772E-12  0.17120000000E+03  0.17120000000E+03 0.  0.
         13    1    1    2    0    0 -0.25904330014E+02 -0.22363656023E+02  0.20596469915E+03  0.20878849558E+03  0.10566000000E+00 0. -1.
        994    1    1    2    0    0  0.13502305456E+02  0.19794116353E+02  0.46560837691E+01  0.17293131125E+03  0.17120000000E+03 0.  0.
        998    1    1    2    0    0  0.12402024558E+02  0.25695396699E+01  0.12893792134E+04  0.12894801932E+04  0.10000000000E+02 0. -1.
</event>
<event>
 5    1  0.1572996E-008  0.3801823E+03  0.7957747E-01  0.3450365E+00
         13   -1    0    0    0    0  0.00000000000E+00  0.00000000000E+00  0.14999999963E+04  0.15000000000E+04  0.10566000000E+00 0. -1.
        994   -1    0    0    0    0 -0.00000000000E+00 -0.00000000000E+00  0.11368683772E-12  0.17120000000E+03  0.17120000000E+03 0.  0.
         13    1    1    2    0    0 -0.33170824609E+01 -0.18635124757E+02  0.44182523846E+02  0.48066386261E+02  0.10566000000E+00 0. -1.
        994    1    1    2    0    0 -0.24289706572E+02  0.82030112903E+01  0.62401479471E+01  0.17322141521E+03  0.17120000000E+03 0.  0.
        998    1    1    2    0    0  0.27606789033E+02  0.10432113466E+02  0.14495773245E+04  0.14499121985E+04  0.10000000000E+02 0. -1.
</event>
<event>
 5    1  0.1572996E-008  0.3781403E+03  0.7957747E-01  0.3459296E+00
         13   -1    0    0    0    0  0.00000000000E+00  0.00000000000E+00  0.14999999963E+04  0.15000000000E+04  0.10566000000E+00 0.  1.
        994   -1    0    0    0    0 -0.00000000000E+00 -0.00000000000E+00  0.11368683772E-12  0.17120000000E+03  0.17120000000E+03 0.  0.
         13    1    1    2    0    0  0.16732648651E+02 -0.13891497331E+02  0.43127385670E+02  0.48300494694E+02  0.10566000000E+00 0.  1.
        994    1    1    2    0    0 -0.15145021289E+02  0.20467459114E+02  0.72585240703E+01  0.17323514287E+03  0.17120000000E+03 0.  0.
        998    1    1    2    0    0 -0.15876273623E+01 -0.65759617837E+01  0.14496140865E+04  0.14496643624E+04  0.10000000000E+02 0.  1.
</event>
<event>
 5    1  0.1572996E-008  0.3844739E+03  0.7957747E-01  0.3431907E+00
         13   -1    0    0    0    0  0.00000000000E+00  0.00000000000E+00  0.14999999963E+04  0.15000000000E+04  0.10566000000E+00 0.  1.
        994   -1    0    0    0    0 -0.00000000000E+00 -0.00000000000E+00  0.11368683772E-12  0.17120000000E+03  0.17120000000E+03 0.  0.
         13    1    1    2    0    0 -0.11630360541E+02 -0.11043224406E+02  0.68599191614E+02  0.70449118842E+02  0.10566000000E+00 0.  1.
        994    1    1    2    0    0  0.83572438442E+01  0.34650915388E+01  0.21612490125E+01  0.17145250474E+03  0.17120000000E+03 0.  0.
        998    1    1    2    0    0  0.32731166963E+01  0.75781328671E+01  0.14292395557E+04  0.14292983764E+04  0.10000000000E+02 0.  1.
</event>
<event>
 5    1  0.1572996E-008  0.3749650E+03  0.7957747E-01  0.3473379E+00
         13   -1    0    0    0    0  0.00000000000E+00  0.00000000000E+00  0.14999999963E+04  0.15000000000E+04  0.10566000000E+00 0. -1.
        994   -1    0    0    0    0 -0.00000000000E+00 -0.00000000000E+00  0.11368683772E-12  0.17120000000E+03  0.17120000000E+03 0.  0.
         13    1    1    2    0    0  0.77792270896E+02  0.41517972862E+02  0.41998566235E+03  0.42914257214E+03  0.10566000000E+00 0. -1.
        994    1    1    2    0    0 -0.75592537399E+02 -0.41723717354E+02  0.32479165610E+02  0.19447219981E+03  0.17120000000E+03 0.  0.
        998    1    1    2    0    0 -0.21997334968E+01  0.20574449163E+00  0.10475351683E+04  0.10475852281E+04  0.10000000000E+02 0.  0.
</event>
<event>
 5    1  0.1572996E-008  0.3992125E+03  0.7957747E-01  0.3371545E+00
         13   -1    0    0    0    0  0.00000000000E+00  0.00000000000E+00  0.14999999963E+04  0.15000000000E+04  0.10566000000E+00 0. -1.
        994   -1    0    0    0    0 -0.00000000000E+00 -0.00000000000E+00  0.11368683772E-12  0.17120000000E+03  0.17120000000E+03 0.  0.
         13    1    1    2    0    0 -0.53912707778E+02 -0.32446421990E+02  0.56422178494E+02  0.84515227917E+02  0.10566000000E+00 0. -1.
        994    1    1    2    0    0  0.83549777164E+02  0.32911025822E+02  0.59524236020E+02  0.20227771889E+03  0.17120000000E+03 0.  0.
        998    1    1    2    0    0 -0.29637069387E+02 -0.46460383238E+00  0.13840535818E+04  0.13844070532E+04  0.10000000000E+02 0. -1.
</event>
<event>
 5    1  0.1572996E-008  0.3695081E+03  0.7957747E-01  0.3498155E+00
         13   -1    0    0    0    0  0.00000000000E+00  0.00000000000E+00  0.14999999963E+04  0.15000000000E+04  0.10566000000E+00 0.  1.
        994   -1    0    0    0    0 -0.00000000000E+00 -0.00000000000E+00  0.11368683772E-12  0.17120000000E+03  0.17120000000E+03 0.  0.
         13    1    1    2    0    0 -0.21657170490E+02 -0.40251530757E+02  0.10396484345E+03  0.11356900369E+03  0.10566000000E+00 0.  1.
        994    1    1    2    0    0  0.11524044996E+02  0.33006390670E+02  0.13771433486E+02  0.17527497773E+03  0.17120000000E+03 0.  0.
        998    1    1    2    0    0  0.10133125493E+02  0.72451400861E+01  0.13822637193E+04  0.13823560186E+04  0.10000000000E+02 0.  1.
</event>
<event>
 5    1  0.1572996E-008  0.3790446E+03  0.7957747E-01  0.3455329E+00
         13   -1    0    0    0    0  0.00000000000E+00  0.00000000000E+00  0.14999999963E+04  0.15000000000E+04  0.10566000000E+00 0.  1.
        994   -1    0    0    0    0 -0.00000000000E+00 -0.00000000000E+00  0.11368683772E-12  0.17120000000E+03  0.17120000000E+03 0.  0.
         13    1    1    2    0    0 -0.38087715700E+02 -0.13984278416E+02  0.22801617171E+03  0.23159797032E+03  0.10566000000E+00 0.  1.
        994    1    1    2    0    0 -0.10938428725E+02  0.47735662118E+01  0.50940149955E+01  0.17169107474E+03  0.17120000000E+03 0.  0.
        998    1    1    2    0    0  0.49026144425E+02  0.92107122039E+01  0.12668898096E+04  0.12679109549E+04  0.10000000000E+02 0.  1.
</event>
<event>
 5    1  0.1572996E-008  0.3812445E+03  0.7957747E-01  0.3445758E+00
         13   -1    0    0    0    0  0.00000000000E+00  0.00000000000E+00  0.14999999963E+04  0.15000000000E+04  0.10566000000E+00 0. -1.
        994   -1    0    0    0    0 -0.00000000000E+00 -0.00000000000E+00  0.11368683772E-12  0.17120000000E+03  0.17120000000E+03 0.  0.
         13    1    1    2    0    0  0.14591408404E+02  0.33790653487E+02  0.17068528916E+03  0.17460869555E+03  0.10566000000E+00 0. -1.
        994    1    1    2    0    0 -0.18421098050E+02 -0.33346421918E+02  0.83531421441E+01  0.17558626282E+03  0.17120000000E+03 0.  0.
        998    1    1    2    0    0  0.38296896463E+01 -0.44423156953E+00  0.13209615650E+04  0.13210050416E+04  0.10000000000E+02 0. -1.
</event>
<event>
 5    1  0.1572996E-008  0.3804863E+03  0.7957747E-01  0.3449044E+00
         13   -1    0    0    0    0  0.00000000000E+00  0.00000000000E+00  0.14999999963E+04  0.15000000000E+04  0.10566000000E+00 0.  1.
        994   -1    0    0    0    0 -0.00000000000E+00 -0.00000000000E+00  0.11368683772E-12  0.17120000000E+03  0.17120000000E+03 0.  0.
         13    1    1    2    0    0 -0.24714318504E+02 -0.43949192042E+01  0.75939660469E+02  0.79980973051E+02  0.10566000000E+00 0.  1.
        994    1    1    2    0    0  0.26404678324E+02  0.61715378260E+00  0.62196014678E+01  0.17333698785E+03  0.17120000000E+03 0.  0.
        998    1    1    2    0    0 -0.16903598202E+01  0.37777654216E+01  0.14178407343E+04  0.14178820391E+04  0.10000000000E+02 0.  1.
</event>
<event>
 5    1  0.1572996E-008  0.3783956E+03  0.7957747E-01  0.3458174E+00
         13   -1    0    0    0    0  0.00000000000E+00  0.00000000000E+00  0.14999999963E+04  0.15000000000E+04  0.10566000000E+00 0. -1.
        994   -1    0    0    0    0 -0.00000000000E+00 -0.00000000000E+00  0.11368683772E-12  0.17120000000E+03  0.17120000000E+03 0.  0.
         13    1    1    2    0    0 -0.26341675725E+02 -0.21871374060E+02  0.11999835654E+03  0.12478724943E+03  0.10566000000E+00 0. -1.
        994    1    1    2    0    0 -0.27255342196E+01  0.28001730981E+02  0.76098991528E+01  0.17366311076E+03  0.17120000000E+03 0.  0.
        998    1    1    2    0    0  0.29067209944E+02 -0.61303569215E+01  0.13723917406E+04  0.13727496398E+04  0.10000000000E+02 0. -1.
</event>
<event>
 5    1  0.1572996E-008  0.3842185E+03  0.7957747E-01  0.3432993E+00
         13   -1    0    0    0    0  0.00000000000E+00  0.00000000000E+00  0.14999999963E+04  0.15000000000E+04  0.10566000000E+00 0. -1.
        994   -1    0    0    0    0 -0.00000000000E+00 -0.00000000000E+00  0.11368683772E-12  0.17120000000E+03  0.17120000000E+03 0.  0.
         13    1    1    2    0    0 -0.58398404417E+01  0.12127562376E+02  0.42923689522E+02  0.44984839577E+02  0.10566000000E+00 0. -1.
        994    1    1    2    0    0  0.47635315399E+01 -0.16020667150E+02  0.29401990966E+01  0.17203905888E+03  0.17120000000E+03 0.  0.
        998    1    1    2    0    0  0.10763089018E+01  0.38931047742E+01  0.14541361077E+04  0.14541761015E+04  0.10000000000E+02 0. -1.
</event>
<event>
 5    1  0.1572996E-008  0.3827833E+03  0.7957747E-01  0.3439128E+00
         13   -1    0    0    0    0  0.00000000000E+00  0.00000000000E+00  0.14999999963E+04  0.15000000000E+04  0.10566000000E+00 0.  1.
        994   -1    0    0    0    0 -0.00000000000E+00 -0.00000000000E+00  0.11368683772E-12  0.17120000000E+03  0.17120000000E+03 0.  0.
         13    1    1    2    0    0 -0.23496299990E+01 -0.16142674488E+02  0.48810373216E+02  0.51464263312E+02  0.10566000000E+00 0.  1.
        994    1    1    2    0    0  0.37934715869E+01  0.55174642626E+01  0.28832478126E+01  0.17135514570E+03  0.17120000000E+03 0.  0.
        998    1    1    2    0    0 -0.14438415879E+01  0.10625210226E+02  0.14483063753E+04  0.14483805910E+04  0.10000000000E+02 0.  1.
</event>
<event>
 5    1  0.1572996E-008  0.3836303E+03  0.7957747E-01  0.3435502E+00
         13   -1    0    0    0    0  0.00000000000E+00  0.00000000000E+00  0.14999999963E+04  0.15000000000E+04  0.10566000000E+00 0. -1.
        994   -1    0    0    0    0 -0.00000000000E+00 -0.00000000000E+00  0.11368683772E-12  0.17120000000E+03  0.17120000000E+03 0.  0.
         13    1    1    2    0    0  0.22285261377E+02 -0.62705626967E+01  0.10857732619E+03  0.11101801547E+03  0.10566000000E+00 0. -1.
        994    1    1    2    0    0 -0.23535072615E+02  0.17168387104E+01  0.41533184692E+01  0.17286855478E+03  0.17120000000E+03 0.  0.
        998    1    1    2    0    0  0.12498112374E+01  0.45537239863E+01  0.13872693516E+04  0.13873134297E+04  0.10000000000E+02 0. -1.
</event>
<event>
 5    1  0.1572996E-008  0.3818203E+03  0.7957747E-01  0.3443271E+00
         13   -1    0    0    0    0  0.00000000000E+00  0.00000000000E+00  0.14999999963E+04  0.15000000000E+04  0.10566000000E+00 0. -1.
        994   -1    0    0    0    0 -0.00000000000E+00 -0.00000000000E+00  0.11368683772E-12  0.17120000000E+03  0.17120000000E+03 0.  0.
         13    1    1    2    0    0  0.33042878007E+02 -0.14424182040E+02  0.18098743144E+03  0.18454362714E+03  0.10566000000E+00 0. -1.
        994    1    1    2    0    0 -0.30676694525E+02  0.16204438027E+02  0.72270330737E+01  0.17482938370E+03  0.17120000000E+03 0.  0.
        998    1    1    2    0    0 -0.23661834814E+01 -0.17802559870E+01  0.13117855318E+04  0.13118269892E+04  0.10000000000E+02 0. -1.
</event>
<event>
 5    1  0.1572996E-008  0.3684294E+03  0.7957747E-01  0.3503140E+00
         13   -1    0    0    0    0  0.00000000000E+00  0.00000000000E+00  0.14999999963E+04  0.15000000000E+04  0.10566000000E+00 0. -1.
        994   -1    0    0    0    0 -0.00000000000E+00 -0.00000000000E+00  0.11368683772E-12  0.17120000000E+03  0.17120000000E+03 0.  0.
         13    1    1    2    0    0 -0.45424516809E+02 -0.49543981528E+02  0.19348213438E+03  0.20482514573E+03  0.10566000000E+00 0. -1.
        994    1    1    2    0    0  0.69736567517E+02  0.26508421037E+02  0.29720950582E+02  0.18909960375E+03  0.17120000000E+03 0.  0.
        998    1    1    2    0    0 -0.24312050708E+02  0.23035560491E+02  0.12767969113E+04  0.12772752505E+04  0.10000000000E+02 0. -1.
</event>
<event>
 5    1  0.1572996E-008  0.3794904E+03  0.7957747E-01  0.3453380E+00
         13   -1    0    0    0    0  0.00000000000E+00  0.00000000000E+00  0.14999999963E+04  0.15000000000E+04  0.10566000000E+00 0. -1.
        994   -1    0    0    0    0 -0.00000000000E+00 -0.00000000000E+00  0.11368683772E-12  0.17120000000E+03  0.17120000000E+03 0.  0.
         13    1    1    2    0    0  0.10451874808E+02 -0.75467589028E+01  0.16893151091E+02  0.21250528812E+02  0.10566000000E+00 0. -1.
        994    1    1    2    0    0 -0.94294255227E+01  0.89310379192E+01  0.49556311345E+01  0.17176342970E+03  0.17120000000E+03 0.  0.
        998    1    1    2    0    0 -0.10224492855E+01 -0.13842790164E+01  0.14781512141E+04  0.14781860415E+04  0.10000000000E+02 0. -1.
</event>
<event>
 5    1  0.1572996E-008  0.3846386E+03  0.7957747E-01  0.3431206E+00
         13   -1    0    0    0    0  0.00000000000E+00  0.00000000000E+00  0.14999999963E+04  0.15000000000E+04  0.10566000000E+00 0. -1.
        994   -1    0    0    0    0 -0.00000000000E+00 -0.00000000000E+00  0.11368683772E-12  0.17120000000E+03  0.17120000000E+03 0.  0.
         13    1    1    2    0    0  0.87291248604E+01  0.88373680888E+01  0.41351403134E+02  0.43176919769E+02  0.10566000000E+00 0. -1.
        994    1    1    2    0    0 -0.98794151680E+01 -0.89890773052E+01  0.23972984515E+01  0.17173698901E+03  0.17120000000E+03 0.  0.
        998    1    1    2    0    0  0.11502903076E+01  0.15170921640E+00  0.14562512947E+04  0.14562860912E+04  0.10000000000E+02 0. -1.
</event>
<event>
 5    1  0.1572996E-008  0.3791756E+03  0.7957747E-01  0.3454756E+00
         13   -1    0    0    0    0  0.00000000000E+00  0.00000000000E+00  0.14999999963E+04  0.15000000000E+04  0.10566000000E+00 0.  1.
        994   -1    0    0    0    0 -0.00000000000E+00 -0.00000000000E+00  0.11368683772E-12  0.17120000000E+03  0.17120000000E+03 0.  0.
         13    1    1    2    0    0  0.71510591683E+01 -0.14500764701E+02  0.26203370195E+02  0.30790219190E+02  0.10566000000E+00 0.  1.
        994    1    1    2    0    0 -0.65091877313E+01  0.18986613269E+02  0.59014598095E+01  0.17247355808E+03  0.17120000000E+03 0.  0.
        998    1    1    2    0    0 -0.64187143698E+00 -0.44858485674E+01  0.14678951663E+04  0.14679362227E+04  0.10000000000E+02 0.  1.
</event>
<event>
 5    1  0.1572996E-008  0.3838866E+03  0.7957747E-01  0.3434408E+00
         13   -1    0    0    0    0  0.00000000000E+00  0.00000000000E+00  0.14999999963E+04  0.15000000000E+04  0.10566000000E+00 0.  1.
        994   -1    0    0    0    0 -0.00000000000E+00 -0.00000000000E+00  0.11368683772E-12  0.17120000000E+03  0.17120000000E+03 0.  0.
         13    1    1    2    0    0  0.15717756452E+02  0.12836950786E+02  0.10170826795E+03  0.10371315300E+03  0.10566000000E+00 0.  1.
        994    1    1    2    0    0 -0.64003711473E+01  0.56961035494E+01  0.24262532927E+01  0.17143143542E+03  0.17120000000E+03 0.  0.
        998    1    1    2    0    0 -0.93173853051E+01 -0.18533054335E+02  0.13958654750E+04  0.13960554116E+04  0.10000000000E+02 0.  1.
</event>
<event>
 5    1  0.1572996E-008  0.3761505E+03  0.7957747E-01  0.3468093E+00
         13   -1    0    0    0    0  0.00000000000E+00  0.00000000000E+00  0.14999999963E+04  0.15000000000E+04  0.10566000000E+00 0.  1.
        994   -1    0    0    0    0 -0.00000000000E+00 -0.00000000000E+00  0.11368683772E-12  0.17120000000E+03  0.17120000000E+03 0.  0.
         13    1    1    2    0    0 -0.34011651865E+02 -0.16041947787E+02  0.10275972505E+03  0.10942444337E+03  0.10566000000E+00 0.  1.
        994    1    1    2    0    0  0.41702719924E+02  0.20131231083E+02  0.13384881410E+02  0.17785662305E+03  0.17120000000E+03 0.  0.
        998    1    1    2    0    0 -0.76910680590E+01 -0.40892832954E+01  0.13838553898E+04  0.13839189336E+04  0.10000000000E+02 0.  1.
</event>
<event>
 5    1  0.1572996E-008  0.3811826E+03  0.7957747E-01  0.3446025E+00
         13   -1    0    0    0    0  0.00000000000E+00  0.00000000000E+00  0.14999999963E+04  0.15000000000E+04  0.10566000000E+00 0.  1.
        994   -1    0    0    0    0 -0.00000000000E+00 -0.00000000000E+00  0.11368683772E-12  0.17120000000E+03  0.17120000000E+03 0.  0.
         13    1    1    2    0    0 -0.42095753974E+02  0.25412089035E+02  0.60807406920E+02  0.78200886646E+02  0.10566000000E+00 0.  1.
        994    1    1    2    0    0  0.68263421764E+02 -0.31089106996E+00  0.34140132102E+02  0.18744327148E+03  0.17120000000E+03 0.  0.
        998    1    1    2    0    0 -0.26167667790E+02 -0.25101197965E+02  0.14050524573E+04  0.14055558419E+04  0.10000000000E+02 0. -1.
</event>
<event>
 5    1  0.1572996E-008  0.3753522E+03  0.7957747E-01  0.3471649E+00
         13   -1    0    0    0    0  0.00000000000E+00  0.00000000000E+00  0.14999999963E+04  0.15000000000E+04  0.10566000000E+00 0. -1.
        994   -1    0    0    0    0 -0.00000000000E+00 -0.00000000000E+00  0.11368683772E-12  0.17120000000E+03  0.17120000000E+03 0.  0.
         13    1    1    2    0    0  0.50490763118E+02 -0.44847925821E+02  0.34561966063E+03  0.35215566812E+03  0.10566000000E+00 0. -1.
        994    1    1    2    0    0 -0.90629472666E+00  0.64445128704E+02  0.20734637608E+02  0.18410149695E+03  0.17120000000E+03 0.  0.
        998    1    1    2    0    0 -0.49584468391E+02 -0.19597202884E+02  0.11336456980E+04  0.11349428349E+04  0.10000000000E+02 0. -1.
</event>
<event>
 5    1  0.1572996E-008  0.3775413E+03  0.7957747E-01  0.3461935E+00
         13   -1    0    0    0    0  0.00000000000E+00  0.00000000000E+00  0.14999999963E+04  0.15000000000E+04  0.10566000000E+00 0. -1.
        994   -1    0    0    0    0 -0.00000000000E+00 -0.00000000000E+00  0.11368683772E-12  0.17120000000E+03  0.17120000000E+03 0.  0.
         13    1    1    2    0    0  0.14671742014E+02  0.32864850853E+01  0.82052570606E+00  0.15058068416E+02  0.10566000000E+00 0. -1.
        994    1    1    2    0    0  0.19768057620E+01 -0.14265116856E+02  0.15728392205E+02  0.17252311046E+03  0.17120000000E+03 0.  0.
        998    1    1    2    0    0 -0.16648547776E+02  0.10978631770E+02  0.14834510784E+04  0.14836188211E+04  0.10000000000E+02 0. -1.
</event>
<event>
 5    1  0.1572996E-008  0.3740565E+03  0.7957747E-01  0.3477453E+00
         13   -1    0    0    0    0  0.00000000000E+00  0.00000000000E+00  0.14999999963E+04  0.15000000000E+04  0.10566000000E+00 0. -1.
        994   -1    0    0    0    0 -0.00000000000E+00 -0.00000000000E+00  0.11368683772E-12  0.17120000000E+03  0.17120000000E+03 0.  0.
         13    1    1    2    0    0  0.22032702938E+02 -0.51609164725E+02  0.19371178120E+03  0.20167600557E+03  0.10566000000E+00 0. -1.
        994    1    1    2    0    0 -0.35168441786E+02  0.42971978690E+02  0.17752451542E+02  0.18085353131E+03  0.17120000000E+03 0.  0.
        998    1    1    2    0    0  0.13135738849E+02  0.86371860350E+01  0.12885357635E+04  0.12886704631E+04  0.10000000000E+02 0. -1.
</event>
<event>
 5    1  0.1572996E-008  0.3793689E+03  0.7957747E-01  0.3453911E+00
         13   -1    0    0    0    0  0.00000000000E+00  0.00000000000E+00  0.14999999963E+04  0.15000000000E+04  0.10566000000E+00 0. -1.
        994   -1    0    0    0    0 -0.00000000000E+00 -0.00000000000E+00  0.11368683772E-12  0.17120000000E+03  0.17120000000E+03 0.  0.
         13    1    1    2    0    0  0.55961856233E+01  0.87027363144E+01  0.99813476348E+01  0.14376834754E+02  0.10566000000E+00 0. -1.
        994    1    1    2    0    0 -0.40389900152E+01 -0.94001442871E+01  0.48028039998E+01  0.17157267579E+03  0.17120000000E+03 0.  0.
        998    1    1    2    0    0 -0.15571956081E+01  0.69740797276E+00  0.14852158446E+04  0.14852504895E+04  0.10000000000E+02 0. -1.
</event>
<event>
 5    1  0.1572996E-008  0.3702459E+03  0.7957747E-01  0.3494762E+00
         13   -1    0    0    0    0  0.00000000000E+00  0.00000000000E+00  0.14999999963E+04  0.15000000000E+04  0.10566000000E+00 0.  1.
        994   -1    0    0    0    0 -0.00000000000E+00 -0.00000000000E+00  0.11368683772E-12  0.17120000000E+03  0.17120000000E+03 0.  0.
         13    1    1    2    0    0  0.14886981352E+02 -0.32831064352E+02  0.65359884547E+02  0.74641990007E+02  0.10566000000E+00 0.  1.
        994    1    1    2    0    0 -0.15369506977E+02  0.30867423348E+02  0.13259437940E+02  0.17514072132E+03  0.17120000000E+03 0.  0.
        998    1    1    2    0    0  0.48252562472E+00  0.19636410043E+01  0.14213806738E+04  0.14214172887E+04  0.10000000000E+02 0.  1.
</event>
<event>
 5    1  0.1572996E-008  0.3839050E+03  0.7957747E-01  0.3434329E+00
         13   -1    0    0    0    0  0.00000000000E+00  0.00000000000E+00  0.14999999963E+04  0.15000000000E+04  0.10566000000E+00 0.  1.
        994   -1    0    0    0    0 -0.00000000000E+00 -0.00000000000E+00  0.11368683772E-12  0.17120000000E+03  0.17120000000E+03 0.  0.
         13    1    1    2    0    0 -0.59645217621E+00 -0.13028719220E+02  0.40054892440E+02  0.42124919609E+02  0.10566000000E+00 0.  1.
        994    1    1    2    0    0  0.70926504395E+01 -0.10240012664E+00  0.23408225195E+01  0.17136287704E+03  0.17120000000E+03 0.  0.
        998    1    1    2    0    0 -0.64961982633E+01  0.13131119347E+02  0.14576042813E+04  0.14577122034E+04  0.10000000000E+02 0.  1.
</event>
<event>
 5    1  0.1572996E-008  0.3816091E+03  0.7957747E-01  0.3444182E+00
         13   -1    0    0    0    0  0.00000000000E+00  0.00000000000E+00  0.14999999963E+04  0.15000000000E+04  0.10566000000E+00 0.  1.
        994   -1    0    0    0    0 -0.00000000000E+00 -0.00000000000E+00  0.11368683772E-12  0.17120000000E+03  0.17120000000E+03 0.  0.
         13    1    1    2    0    0 -0.13553481620E+02 -0.14023463887E+02  0.58121641363E+02  0.61306531155E+02  0.10566000000E+00 0.  1.
        994    1    1    2    0    0 -0.53349564806E+01  0.11532027361E+02  0.38601240740E+01  0.17171426840E+03  0.17120000000E+03 0.  0.
        998    1    1    2    0    0  0.18888438100E+02  0.24914365261E+01  0.14380182308E+04  0.14381792004E+04  0.10000000000E+02 0.  1.
</event>
<event>
 5    1  0.1572996E-008  0.3806839E+03  0.7957747E-01  0.3448186E+00
         13   -1    0    0    0    0  0.00000000000E+00  0.00000000000E+00  0.14999999963E+04  0.15000000000E+04  0.10566000000E+00 0. -1.
        994   -1    0    0    0    0 -0.00000000000E+00 -0.00000000000E+00  0.11368683772E-12  0.17120000000E+03  0.17120000000E+03 0.  0.
         13    1    1    2    0    0  0.21259652611E+02 -0.27182923050E+02  0.29781539718E+02  0.45583279903E+02  0.10566000000E+00 0. -1.
        994    1    1    2    0    0 -0.27682521824E+02 -0.38314170356E+01  0.19545562433E+02  0.17456365825E+03  0.17120000000E+03 0.  0.
        998    1    1    2    0    0  0.64228692131E+01  0.31014340085E+02  0.14506728941E+04  0.14510530618E+04  0.10000000000E+02 0. -1.
</event>
<event>
 5    1  0.1572996E-008  0.3837402E+03  0.7957747E-01  0.3435033E+00
         13   -1    0    0    0    0  0.00000000000E+00  0.00000000000E+00  0.14999999963E+04  0.15000000000E+04  0.10566000000E+00 0. -1.
        994   -1    0    0    0    0 -0.00000000000E+00 -0.00000000000E+00  0.11368683772E-12  0.17120000000E+03  0.17120000000E+03 0.  0.
         13    1    1    2    0    0  0.24385485212E+02 -0.17418617775E+02  0.16488334404E+03  0.16758457101E+03  0.10566000000E+00 0. -1.
        994    1    1    2    0    0 -0.38409121199E+02  0.14661299652E+02  0.78583073167E+01  0.17624246734E+03  0.17120000000E+03 0.  0.
        998    1    1    2    0    0  0.14023635987E+02  0.27573181225E+01  0.13272583449E+04  0.13273729617E+04  0.10000000000E+02 0. -1.
</event>
<event>
 5    1  0.1572996E-008  0.3792559E+03  0.7957747E-01  0.3454405E+00
         13   -1    0    0    0    0  0.00000000000E+00  0.00000000000E+00  0.14999999963E+04  0.15000000000E+04  0.10566000000E+00 0. -1.
        994   -1    0    0    0    0 -0.00000000000E+00 -0.00000000000E+00  0.11368683772E-12  0.17120000000E+03  0.17120000000E+03 0.  0.
         13    1    1    2    0    0 -0.67478132203E+02 -0.19617089142E+02  0.32706228560E+03  0.33452634925E+03  0.10566000000E+00 0. -1.
        994    1    1    2    0    0  0.87464668918E+02  0.59293247606E+02  0.42885813531E+02  0.20570461960E+03  0.17120000000E+03 0.  0.
        998    1    1    2    0    0 -0.19986536715E+02 -0.39676158464E+02  0.11300518971E+04  0.11309690312E+04  0.10000000000E+02 0. -1.
</event>
<event>
 5    1  0.1572996E-008  0.3860533E+03  0.7957747E-01  0.3425217E+00
         13   -1    0    0    0    0  0.00000000000E+00  0.00000000000E+00  0.14999999963E+04  0.15000000000E+04  0.10566000000E+00 0.  1.
        994   -1    0    0    0    0 -0.00000000000E+00 -0.00000000000E+00  0.11368683772E-12  0.17120000000E+03  0.17120000000E+03 0.  0.
         13    1    1    2    0    0  0.94940305298E+01  0.37387481093E+01  0.50516220684E+02  0.51536536256E+02  0.10566000000E+00 0.  1.
        994    1    1    2    0    0  0.56779943888E+01 -0.95630397404E+01  0.15135828833E+01  0.17156754437E+03  0.17120000000E+03 0.  0.
        998    1    1    2    0    0 -0.15172024919E+02  0.58242916311E+01  0.14479701927E+04  0.14480959194E+04  0.10000000000E+02 0.  1.
</event>
<event>
 5    1  0.1572996E-008  0.3789073E+03  0.7957747E-01  0.3455930E+00
         13   -1    0    0    0    0  0.00000000000E+00  0.00000000000E+00  0.14999999963E+04  0.15000000000E+04  0.10566000000E+00 0. -1.
        994   -1    0    0    0    0 -0.00000000000E+00 -0.00000000000E+00  0.11368683772E-12  0.17120000000E+03  0.17120000000E+03 0.  0.
         13    1    1    2    0    0  0.94187595480E+01  0.28050483399E+02  0.88315226801E+02  0.93140394563E+02  0.10566000000E+00 0. -1.
        994    1    1    2    0    0 -0.12794009110E+02 -0.23711586140E+02  0.71250645940E+01  0.17345354575E+03  0.17120000000E+03 0.  0.
        998    1    1    2    0    0  0.33752495617E+01 -0.43388972596E+01  0.14045597049E+04  0.14046060597E+04  0.10000000000E+02 0. -1.
</event>
<event>
 5    1  0.1572996E-008  0.3798364E+03  0.7957747E-01  0.3451871E+00
         13   -1    0    0    0    0  0.00000000000E+00  0.00000000000E+00  0.14999999963E+04  0.15000000000E+04  0.10566000000E+00 0.  1.
        994   -1    0    0    0    0 -0.00000000000E+00 -0.00000000000E+00  0.11368683772E-12  0.17120000000E+03  0.17120000000E+03 0.  0.
         13    1    1    2    0    0  0.51783638074E+01  0.10176301455E+02  0.13630180546E+02  0.17781044649E+02  0.10566000000E+00 0.  1.
        994    1    1    2    0    0  0.18709437810E+01 -0.10295826547E+02  0.45820850049E+01  0.17158070981E+03  0.17120000000E+03 0.  0.
        998    1    1    2    0    0 -0.70493075884E+01  0.11952509149E+00  0.14817877307E+04  0.14818382455E+04  0.10000000000E+02 0.  1.
</event>
<event>
 5    1  0.1572996E-008  0.3790836E+03  0.7957747E-01  0.3455159E+00
         13   -1    0    0    0    0  0.00000000000E+00  0.00000000000E+00  0.14999999963E+04  0.15000000000E+04  0.10566000000E+00 0.  1.
        994   -1    0    0    0    0 -0.00000000000E+00 -0.00000000000E+00  0.11368683772E-12  0.17120000000E+03  0.17120000000E+03 0.  0.
         13    1    1    2    0    0  0.31638194558E+02 -0.72085232581E+02  0.20471116752E+03  0.21932608003E+03  0.10566000000E+00 0.  1.
        994    1    1    2    0    0 -0.34429463886E+01  0.34105528144E+02  0.20080001626E+02  0.17574893284E+03  0.17120000000E+03 0.  0.
        998    1    1    2    0    0 -0.28195248169E+02  0.37979704437E+02  0.12752088271E+04  0.12761249871E+04  0.10000000000E+02 0.  1.
</event>
<event>
 5    1  0.1572996E-008  0.3789803E+03  0.7957747E-01  0.3455611E+00
         13   -1    0    0    0    0  0.00000000000E+00  0.00000000000E+00  0.14999999963E+04  0.15000000000E+04  0.10566000000E+00 0.  1.
        994   -1    0    0    0    0 -0.00000000000E+00 -0.00000000000E+00  0.11368683772E-12  0.17120000000E+03  0.17120000000E+03 0.  0.
         13    1    1    2    0    0  0.54131067295E+01  0.15445761721E+02  0.27136033479E+02  0.31689884137E+02  0.10566000000E+00 0.  1.
        994    1    1    2    0    0 -0.89865155343E+01 -0.57015599253E+01  0.50287799644E+01  0.17160417791E+03  0.17120000000E+03 0.  0.
        998    1    1    2    0    0  0.35734088048E+01 -0.97442017956E+01  0.14678351828E+04  0.14679059380E+04  0.10000000000E+02 0.  1.
</event>
<event>
 5    1  0.1572996E-008  0.2590153E+03  0.7957747E-01  0.4240424E+00
         13   -1    0    0    0    0  0.00000000000E+00  0.00000000000E+00  0.14999999963E+04  0.15000000000E+04  0.10566000000E+00 0. -1.
        994   -1    0    0    0    0 -0.00000000000E+00 -0.00000000000E+00  0.11368683772E-12  0.17120000000E+03  0.17120000000E+03 0.  0.
         13    1    1    2    0    0 -0.16110578260E+03  0.15813440989E+02  0.51031868720E+03  0.53537866204E+03  0.10566000000E+00 0. -1.
        994    1    1    2    0    0  0.70230126137E+02  0.92503780938E+01  0.50728790478E+02  0.19209552388E+03  0.17120000000E+03 0.  0.
        998    1    1    2    0    0  0.90875656459E+02 -0.25063819082E+02  0.93895251861E+03  0.94372581408E+03  0.10000000000E+02 0. -1.
</event>
<event>
 5    1  0.1572996E-008  0.3830452E+03  0.7957747E-01  0.3438005E+00
         13   -1    0    0    0    0  0.00000000000E+00  0.00000000000E+00  0.14999999963E+04  0.15000000000E+04  0.10566000000E+00 0. -1.
        994   -1    0    0    0    0 -0.00000000000E+00 -0.00000000000E+00  0.11368683772E-12  0.17120000000E+03  0.17120000000E+03 0.  0.
         13    1    1    2    0    0  0.13430928216E+02  0.15761053882E+02  0.78434446053E+02  0.81121970784E+02  0.10566000000E+00 0. -1.
        994    1    1    2    0    0 -0.30445856878E+02 -0.12508661079E+01  0.56828822352E+01  0.17398347628E+03  0.17120000000E+03 0.  0.
        998    1    1    2    0    0  0.17014928661E+02 -0.14510187774E+02  0.14158826680E+04  0.14160945529E+04  0.10000000000E+02 0. -1.
</event>
<event>
 5    1  0.1572996E-008  0.3764134E+03  0.7957747E-01  0.3466925E+00
         13   -1    0    0    0    0  0.00000000000E+00  0.00000000000E+00  0.14999999963E+04  0.15000000000E+04  0.10566000000E+00 0. -1.
        994   -1    0    0    0    0 -0.00000000000E+00 -0.00000000000E+00  0.11368683772E-12  0.17120000000E+03  0.17120000000E+03 0.  0.
         13    1    1    2    0    0  0.90301878442E+01  0.14303309072E+03  0.76020729034E+03  0.77359882677E+03  0.10566000000E+00 0. -1.
        994    1    1    2    0    0 -0.31419223196E+01 -0.14480078169E+03  0.80581487359E+02  0.23828544681E+03  0.17120000000E+03 0.  0.
        998    1    1    2    0    0 -0.58882655246E+01  0.17676909712E+01  0.65921121858E+03  0.65931572642E+03  0.10000000000E+02 0.  0.
</event>
<event>
 5    1  0.1572996E-008  0.3787652E+03  0.7957747E-01  0.3456553E+00
         13   -1    0    0    0    0  0.00000000000E+00  0.00000000000E+00  0.14999999963E+04  0.15000000000E+04  0.10566000000E+00 0.  1.
        994   -1    0    0    0    0 -0.00000000000E+00 -0.00000000000E+00  0.11368683772E-12  0.17120000000E+03  0.17120000000E+03 0.  0.
         13    1    1    2    0    0 -0.50887847526E+01 -0.87572201773E+01  0.85652685520E+01  0.13264977380E+02  0.10566000000E+00 0.  1.
        994    1    1    2    0    0  0.59334092568E+01  0.93241082089E+01  0.51678727102E+01  0.17163417855E+03  0.17120000000E+03 0.  0.
        998    1    1    2    0    0 -0.84462450428E+00 -0.56688803156E+00  0.14862668550E+04  0.14863008441E+04  0.10000000000E+02 0.  1.
</event>
<event>
 5    1  0.1572996E-008  0.3855864E+03  0.7957747E-01  0.3427189E+00
         13   -1    0    0    0    0  0.00000000000E+00  0.00000000000E+00  0.14999999963E+04  0.15000000000E+04  0.10566000000E+00 0. -1.
        994   -1    0    0    0    0 -0.00000000000E+00 -0.00000000000E+00  0.11368683772E-12  0.17120000000E+03  0.17120000000E+03 0.  0.
         13    1    1    2    0    0 -0.15137053367E+02 -0.52672925460E+01  0.95252243039E+02  0.96591281819E+02  0.10566000000E+00 0. -1.
        994    1    1    2    0    0  0.11493025996E+02  0.29220649487E+01  0.18010384954E+01  0.17161967209E+03  0.17120000000E+03 0.  0.
        998    1    1    2    0    0  0.36440273718E+01  0.23452275973E+01  0.14029467147E+04  0.14029890461E+04  0.10000000000E+02 0. -1.
</event>
<event>
 5    1  0.1572996E-008  0.3803613E+03  0.7957747E-01  0.3449587E+00
         13   -1    0    0    0    0  0.00000000000E+00  0.00000000000E+00  0.14999999963E+04  0.15000000000E+04  0.10566000000E+00 0.  1.
        994   -1    0    0    0    0 -0.00000000000E+00 -0.00000000000E+00  0.11368683772E-12  0.17120000000E+03  0.17120000000E+03 0.  0.
         13    1    1    2    0    0  0.51931642312E+01 -0.23994649320E+02  0.76887751047E+02  0.80712140201E+02  0.10566000000E+00 0.  1.
        994    1    1    2    0    0 -0.70327151431E+01  0.84105248349E+01  0.43522864064E+01  0.17160588104E+03  0.17120000000E+03 0.  0.
        998    1    1    2    0    0  0.18395509119E+01  0.15584124485E+02  0.14187599588E+04  0.14188819788E+04  0.10000000000E+02 0.  1.
</event>
<event>
 5    1  0.1572996E-008  0.3820530E+03  0.7957747E-01  0.3442268E+00
         13   -1    0    0    0    0  0.00000000000E+00  0.00000000000E+00  0.14999999963E+04  0.15000000000E+04  0.10566000000E+00 0. -1.
        994   -1    0    0    0    0 -0.00000000000E+00 -0.00000000000E+00  0.11368683772E-12  0.17120000000E+03  0.17120000000E+03 0.  0.
         13    1    1    2    0    0 -0.78266385555E+01  0.11564062325E+02  0.29764546805E+02  0.32877396781E+02  0.10566000000E+00 0. -1.
        994    1    1    2    0    0  0.10453559252E+02 -0.10841549442E+02  0.38538317661E+01  0.17190435746E+03  0.17120000000E+03 0.  0.
        998    1    1    2    0    0 -0.26269206965E+01 -0.72251288308E+00  0.14663816177E+04  0.14664182458E+04  0.10000000000E+02 0. -1.
</event>
<event>
 5    1  0.1572996E-008  0.3856202E+03  0.7957747E-01  0.3427046E+00
         13   -1    0    0    0    0  0.00000000000E+00  0.00000000000E+00  0.14999999963E+04  0.15000000000E+04  0.10566000000E+00 0. -1.
        994   -1    0    0    0    0 -0.00000000000E+00 -0.00000000000E+00  0.11368683772E-12  0.17120000000E+03  0.17120000000E+03 0.  0.
         13    1    1    2    0    0  0.88187674913E+01  0.48163444898E+01  0.40324063969E+02  0.41557299399E+02  0.10566000000E+00 0. -1.
        994    1    1    2    0    0  0.15137186911E+02 -0.24825581228E+02  0.41022647674E+01  0.17370006473E+03  0.17120000000E+03 0.  0.
        998    1    1    2    0    0 -0.23955954402E+02  0.20009236738E+02  0.14555736675E+04  0.14559426359E+04  0.10000000000E+02 0. -1.
</event>
<event>
 5    1  0.1572996E-008  0.3771587E+03  0.7957747E-01  0.3463624E+00
         13   -1    0    0    0    0  0.00000000000E+00  0.00000000000E+00  0.14999999963E+04  0.15000000000E+04  0.10566000000E+00 0. -1.
        994   -1    0    0    0    0 -0.00000000000E+00 -0.00000000000E+00  0.11368683772E-12  0.17120000000E+03  0.17120000000E+03 0.  0.
         13    1    1    2    0    0 -0.17854228218E+02 -0.60052807669E+01  0.29267324506E+02  0.34805521259E+02  0.10566000000E+00 0. -1.
        994    1    1    2    0    0  0.15754231548E+02  0.40504547559E+01  0.64677827720E+01  0.17209263264E+03  0.17120000000E+03 0.  0.
        998    1    1    2    0    0  0.20999966701E+01  0.19548260109E+01  0.14642648890E+04  0.14643018461E+04  0.10000000000E+02 0. -1.
</event>
<event>
 5    1  0.1572996E-008  0.4230118E+03  0.7957747E-01  0.3282897E+00
         13   -1    0    0    0    0  0.00000000000E+00  0.00000000000E+00  0.14999999963E+04  0.15000000000E+04  0.10566000000E+00 0. -1.
        994   -1    0    0    0    0 -0.00000000000E+00 -0.00000000000E+00  0.11368683772E-12  0.17120000000E+03  0.17120000000E+03 0.  0.
         13    1    1    2    0    0  0.41157092138E+02  0.17726774212E+01  0.34655662460E+01  0.41340899022E+02  0.10566000000E+00 0. -1.
        994    1    1    2    0    0 -0.40631742634E+02  0.11962484374E+01  0.49503678610E+02  0.18279065544E+03  0.17120000000E+03 0.  0.
        998    1    1    2    0    0 -0.52534950453E+00 -0.29689258586E+01  0.14470307514E+04  0.14470684455E+04  0.10000000000E+02 0. -1.
</event>
<event>
 5    1  0.1572996E-008  0.3841591E+03  0.7957747E-01  0.3433247E+00
         13   -1    0    0    0    0  0.00000000000E+00  0.00000000000E+00  0.14999999963E+04  0.15000000000E+04  0.10566000000E+00 0. -1.
        994   -1    0    0    0    0 -0.00000000000E+00 -0.00000000000E+00  0.11368683772E-12  0.17120000000E+03  0.17120000000E+03 0.  0.
         13    1    1    2    0    0  0.98647556718E+01 -0.21327453021E+01  0.24126214897E+02  0.26152388347E+02  0.10566000000E+00 0. -1.
        994    1    1    2    0    0 -0.81955965470E+01  0.27137632700E+01  0.22940478377E+01  0.17143288765E+03  0.17120000000E+03 0.  0.
        998    1    1    2    0    0 -0.16691591248E+01 -0.58101796789E+00  0.14735797335E+04  0.14736147240E+04  0.10000000000E+02 0. -1.
</event>
<event>
 5    1  0.1572996E-008  0.3744948E+03  0.7957747E-01  0.3475485E+00
         13   -1    0    0    0    0  0.00000000000E+00  0.00000000000E+00  0.14999999963E+04  0.15000000000E+04  0.10566000000E+00 0. -1.
        994   -1    0    0    0    0 -0.00000000000E+00 -0.00000000000E+00  0.11368683772E-12  0.17120000000E+03  0.17120000000E+03 0.  0.
         13    1    1    2    0    0  0.55124999278E+01  0.17528024038E+02  0.22281317966E+02  0.28880574379E+02  0.10566000000E+00 0. -1.
        994    1    1    2    0    0  0.54763450895E+01  0.24842968779E+01  0.70615150729E+01  0.17145106323E+03  0.17120000000E+03 0.  0.
        998    1    1    2    0    0 -0.10988845017E+02 -0.20012320916E+02  0.14706571632E+04  0.14708683624E+04  0.10000000000E+02 0. -1.
</event>
<event>
 5    1  0.1572996E-008  0.3790691E+03  0.7957747E-01  0.3455222E+00
         13   -1    0    0    0    0  0.00000000000E+00  0.00000000000E+00  0.14999999963E+04  0.15000000000E+04  0.10566000000E+00 0. -1.
        994   -1    0    0    0    0 -0.00000000000E+00 -0.00000000000E+00  0.11368683772E-12  0.17120000000E+03  0.17120000000E+03 0.  0.
         13    1    1    2    0    0 -0.17654113971E+02 -0.11350818605E+02  0.45449015029E+02  0.50061291975E+02  0.10566000000E+00 0. -1.
        994    1    1    2    0    0  0.21338680652E+02 -0.32430378204E+00  0.61325151664E+01  0.17263398335E+03  0.17120000000E+03 0.  0.
        998    1    1    2    0    0 -0.36845666816E+01  0.11675122387E+02  0.14484184661E+04  0.14485047247E+04  0.10000000000E+02 0. -1.
</event>
<event>
 5    1  0.1572996E-008  0.3845352E+03  0.7957747E-01  0.3431646E+00
         13   -1    0    0    0    0  0.00000000000E+00  0.00000000000E+00  0.14999999963E+04  0.15000000000E+04  0.10566000000E+00 0.  1.
        994   -1    0    0    0    0 -0.00000000000E+00 -0.00000000000E+00  0.11368683772E-12  0.17120000000E+03  0.17120000000E+03 0.  0.
         13    1    1    2    0    0 -0.10185881900E+02  0.36703949382E+01  0.32940553824E+02  0.34674417650E+02  0.10566000000E+00 0.  1.
        994    1    1    2    0    0 -0.44709602883E+01  0.46748726556E+01  0.19988907407E+01  0.17133382469E+03  0.17120000000E+03 0.  0.
        998    1    1    2    0    0  0.14656842188E+02 -0.83452675938E+01  0.14650605517E+04  0.14651917577E+04  0.10000000000E+02 0.  1.
</event>
<event>
 5    1  0.1572996E-008  0.3737520E+03  0.7957747E-01  0.3478823E+00
         13   -1    0    0    0    0  0.00000000000E+00  0.00000000000E+00  0.14999999963E+04  0.15000000000E+04  0.10566000000E+00 0.  1.
        994   -1    0    0    0    0 -0.00000000000E+00 -0.00000000000E+00  0.11368683772E-12  0.17120000000E+03  0.17120000000E+03 0.  0.
         13    1    1    2    0    0  0.24881054945E+01 -0.11101318379E+02  0.54528614607E+01  0.12616449613E+02  0.10566000000E+00 0.  1.
        994    1    1    2    0    0  0.10687731795E+02  0.12126467962E+02  0.82133988903E+01  0.17215742435E+03  0.17120000000E+03 0.  0.
        998    1    1    2    0    0 -0.13175837289E+02 -0.10251495831E+01  0.14863337359E+04  0.14864261260E+04  0.10000000000E+02 0.  1.
</event>
<event>
 5    1  0.1572996E-008  0.3743223E+03  0.7957747E-01  0.3476259E+00
         13   -1    0    0    0    0  0.00000000000E+00  0.00000000000E+00  0.14999999963E+04  0.15000000000E+04  0.10566000000E+00 0. -1.
        994   -1    0    0    0    0 -0.00000000000E+00 -0.00000000000E+00  0.11368683772E-12  0.17120000000E+03  0.17120000000E+03 0.  0.
         13    1    1    2    0    0 -0.12635406085E+03 -0.81695104309E+02  0.56338896120E+03  0.58313512287E+03  0.10566000000E+00 0. -1.
        994    1    1    2    0    0  0.16888182807E+03  0.10793531696E+02  0.12322812451E+03  0.27042962643E+03  0.17120000000E+03 0.  0.
        998    1    1    2    0    0 -0.42527767225E+02  0.70901572613E+02  0.81338291057E+03  0.81763525070E+03  0.10000000000E+02 0. -1.
</event>
<event>
 5    1  0.1572996E-008  0.3813520E+03  0.7957747E-01  0.3445293E+00
         13   -1    0    0    0    0  0.00000000000E+00  0.00000000000E+00  0.14999999963E+04  0.15000000000E+04  0.10566000000E+00 0.  1.
        994   -1    0    0    0    0 -0.00000000000E+00 -0.00000000000E+00  0.11368683772E-12  0.17120000000E+03  0.17120000000E+03 0.  0.
         13    1    1    2    0    0 -0.68901855196E+01 -0.13132163458E+02  0.30352742802E+02  0.33782074140E+02  0.10566000000E+00 0.  1.
        994    1    1    2    0    0  0.58489359934E+01  0.10442866028E+02  0.39291494119E+01  0.17166287228E+03  0.17120000000E+03 0.  0.
        998    1    1    2    0    0  0.10412495262E+01  0.26892974297E+01  0.14657181041E+04  0.14657550536E+04  0.10000000000E+02 0.  1.
</event>
<event>
 5    1  0.1572996E-008  0.3822988E+03  0.7957747E-01  0.3441210E+00
         13   -1    0    0    0    0  0.00000000000E+00  0.00000000000E+00  0.14999999963E+04  0.15000000000E+04  0.10566000000E+00 0. -1.
        994   -1    0    0    0    0 -0.00000000000E+00 -0.00000000000E+00  0.11368683772E-12  0.17120000000E+03  0.17120000000E+03 0.  0.
         13    1    1    2    0    0 -0.23311039000E+02 -0.14785005636E+02  0.12022471630E+03  0.12335312928E+03  0.10566000000E+00 0. -1.
        994    1    1    2    0    0  0.22494635416E+02  0.11541720681E+02  0.51008171008E+01  0.17313196780E+03  0.17120000000E+03 0.  0.
        998    1    1    2    0    0  0.81640358433E+00  0.32432849549E+01  0.13746744629E+04  0.13747149029E+04  0.10000000000E+02 0.  0.
</event>
<event>
 5    1  0.1572996E-008  0.3693837E+03  0.7957747E-01  0.3498728E+00
         13   -1    0    0    0    0  0.00000000000E+00  0.00000000000E+00  0.14999999963E+04  0.15000000000E+04  0.10566000000E+00 0.  1.
        994   -1    0    0    0    0 -0.00000000000E+00 -0.00000000000E+00  0.11368683772E-12  0.17120000000E+03  0.17120000000E+03 0.  0.
         13    1    1    2    0    0 -0.21149005318E+02  0.25175875955E+02  0.51891491774E+02  0.61431614326E+02  0.10566000000E+00 0.  1.
        994    1    1    2    0    0  0.21955324497E+02 -0.17067294397E+02  0.12275789502E+02  0.17387772663E+03  0.17120000000E+03 0.  0.
        998    1    1    2    0    0 -0.80631917913E+00 -0.81085815584E+01  0.14358327150E+04  0.14358906590E+04  0.10000000000E+02 0.  1.
</event>
<event>
 5    1  0.1572996E-008  0.3760266E+03  0.7957747E-01  0.3468644E+00
         13   -1    0    0    0    0  0.00000000000E+00  0.00000000000E+00  0.14999999963E+04  0.15000000000E+04  0.10566000000E+00 0.  1.
        994   -1    0    0    0    0 -0.00000000000E+00 -0.00000000000E+00  0.11368683772E-12  0.17120000000E+03  0.17120000000E+03 0.  0.
         13    1    1    2    0    0  0.28057920236E+02  0.36407753747E+02  0.23754695604E+03  0.24195317503E+03  0.10566000000E+00 0.  1.
        994    1    1    2    0    0  0.23774480167E+02  0.66138864915E+01  0.82180814514E+01  0.17316450636E+03  0.17120000000E+03 0.  0.
        998    1    1    2    0    0 -0.51832400403E+02 -0.43021640239E+02  0.12542349588E+04  0.12560823186E+04  0.10000000000E+02 0.  1.
</event>
<event>
 5    1  0.1572996E-008  0.3553054E+03  0.7957747E-01  0.3566276E+00
         13   -1    0    0    0    0  0.00000000000E+00  0.00000000000E+00  0.14999999963E+04  0.15000000000E+04  0.10566000000E+00 0.  1.
        994   -1    0    0    0    0 -0.00000000000E+00 -0.00000000000E+00  0.11368683772E-12  0.17120000000E+03  0.17120000000E+03 0.  0.
         13    1    1    2    0    0  0.19940302555E+03 -0.91396654170E+02  0.10783714564E+04  0.11004544171E+04  0.10566000000E+00 0.  1.
        994    1    1    2    0    0 -0.16664572530E+03  0.12464406306E+03  0.17909729525E+03  0.32356177367E+03  0.17120000000E+03 0.  0.
        998    1    1    2    0    0 -0.32757300242E+02 -0.33247408889E+02  0.24253124468E+03  0.24718380926E+03  0.10000000000E+02 0.  1.
</event>
<event>
 5    1  0.1572996E-008  0.3808757E+03  0.7957747E-01  0.3447354E+00
         13   -1    0    0    0    0  0.00000000000E+00  0.00000000000E+00  0.14999999963E+04  0.15000000000E+04  0.10566000000E+00 0. -1.
        994   -1    0    0    0    0 -0.00000000000E+00 -0.00000000000E+00  0.11368683772E-12  0.17120000000E+03  0.17120000000E+03 0.  0.
         13    1    1    2    0    0 -0.72194473936E+01  0.18832087179E+02  0.55689401688E+02  0.59229119127E+02  0.10566000000E+00 0. -1.
        994    1    1    2    0    0  0.47731728507E+01 -0.30540412879E+01  0.37987766407E+01  0.17133587205E+03  0.17120000000E+03 0.  0.
        998    1    1    2    0    0  0.24462745428E+01 -0.15778045891E+02  0.14405118179E+04  0.14406350088E+04  0.10000000000E+02 0. -1.
</event>
<event>
 5    1  0.1572996E-008  0.3709169E+03  0.7957747E-01  0.3491688E+00
         13   -1    0    0    0    0  0.00000000000E+00  0.00000000000E+00  0.14999999963E+04  0.15000000000E+04  0.10566000000E+00 0.  1.
        994   -1    0    0    0    0 -0.00000000000E+00 -0.00000000000E+00  0.11368683772E-12  0.17120000000E+03  0.17120000000E+03 0.  0.
         13    1    1    2    0    0  0.68735554640E+02 -0.66189477724E+02  0.47652023876E+03  0.48598062981E+03  0.10566000000E+00 0.  1.
        994    1    1    2    0    0  0.38487962089E+00  0.10964311353E+03  0.51442670358E+02  0.20970824688E+03  0.17120000000E+03 0.  0.
        998    1    1    2    0    0 -0.69120434261E+02 -0.43453635801E+02  0.97203708716E+03  0.97551112331E+03  0.10000000000E+02 0.  1.
</event>
<event>
 5    1  0.1572996E-008  0.3805563E+03  0.7957747E-01  0.3448740E+00
         13   -1    0    0    0    0  0.00000000000E+00  0.00000000000E+00  0.14999999963E+04  0.15000000000E+04  0.10566000000E+00 0.  1.
        994   -1    0    0    0    0 -0.00000000000E+00 -0.00000000000E+00  0.11368683772E-12  0.17120000000E+03  0.17120000000E+03 0.  0.
         13    1    1    2    0    0 -0.11795576406E+01  0.10004590265E+02  0.10357404804E+02  0.14448881648E+02  0.10566000000E+00 0.  1.
        994    1    1    2    0    0  0.31569708628E+01 -0.49451920218E+02  0.12089781847E+02  0.17863667514E+03  0.17120000000E+03 0.  0.
        998    1    1    2    0    0 -0.19774132222E+01  0.39447329954E+02  0.14775528096E+04  0.14781144432E+04  0.10000000000E+02 0.  1.
</event>
<event>
 5    1  0.1572996E-008  0.3696925E+03  0.7957747E-01  0.3497305E+00
         13   -1    0    0    0    0  0.00000000000E+00  0.00000000000E+00  0.14999999963E+04  0.15000000000E+04  0.10566000000E+00 0. -1.
        994   -1    0    0    0    0 -0.00000000000E+00 -0.00000000000E+00  0.11368683772E-12  0.17120000000E+03  0.17120000000E+03 0.  0.
         13    1    1    2    0    0  0.20179360692E+03 -0.91860764038E+02  0.83042140704E+03  0.85951078190E+03  0.10566000000E+00 0. -1.
        994    1    1    2    0    0 -0.20076857150E+03  0.93571366781E+02  0.20496454190E+03  0.34696328829E+03  0.17120000000E+03 0.  0.
        998    1    1    2    0    0 -0.10250354242E+01 -0.17106027425E+01  0.46461404733E+03  0.46472592981E+03  0.10000000000E+02 0.  1.
</event>
<event>
 5    1  0.1572996E-008  0.3856025E+03  0.7957747E-01  0.3427121E+00
         13   -1    0    0    0    0  0.00000000000E+00  0.00000000000E+00  0.14999999963E+04  0.15000000000E+04  0.10566000000E+00 0.  1.
        994   -1    0    0    0    0 -0.00000000000E+00 -0.00000000000E+00  0.11368683772E-12  0.17120000000E+03  0.17120000000E+03 0.  0.
         13    1    1    2    0    0  0.57977209211E+01 -0.14396981719E+02  0.86272704315E+02  0.87657728264E+02  0.10566000000E+00 0.  1.
        994    1    1    2    0    0 -0.11717055798E+00  0.18137663679E+02  0.24118805590E+01  0.17217504390E+03  0.17120000000E+03 0.  0.
        998    1    1    2    0    0 -0.56805503631E+01 -0.37406819593E+01  0.14113154114E+04  0.14113672278E+04  0.10000000000E+02 0.  1.
</event>
<event>
 5    1  0.1572996E-008  0.3722194E+03  0.7957747E-01  0.3485753E+00
         13   -1    0    0    0    0  0.00000000000E+00  0.00000000000E+00  0.14999999963E+04  0.15000000000E+04  0.10566000000E+00 0.  1.
        994   -1    0    0    0    0 -0.00000000000E+00 -0.00000000000E+00  0.11368683772E-12  0.17120000000E+03  0.17120000000E+03 0.  0.
         13    1    1    2    0    0  0.49971868895E+02 -0.10621712319E+03  0.64346545096E+03  0.65408490479E+03  0.10566000000E+00 0.  1.
        994    1    1    2    0    0 -0.55729474518E+02  0.39422090655E+02  0.28722302089E+02  0.18653226584E+03  0.17120000000E+03 0.  0.
        998    1    1    2    0    0  0.57576056235E+01  0.66795032537E+02  0.82781224323E+03  0.83058282937E+03  0.10000000000E+02 0.  1.
</event>
<event>
 5    1  0.1572996E-008  0.3696587E+03  0.7957747E-01  0.3497461E+00
         13   -1    0    0    0    0  0.00000000000E+00  0.00000000000E+00  0.14999999963E+04  0.15000000000E+04  0.10566000000E+00 0.  1.
        994   -1    0    0    0    0 -0.00000000000E+00 -0.00000000000E+00  0.11368683772E-12  0.17120000000E+03  0.17120000000E+03 0.  0.
         13    1    1    2    0    0 -0.22286684589E+02 -0.30284691113E+02  0.62046692739E+02  0.72551099714E+02  0.10566000000E+00 0.  1.
        994    1    1    2    0    0  0.81996399426E+01  0.22693948305E+02  0.12794196416E+02  0.17336487778E+03  0.17120000000E+03 0.  0.
        998    1    1    2    0    0  0.14087044646E+02  0.75907428079E+01  0.14251591071E+04  0.14252840225E+04  0.10000000000E+02 0.  1.
</event>
<event>
 5    1  0.1572996E-008  0.3778335E+03  0.7957747E-01  0.3460647E+00
         13   -1    0    0    0    0  0.00000000000E+00  0.00000000000E+00  0.14999999963E+04  0.15000000000E+04  0.10566000000E+00 0.  1.
        994   -1    0    0    0    0 -0.00000000000E+00 -0.00000000000E+00  0.11368683772E-12  0.17120000000E+03  0.17120000000E+03 0.  0.
         13    1    1    2    0    0  0.20597779705E+02 -0.21410044037E+00  0.38661214874E+02  0.43806564204E+02  0.10566000000E+00 0.  1.
        994    1    1    2    0    0 -0.12332583036E+02 -0.15723177831E+01  0.57514067885E+01  0.17174714981E+03  0.17120000000E+03 0.  0.
        998    1    1    2    0    0 -0.82651966692E+01  0.17864182235E+01  0.14555873746E+04  0.14556462860E+04  0.10000000000E+02 0.  1.
</event>
<event>
 5    1  0.1572996E-008  0.3724100E+03  0.7957747E-01  0.3484888E+00
         13   -1    0    0    0    0  0.00000000000E+00  0.00000000000E+00  0.14999999963E+04  0.15000000000E+04  0.10566000000E+00 0.  1.
        994   -1    0    0    0    0 -0.00000000000E+00 -0.00000000000E+00  0.11368683772E-12  0.17120000000E+03  0.17120000000E+03 0.  0.
         13    1    1    2    0    0  0.24142136179E+01  0.20724978407E+02  0.23823911879E+02  0.31669276888E+02  0.10566000000E+00 0.  1.
        994    1    1    2    0    0 -0.11988114006E+01 -0.13905526395E+02  0.86830968119E+01  0.17198731634E+03  0.17120000000E+03 0.  0.
        998    1    1    2    0    0 -0.12154022174E+01 -0.68194520114E+01  0.14674929876E+04  0.14675434068E+04  0.10000000000E+02 0.  1.
</event>
<event>
 5    1  0.1572996E-008  0.3781652E+03  0.7957747E-01  0.3459187E+00
         13   -1    0    0    0    0  0.00000000000E+00  0.00000000000E+00  0.14999999963E+04  0.15000000000E+04  0.10566000000E+00 0.  1.
        994   -1    0    0    0    0 -0.00000000000E+00 -0.00000000000E+00  0.11368683772E-12  0.17120000000E+03  0.17120000000E+03 0.  0.
         13    1    1    2    0    0 -0.20372533821E+02  0.98016079276E+01  0.47625557222E+02  0.52719223410E+02  0.10566000000E+00 0.  1.
        994    1    1    2    0    0  0.14309289543E+02 -0.17179236919E+02  0.67452641614E+01  0.17278547548E+03  0.17120000000E+03 0.  0.
        998    1    1    2    0    0  0.60632442781E+01  0.73776289917E+01  0.14456291749E+04  0.14456953011E+04  0.10000000000E+02 0.  1.
</event>
<event>
 5    1  0.1572996E-008  0.3831189E+03  0.7957747E-01  0.3437690E+00
         13   -1    0    0    0    0  0.00000000000E+00  0.00000000000E+00  0.14999999963E+04  0.15000000000E+04  0.10566000000E+00 0. -1.
        994   -1    0    0    0    0 -0.00000000000E+00 -0.00000000000E+00  0.11368683772E-12  0.17120000000E+03  0.17120000000E+03 0.  0.
         13    1    1    2    0    0  0.16176662085E+02  0.41112614557E+01  0.51796983623E+02  0.54419900252E+02  0.10566000000E+00 0. -1.
        994    1    1    2    0    0 -0.17270561883E+02 -0.52987963361E+01  0.36475507826E+01  0.17218912328E+03  0.17120000000E+03 0.  0.
        998    1    1    2    0    0  0.10938997983E+01  0.11875348804E+01  0.14445554619E+04  0.14445909765E+04  0.10000000000E+02 0. -1.
</event>
<event>
 5    1  0.1572996E-008  0.3829691E+03  0.7957747E-01  0.3438331E+00
         13   -1    0    0    0    0  0.00000000000E+00  0.00000000000E+00  0.14999999963E+04  0.15000000000E+04  0.10566000000E+00 0. -1.
        994   -1    0    0    0    0 -0.00000000000E+00 -0.00000000000E+00  0.11368683772E-12  0.17120000000E+03  0.17120000000E+03 0.  0.
         13    1    1    2    0    0 -0.30964117926E+01  0.21071409333E+02  0.84501862877E+02  0.87144523930E+02  0.10566000000E+00 0. -1.
        994    1    1    2    0    0  0.60143784599E+01 -0.13903190936E+02  0.34018150080E+01  0.17190254161E+03  0.17120000000E+03 0.  0.
        998    1    1    2    0    0 -0.29179666673E+01 -0.71682183976E+01  0.14120963184E+04  0.14121529345E+04  0.10000000000E+02 0. -1.
</event>
<event>
 5    1  0.1572996E-008  0.3770953E+03  0.7957747E-01  0.3463905E+00
         13   -1    0    0    0    0  0.00000000000E+00  0.00000000000E+00  0.14999999963E+04  0.15000000000E+04  0.10566000000E+00 0. -1.
        994   -1    0    0    0    0 -0.00000000000E+00 -0.00000000000E+00  0.11368683772E-12  0.17120000000E+03  0.17120000000E+03 0.  0.
         13    1    1    2    0    0  0.18778585483E+02  0.42478803730E+02  0.64687052658E+02  0.79633598341E+02  0.10566000000E+00 0. -1.
        994    1    1    2    0    0 -0.18397113998E+02 -0.45117036245E+02  0.23301615011E+02  0.17951714688E+03  0.17120000000E+03 0.  0.
        998    1    1    2    0    0 -0.38147148538E+00  0.26382325148E+01  0.14120113286E+04  0.14120492548E+04  0.10000000000E+02 0. -1.
</event>
<event>
 5    1  0.1572996E-008  0.3732205E+03  0.7957747E-01  0.3481220E+00
         13   -1    0    0    0    0  0.00000000000E+00  0.00000000000E+00  0.14999999963E+04  0.15000000000E+04  0.10566000000E+00 0. -1.
        994   -1    0    0    0    0 -0.00000000000E+00 -0.00000000000E+00  0.11368683772E-12  0.17120000000E+03  0.17120000000E+03 0.  0.
         13    1    1    2    0    0  0.10947665339E+03 -0.98572192123E+01  0.64605079368E+03  0.65533498426E+03  0.10566000000E+00 0. -1.
        994    1    1    2    0    0 -0.51220892043E+02 -0.62159700082E+02  0.35960559213E+02  0.19258766813E+03  0.17120000000E+03 0.  0.
        998    1    1    2    0    0 -0.58255761346E+02  0.72016919294E+02  0.81798864338E+03  0.82327734762E+03  0.10000000000E+02 0. -1.
</event>
<event>
 5    1  0.1572996E-008  0.3698293E+03  0.7957747E-01  0.3496676E+00
         13   -1    0    0    0    0  0.00000000000E+00  0.00000000000E+00  0.14999999963E+04  0.15000000000E+04  0.10566000000E+00 0.  1.
        994   -1    0    0    0    0 -0.00000000000E+00 -0.00000000000E+00  0.11368683772E-12  0.17120000000E+03  0.17120000000E+03 0.  0.
         13    1    1    2    0    0  0.37041172031E+02  0.34749990195E+01  0.69163475173E+02  0.78534842622E+02  0.10566000000E+00 0.  1.
        994    1    1    2    0    0  0.22468069948E+02  0.11321751515E+02  0.13063331280E+02  0.17353122730E+03  0.17120000000E+03 0.  0.
        998    1    1    2    0    0 -0.59509241979E+02 -0.14796750535E+02  0.14177731898E+04  0.14191339301E+04  0.10000000000E+02 0.  1.
</event>
<event>
 5    1  0.1572996E-008  0.3819841E+03  0.7957747E-01  0.3442564E+00
         13   -1    0    0    0    0  0.00000000000E+00  0.00000000000E+00  0.14999999963E+04  0.15000000000E+04  0.10566000000E+00 0.  1.
        994   -1    0    0    0    0 -0.00000000000E+00 -0.00000000000E+00  0.11368683772E-12  0.17120000000E+03  0.17120000000E+03 0.  0.
         13    1    1    2    0    0  0.20909815615E+02 -0.87153829924E+01  0.76274733263E+02  0.79567734592E+02  0.10566000000E+00 0.  1.
        994    1    1    2    0    0 -0.24919308017E+02  0.70786658648E+01  0.53668509205E+01  0.17323199044E+03  0.17120000000E+03 0.  0.
        998    1    1    2    0    0  0.40094924024E+01  0.16367171276E+01  0.14183584121E+04  0.14184002750E+04  0.10000000000E+02 0.  1.
</event>
<event>
 5    1  0.1572996E-008  0.3747053E+03  0.7957747E-01  0.3474542E+00
         13   -1    0    0    0    0  0.00000000000E+00  0.00000000000E+00  0.14999999963E+04  0.15000000000E+04  0.10566000000E+00 0.  1.
        994   -1    0    0    0    0 -0.00000000000E+00 -0.00000000000E+00  0.11368683772E-12  0.17120000000E+03  0.17120000000E+03 0.  0.
         13    1    1    2    0    0 -0.87998454613E+01 -0.31249099929E+02  0.80869767451E+02  0.87142836643E+02  0.10566000000E+00 0.  1.
        994    1    1    2    0    0  0.43900117523E+01 -0.17920749474E+01  0.69066752038E+01  0.17140485961E+03  0.17120000000E+03 0.  0.
        998    1    1    2    0    0  0.44098337090E+01  0.33041174877E+02  0.14122235536E+04  0.14126523037E+04  0.10000000000E+02 0.  1.
</event>
<event>
 5    1  0.1572996E-008  0.3754279E+03  0.7957747E-01  0.3471311E+00
         13   -1    0    0    0    0  0.00000000000E+00  0.00000000000E+00  0.14999999963E+04  0.15000000000E+04  0.10566000000E+00 0.  1.
        994   -1    0    0    0    0 -0.00000000000E+00 -0.00000000000E+00  0.11368683772E-12  0.17120000000E+03  0.17120000000E+03 0.  0.
         13    1    1    2    0    0 -0.49143028985E+02 -0.94277460245E+00  0.16030413146E+03  0.16767036664E+03  0.10566000000E+00 0.  1.
        994    1    1    2    0    0  0.55859004411E+02 -0.90475148128E+01  0.17406610521E+02  0.18114777390E+03  0.17120000000E+03 0.  0.
        998    1    1    2    0    0 -0.67159754261E+01  0.99902894153E+01  0.13222892543E+04  0.13223818595E+04  0.10000000000E+02 0.  1.
</event>
<event>
 5    1  0.2307522E-008  0.3863158E+03  0.7957747E-01  0.3424111E+00
         13   -1    0    0    0    0  0.00000000000E+00  0.00000000000E+00  0.14999999963E+04  0.15000000000E+04  0.10566000000E+00 0.  1.
        994   -1    0    0    0    0 -0.00000000000E+00 -0.00000000000E+00  0.11368683772E-12  0.17120000000E+03  0.17120000000E+03 0.  0.
         13    1    1    2    0    0 -0.91120750214E+01 -0.61470210967E+01  0.62288407419E+02  0.63250870685E+02  0.10566000000E+00 0.  1.
        994    1    1    2    0    0  0.98520990267E+01  0.60488063743E+00  0.12973709753E+01  0.17148922097E+03  0.17120000000E+03 0.  0.
        998    1    1    2    0    0 -0.74002400533E+00  0.55421404593E+01  0.14364142179E+04  0.14364599083E+04  0.10000000000E+02 0.  1.
</event>
<event>
 5    1  0.1572996E-008  0.3817258E+03  0.7957747E-01  0.3443678E+00
         13   -1    0    0    0    0  0.00000000000E+00  0.00000000000E+00  0.14999999963E+04  0.15000000000E+04  0.10566000000E+00 0. -1.
        994   -1    0    0    0    0 -0.00000000000E+00 -0.00000000000E+00  0.11368683772E-12  0.17120000000E+03  0.17120000000E+03 0.  0.
         13    1    1    2    0    0  0.17556677529E+01  0.16865007882E+02  0.43239719343E+02  0.46445617156E+02  0.10566000000E+00 0. -1.
        994    1    1    2    0    0 -0.23802987067E+01 -0.88966022410E+01  0.35464863475E+01  0.17148420603E+03  0.17120000000E+03 0.  0.
        998    1    1    2    0    0  0.62463095382E+00 -0.79684056407E+01  0.14532137906E+04  0.14532701768E+04  0.10000000000E+02 0. -1.
</event>
<event>
 5    1  0.1572996E-008  0.3687682E+03  0.7957747E-01  0.3501571E+00
         13   -1    0    0    0    0  0.00000000000E+00  0.00000000000E+00  0.14999999963E+04  0.15000000000E+04  0.10566000000E+00 0. -1.
        994   -1    0    0    0    0 -0.00000000000E+00 -0.00000000000E+00  0.11368683772E-12  0.17120000000E+03  0.17120000000E+03 0.  0.
         13    1    1    2    0    0  0.53846628084E+02  0.19793193339E+02  0.15033466569E+03  0.16090914434E+03  0.10566000000E+00 0. -1.
        994    1    1    2    0    0 -0.46104792290E+02 -0.27308673793E+02  0.19952242268E+02  0.18049639195E+03  0.17120000000E+03 0.  0.
        998    1    1    2    0    0 -0.77418357939E+01  0.75154804545E+01  0.13297130883E+04  0.13297944637E+04  0.10000000000E+02 0. -1.
</event>
<event>
 5    1  0.1572996E-008  0.3859897E+03  0.7957747E-01  0.3425485E+00
         13   -1    0    0    0    0  0.00000000000E+00  0.00000000000E+00  0.14999999963E+04  0.15000000000E+04  0.10566000000E+00 0. -1.
        994   -1    0    0    0    0 -0.00000000000E+00 -0.00000000000E+00  0.11368683772E-12  0.17120000000E+03  0.17120000000E+03 0.  0.
         13    1    1    2    0    0 -0.48601572611E+00  0.12514161288E+02  0.75374656082E+02  0.76408051850E+02  0.10566000000E+00 0. -1.
        994    1    1    2    0    0  0.11448713006E+02  0.15894630899E+01  0.15776302976E+01  0.17159699397E+03  0.17120000000E+03 0.  0.
        998    1    1    2    0    0 -0.10962697280E+02 -0.14103624378E+02  0.14230477099E+04  0.14231949542E+04  0.10000000000E+02 0. -1.
</event>
<event>
 5    1  0.1572996E-008  0.3789887E+03  0.7957747E-01  0.3455574E+00
         13   -1    0    0    0    0  0.00000000000E+00  0.00000000000E+00  0.14999999963E+04  0.15000000000E+04  0.10566000000E+00 0.  1.
        994   -1    0    0    0    0 -0.00000000000E+00 -0.00000000000E+00  0.11368683772E-12  0.17120000000E+03  0.17120000000E+03 0.  0.
         13    1    1    2    0    0  0.13791998401E+02  0.10245106367E+02  0.29735918936E+02  0.34342647880E+02  0.10566000000E+00 0.  1.
        994    1    1    2    0    0 -0.10529208475E+02 -0.86483044904E+01  0.52674865282E+01  0.17182212842E+03  0.17120000000E+03 0.  0.
        998    1    1    2    0    0 -0.32627899262E+01 -0.15968018768E+01  0.14649965908E+04  0.14650352237E+04  0.10000000000E+02 0.  1.
</event>
<event>
 5    1  0.1572996E-008  0.3823381E+03  0.7957747E-01  0.3441041E+00
         13   -1    0    0    0    0  0.00000000000E+00  0.00000000000E+00  0.14999999963E+04  0.15000000000E+04  0.10566000000E+00 0. -1.
        994   -1    0    0    0    0 -0.00000000000E+00 -0.00000000000E+00  0.11368683772E-12  0.17120000000E+03  0.17120000000E+03 0.  0.
         13    1    1    2    0    0  0.19902130667E+02  0.17036089737E+01  0.64703049125E+02  0.67716267018E+02  0.10566000000E+00 0. -1.
        994    1    1    2    0    0 -0.18265770061E+02 -0.40373567635E+01  0.41192285729E+01  0.17226824040E+03  0.17120000000E+03 0.  0.
        998    1    1    2    0    0 -0.16363606067E+01  0.23337477898E+01  0.14311777186E+04  0.14312154926E+04  0.10000000000E+02 0. -1.
</event>
<event>
 5    1  0.1572996E-008  0.3809345E+03  0.7957747E-01  0.3447100E+00
         13   -1    0    0    0    0  0.00000000000E+00  0.00000000000E+00  0.14999999963E+04  0.15000000000E+04  0.10566000000E+00 0.  1.
        994   -1    0    0    0    0 -0.00000000000E+00 -0.00000000000E+00  0.11368683772E-12  0.17120000000E+03  0.17120000000E+03 0.  0.
         13    1    1    2    0    0  0.65908108276E+01  0.28391696050E+02  0.12422096054E+03  0.12759461350E+03  0.10566000000E+00 0.  1.
        994    1    1    2    0    0 -0.70789239517E+01 -0.30942901747E+01  0.38611076683E+01  0.17141771772E+03  0.17120000000E+03 0.  0.
        998    1    1    2    0    0  0.48811312412E+00 -0.25297405875E+02  0.13719179281E+04  0.13721876688E+04  0.10000000000E+02 0.  1.
</event>
<event>
 5    1  0.1572996E-008  0.3849879E+03  0.7957747E-01  0.3429724E+00
         13   -1    0    0    0    0  0.00000000000E+00  0.00000000000E+00  0.14999999963E+04  0.15000000000E+04  0.10566000000E+00 0. -1.
        994   -1    0    0    0    0 -0.00000000000E+00 -0.00000000000E+00  0.11368683772E-12  0.17120000000E+03  0.17120000000E+03 0.  0.
         13    1    1    2    0    0 -0.81037468044E+01  0.10881487114E+02  0.57383758263E+02  0.58965959252E+02  0.10566000000E+00 0. -1.
        994    1    1    2    0    0 -0.36267106204E+01 -0.97895942447E+01  0.19946868299E+01  0.17152961249E+03  0.17120000000E+03 0.  0.
        998    1    1    2    0    0  0.11730457425E+02 -0.10918928696E+01  0.14406215512E+04  0.14407044283E+04  0.10000000000E+02 0. -1.
</event>
<event>
 5    1  0.1572996E-008  0.3842367E+03  0.7957747E-01  0.3432916E+00
         13   -1    0    0    0    0  0.00000000000E+00  0.00000000000E+00  0.14999999963E+04  0.15000000000E+04  0.10566000000E+00 0.  1.
        994   -1    0    0    0    0 -0.00000000000E+00 -0.00000000000E+00  0.11368683772E-12  0.17120000000E+03  0.17120000000E+03 0.  0.
         13    1    1    2    0    0  0.16156827586E+02 -0.13648587898E+02  0.11514461226E+03  0.11707100378E+03  0.10566000000E+00 0.  1.
        994    1    1    2    0    0  0.22463657822E+01  0.16120218977E+02  0.28834125081E+01  0.17199610951E+03  0.17120000000E+03 0.  0.
        998    1    1    2    0    0 -0.18403193368E+02 -0.24716310790E+01  0.13819719715E+04  0.13821328867E+04  0.10000000000E+02 0.  1.
</event>
<event>
 5    1  0.1572996E-008  0.3780139E+03  0.7957747E-01  0.3459852E+00
         13   -1    0    0    0    0  0.00000000000E+00  0.00000000000E+00  0.14999999963E+04  0.15000000000E+04  0.10566000000E+00 0.  1.
        994   -1    0    0    0    0 -0.00000000000E+00 -0.00000000000E+00  0.11368683772E-12  0.17120000000E+03  0.17120000000E+03 0.  0.
         13    1    1    2    0    0 -0.92933449189E+01  0.16049094704E+02  0.30292580189E+02  0.35518886232E+02  0.10566000000E+00 0.  1.
        994    1    1    2    0    0  0.40533054383E+01 -0.26242502712E+02  0.75153901955E+01  0.17340997469E+03  0.17120000000E+03 0.  0.
        998    1    1    2    0    0  0.52400394806E+01  0.10193408008E+02  0.14621920259E+04  0.14622711391E+04  0.10000000000E+02 0.  1.
</event>
<event>
 5    1  0.3923425E-008  0.3862030E+03  0.7957747E-01  0.3424586E+00
         13   -1    0    0    0    0  0.00000000000E+00  0.00000000000E+00  0.14999999963E+04  0.15000000000E+04  0.10566000000E+00 0.  1.
        994   -1    0    0    0    0 -0.00000000000E+00 -0.00000000000E+00  0.11368683772E-12  0.17120000000E+03  0.17120000000E+03 0.  0.
         13    1    1    2    0    0 -0.22887808439E+01 -0.10062187603E+02  0.52054288105E+02  0.53067374264E+02  0.10566000000E+00 0.  1.
        994    1    1    2    0    0  0.16751586856E+00  0.77452571733E+01  0.12306660400E+01  0.17137961258E+03  0.17120000000E+03 0.  0.
        998    1    1    2    0    0  0.21212649753E+01  0.23169304294E+01  0.14467150421E+04  0.14467530132E+04  0.10000000000E+02 0.  1.
</event>
<event>
 5    1  0.1572996E-008  0.3852395E+03  0.7957747E-01  0.3428657E+00
         13   -1    0    0    0    0  0.00000000000E+00  0.00000000000E+00  0.14999999963E+04  0.15000000000E+04  0.10566000000E+00 0.  1.
        994   -1    0    0    0    0 -0.00000000000E+00 -0.00000000000E+00  0.11368683772E-12  0.17120000000E+03  0.17120000000E+03 0.  0.
         13    1    1    2    0    0 -0.21597988597E+01  0.13589656103E+02  0.62735678156E+02  0.64227096789E+02  0.10566000000E+00 0.  1.
        994    1    1    2    0    0 -0.32547829632E+01 -0.99009763189E+01  0.18683215966E+01  0.17152712197E+03  0.17120000000E+03 0.  0.
        998    1    1    2    0    0  0.54145818229E+01 -0.36886797838E+01  0.14353959965E+04  0.14354457812E+04  0.10000000000E+02 0.  1.
</event>
<event>
 5    1  0.1572996E-008  0.3802488E+03  0.7957747E-01  0.3450076E+00
         13   -1    0    0    0    0  0.00000000000E+00  0.00000000000E+00  0.14999999963E+04  0.15000000000E+04  0.10566000000E+00 0.  1.
        994   -1    0    0    0    0 -0.00000000000E+00 -0.00000000000E+00  0.11368683772E-12  0.17120000000E+03  0.17120000000E+03 0.  0.
         13    1    1    2    0    0 -0.10590422445E+02 -0.75584706975E+01  0.19414051308E+02  0.23371009372E+02  0.10566000000E+00 0.  1.
        994    1    1    2    0    0  0.11851928728E+02  0.37624522081E+00  0.44774055387E+01  0.17166856712E+03  0.17120000000E+03 0.  0.
        998    1    1    2    0    0 -0.12615062832E+01  0.71822254767E+01  0.14761085394E+04  0.14761604235E+04  0.10000000000E+02 0.  1.
</event>
<event>
 5    1  0.1572996E-008  0.3840569E+03  0.7957747E-01  0.3433682E+00
         13   -1    0    0    0    0  0.00000000000E+00  0.00000000000E+00  0.14999999963E+04  0.15000000000E+04  0.10566000000E+00 0. -1.
        994   -1    0    0    0    0 -0.00000000000E+00 -0.00000000000E+00  0.11368683772E-12  0.17120000000E+03  0.17120000000E+03 0.  0.
         13    1    1    2    0    0 -0.10054798217E+02  0.21388696727E+01  0.24561173476E+02  0.26625854676E+02  0.10566000000E+00 0. -1.
        994    1    1    2    0    0  0.64657298397E+01 -0.28837849378E+01  0.22644616451E+01  0.17136128403E+03  0.17120000000E+03 0.  0.
        998    1    1    2    0    0  0.35890683770E+01  0.74491526510E+00  0.14731743612E+04  0.14732128613E+04  0.10000000000E+02 0. -1.
</event>
<event>
 5    1  0.1572996E-008  0.3850780E+03  0.7957747E-01  0.3429341E+00
         13   -1    0    0    0    0  0.00000000000E+00  0.00000000000E+00  0.14999999963E+04  0.15000000000E+04  0.10566000000E+00 0. -1.
        994   -1    0    0    0    0 -0.00000000000E+00 -0.00000000000E+00  0.11368683772E-12  0.17120000000E+03  0.17120000000E+03 0.  0.
         13    1    1    2    0    0 -0.37248456869E+00  0.13340429282E+02  0.61986186438E+02  0.63406657942E+02  0.10566000000E+00 0. -1.
        994    1    1    2    0    0 -0.16488906210E+01  0.70744915952E+01  0.17649106758E+01  0.17136312959E+03  0.17120000000E+03 0.  0.
        998    1    1    2    0    0  0.20213751897E+01 -0.20414920878E+02  0.14362488992E+04  0.14364302125E+04  0.10000000000E+02 0. -1.
</event>
<event>
 5    1  0.1572996E-008  0.3925393E+03  0.7957747E-01  0.3398313E+00
         13   -1    0    0    0    0  0.00000000000E+00  0.00000000000E+00  0.14999999963E+04  0.15000000000E+04  0.10566000000E+00 0.  1.
        994   -1    0    0    0    0 -0.00000000000E+00 -0.00000000000E+00  0.11368683772E-12  0.17120000000E+03  0.17120000000E+03 0.  0.
         13    1    1    2    0    0 -0.18082246426E+02  0.58961764527E+02  0.70468690501E+02  0.93644566404E+02  0.10566000000E+00 0.  1.
        994    1    1    2    0    0 -0.13217715993E+02 -0.65876613113E+02  0.40756232240E+02  0.18837448510E+03  0.17120000000E+03 0.  0.
        998    1    1    2    0    0  0.31299962419E+02  0.69148485864E+01  0.13887750735E+04  0.13891809485E+04  0.10000000000E+02 0.  1.
</event>
<event>
 5    1  0.1572996E-008  0.3852461E+03  0.7957747E-01  0.3428629E+00
         13   -1    0    0    0    0  0.00000000000E+00  0.00000000000E+00  0.14999999963E+04  0.15000000000E+04  0.10566000000E+00 0.  1.
        994   -1    0    0    0    0 -0.00000000000E+00 -0.00000000000E+00  0.11368683772E-12  0.17120000000E+03  0.17120000000E+03 0.  0.
         13    1    1    2    0    0  0.14565031037E+02 -0.36214697543E+01  0.73781988049E+02  0.75293081334E+02  0.10566000000E+00 0.  1.
        994    1    1    2    0    0 -0.11145932799E+02  0.47245299369E+01  0.19897437413E+01  0.17163901678E+03  0.17120000000E+03 0.  0.
        998    1    1    2    0    0 -0.34190982378E+01 -0.11030601827E+01  0.14242282645E+04  0.14242679019E+04  0.10000000000E+02 0.  1.
</event>
<event>
 5    1  0.1572996E-008  0.3818878E+03  0.7957747E-01  0.3442980E+00
         13   -1    0    0    0    0  0.00000000000E+00  0.00000000000E+00  0.14999999963E+04  0.15000000000E+04  0.10566000000E+00 0.  1.
        994   -1    0    0    0    0 -0.00000000000E+00 -0.00000000000E+00  0.11368683772E-12  0.17120000000E+03  0.17120000000E+03 0.  0.
         13    1    1    2    0    0  0.80797353837E+02  0.13186106073E+03  0.77365483131E+03  0.78895967001E+03  0.10566000000E+00 0.  1.
        994    1    1    2    0    0 -0.94993350105E+02 -0.16307813949E+03  0.13227355058E+03  0.28709571283E+03  0.17120000000E+03 0.  0.
        998    1    1    2    0    0  0.14195996268E+02  0.31217078759E+02  0.59407161439E+03  0.59514461716E+03  0.10000000000E+02 0.  1.
</event>
<event>
 5    1  0.1572996E-008  0.3803143E+03  0.7957747E-01  0.3449791E+00
         13   -1    0    0    0    0  0.00000000000E+00  0.00000000000E+00  0.14999999963E+04  0.15000000000E+04  0.10566000000E+00 0. -1.
        994   -1    0    0    0    0 -0.00000000000E+00 -0.00000000000E+00  0.11368683772E-12  0.17120000000E+03  0.17120000000E+03 0.  0.
         13    1    1    2    0    0 -0.20932965816E+02 -0.16591516578E+02  0.80784238197E+02  0.85085673208E+02  0.10566000000E+00 0. -1.
        994    1    1    2    0    0  0.25350485481E+02  0.25494006015E+02  0.83031748398E+01  0.17513130551E+03  0.17120000000E+03 0.  0.
        998    1    1    2    0    0 -0.44175196655E+01 -0.89024894366E+01  0.14109125832E+04  0.14109830213E+04  0.10000000000E+02 0. -1.
</event>
<event>
 5    1  0.1572996E-008  0.3774420E+03  0.7957747E-01  0.3462373E+00
         13   -1    0    0    0    0  0.00000000000E+00  0.00000000000E+00  0.14999999963E+04  0.15000000000E+04  0.10566000000E+00 0.  1.
        994   -1    0    0    0    0 -0.00000000000E+00 -0.00000000000E+00  0.11368683772E-12  0.17120000000E+03  0.17120000000E+03 0.  0.
         13    1    1    2    0    0  0.75628922028E+01 -0.32308914543E+02  0.90431817724E+02  0.96327504474E+02  0.10566000000E+00 0.  1.
        994    1    1    2    0    0 -0.78085712990E+00  0.43153217816E+02  0.11736257290E+02  0.17694629038E+03  0.17120000000E+03 0.  0.
        998    1    1    2    0    0 -0.67820350729E+01 -0.10844303273E+02  0.13978319213E+04  0.13979262051E+04  0.10000000000E+02 0.  1.
</event>
<event>
 5    1  0.1572996E-008  0.3739496E+03  0.7957747E-01  0.3477934E+00
         13   -1    0    0    0    0  0.00000000000E+00  0.00000000000E+00  0.14999999963E+04  0.15000000000E+04  0.10566000000E+00 0.  1.
        994   -1    0    0    0    0 -0.00000000000E+00 -0.00000000000E+00  0.11368683772E-12  0.17120000000E+03  0.17120000000E+03 0.  0.
         13    1    1    2    0    0 -0.94052577248E+02 -0.21115581869E+02  0.54479928400E+03  0.55326126386E+03  0.10566000000E+00 0.  1.
        994    1    1    2    0    0  0.53745071906E+01  0.18943887960E+02  0.14418407026E+02  0.17293087255E+03  0.17120000000E+03 0.  0.
        998    1    1    2    0    0  0.88678070057E+02  0.21716939090E+01  0.94078230526E+03  0.94500786359E+03  0.10000000000E+02 0. -1.
</event>
<event>
 5    1  0.1572996E-008  0.3794846E+03  0.7957747E-01  0.3453406E+00
         13   -1    0    0    0    0  0.00000000000E+00  0.00000000000E+00  0.14999999963E+04  0.15000000000E+04  0.10566000000E+00 0. -1.
        994   -1    0    0    0    0 -0.00000000000E+00 -0.00000000000E+00  0.11368683772E-12  0.17120000000E+03  0.17120000000E+03 0.  0.
         13    1    1    2    0    0 -0.51578546124E+01  0.30098623791E+02  0.10890700528E+03  0.11310737191E+03  0.10566000000E+00 0. -1.
        994    1    1    2    0    0  0.30945301586E+01 -0.10415758001E+02  0.47889843393E+01  0.17161130063E+03  0.17120000000E+03 0.  0.
        998    1    1    2    0    0  0.20633244539E+01 -0.19682865790E+02  0.13863040067E+04  0.13864813275E+04  0.10000000000E+02 0. -1.
</event>
<event>
 5    1  0.1572996E-008  0.3769125E+03  0.7957747E-01  0.3464713E+00
         13   -1    0    0    0    0  0.00000000000E+00  0.00000000000E+00  0.14999999963E+04  0.15000000000E+04  0.10566000000E+00 0. -1.
        994   -1    0    0    0    0 -0.00000000000E+00 -0.00000000000E+00  0.11368683772E-12  0.17120000000E+03  0.17120000000E+03 0.  0.
         13    1    1    2    0    0 -0.30110889139E+02  0.93738597522E+01  0.27629149979E+02  0.41927508679E+02  0.10566000000E+00 0. -1.
        994    1    1    2    0    0  0.27960580710E+02 -0.90461240115E+01  0.17742047484E+02  0.17460769365E+03  0.17120000000E+03 0.  0.
        998    1    1    2    0    0  0.21503084283E+01 -0.32773574070E+00  0.14546287988E+04  0.14546647977E+04  0.10000000000E+02 0. -1.
</event>
<event>
 5    1  0.1572996E-008  0.3817669E+03  0.7957747E-01  0.3443501E+00
         13   -1    0    0    0    0  0.00000000000E+00  0.00000000000E+00  0.14999999963E+04  0.15000000000E+04  0.10566000000E+00 0.  1.
        994   -1    0    0    0    0 -0.00000000000E+00 -0.00000000000E+00  0.11368683772E-12  0.17120000000E+03  0.17120000000E+03 0.  0.
         13    1    1    2    0    0  0.12580130110E+02  0.87963479836E+01  0.34999117010E+02  0.38217597609E+02  0.10566000000E+00 0.  1.
        994    1    1    2    0    0 -0.77425043942E+01 -0.89296168133E+01  0.37082387845E+01  0.17164753265E+03  0.17120000000E+03 0.  0.
        998    1    1    2    0    0 -0.48376257162E+01  0.13326882969E+00  0.14612926405E+04  0.14613348697E+04  0.10000000000E+02 0.  1.
</event>
<event>
 5    1  0.1572996E-008  0.3802946E+03  0.7957747E-01  0.3449877E+00
         13   -1    0    0    0    0  0.00000000000E+00  0.00000000000E+00  0.14999999963E+04  0.15000000000E+04  0.10566000000E+00 0. -1.
        994   -1    0    0    0    0 -0.00000000000E+00 -0.00000000000E+00  0.11368683772E-12  0.17120000000E+03  0.17120000000E+03 0.  0.
         13    1    1    2    0    0 -0.10309206887E+02 -0.50328946352E+01  0.14954623412E+02  0.18848387212E+02  0.10566000000E+00 0. -1.
        994    1    1    2    0    0  0.24885823394E+01  0.48122023262E+01  0.40825306737E+01  0.17133434387E+03  0.17120000000E+03 0.  0.
        998    1    1    2    0    0  0.78206245474E+01  0.22069230899E+00  0.14809628422E+04  0.14810172689E+04  0.10000000000E+02 0. -1.
</event>
<event>
 5    1  0.1572996E-008  0.3789144E+03  0.7957747E-01  0.3455899E+00
         13   -1    0    0    0    0  0.00000000000E+00  0.00000000000E+00  0.14999999963E+04  0.15000000000E+04  0.10566000000E+00 0.  1.
        994   -1    0    0    0    0 -0.00000000000E+00 -0.00000000000E+00  0.11368683772E-12  0.17120000000E+03  0.17120000000E+03 0.  0.
         13    1    1    2    0    0 -0.71745124440E+02 -0.45921001165E+02  0.51242239463E+03  0.51945435114E+03  0.10566000000E+00 0.  1.
        994    1    1    2    0    0  0.74773238961E+02  0.39350779950E+02  0.29020592680E+02  0.19310918142E+03  0.17120000000E+03 0.  0.
        998    1    1    2    0    0 -0.30281145214E+01  0.65702212153E+01  0.95855700897E+03  0.95863646745E+03  0.10000000000E+02 0.  1.
</event>
<event>
 5    1  0.1572996E-008  0.3825637E+03  0.7957747E-01  0.3440071E+00
         13   -1    0    0    0    0  0.00000000000E+00  0.00000000000E+00  0.14999999963E+04  0.15000000000E+04  0.10566000000E+00 0. -1.
        994   -1    0    0    0    0 -0.00000000000E+00 -0.00000000000E+00  0.11368683772E-12  0.17120000000E+03  0.17120000000E+03 0.  0.
         13    1    1    2    0    0  0.71734135129E+01  0.35067514326E+02  0.19670438141E+03  0.19993452241E+03  0.10566000000E+00 0. -1.
        994    1    1    2    0    0 -0.50420282266E+01 -0.35994081667E+02  0.72358450831E+01  0.17516504622E+03  0.17120000000E+03 0.  0.
        998    1    1    2    0    0 -0.21313852863E+01  0.92656734143E+00  0.12960597698E+04  0.12961004314E+04  0.10000000000E+02 0. -1.
</event>
<event>
 5    1  0.1572996E-008  0.3960627E+03  0.7957747E-01  0.3384068E+00
         13   -1    0    0    0    0  0.00000000000E+00  0.00000000000E+00  0.14999999963E+04  0.15000000000E+04  0.10566000000E+00 0. -1.
        994   -1    0    0    0    0 -0.00000000000E+00 -0.00000000000E+00  0.11368683772E-12  0.17120000000E+03  0.17120000000E+03 0.  0.
         13    1    1    2    0    0  0.70536709448E+02  0.33720584204E+02  0.10818458623E+03  0.13347816690E+03  0.10566000000E+00 0. -1.
        994    1    1    2    0    0 -0.63327627962E+02 -0.23437149980E+02  0.43235175435E+02  0.18904604957E+03  0.17120000000E+03 0.  0.
        998    1    1    2    0    0 -0.72090814854E+01 -0.10283434224E+02  0.13485802346E+04  0.13486757835E+04  0.10000000000E+02 0. -1.
</event>
<event>
 5    1  0.1572996E-008  0.3724841E+03  0.7957747E-01  0.3484552E+00
         13   -1    0    0    0    0  0.00000000000E+00  0.00000000000E+00  0.14999999963E+04  0.15000000000E+04  0.10566000000E+00 0. -1.
        994   -1    0    0    0    0 -0.00000000000E+00 -0.00000000000E+00  0.11368683772E-12  0.17120000000E+03  0.17120000000E+03 0.  0.
         13    1    1    2    0    0  0.19328583922E+02  0.40033166355E+02  0.11368227929E+03  0.12206522992E+03  0.10566000000E+00 0. -1.
        994    1    1    2    0    0 -0.22529217406E+02 -0.36082421826E+02  0.14205478980E+02  0.17697667201E+03  0.17120000000E+03 0.  0.
        998    1    1    2    0    0  0.32006334841E+01 -0.39507445289E+01  0.13721122380E+04  0.13721580981E+04  0.10000000000E+02 0. -1.
</event>
<event>
 5    1  0.1572996E-008  0.3835500E+03  0.7957747E-01  0.3435845E+00
         13   -1    0    0    0    0  0.00000000000E+00  0.00000000000E+00  0.14999999963E+04  0.15000000000E+04  0.10566000000E+00 0. -1.
        994   -1    0    0    0    0 -0.00000000000E+00 -0.00000000000E+00  0.11368683772E-12  0.17120000000E+03  0.17120000000E+03 0.  0.
         13    1    1    2    0    0 -0.19847955514E+02  0.19656864941E+02  0.13623471930E+03  0.13906920430E+03  0.10566000000E+00 0. -1.
        994    1    1    2    0    0  0.30533316439E+02 -0.29590485797E+02  0.83483422311E+01  0.17659845719E+03  0.17120000000E+03 0.  0.
        998    1    1    2    0    0 -0.10685360924E+02  0.99336208554E+01  0.13554169347E+04  0.13555323385E+04  0.10000000000E+02 0. -1.
</event>
<event>
 5    1  0.1572996E-008  0.3803638E+03  0.7957747E-01  0.3449576E+00
         13   -1    0    0    0    0  0.00000000000E+00  0.00000000000E+00  0.14999999963E+04  0.15000000000E+04  0.10566000000E+00 0.  1.
        994   -1    0    0    0    0 -0.00000000000E+00 -0.00000000000E+00  0.11368683772E-12  0.17120000000E+03  0.17120000000E+03 0.  0.
         13    1    1    2    0    0 -0.98474114844E+01 -0.37922383500E+02  0.17476932378E+03  0.17910724827E+03  0.10566000000E+00 0.  1.
        994    1    1    2    0    0  0.83002972181E+01  0.36224576121E+02  0.85748272108E+01  0.17539692845E+03  0.17120000000E+03 0.  0.
        998    1    1    2    0    0  0.15471142663E+01  0.16978073790E+01  0.13166558453E+04  0.13166958233E+04  0.10000000000E+02 0.  1.
</event>
<event>
 5    1  0.1572996E-008  0.3852134E+03  0.7957747E-01  0.3428768E+00
         13   -1    0    0    0    0  0.00000000000E+00  0.00000000000E+00  0.14999999963E+04  0.15000000000E+04  0.10566000000E+00 0.  1.
        994   -1    0    0    0    0 -0.00000000000E+00 -0.00000000000E+00  0.11368683772E-12  0.17120000000E+03  0.17120000000E+03 0.  0.
         13    1    1    2    0    0 -0.13129235349E+02 -0.80028696613E+01  0.79993066748E+02  0.81457502021E+02  0.10566000000E+00 0.  1.
        994    1    1    2    0    0  0.80449950742E+01 -0.13854548031E+01  0.17432553740E+01  0.17140338494E+03  0.17120000000E+03 0.  0.
        998    1    1    2    0    0  0.50842402746E+01  0.93883244644E+01  0.14182636742E+04  0.14183391130E+04  0.10000000000E+02 0.  1.
</event>
<event>
 5    1  0.1572996E-008  0.3842365E+03  0.7957747E-01  0.3432917E+00
         13   -1    0    0    0    0  0.00000000000E+00  0.00000000000E+00  0.14999999963E+04  0.15000000000E+04  0.10566000000E+00 0.  1.
        994   -1    0    0    0    0 -0.00000000000E+00 -0.00000000000E+00  0.11368683772E-12  0.17120000000E+03  0.17120000000E+03 0.  0.
         13    1    1    2    0    0 -0.73395132517E+01 -0.20779966012E+02  0.12236699223E+03  0.12433570442E+03  0.10566000000E+00 0.  1.
        994    1    1    2    0    0  0.39488691648E-01  0.12410171573E+02  0.25175947356E+01  0.17166767955E+03  0.17120000000E+03 0.  0.
        998    1    1    2    0    0  0.73000245600E+01  0.83697944384E+01  0.13751154093E+04  0.13751966160E+04  0.10000000000E+02 0.  1.
</event>
<event>
 5    1  0.1572996E-008  0.3849125E+03  0.7957747E-01  0.3430043E+00
         13   -1    0    0    0    0  0.00000000000E+00  0.00000000000E+00  0.14999999963E+04  0.15000000000E+04  0.10566000000E+00 0. -1.
        994   -1    0    0    0    0 -0.00000000000E+00 -0.00000000000E+00  0.11368683772E-12  0.17120000000E+03  0.17120000000E+03 0.  0.
         13    1    1    2    0    0 -0.12569174338E+02 -0.12433282783E+02  0.88160040899E+02  0.89915374879E+02  0.10566000000E+00 0. -1.
        994    1    1    2    0    0  0.19380499601E+02  0.80681348680E+01  0.31246372384E+01  0.17251058496E+03  0.17120000000E+03 0.  0.
        998    1    1    2    0    0 -0.68113252637E+01  0.43651479152E+01  0.14087153181E+04  0.14087740402E+04  0.10000000000E+02 0. -1.
</event>
<event>
 5    1  0.1572996E-008  0.3808157E+03  0.7957747E-01  0.3447615E+00
         13   -1    0    0    0    0  0.00000000000E+00  0.00000000000E+00  0.14999999963E+04  0.15000000000E+04  0.10566000000E+00 0.  1.
        994   -1    0    0    0    0 -0.00000000000E+00 -0.00000000000E+00  0.11368683772E-12  0.17120000000E+03  0.17120000000E+03 0.  0.
         13    1    1    2    0    0 -0.70460325976E+01 -0.26086299363E+02  0.97523384004E+02  0.10119764415E+03  0.10566000000E+00 0.  1.
        994    1    1    2    0    0 -0.95943032074E+01  0.18484848162E+02  0.51693588395E+01  0.17253956803E+03  0.17120000000E+03 0.  0.
        998    1    1    2    0    0  0.16640335805E+02  0.76014512010E+01  0.13973072534E+04  0.13974627878E+04  0.10000000000E+02 0.  1.
</event>
<event>
 5    1  0.1572996E-008  0.3757330E+03  0.7957747E-01  0.3469951E+00
         13   -1    0    0    0    0  0.00000000000E+00  0.00000000000E+00  0.14999999963E+04  0.15000000000E+04  0.10566000000E+00 0.  1.
        994   -1    0    0    0    0 -0.00000000000E+00 -0.00000000000E+00  0.11368683772E-12  0.17120000000E+03  0.17120000000E+03 0.  0.
         13    1    1    2    0    0  0.43143622302E+02  0.21807403259E+03  0.12184513506E+04  0.12385642336E+04  0.10566000000E+00 0.  1.
        994    1    1    2    0    0 -0.32323597769E+02 -0.21453112311E+03  0.17966677414E+03  0.32963314076E+03  0.17120000000E+03 0.  0.
        998    1    1    2    0    0 -0.10820024533E+02 -0.35429094724E+01  0.10188187154E+03  0.10300262563E+03  0.10000000000E+02 0. -1.
</event>
<event>
 5    1  0.1572996E-008  0.3796337E+03  0.7957747E-01  0.3452755E+00
         13   -1    0    0    0    0  0.00000000000E+00  0.00000000000E+00  0.14999999963E+04  0.15000000000E+04  0.10566000000E+00 0.  1.
        994   -1    0    0    0    0 -0.00000000000E+00 -0.00000000000E+00  0.11368683772E-12  0.17120000000E+03  0.17120000000E+03 0.  0.
         13    1    1    2    0    0 -0.39219919868E+01 -0.11613646444E+02  0.15442182749E+02  0.19716261739E+02  0.10566000000E+00 0.  1.
        994    1    1    2    0    0  0.11934273459E+01  0.11603506599E+02  0.47736943820E+01  0.17166331522E+03  0.17120000000E+03 0.  0.
        998    1    1    2    0    0  0.27285646409E+01  0.10139845002E-01  0.14797841191E+04  0.14798204230E+04  0.10000000000E+02 0.  1.
</event>
<event>
 5    1  0.1572996E-008  0.3835460E+03  0.7957747E-01  0.3435862E+00
         13   -1    0    0    0    0  0.00000000000E+00  0.00000000000E+00  0.14999999963E+04  0.15000000000E+04  0.10566000000E+00 0. -1.
        994   -1    0    0    0    0 -0.00000000000E+00 -0.00000000000E+00  0.11368683772E-12  0.17120000000E+03  0.17120000000E+03 0.  0.
         13    1    1    2    0    0  0.15342321119E+02  0.21962351636E+02  0.15305032966E+03  0.15537743169E+03  0.10566000000E+00 0. -1.
        994    1    1    2    0    0 -0.96680874145E+01 -0.11692286919E+02  0.31146901682E+01  0.17189916458E+03  0.17120000000E+03 0.  0.
        998    1    1    2    0    0 -0.56742337040E+01 -0.10270064718E+02  0.13438349765E+04  0.13439234037E+04  0.10000000000E+02 0. -1.
</event>
<event>
 5    1  0.1572996E-008  0.3814450E+03  0.7957747E-01  0.3444891E+00
         13   -1    0    0    0    0  0.00000000000E+00  0.00000000000E+00  0.14999999963E+04  0.15000000000E+04  0.10566000000E+00 0. -1.
        994   -1    0    0    0    0 -0.00000000000E+00 -0.00000000000E+00  0.11368683772E-12  0.17120000000E+03  0.17120000000E+03 0.  0.
         13    1    1    2    0    0 -0.79640420020E+01 -0.12733771403E+02  0.31932121366E+02  0.35288049509E+02  0.10566000000E+00 0. -1.
        994    1    1    2    0    0  0.10371002742E+02  0.44998419559E+01  0.38308214691E+01  0.17161562128E+03  0.17120000000E+03 0.  0.
        998    1    1    2    0    0 -0.24069607397E+01  0.82339294469E+01  0.14642370534E+04  0.14642963292E+04  0.10000000000E+02 0. -1.
</event>
<event>
 5    1  0.1572996E-008  0.3809321E+03  0.7957747E-01  0.3447110E+00
         13   -1    0    0    0    0  0.00000000000E+00  0.00000000000E+00  0.14999999963E+04  0.15000000000E+04  0.10566000000E+00 0.  1.
        994   -1    0    0    0    0 -0.00000000000E+00 -0.00000000000E+00  0.11368683772E-12  0.17120000000E+03  0.17120000000E+03 0.  0.
         13    1    1    2    0    0  0.18027473573E+02  0.17100140077E+02  0.80232388230E+02  0.83991975088E+02  0.10566000000E+00 0.  1.
        994    1    1    2    0    0 -0.12874631035E+02 -0.19119335899E+02  0.54360129816E+01  0.17283025015E+03  0.17120000000E+03 0.  0.
        998    1    1    2    0    0 -0.51528425373E+01  0.20191958222E+01  0.14143315951E+04  0.14143777748E+04  0.10000000000E+02 0.  1.
</event>
<event>
 5    1  0.1572996E-008  0.3815428E+03  0.7957747E-01  0.3444468E+00
         13   -1    0    0    0    0  0.00000000000E+00  0.00000000000E+00  0.14999999963E+04  0.15000000000E+04  0.10566000000E+00 0.  1.
        994   -1    0    0    0    0 -0.00000000000E+00 -0.00000000000E+00  0.11368683772E-12  0.17120000000E+03  0.17120000000E+03 0.  0.
         13    1    1    2    0    0 -0.19593023261E+02 -0.51370307554E+01  0.56973210670E+02  0.60466797034E+02  0.10566000000E+00 0.  1.
        994    1    1    2    0    0  0.22756790102E+02  0.11681968310E+02  0.55357296979E+01  0.17318898401E+03  0.17120000000E+03 0.  0.
        998    1    1    2    0    0 -0.31637668416E+01 -0.65449375546E+01  0.14374910559E+04  0.14375442190E+04  0.10000000000E+02 0.  1.
</event>
<event>
 5    1  0.1572996E-008  0.3812346E+03  0.7957747E-01  0.3445800E+00
         13   -1    0    0    0    0  0.00000000000E+00  0.00000000000E+00  0.14999999963E+04  0.15000000000E+04  0.10566000000E+00 0.  1.
        994   -1    0    0    0    0 -0.00000000000E+00 -0.00000000000E+00  0.11368683772E-12  0.17120000000E+03  0.17120000000E+03 0.  0.
         13    1    1    2    0    0  0.30219256747E+01 -0.10326083348E+02  0.14858372425E+02  0.18345092729E+02  0.10566000000E+00 0.  1.
        994    1    1    2    0    0 -0.20987360201E+01  0.11410632350E+02  0.39595129419E+01  0.17163835517E+03  0.17120000000E+03 0.  0.
        998    1    1    2    0    0 -0.92318965460E+00 -0.10845490026E+01  0.14811821109E+04  0.14812165521E+04  0.10000000000E+02 0.  1.
</event>
<event>
 5    1  0.1572996E-008  0.3752769E+03  0.7957747E-01  0.3471985E+00
         13   -1    0    0    0    0  0.00000000000E+00  0.00000000000E+00  0.14999999963E+04  0.15000000000E+04  0.10566000000E+00 0.  1.
        994   -1    0    0    0    0 -0.00000000000E+00 -0.00000000000E+00  0.11368683772E-12  0.17120000000E+03  0.17120000000E+03 0.  0.
         13    1    1    2    0    0  0.33707829568E+02 -0.74057223965E+01  0.37274874983E+02  0.50798523280E+02  0.10566000000E+00 0.  1.
        994    1    1    2    0    0 -0.30298273521E+02  0.76884984515E+01  0.17244885414E+02  0.17488260194E+03  0.17120000000E+03 0.  0.
        998    1    1    2    0    0 -0.34095560468E+01 -0.28277605505E+00  0.14454802359E+04  0.14455188748E+04  0.10000000000E+02 0.  1.
</event>
<event>
 5    1  0.1572996E-008  0.3785544E+03  0.7957747E-01  0.3457477E+00
         13   -1    0    0    0    0  0.00000000000E+00  0.00000000000E+00  0.14999999963E+04  0.15000000000E+04  0.10566000000E+00 0. -1.
        994   -1    0    0    0    0 -0.00000000000E+00 -0.00000000000E+00  0.11368683772E-12  0.17120000000E+03  0.17120000000E+03 0.  0.
         13    1    1    2    0    0 -0.23241827916E+01 -0.17902610784E+02  0.34817540533E+02  0.39219607231E+02  0.10566000000E+00 0. -1.
        994    1    1    2    0    0 -0.35677649627E+02 -0.15686790061E+02  0.99838245274E+01  0.17586383033E+03  0.17120000000E+03 0.  0.
        998    1    1    2    0    0  0.38001832419E+02  0.33589400846E+02  0.14551986312E+04  0.14561165624E+04  0.10000000000E+02 0. -1.
</event>
<event>
 5    1  0.1572996E-008  0.3715120E+03  0.7957747E-01  0.3488971E+00
         13   -1    0    0    0    0  0.00000000000E+00  0.00000000000E+00  0.14999999963E+04  0.15000000000E+04  0.10566000000E+00 0. -1.
        994   -1    0    0    0    0 -0.00000000000E+00 -0.00000000000E+00  0.11368683772E-12  0.17120000000E+03  0.17120000000E+03 0.  0.
         13    1    1    2    0    0  0.17297635463E+02  0.99832855756E+01  0.19593738744E+02  0.27978562249E+02  0.10566000000E+00 0. -1.
        994    1    1    2    0    0 -0.17305928254E+02 -0.10982837472E+02  0.99273248977E+01  0.17270816324E+03  0.17120000000E+03 0.  0.
        998    1    1    2    0    0  0.82927907561E-02  0.99955189602E+00  0.14704789326E+04  0.14705132745E+04  0.10000000000E+02 0. -1.
</event>
<event>
 5    1  0.1572996E-008  0.3907360E+03  0.7957747E-01  0.3405704E+00
         13   -1    0    0    0    0  0.00000000000E+00  0.00000000000E+00  0.14999999963E+04  0.15000000000E+04  0.10566000000E+00 0. -1.
        994   -1    0    0    0    0 -0.00000000000E+00 -0.00000000000E+00  0.11368683772E-12  0.17120000000E+03  0.17120000000E+03 0.  0.
         13    1    1    2    0    0 -0.16784712944E+02  0.40815940130E+01 -0.34411321361E+01  0.17613590001E+02  0.10566000000E+00 0. -1.
        994    1    1    2    0    0  0.23001550348E+02 -0.34865877777E+00  0.24353165295E+02  0.17444686739E+03  0.17120000000E+03 0.  0.
        998    1    1    2    0    0 -0.62168374036E+01 -0.37329352352E+01  0.14790879631E+04  0.14791395426E+04  0.10000000000E+02 0. -1.
</event>
<event>
 5    1  0.1572996E-008  0.3822531E+03  0.7957747E-01  0.3441406E+00
         13   -1    0    0    0    0  0.00000000000E+00  0.00000000000E+00  0.14999999963E+04  0.15000000000E+04  0.10566000000E+00 0.  1.
        994   -1    0    0    0    0 -0.00000000000E+00 -0.00000000000E+00  0.11368683772E-12  0.17120000000E+03  0.17120000000E+03 0.  0.
         13    1    1    2    0    0 -0.19321319033E+02 -0.11000190788E+02  0.80724236050E+02  0.83730108183E+02  0.10566000000E+00 0.  1.
        994    1    1    2    0    0  0.17336617851E+02  0.11948998832E+01  0.40028113755E+01  0.17212625774E+03  0.17120000000E+03 0.  0.
        998    1    1    2    0    0  0.19847011823E+01  0.98052909052E+01  0.14152729489E+04  0.14153436341E+04  0.10000000000E+02 0.  1.
</event>
<event>
 5    1  0.1572996E-008  0.3747940E+03  0.7957747E-01  0.3474145E+00
         13   -1    0    0    0    0  0.00000000000E+00  0.00000000000E+00  0.14999999963E+04  0.15000000000E+04  0.10566000000E+00 0.  1.
        994   -1    0    0    0    0 -0.00000000000E+00 -0.00000000000E+00  0.11368683772E-12  0.17120000000E+03  0.17120000000E+03 0.  0.
         13    1    1    2    0    0 -0.10547603694E+02 -0.20816660151E+01  0.54236028125E+01  0.12042089046E+02  0.10566000000E+00 0.  1.
        994    1    1    2    0    0  0.56435574598E+01  0.24505570652E+00  0.68931159504E+01  0.17143180814E+03  0.17120000000E+03 0.  0.
        998    1    1    2    0    0  0.49040462347E+01  0.18366103086E+01  0.14876832775E+04  0.14877261028E+04  0.10000000000E+02 0.  1.
</event>
<event>
 5    1  0.1572996E-008  0.3783058E+03  0.7957747E-01  0.3458569E+00
         13   -1    0    0    0    0  0.00000000000E+00  0.00000000000E+00  0.14999999963E+04  0.15000000000E+04  0.10566000000E+00 0.  1.
        994   -1    0    0    0    0 -0.00000000000E+00 -0.00000000000E+00  0.11368683772E-12  0.17120000000E+03  0.17120000000E+03 0.  0.
         13    1    1    2    0    0  0.33614142701E+02  0.49268571593E+02  0.34561009484E+03  0.35071876419E+03  0.10566000000E+00 0.  1.
        994    1    1    2    0    0 -0.40942113424E+02 -0.17841147112E+02  0.11725479200E+02  0.17731748375E+03  0.17120000000E+03 0.  0.
        998    1    1    2    0    0  0.73279707228E+01 -0.31427424481E+02  0.11426644222E+04  0.11431637521E+04  0.10000000000E+02 0.  1.
</event>
<event>
 5    1  0.1572996E-008  0.3851742E+03  0.7957747E-01  0.3428934E+00
         13   -1    0    0    0    0  0.00000000000E+00  0.00000000000E+00  0.14999999963E+04  0.15000000000E+04  0.10566000000E+00 0. -1.
        994   -1    0    0    0    0 -0.00000000000E+00 -0.00000000000E+00  0.11368683772E-12  0.17120000000E+03  0.17120000000E+03 0.  0.
         13    1    1    2    0    0 -0.33231012650E+01  0.13192184478E+02  0.67397131764E+02  0.68756536180E+02  0.10566000000E+00 0. -1.
        994    1    1    2    0    0 -0.58663351710E+01  0.68404158598E+01  0.18106425799E+01  0.17144656195E+03  0.17120000000E+03 0.  0.
        998    1    1    2    0    0  0.91894364360E+01 -0.20032600338E+02  0.14307922219E+04  0.14309969019E+04  0.10000000000E+02 0. -1.
</event>
<event>
 5    1  0.1572996E-008  0.3799171E+03  0.7957747E-01  0.3451520E+00
         13   -1    0    0    0    0  0.00000000000E+00  0.00000000000E+00  0.14999999963E+04  0.15000000000E+04  0.10566000000E+00 0.  1.
        994   -1    0    0    0    0 -0.00000000000E+00 -0.00000000000E+00  0.11368683772E-12  0.17120000000E+03  0.17120000000E+03 0.  0.
         13    1    1    2    0    0  0.16573652165E+02 -0.26452950448E+02  0.11135613190E+03  0.11564879511E+03  0.10566000000E+00 0.  1.
        994    1    1    2    0    0 -0.21330986179E+02  0.16459077075E+02  0.66061218343E+01  0.17343296410E+03  0.17120000000E+03 0.  0.
        998    1    1    2    0    0  0.47573340148E+01  0.99938733722E+01  0.13820377425E+04  0.13821182408E+04  0.10000000000E+02 0.  1.
</event>
<event>
 5    1  0.1572996E-008  0.3856160E+03  0.7957747E-01  0.3427064E+00
         13   -1    0    0    0    0  0.00000000000E+00  0.00000000000E+00  0.14999999963E+04  0.15000000000E+04  0.10566000000E+00 0.  1.
        994   -1    0    0    0    0 -0.00000000000E+00 -0.00000000000E+00  0.11368683772E-12  0.17120000000E+03  0.17120000000E+03 0.  0.
         13    1    1    2    0    0 -0.81602884915E+01  0.69638090669E+01  0.44494074117E+02  0.45769189861E+02  0.10566000000E+00 0.  1.
        994    1    1    2    0    0 -0.34188684675E+01 -0.10377356226E+02  0.17165072888E+01  0.17155688439E+03  0.17120000000E+03 0.  0.
        998    1    1    2    0    0  0.11579156959E+02  0.34135471592E+01  0.14537894149E+04  0.14538739258E+04  0.10000000000E+02 0.  1.
</event>
<event>
 5    1  0.1572996E-008  0.3706248E+03  0.7957747E-01  0.3493025E+00
         13   -1    0    0    0    0  0.00000000000E+00  0.00000000000E+00  0.14999999963E+04  0.15000000000E+04  0.10566000000E+00 0. -1.
        994   -1    0    0    0    0 -0.00000000000E+00 -0.00000000000E+00  0.11368683772E-12  0.17120000000E+03  0.17120000000E+03 0.  0.
         13    1    1    2    0    0 -0.67279667639E+02  0.10472022102E+02  0.22410127117E+03  0.23421701012E+03  0.10566000000E+00 0. -1.
        994    1    1    2    0    0  0.64699623651E+02  0.17073439949E+00  0.23527376536E+02  0.18452384100E+03  0.17120000000E+03 0.  0.
        998    1    1    2    0    0  0.25800439876E+01 -0.10642756501E+02  0.12523713486E+04  0.12524591489E+04  0.10000000000E+02 0. -1.
</event>
<event>
 5    1  0.1572996E-008  0.3861613E+03  0.7957747E-01  0.3424762E+00
         13   -1    0    0    0    0  0.00000000000E+00  0.00000000000E+00  0.14999999963E+04  0.15000000000E+04  0.10566000000E+00 0. -1.
        994   -1    0    0    0    0 -0.00000000000E+00 -0.00000000000E+00  0.11368683772E-12  0.17120000000E+03  0.17120000000E+03 0.  0.
         13    1    1    2    0    0  0.11788958313E+02 -0.32383974339E+01  0.51237875783E+02  0.52676349863E+02  0.10566000000E+00 0. -1.
        994    1    1    2    0    0 -0.55866572028E+02  0.22836876552E+02  0.13081114315E+02  0.18199767128E+03  0.17120000000E+03 0.  0.
        998    1    1    2    0    0  0.44077613714E+02 -0.19598479118E+02  0.14356810062E+04  0.14365259789E+04  0.10000000000E+02 0. -1.
</event>
<event>
 5    1  0.1572996E-008  0.3752173E+03  0.7957747E-01  0.3472252E+00
         13   -1    0    0    0    0  0.00000000000E+00  0.00000000000E+00  0.14999999963E+04  0.15000000000E+04  0.10566000000E+00 0. -1.
        994   -1    0    0    0    0 -0.00000000000E+00 -0.00000000000E+00  0.11368683772E-12  0.17120000000E+03  0.17120000000E+03 0.  0.
         13    1    1    2    0    0  0.50365172398E+02  0.35731790286E+02  0.25135902374E+03  0.25883350133E+03  0.10566000000E+00 0. -1.
        994    1    1    2    0    0 -0.52660565341E+02 -0.22405438540E+02  0.17774337476E+02  0.18138496600E+03  0.17120000000E+03 0.  0.
        998    1    1    2    0    0  0.22953929429E+01 -0.13326351746E+02  0.12308666351E+04  0.12309815327E+04  0.10000000000E+02 0. -1.
</event>
<event>
 5    1  0.4431657E-008  0.3865255E+03  0.7957747E-01  0.3423228E+00
         13   -1    0    0    0    0  0.00000000000E+00  0.00000000000E+00  0.14999999963E+04  0.15000000000E+04  0.10566000000E+00 0. -1.
        994   -1    0    0    0    0 -0.00000000000E+00 -0.00000000000E+00  0.11368683772E-12  0.17120000000E+03  0.17120000000E+03 0.  0.
         13    1    1    2    0    0  0.99947076284E+01  0.17943817886E+01  0.59385382963E+02  0.60247397124E+02  0.10566000000E+00 0. -1.
        994    1    1    2    0    0 -0.82080903667E+01 -0.32855603414E+01  0.11304946297E+01  0.17143186889E+03  0.17120000000E+03 0.  0.
        998    1    1    2    0    0 -0.17866172617E+01  0.14911785528E+01  0.14394841187E+04  0.14395207340E+04  0.10000000000E+02 0. -1.
</event>
<event>
 5    1  0.1572996E-008  0.3854855E+03  0.7957747E-01  0.3427616E+00
         13   -1    0    0    0    0  0.00000000000E+00  0.00000000000E+00  0.14999999963E+04  0.15000000000E+04  0.10566000000E+00 0. -1.
        994   -1    0    0    0    0 -0.00000000000E+00 -0.00000000000E+00  0.11368683772E-12  0.17120000000E+03  0.17120000000E+03 0.  0.
         13    1    1    2    0    0  0.98960751769E+01 -0.13927657924E+02  0.88282908061E+02  0.89921048587E+02  0.10566000000E+00 0. -1.
        994    1    1    2    0    0 -0.49052349940E+02  0.94652422915E+01  0.96272196275E+01  0.17859968422E+03  0.17120000000E+03 0.  0.
        998    1    1    2    0    0  0.39156274764E+02  0.44624156326E+01  0.14020898686E+04  0.14026792672E+04  0.10000000000E+02 0. -1.
</event>
<event>
 5    1  0.1572996E-008  0.4344062E+03  0.7957747E-01  0.3243835E+00
         13   -1    0    0    0    0  0.00000000000E+00  0.00000000000E+00  0.14999999963E+04  0.15000000000E+04  0.10566000000E+00 0. -1.
        994   -1    0    0    0    0 -0.00000000000E+00 -0.00000000000E+00  0.11368683772E-12  0.17120000000E+03  0.17120000000E+03 0.  0.
         13    1    1    2    0    0  0.60985411314E+02  0.17158323328E+02  0.22508040899E+02  0.67232815810E+02  0.10566000000E+00 0. -1.
        994    1    1    2    0    0 -0.66510768919E+02  0.26647138870E+02  0.74083610649E+02  0.19982886118E+03  0.17120000000E+03 0.  0.
        998    1    1    2    0    0  0.55253576049E+01 -0.43805462198E+02  0.14034083447E+04  0.14041383230E+04  0.10000000000E+02 0. -1.
</event>
<event>
 5    1  0.1572996E-008  0.3757626E+03  0.7957747E-01  0.3469819E+00
         13   -1    0    0    0    0  0.00000000000E+00  0.00000000000E+00  0.14999999963E+04  0.15000000000E+04  0.10566000000E+00 0. -1.
        994   -1    0    0    0    0 -0.00000000000E+00 -0.00000000000E+00  0.11368683772E-12  0.17120000000E+03  0.17120000000E+03 0.  0.
         13    1    1    2    0    0  0.23255177031E+02 -0.46238674094E+02  0.23481063827E+03  0.24044721926E+03  0.10566000000E+00 0. -1.
        994    1    1    2    0    0 -0.11307480114E+02  0.10095795819E+02  0.70670702365E+01  0.17201502167E+03  0.17120000000E+03 0.  0.
        998    1    1    2    0    0 -0.11947696917E+02  0.36142878275E+02  0.12581222878E+04  0.12587377591E+04  0.10000000000E+02 0. -1.
</event>
<event>
 5    1  0.1572996E-008  0.3798770E+03  0.7957747E-01  0.3451694E+00
         13   -1    0    0    0    0  0.00000000000E+00  0.00000000000E+00  0.14999999963E+04  0.15000000000E+04  0.10566000000E+00 0. -1.
        994   -1    0    0    0    0 -0.00000000000E+00 -0.00000000000E+00  0.11368683772E-12  0.17120000000E+03  0.17120000000E+03 0.  0.
         13    1    1    2    0    0 -0.29143929245E+02  0.59801223519E-01  0.10571523969E+03  0.10965899533E+03  0.10566000000E+00 0. -1.
        994    1    1    2    0    0  0.70461509895E+01 -0.18978136134E+02  0.55669954662E+01  0.17248260589E+03  0.17120000000E+03 0.  0.
        998    1    1    2    0    0  0.22097778256E+02  0.18918334911E+02  0.13887177611E+04  0.13890583988E+04  0.10000000000E+02 0. -1.
</event>
<event>
 5    1  0.1572996E-008  0.3804588E+03  0.7957747E-01  0.3449163E+00
         13   -1    0    0    0    0  0.00000000000E+00  0.00000000000E+00  0.14999999963E+04  0.15000000000E+04  0.10566000000E+00 0. -1.
        994   -1    0    0    0    0 -0.00000000000E+00 -0.00000000000E+00  0.11368683772E-12  0.17120000000E+03  0.17120000000E+03 0.  0.
         13    1    1    2    0    0  0.18252190125E+02 -0.24374108798E+02  0.11968061698E+03  0.12349372806E+03  0.10566000000E+00 0. -1.
        994    1    1    2    0    0 -0.47259595427E+02 -0.13859422564E+02  0.12040650811E+02  0.17854962959E+03  0.17120000000E+03 0.  0.
        998    1    1    2    0    0  0.29007405302E+02  0.38233531362E+02  0.13682787285E+04  0.13691566424E+04  0.10000000000E+02 0. -1.
</event>
<event>
 5    1  0.1572996E-008  0.3847094E+03  0.7957747E-01  0.3430905E+00
         13   -1    0    0    0    0  0.00000000000E+00  0.00000000000E+00  0.14999999963E+04  0.15000000000E+04  0.10566000000E+00 0.  1.
        994   -1    0    0    0    0 -0.00000000000E+00 -0.00000000000E+00  0.11368683772E-12  0.17120000000E+03  0.17120000000E+03 0.  0.
         13    1    1    2    0    0  0.10631916024E+01  0.14404924427E+02  0.58244830011E+02  0.60009196055E+02  0.10566000000E+00 0.  1.
        994    1    1    2    0    0 -0.21517286677E+01 -0.10580081159E+02  0.21582694194E+01  0.17155368309E+03  0.17120000000E+03 0.  0.
        998    1    1    2    0    0  0.10885370652E+01 -0.38248432679E+01  0.14395968968E+04  0.14396371209E+04  0.10000000000E+02 0.  1.
</event>
<event>
 5    1  0.1572996E-008  0.3709560E+03  0.7957747E-01  0.3491509E+00
         13   -1    0    0    0    0  0.00000000000E+00  0.00000000000E+00  0.14999999963E+04  0.15000000000E+04  0.10566000000E+00 0. -1.
        994   -1    0    0    0    0 -0.00000000000E+00 -0.00000000000E+00  0.11368683772E-12  0.17120000000E+03  0.17120000000E+03 0.  0.
         13    1    1    2    0    0 -0.75751924259E+02 -0.67710375011E+02  0.35710375094E+03  0.37127637820E+03  0.10566000000E+00 0. -1.
        994    1    1    2    0    0  0.50457643582E+02  0.84717190691E+02  0.46378682809E+02  0.20293693211E+03  0.17120000000E+03 0.  0.
        998    1    1    2    0    0  0.25294280677E+02 -0.17006815680E+02  0.10965175625E+04  0.10969866897E+04  0.10000000000E+02 0. -1.
</event>
<event>
 5    1  0.1572996E-008  0.3854397E+03  0.7957747E-01  0.3427810E+00
         13   -1    0    0    0    0  0.00000000000E+00  0.00000000000E+00  0.14999999963E+04  0.15000000000E+04  0.10566000000E+00 0.  1.
        994   -1    0    0    0    0 -0.00000000000E+00 -0.00000000000E+00  0.11368683772E-12  0.17120000000E+03  0.17120000000E+03 0.  0.
         13    1    1    2    0    0 -0.97035923872E+01 -0.94290465717E+01  0.65274513613E+02  0.66662132549E+02  0.10566000000E+00 0.  1.
        994    1    1    2    0    0  0.62261875548E+01  0.59191915927E+01  0.16544138368E+01  0.17142339200E+03  0.17120000000E+03 0.  0.
        998    1    1    2    0    0  0.34774048325E+01  0.35098549790E+01  0.14330710688E+04  0.14331144754E+04  0.10000000000E+02 0.  1.
</event>
<event>
 5    1  0.1572996E-008  0.3858847E+03  0.7957747E-01  0.3425929E+00
         13   -1    0    0    0    0  0.00000000000E+00  0.00000000000E+00  0.14999999963E+04  0.15000000000E+04  0.10566000000E+00 0. -1.
        994   -1    0    0    0    0 -0.00000000000E+00 -0.00000000000E+00  0.11368683772E-12  0.17120000000E+03  0.17120000000E+03 0.  0.
         13    1    1    2    0    0  0.22649292208E+00  0.13113315606E+02  0.64621856861E+02  0.65939410775E+02  0.10566000000E+00 0. -1.
        994    1    1    2    0    0 -0.13113726915E+02 -0.25500866403E+02  0.38925806027E+01  0.17362850055E+03  0.17120000000E+03 0.  0.
        998    1    1    2    0    0  0.12887233993E+02  0.12387550797E+02  0.14314855588E+04  0.14316320887E+04  0.10000000000E+02 0. -1.
</event>
<event>
 5    1  0.1572996E-008  0.3744248E+03  0.7957747E-01  0.3475799E+00
         13   -1    0    0    0    0  0.00000000000E+00  0.00000000000E+00  0.14999999963E+04  0.15000000000E+04  0.10566000000E+00 0.  1.
        994   -1    0    0    0    0 -0.00000000000E+00 -0.00000000000E+00  0.11368683772E-12  0.17120000000E+03  0.17120000000E+03 0.  0.
         13    1    1    2    0    0 -0.12443983651E+02 -0.10467726691E+02  0.15829894313E+02  0.22694112654E+02  0.10566000000E+00 0.  1.
        994    1    1    2    0    0 -0.27071862417E+01  0.24236952714E+02  0.90026528556E+01  0.17316248581E+03  0.17120000000E+03 0.  0.
        998    1    1    2    0    0  0.15151169893E+02 -0.13769226023E+02  0.14751674491E+04  0.14753434015E+04  0.10000000000E+02 0.  1.
</event>
<event>
 5    1  0.1572996E-008  0.3738805E+03  0.7957747E-01  0.3478245E+00
         13   -1    0    0    0    0  0.00000000000E+00  0.00000000000E+00  0.14999999963E+04  0.15000000000E+04  0.10566000000E+00 0. -1.
        994   -1    0    0    0    0 -0.00000000000E+00 -0.00000000000E+00  0.11368683772E-12  0.17120000000E+03  0.17120000000E+03 0.  0.
         13    1    1    2    0    0 -0.13215936151E+02 -0.29073252363E+01  0.91256956211E+01  0.16321856297E+02  0.10566000000E+00 0. -1.
        994    1    1    2    0    0  0.20761512571E+02  0.17491643636E-01  0.87268667672E+01  0.17267495161E+03  0.17120000000E+03 0.  0.
        998    1    1    2    0    0 -0.75455764202E+01  0.28898335927E+01  0.14821474339E+04  0.14822031921E+04  0.10000000000E+02 0. -1.
</event>
<event>
 5    1  0.1572996E-008  0.3724891E+03  0.7957747E-01  0.3484529E+00
         13   -1    0    0    0    0  0.00000000000E+00  0.00000000000E+00  0.14999999963E+04  0.15000000000E+04  0.10566000000E+00 0.  1.
        994   -1    0    0    0    0 -0.00000000000E+00 -0.00000000000E+00  0.11368683772E-12  0.17120000000E+03  0.17120000000E+03 0.  0.
         13    1    1    2    0    0 -0.74925911664E+02  0.81777706736E+01  0.20226476051E+03  0.21585136710E+03  0.10566000000E+00 0.  1.
        994    1    1    2    0    0  0.69397926978E+02 -0.13279318839E+02  0.30083261657E+02  0.18763489870E+03  0.17120000000E+03 0.  0.
        998    1    1    2    0    0  0.55279846862E+01  0.51015481652E+01  0.12676519741E+04  0.12677137342E+04  0.10000000000E+02 0.  1.
</event>
<event>
 5    1  0.1572996E-008  0.3781035E+03  0.7957747E-01  0.3459458E+00
         13   -1    0    0    0    0  0.00000000000E+00  0.00000000000E+00  0.14999999963E+04  0.15000000000E+04  0.10566000000E+00 0. -1.
        994   -1    0    0    0    0 -0.00000000000E+00 -0.00000000000E+00  0.11368683772E-12  0.17120000000E+03  0.17120000000E+03 0.  0.
         13    1    1    2    0    0  0.76646629933E+02 -0.12094248201E+03  0.63569242960E+03  0.65161849732E+03  0.10566000000E+00 0. -1.
        994    1    1    2    0    0 -0.10451734391E+03  0.14465745659E+03  0.12102091353E+03  0.27532736231E+03  0.17120000000E+03 0.  0.
        998    1    1    2    0    0  0.27870713973E+02 -0.23714974580E+02  0.74328665315E+03  0.74425414037E+03  0.10000000000E+02 0.  1.
</event>
<event>
 5    1  0.1572996E-008  0.3817268E+03  0.7957747E-01  0.3443674E+00
         13   -1    0    0    0    0  0.00000000000E+00  0.00000000000E+00  0.14999999963E+04  0.15000000000E+04  0.10566000000E+00 0. -1.
        994   -1    0    0    0    0 -0.00000000000E+00 -0.00000000000E+00  0.11368683772E-12  0.17120000000E+03  0.17120000000E+03 0.  0.
         13    1    1    2    0    0  0.22904712935E+02 -0.13869237660E+02  0.11159008953E+03  0.11475774864E+03  0.10566000000E+00 0. -1.
        994    1    1    2    0    0 -0.11028236848E+02  0.50286984096E+01  0.37524551943E+01  0.17166953934E+03  0.17120000000E+03 0.  0.
        998    1    1    2    0    0 -0.11876476088E+02  0.88405392504E+01  0.13846574516E+04  0.13847727120E+04  0.10000000000E+02 0. -1.
</event>
<event>
 5    1  0.1572996E-008  0.3848503E+03  0.7957747E-01  0.3430307E+00
         13   -1    0    0    0    0  0.00000000000E+00  0.00000000000E+00  0.14999999963E+04  0.15000000000E+04  0.10566000000E+00 0.  1.
        994   -1    0    0    0    0 -0.00000000000E+00 -0.00000000000E+00  0.11368683772E-12  0.17120000000E+03  0.17120000000E+03 0.  0.
         13    1    1    2    0    0  0.14248420020E+02  0.83952699189E+00  0.64908988751E+02  0.66459839477E+02  0.10566000000E+00 0.  1.
        994    1    1    2    0    0  0.24557414159E+01  0.18277029692E+02  0.28242372113E+01  0.17221352094E+03  0.17120000000E+03 0.  0.
        998    1    1    2    0    0 -0.16704161436E+02 -0.19116556684E+02  0.14322667703E+04  0.14325266396E+04  0.10000000000E+02 0.  1.
</event>
<event>
 5    1  0.1572996E-008  0.3819677E+03  0.7957747E-01  0.3442635E+00
         13   -1    0    0    0    0  0.00000000000E+00  0.00000000000E+00  0.14999999963E+04  0.15000000000E+04  0.10566000000E+00 0.  1.
        994   -1    0    0    0    0 -0.00000000000E+00 -0.00000000000E+00  0.11368683772E-12  0.17120000000E+03  0.17120000000E+03 0.  0.
         13    1    1    2    0    0 -0.93531178090E+01 -0.13700627782E+02  0.41766934006E+02  0.44940805007E+02  0.10566000000E+00 0.  1.
        994    1    1    2    0    0  0.11324269411E+02  0.12385087813E+02  0.40790882057E+01  0.17206890608E+03  0.17120000000E+03 0.  0.
        998    1    1    2    0    0 -0.19711516018E+01  0.13155399693E+01  0.14541539741E+04  0.14541902889E+04  0.10000000000E+02 0.  1.
</event>
<event>
 5    1  0.1572996E-008  0.3818866E+03  0.7957747E-01  0.3442985E+00
         13   -1    0    0    0    0  0.00000000000E+00  0.00000000000E+00  0.14999999963E+04  0.15000000000E+04  0.10566000000E+00 0. -1.
        994   -1    0    0    0    0 -0.00000000000E+00 -0.00000000000E+00  0.11368683772E-12  0.17120000000E+03  0.17120000000E+03 0.  0.
         13    1    1    2    0    0 -0.23020806730E+02  0.39328516994E+01  0.92243795720E+02  0.95154368674E+02  0.10566000000E+00 0. -1.
        994    1    1    2    0    0  0.20576138102E+01  0.15580589242E+02  0.40047760763E+01  0.17196646989E+03  0.17120000000E+03 0.  0.
        998    1    1    2    0    0  0.20963192920E+02 -0.19513440941E+02  0.14037514245E+04  0.14040791614E+04  0.10000000000E+02 0. -1.
</event>
<event>
 5    1  0.1572996E-008  0.3843678E+03  0.7957747E-01  0.3432358E+00
         13   -1    0    0    0    0  0.00000000000E+00  0.00000000000E+00  0.14999999963E+04  0.15000000000E+04  0.10566000000E+00 0. -1.
        994   -1    0    0    0    0 -0.00000000000E+00 -0.00000000000E+00  0.11368683772E-12  0.17120000000E+03  0.17120000000E+03 0.  0.
         13    1    1    2    0    0 -0.78809369372E+02  0.28332967537E+01  0.14293625616E+03  0.16324744641E+03  0.10566000000E+00 0. -1.
        994    1    1    2    0    0  0.82540419499E+02 -0.73216656394E+01  0.44497955866E+02  0.19533570005E+03  0.17120000000E+03 0.  0.
        998    1    1    2    0    0 -0.37310501265E+01  0.44883688857E+01  0.13125657843E+04  0.13126168535E+04  0.10000000000E+02 0. -1.
</event>
<event>
 5    1  0.1572996E-008  0.3789790E+03  0.7957747E-01  0.3455616E+00
         13   -1    0    0    0    0  0.00000000000E+00  0.00000000000E+00  0.14999999963E+04  0.15000000000E+04  0.10566000000E+00 0. -1.
        994   -1    0    0    0    0 -0.00000000000E+00 -0.00000000000E+00  0.11368683772E-12  0.17120000000E+03  0.17120000000E+03 0.  0.
         13    1    1    2    0    0  0.41519277114E+01 -0.20295602144E+02  0.50033744383E+02  0.54152901226E+02  0.10566000000E+00 0. -1.
        994    1    1    2    0    0  0.10877593334E+02 -0.17906368483E+02  0.61231595132E+01  0.17258590079E+03  0.17120000000E+03 0.  0.
        998    1    1    2    0    0 -0.15029521046E+02  0.38201970627E+02  0.14438430924E+04  0.14444611980E+04  0.10000000000E+02 0. -1.
</event>
<event>
 5    1  0.1572996E-008  0.3837974E+03  0.7957747E-01  0.3434789E+00
         13   -1    0    0    0    0  0.00000000000E+00  0.00000000000E+00  0.14999999963E+04  0.15000000000E+04  0.10566000000E+00 0. -1.
        994   -1    0    0    0    0 -0.00000000000E+00 -0.00000000000E+00  0.11368683772E-12  0.17120000000E+03  0.17120000000E+03 0.  0.
         13    1    1    2    0    0 -0.11795448445E+02 -0.28310480854E+01  0.30151946020E+02  0.32500745378E+02  0.10566000000E+00 0. -1.
        994    1    1    2    0    0  0.26643869909E+02  0.33920332632E+01  0.46137560766E+01  0.17335549728E+03  0.17120000000E+03 0.  0.
        998    1    1    2    0    0 -0.14848421464E+02 -0.56098517782E+00  0.14652342942E+04  0.14653437573E+04  0.10000000000E+02 0. -1.
</event>
<event>
 5    1  0.1572996E-008  0.3775309E+03  0.7957747E-01  0.3461981E+00
         13   -1    0    0    0    0  0.00000000000E+00  0.00000000000E+00  0.14999999963E+04  0.15000000000E+04  0.10566000000E+00 0. -1.
        994   -1    0    0    0    0 -0.00000000000E+00 -0.00000000000E+00  0.11368683772E-12  0.17120000000E+03  0.17120000000E+03 0.  0.
         13    1    1    2    0    0  0.25423899245E+02 -0.16356116047E+00  0.60397626882E+02  0.65530801170E+02  0.10566000000E+00 0. -1.
        994    1    1    2    0    0 -0.52538664369E+01  0.22357952122E+01  0.54946554560E+01  0.17138329303E+03  0.17120000000E+03 0.  0.
        998    1    1    2    0    0 -0.20170032808E+02 -0.20722340517E+01  0.14341077139E+04  0.14342859058E+04  0.10000000000E+02 0. -1.
</event>
<event>
 5    1  0.1572996E-008  0.3827676E+03  0.7957747E-01  0.3439196E+00
         13   -1    0    0    0    0  0.00000000000E+00  0.00000000000E+00  0.14999999963E+04  0.15000000000E+04  0.10566000000E+00 0.  1.
        994   -1    0    0    0    0 -0.00000000000E+00 -0.00000000000E+00  0.11368683772E-12  0.17120000000E+03  0.17120000000E+03 0.  0.
         13    1    1    2    0    0  0.20049333333E+03  0.18851304741E+03  0.10037472594E+04  0.10407897567E+04  0.10566000000E+00 0.  1.
        994    1    1    2    0    0 -0.21722111212E+03 -0.18530834772E+03  0.35081313652E+03  0.48363570178E+03  0.17120000000E+03 0.  0.
        998    1    1    2    0    0  0.16727778788E+02 -0.32046996862E+01  0.14543960036E+03  0.14677454151E+03  0.10000000000E+02 0.  1.
</event>
<event>
 5    1  0.1572996E-008  0.3834670E+03  0.7957747E-01  0.3436200E+00
         13   -1    0    0    0    0  0.00000000000E+00  0.00000000000E+00  0.14999999963E+04  0.15000000000E+04  0.10566000000E+00 0. -1.
        994   -1    0    0    0    0 -0.00000000000E+00 -0.00000000000E+00  0.11368683772E-12  0.17120000000E+03  0.17120000000E+03 0.  0.
         13    1    1    2    0    0  0.26077440061E+02 -0.11699437038E+02  0.17238984079E+03  0.17474317749E+03  0.10566000000E+00 0. -1.
        994    1    1    2    0    0 -0.15691138450E+02  0.27098127761E+01  0.32316131616E+01  0.17196929445E+03  0.17120000000E+03 0.  0.
        998    1    1    2    0    0 -0.10386301611E+02  0.89896242617E+01  0.13243785423E+04  0.13244875281E+04  0.10000000000E+02 0. -1.
</event>
<event>
 5    1  0.1572996E-008  0.3795032E+03  0.7957747E-01  0.3453325E+00
         13   -1    0    0    0    0  0.00000000000E+00  0.00000000000E+00  0.14999999963E+04  0.15000000000E+04  0.10566000000E+00 0. -1.
        994   -1    0    0    0    0 -0.00000000000E+00 -0.00000000000E+00  0.11368683772E-12  0.17120000000E+03  0.17120000000E+03 0.  0.
         13    1    1    2    0    0  0.11175153771E+03  0.14904263277E+03  0.66871450467E+03  0.69417664357E+03  0.10566000000E+00 0. -1.
        994    1    1    2    0    0 -0.13751103932E+03 -0.20143256074E+03  0.23955393119E+03  0.38233478577E+03  0.17120000000E+03 0.  0.
        998    1    1    2    0    0  0.25759501605E+02  0.52389927969E+02  0.59173156042E+03  0.59468857066E+03  0.10000000000E+02 0. -1.
</event>
<event>
 5    1  0.1572996E-008  0.3801075E+03  0.7957747E-01  0.3450691E+00
         13   -1    0    0    0    0  0.00000000000E+00  0.00000000000E+00  0.14999999963E+04  0.15000000000E+04  0.10566000000E+00 0. -1.
        994   -1    0    0    0    0 -0.00000000000E+00 -0.00000000000E+00  0.11368683772E-12  0.17120000000E+03  0.17120000000E+03 0.  0.
         13    1    1    2    0    0  0.92711335781E+01 -0.51575966766E+01  0.12317618018E+02  0.16256986159E+02  0.10566000000E+00 0. -1.
        994    1    1    2    0    0  0.48750227645E+00 -0.47175622635E+01  0.41540791358E+01  0.17131605128E+03  0.17120000000E+03 0.  0.
        998    1    1    2    0    0 -0.97586358545E+01  0.98751589400E+01  0.14835282991E+04  0.14836269626E+04  0.10000000000E+02 0. -1.
</event>
<event>
 5    1  0.1572996E-008  0.3826941E+03  0.7957747E-01  0.3439511E+00
         13   -1    0    0    0    0  0.00000000000E+00  0.00000000000E+00  0.14999999963E+04  0.15000000000E+04  0.10566000000E+00 0.  1.
        994   -1    0    0    0    0 -0.00000000000E+00 -0.00000000000E+00  0.11368683772E-12  0.17120000000E+03  0.17120000000E+03 0.  0.
         13    1    1    2    0    0 -0.14549879424E+02  0.36051882361E+01  0.38970029548E+02  0.41753691340E+02  0.10566000000E+00 0.  1.
        994    1    1    2    0    0  0.13005643395E+02 -0.36674742480E+01  0.33845861398E+01  0.17176580728E+03  0.17120000000E+03 0.  0.
        998    1    1    2    0    0  0.15442360288E+01  0.62286011822E-01  0.14576453806E+04  0.14576805014E+04  0.10000000000E+02 0.  1.
</event>
<event>
 5    1  0.1572996E-008  0.3716817E+03  0.7957747E-01  0.3488198E+00
         13   -1    0    0    0    0  0.00000000000E+00  0.00000000000E+00  0.14999999963E+04  0.15000000000E+04  0.10566000000E+00 0. -1.
        994   -1    0    0    0    0 -0.00000000000E+00 -0.00000000000E+00  0.11368683772E-12  0.17120000000E+03  0.17120000000E+03 0.  0.
         13    1    1    2    0    0  0.29701248578E+01 -0.11364116347E+03  0.50962019225E+03  0.52214546554E+03  0.10566000000E+00 0. -1.
        994    1    1    2    0    0  0.12803466454E+02  0.11097013238E+03  0.52592533343E+02  0.21107750614E+03  0.17120000000E+03 0.  0.
        998    1    1    2    0    0 -0.15773591312E+02  0.26710310950E+01  0.93778727069E+03  0.93797702832E+03  0.10000000000E+02 0. -1.
</event>
<event>
 5    1  0.1572996E-008  0.3753352E+03  0.7957747E-01  0.3471725E+00
         13   -1    0    0    0    0  0.00000000000E+00  0.00000000000E+00  0.14999999963E+04  0.15000000000E+04  0.10566000000E+00 0.  1.
        994   -1    0    0    0    0 -0.00000000000E+00 -0.00000000000E+00  0.11368683772E-12  0.17120000000E+03  0.17120000000E+03 0.  0.
         13    1    1    2    0    0 -0.11158116512E+02 -0.84245743044E+01  0.12048002416E+02  0.18456504072E+02  0.10566000000E+00 0.  1.
        994    1    1    2    0    0  0.15945028517E+02  0.42071350356E+00  0.73710081405E+01  0.17209936867E+03  0.17120000000E+03 0.  0.
        998    1    1    2    0    0 -0.47869120048E+01  0.80038608008E+01  0.14805809857E+04  0.14806441273E+04  0.10000000000E+02 0.  1.
</event>
<event>
 5    1  0.1572996E-008  0.3820206E+03  0.7957747E-01  0.3442407E+00
         13   -1    0    0    0    0  0.00000000000E+00  0.00000000000E+00  0.14999999963E+04  0.15000000000E+04  0.10566000000E+00 0. -1.
        994   -1    0    0    0    0 -0.00000000000E+00 -0.00000000000E+00  0.11368683772E-12  0.17120000000E+03  0.17120000000E+03 0.  0.
         13    1    1    2    0    0  0.10505724072E+02  0.32775713363E+02  0.16244187596E+03  0.16604816125E+03  0.10566000000E+00 0. -1.
        994    1    1    2    0    0 -0.27434914116E+02 -0.34543367133E+02  0.96056213607E+01  0.17705260994E+03  0.17120000000E+03 0.  0.
        998    1    1    2    0    0  0.16929190043E+02  0.17676537697E+01  0.13279524990E+04  0.13280992288E+04  0.10000000000E+02 0. -1.
</event>
<event>
 5    1  0.1572996E-008  0.3835695E+03  0.7957747E-01  0.3435762E+00
         13   -1    0    0    0    0  0.00000000000E+00  0.00000000000E+00  0.14999999963E+04  0.15000000000E+04  0.10566000000E+00 0. -1.
        994   -1    0    0    0    0 -0.00000000000E+00 -0.00000000000E+00  0.11368683772E-12  0.17120000000E+03  0.17120000000E+03 0.  0.
         13    1    1    2    0    0 -0.13041046880E+02 -0.12133902994E+01  0.35582601619E+02  0.37916670763E+02  0.10566000000E+00 0. -1.
        994    1    1    2    0    0  0.11375107538E+02 -0.12562139760E+00  0.27697197112E+01  0.17159988403E+03  0.17120000000E+03 0.  0.
        998    1    1    2    0    0  0.16659393416E+01  0.13390116970E+01  0.14616476749E+04  0.14616834452E+04  0.10000000000E+02 0. -1.
</event>
<event>
 5    1  0.1572996E-008  0.3826961E+03  0.7957747E-01  0.3439503E+00
         13   -1    0    0    0    0  0.00000000000E+00  0.00000000000E+00  0.14999999963E+04  0.15000000000E+04  0.10566000000E+00 0. -1.
        994   -1    0    0    0    0 -0.00000000000E+00 -0.00000000000E+00  0.11368683772E-12  0.17120000000E+03  0.17120000000E+03 0.  0.
         13    1    1    2    0    0 -0.11661725433E+02  0.94579886269E+01  0.40145083623E+02  0.42861267971E+02  0.10566000000E+00 0. -1.
        994    1    1    2    0    0  0.81749354939E+01 -0.10613921965E+01  0.30035391215E+01  0.17142466967E+03  0.17120000000E+03 0.  0.
        998    1    1    2    0    0  0.34867899389E+01 -0.83965964304E+01  0.14568513735E+04  0.14569140624E+04  0.10000000000E+02 0. -1.
</event>
<event>
 5    1  0.1572996E-008  0.3794999E+03  0.7957747E-01  0.3453339E+00
         13   -1    0    0    0    0  0.00000000000E+00  0.00000000000E+00  0.14999999963E+04  0.15000000000E+04  0.10566000000E+00 0.  1.
        994   -1    0    0    0    0 -0.00000000000E+00 -0.00000000000E+00  0.11368683772E-12  0.17120000000E+03  0.17120000000E+03 0.  0.
         13    1    1    2    0    0 -0.38742956922E+02 -0.96957551503E+01  0.17144500747E+03  0.17603529796E+03  0.10566000000E+00 0.  1.
        994    1    1    2    0    0  0.27424397559E+02  0.18511514981E+02  0.80603215869E+01  0.17455423957E+03  0.17120000000E+03 0.  0.
        998    1    1    2    0    0  0.11318559363E+02 -0.88157598311E+01  0.13204946672E+04  0.13206104625E+04  0.10000000000E+02 0.  1.
</event>
<event>
 5    1  0.1572996E-008  0.3825597E+03  0.7957747E-01  0.3440088E+00
         13   -1    0    0    0    0  0.00000000000E+00  0.00000000000E+00  0.14999999963E+04  0.15000000000E+04  0.10566000000E+00 0. -1.
        994   -1    0    0    0    0 -0.00000000000E+00 -0.00000000000E+00  0.11368683772E-12  0.17120000000E+03  0.17120000000E+03 0.  0.
         13    1    1    2    0    0 -0.79100060237E+01  0.77854407220E+01  0.21434606896E+02  0.24137829633E+02  0.10566000000E+00 0. -1.
        994    1    1    2    0    0 -0.55387920645E+01  0.27309887942E+01  0.29729990521E+01  0.17133713912E+03  0.17120000000E+03 0.  0.
        998    1    1    2    0    0  0.13448798088E+02 -0.10516429516E+02  0.14755923903E+04  0.14757250313E+04  0.10000000000E+02 0. -1.
</event>
<event>
 5    1  0.1572996E-008  0.3735387E+03  0.7957747E-01  0.3479784E+00
         13   -1    0    0    0    0  0.00000000000E+00  0.00000000000E+00  0.14999999963E+04  0.15000000000E+04  0.10566000000E+00 0. -1.
        994   -1    0    0    0    0 -0.00000000000E+00 -0.00000000000E+00  0.11368683772E-12  0.17120000000E+03  0.17120000000E+03 0.  0.
         13    1    1    2    0    0 -0.11114935842E+02  0.10749605686E+02  0.12574637436E+02  0.19930591859E+02  0.10566000000E+00 0. -1.
        994    1    1    2    0    0  0.13624300896E+02 -0.12942801613E+02  0.86382840955E+01  0.17244476693E+03  0.17120000000E+03 0.  0.
        998    1    1    2    0    0 -0.25093650545E+01  0.21931959272E+01  0.14787870747E+04  0.14788246412E+04  0.10000000000E+02 0. -1.
</event>
<event>
 5    1  0.1572996E-008  0.3743818E+03  0.7957747E-01  0.3475992E+00
         13   -1    0    0    0    0  0.00000000000E+00  0.00000000000E+00  0.14999999963E+04  0.15000000000E+04  0.10566000000E+00 0.  1.
        994   -1    0    0    0    0 -0.00000000000E+00 -0.00000000000E+00  0.11368683772E-12  0.17120000000E+03  0.17120000000E+03 0.  0.
         13    1    1    2    0    0 -0.63990872838E+01 -0.10000195086E+02 -0.57371686603E+00  0.11886653646E+02  0.10566000000E+00 0.  1.
        994    1    1    2    0    0 -0.14401704809E+02 -0.27242468842E+02  0.16653565267E+02  0.17474650911E+03  0.17120000000E+03 0.  0.
        998    1    1    2    0    0  0.20800792093E+02  0.37242663928E+02  0.14839201479E+04  0.14845668372E+04  0.10000000000E+02 0.  1.
</event>
<event>
 5    1  0.1572996E-008  0.3756224E+03  0.7957747E-01  0.3470444E+00
         13   -1    0    0    0    0  0.00000000000E+00  0.00000000000E+00  0.14999999963E+04  0.15000000000E+04  0.10566000000E+00 0.  1.
        994   -1    0    0    0    0 -0.00000000000E+00 -0.00000000000E+00  0.11368683772E-12  0.17120000000E+03  0.17120000000E+03 0.  0.
         13    1    1    2    0    0  0.14403478634E+02 -0.61492295276E+00  0.13527011687E+02  0.19769409101E+02  0.10566000000E+00 0.  1.
        994    1    1    2    0    0 -0.10468896266E+02  0.44690879170E+01  0.67990969077E+01  0.17171266189E+03  0.17120000000E+03 0.  0.
        998    1    1    2    0    0 -0.39345823679E+01 -0.38541649642E+01  0.14796738877E+04  0.14797179290E+04  0.10000000000E+02 0.  1.
</event>
<event>
 5    1  0.1572996E-008  0.3832352E+03  0.7957747E-01  0.3437192E+00
         13   -1    0    0    0    0  0.00000000000E+00  0.00000000000E+00  0.14999999963E+04  0.15000000000E+04  0.10566000000E+00 0.  1.
        994   -1    0    0    0    0 -0.00000000000E+00 -0.00000000000E+00  0.11368683772E-12  0.17120000000E+03  0.17120000000E+03 0.  0.
         13    1    1    2    0    0  0.17507386215E+02 -0.32207641706E+01  0.60845210951E+02  0.63395841769E+02  0.10566000000E+00 0.  1.
        994    1    1    2    0    0 -0.13754363562E+02  0.19009828895E+02  0.43319935947E+01  0.17285474330E+03  0.17120000000E+03 0.  0.
        998    1    1    2    0    0 -0.37530226531E+01 -0.15789064724E+02  0.14348227917E+04  0.14349494149E+04  0.10000000000E+02 0.  1.
</event>
<event>
 5    1  0.1572996E-008  0.3842713E+03  0.7957747E-01  0.3432769E+00
         13   -1    0    0    0    0  0.00000000000E+00  0.00000000000E+00  0.14999999963E+04  0.15000000000E+04  0.10566000000E+00 0.  1.
        994   -1    0    0    0    0 -0.00000000000E+00 -0.00000000000E+00  0.11368683772E-12  0.17120000000E+03  0.17120000000E+03 0.  0.
         13    1    1    2    0    0  0.12073965329E+02 -0.19807407959E+01  0.36918268292E+02  0.38893105695E+02  0.10566000000E+00 0.  1.
        994    1    1    2    0    0 -0.93037031294E+01  0.22433323802E+01  0.22943507170E+01  0.17148263900E+03  0.17120000000E+03 0.  0.
        998    1    1    2    0    0 -0.27702622000E+01 -0.26259158425E+00  0.14607873773E+04  0.14608242553E+04  0.10000000000E+02 0.  1.
</event>
<event>
 5    1  0.1572996E-008  0.3820899E+03  0.7957747E-01  0.3442109E+00
         13   -1    0    0    0    0  0.00000000000E+00  0.00000000000E+00  0.14999999963E+04  0.15000000000E+04  0.10566000000E+00 0. -1.
        994   -1    0    0    0    0 -0.00000000000E+00 -0.00000000000E+00  0.11368683772E-12  0.17120000000E+03  0.17120000000E+03 0.  0.
         13    1    1    2    0    0 -0.32474762060E+02 -0.81379633194E+01  0.19251257376E+03  0.19540199292E+03  0.10566000000E+00 0. -1.
        994    1    1    2    0    0  0.98184409659E+01  0.10934204585E+02  0.37991707484E+01  0.17187155760E+03  0.17120000000E+03 0.  0.
        998    1    1    2    0    0  0.22656321095E+02 -0.27962412659E+01  0.13036882518E+04  0.13039264495E+04  0.10000000000E+02 0. -1.
</event>
<event>
 5    1  0.1638638E-008  0.3857120E+03  0.7957747E-01  0.3426658E+00
         13   -1    0    0    0    0  0.00000000000E+00  0.00000000000E+00  0.14999999963E+04  0.15000000000E+04  0.10566000000E+00 0.  1.
        994   -1    0    0    0    0 -0.00000000000E+00 -0.00000000000E+00  0.11368683772E-12  0.17120000000E+03  0.17120000000E+03 0.  0.
         13    1    1    2    0    0 -0.19576717768E+01 -0.13353686068E+02  0.69218053811E+02  0.70521653043E+02  0.10566000000E+00 0.  1.
        994    1    1    2    0    0 -0.94334205714E+00  0.14356550531E+02  0.19565196093E+01  0.17181463385E+03  0.17120000000E+03 0.  0.
        998    1    1    2    0    0  0.29010138339E+01 -0.10028644624E+01  0.14288254229E+04  0.14288637131E+04  0.10000000000E+02 0.  1.
</event>
<event>
 5    1  0.1572996E-008  0.3786035E+03  0.7957747E-01  0.3457262E+00
         13   -1    0    0    0    0  0.00000000000E+00  0.00000000000E+00  0.14999999963E+04  0.15000000000E+04  0.10566000000E+00 0. -1.
        994   -1    0    0    0    0 -0.00000000000E+00 -0.00000000000E+00  0.11368683772E-12  0.17120000000E+03  0.17120000000E+03 0.  0.
         13    1    1    2    0    0 -0.66524023473E+01 -0.18116955319E+02  0.37163950614E+02  0.41876591507E+02  0.10566000000E+00 0. -1.
        994    1    1    2    0    0 -0.34802675545E+01  0.95831151372E+01  0.51889327684E+01  0.17158179793E+03  0.17120000000E+03 0.  0.
        998    1    1    2    0    0  0.10132669902E+02  0.85338401813E+01  0.14576471129E+04  0.14577416106E+04  0.10000000000E+02 0. -1.
</event>
<event>
 5    1  0.1572996E-008  0.3812059E+03  0.7957747E-01  0.3445924E+00
         13   -1    0    0    0    0  0.00000000000E+00  0.00000000000E+00  0.14999999963E+04  0.15000000000E+04  0.10566000000E+00 0. -1.
        994   -1    0    0    0    0 -0.00000000000E+00 -0.00000000000E+00  0.11368683772E-12  0.17120000000E+03  0.17120000000E+03 0.  0.
         13    1    1    2    0    0  0.17025178729E+02  0.39399072872E+01  0.41151504618E+02  0.44708355780E+02  0.10566000000E+00 0. -1.
        994    1    1    2    0    0 -0.17244135443E+02 -0.21251596463E+01  0.45314195732E+01  0.17213904343E+03  0.17120000000E+03 0.  0.
        998    1    1    2    0    0  0.21895671429E+00 -0.18147476409E+01  0.14543170721E+04  0.14543526008E+04  0.10000000000E+02 0. -1.
</event>
<event>
 5    1  0.1572996E-008  0.3831380E+03  0.7957747E-01  0.3437608E+00
         13   -1    0    0    0    0  0.00000000000E+00  0.00000000000E+00  0.14999999963E+04  0.15000000000E+04  0.10566000000E+00 0.  1.
        994   -1    0    0    0    0 -0.00000000000E+00 -0.00000000000E+00  0.11368683772E-12  0.17120000000E+03  0.17120000000E+03 0.  0.
         13    1    1    2    0    0 -0.12181303260E+02 -0.75401247283E+01  0.38886814219E+02  0.41441924596E+02  0.10566000000E+00 0.  1.
        994    1    1    2    0    0  0.65900599161E+01  0.13000898309E+02  0.32606474685E+01  0.17185029551E+03  0.17120000000E+03 0.  0.
        998    1    1    2    0    0  0.55912433437E+01 -0.54607735810E+01  0.14578525346E+04  0.14579077799E+04  0.10000000000E+02 0.  1.
</event>
<event>
 5    1  0.1572996E-008  0.3765761E+03  0.7957747E-01  0.3466204E+00
         13   -1    0    0    0    0  0.00000000000E+00  0.00000000000E+00  0.14999999963E+04  0.15000000000E+04  0.10566000000E+00 0. -1.
        994   -1    0    0    0    0 -0.00000000000E+00 -0.00000000000E+00  0.11368683772E-12  0.17120000000E+03  0.17120000000E+03 0.  0.
         13    1    1    2    0    0 -0.39635818445E+02 -0.71749881957E+01  0.12572155570E+03  0.13201666293E+03  0.10566000000E+00 0. -1.
        994    1    1    2    0    0  0.40176013651E+02  0.36101034902E+01  0.11393158976E+02  0.17625659985E+03  0.17120000000E+03 0.  0.
        998    1    1    2    0    0 -0.54019520583E+00  0.35648847054E+01  0.13628852816E+04  0.13629267372E+04  0.10000000000E+02 0. -1.
</event>
<event>
 5    1  0.1572996E-008  0.3846549E+03  0.7957747E-01  0.3431137E+00
         13   -1    0    0    0    0  0.00000000000E+00  0.00000000000E+00  0.14999999963E+04  0.15000000000E+04  0.10566000000E+00 0. -1.
        994   -1    0    0    0    0 -0.00000000000E+00 -0.00000000000E+00  0.11368683772E-12  0.17120000000E+03  0.17120000000E+03 0.  0.
         13    1    1    2    0    0 -0.75614908794E+01  0.83122407177E+01  0.34436919996E+02  0.36224054341E+02  0.10566000000E+00 0. -1.
        994    1    1    2    0    0  0.47087614465E+01 -0.85218314146E+01  0.21137470438E+01  0.17148965558E+03  0.17120000000E+03 0.  0.
        998    1    1    2    0    0  0.28527294328E+01  0.20959069692E+00  0.14634493292E+04  0.14634862901E+04  0.10000000000E+02 0. -1.
</event>
<event>
 5    1  0.1572996E-008  0.3854423E+03  0.7957747E-01  0.3427798E+00
         13   -1    0    0    0    0  0.00000000000E+00  0.00000000000E+00  0.14999999963E+04  0.15000000000E+04  0.10566000000E+00 0.  1.
        994   -1    0    0    0    0 -0.00000000000E+00 -0.00000000000E+00  0.11368683772E-12  0.17120000000E+03  0.17120000000E+03 0.  0.
         13    1    1    2    0    0 -0.13927073419E+02  0.79701593338E+00  0.76802001020E+02  0.78058677501E+02  0.10566000000E+00 0.  1.
        994    1    1    2    0    0 -0.50297480810E+01 -0.17877790563E+02  0.25441917386E+01  0.17222318855E+03  0.17120000000E+03 0.  0.
        998    1    1    2    0    0  0.18956821500E+02  0.17080774630E+02  0.14206538035E+04  0.14209181340E+04  0.10000000000E+02 0.  1.
</event>
<event>
 5    1  0.1572996E-008  0.3700841E+03  0.7957747E-01  0.3495505E+00
         13   -1    0    0    0    0  0.00000000000E+00  0.00000000000E+00  0.14999999963E+04  0.15000000000E+04  0.10566000000E+00 0. -1.
        994   -1    0    0    0    0 -0.00000000000E+00 -0.00000000000E+00  0.11368683772E-12  0.17120000000E+03  0.17120000000E+03 0.  0.
         13    1    1    2    0    0  0.36949878021E+02  0.30398985651E+02  0.10706336206E+03  0.11726877877E+03  0.10566000000E+00 0. -1.
        994    1    1    2    0    0 -0.25307928254E+02  0.10670616819E+02  0.13625754463E+02  0.17392370304E+03  0.17120000000E+03 0.  0.
        998    1    1    2    0    0 -0.11641949767E+02 -0.41069602470E+02  0.13793108798E+04  0.13800075182E+04  0.10000000000E+02 0. -1.
</event>
<event>
 5    1  0.1572996E-008  0.3842303E+03  0.7957747E-01  0.3432943E+00
         13   -1    0    0    0    0  0.00000000000E+00  0.00000000000E+00  0.14999999963E+04  0.15000000000E+04  0.10566000000E+00 0.  1.
        994   -1    0    0    0    0 -0.00000000000E+00 -0.00000000000E+00  0.11368683772E-12  0.17120000000E+03  0.17120000000E+03 0.  0.
         13    1    1    2    0    0 -0.12501447970E+02  0.14591712993E+02  0.89399661442E+02  0.91441319541E+02  0.10566000000E+00 0.  1.
        994    1    1    2    0    0  0.44205348523E+01 -0.16717204658E+02  0.29991599816E+01  0.17209718481E+03  0.17120000000E+03 0.  0.
        998    1    1    2    0    0  0.80809131173E+01  0.21254916650E+01  0.14076011749E+04  0.14076614956E+04  0.10000000000E+02 0.  1.
</event>
<event>
 5    1  0.1572996E-008  0.3843762E+03  0.7957747E-01  0.3432322E+00
         13   -1    0    0    0    0  0.00000000000E+00  0.00000000000E+00  0.14999999963E+04  0.15000000000E+04  0.10566000000E+00 0. -1.
        994   -1    0    0    0    0 -0.00000000000E+00 -0.00000000000E+00  0.11368683772E-12  0.17120000000E+03  0.17120000000E+03 0.  0.
         13    1    1    2    0    0  0.46182214300E+01 -0.18406365074E+02  0.94863674595E+02  0.96743217674E+02  0.10566000000E+00 0. -1.
        994    1    1    2    0    0  0.17862883799E+01  0.92921390347E+01  0.22352641189E+01  0.17147586151E+03  0.17120000000E+03 0.  0.
        998    1    1    2    0    0 -0.64045098099E+01  0.91142260389E+01  0.14029010576E+04  0.14029809208E+04  0.10000000000E+02 0. -1.
</event>
<event>
 5    1  0.1572996E-008  0.3809868E+03  0.7957747E-01  0.3446873E+00
         13   -1    0    0    0    0  0.00000000000E+00  0.00000000000E+00  0.14999999963E+04  0.15000000000E+04  0.10566000000E+00 0.  1.
        994   -1    0    0    0    0 -0.00000000000E+00 -0.00000000000E+00  0.11368683772E-12  0.17120000000E+03  0.17120000000E+03 0.  0.
         13    1    1    2    0    0 -0.27214972006E+02  0.48158572836E+02  0.30744916127E+03  0.31238582037E+03  0.10566000000E+00 0.  1.
        994    1    1    2    0    0  0.49746827099E+02 -0.46516869695E+02  0.19249390415E+02  0.18525265181E+03  0.17120000000E+03 0.  0.
        998    1    1    2    0    0 -0.22531855093E+02 -0.16417031408E+01  0.11733014446E+04  0.11735615278E+04  0.10000000000E+02 0.  1.
</event>
<event>
 5    1  0.1572996E-008  0.4029847E+03  0.7957747E-01  0.3356803E+00
         13   -1    0    0    0    0  0.00000000000E+00  0.00000000000E+00  0.14999999963E+04  0.15000000000E+04  0.10566000000E+00 0. -1.
        994   -1    0    0    0    0 -0.00000000000E+00 -0.00000000000E+00  0.11368683772E-12  0.17120000000E+03  0.17120000000E+03 0.  0.
         13    1    1    2    0    0  0.20476431306E+02 -0.10670473989E+02 -0.40631614663E+01  0.23444907748E+02  0.10566000000E+00 0. -1.
        994    1    1    2    0    0 -0.37420532437E+02  0.84850552757E+01  0.35430436876E+02  0.17898896130E+03  0.17120000000E+03 0.  0.
        998    1    1    2    0    0  0.16944101132E+02  0.21854187134E+01  0.14686327209E+04  0.14687661309E+04  0.10000000000E+02 0. -1.
</event>
<event>
 5    1  0.1572996E-008  0.3809906E+03  0.7957747E-01  0.3446856E+00
         13   -1    0    0    0    0  0.00000000000E+00  0.00000000000E+00  0.14999999963E+04  0.15000000000E+04  0.10566000000E+00 0. -1.
        994   -1    0    0    0    0 -0.00000000000E+00 -0.00000000000E+00  0.11368683772E-12  0.17120000000E+03  0.17120000000E+03 0.  0.
         13    1    1    2    0    0  0.12134218896E+02  0.18434126950E+02  0.65485684778E+02  0.69104575677E+02  0.10566000000E+00 0. -1.
        994    1    1    2    0    0 -0.93585656920E+01 -0.11729147160E+02  0.43845029436E+01  0.17191224363E+03  0.17120000000E+03 0.  0.
        998    1    1    2    0    0 -0.27756532038E+01 -0.67049797901E+01  0.14301298086E+04  0.14301831807E+04  0.10000000000E+02 0. -1.
</event>
<event>
 5    1  0.1572996E-008  0.3857651E+03  0.7957747E-01  0.3426434E+00
         13   -1    0    0    0    0  0.00000000000E+00  0.00000000000E+00  0.14999999963E+04  0.15000000000E+04  0.10566000000E+00 0.  1.
        994   -1    0    0    0    0 -0.00000000000E+00 -0.00000000000E+00  0.11368683772E-12  0.17120000000E+03  0.17120000000E+03 0.  0.
         13    1    1    2    0    0  0.10525529698E+02  0.31133793490E+01  0.46850364279E+02  0.48119099156E+02  0.10566000000E+00 0.  1.
        994    1    1    2    0    0 -0.12252765716E+02 -0.51916201334E+01  0.18318722360E+01  0.17172617431E+03  0.17120000000E+03 0.  0.
        998    1    1    2    0    0  0.17272360175E+01  0.20782407844E+01  0.14513177598E+04  0.14513547265E+04  0.10000000000E+02 0.  1.
</event>
<event>
 5    1  0.2020189E-008  0.3857965E+03  0.7957747E-01  0.3426301E+00
         13   -1    0    0    0    0  0.00000000000E+00  0.00000000000E+00  0.14999999963E+04  0.15000000000E+04  0.10566000000E+00 0.  1.
        994   -1    0    0    0    0 -0.00000000000E+00 -0.00000000000E+00  0.11368683772E-12  0.17120000000E+03  0.17120000000E+03 0.  0.
         13    1    1    2    0    0 -0.84799490470E+00  0.13431355924E+02  0.72825386146E+02  0.74058547438E+02  0.10566000000E+00 0.  1.
        994    1    1    2    0    0  0.31445386359E+01 -0.10715508957E+02  0.16443861604E+01  0.17157171754E+03  0.17120000000E+03 0.  0.
        998    1    1    2    0    0 -0.22965437312E+01 -0.27158469665E+01  0.14255302240E+04  0.14255697350E+04  0.10000000000E+02 0.  1.
</event>
<event>
 5    1  0.1572996E-008  0.3712940E+03  0.7957747E-01  0.3489965E+00
         13   -1    0    0    0    0  0.00000000000E+00  0.00000000000E+00  0.14999999963E+04  0.15000000000E+04  0.10566000000E+00 0. -1.
        994   -1    0    0    0    0 -0.00000000000E+00 -0.00000000000E+00  0.11368683772E-12  0.17120000000E+03  0.17120000000E+03 0.  0.
         13    1    1    2    0    0 -0.55125758006E+02 -0.31324598594E+01  0.16182656338E+03  0.17098686873E+03  0.10566000000E+00 0. -1.
        994    1    1    2    0    0  0.48313661772E+02  0.58650943046E+01  0.16792200267E+02  0.17877367601E+03  0.17120000000E+03 0.  0.
        998    1    1    2    0    0  0.68120962336E+01 -0.27326344452E+01  0.13213812326E+04  0.13214394553E+04  0.10000000000E+02 0. -1.
</event>
<event>
 5    1  0.1572996E-008  0.3788843E+03  0.7957747E-01  0.3456031E+00
         13   -1    0    0    0    0  0.00000000000E+00  0.00000000000E+00  0.14999999963E+04  0.15000000000E+04  0.10566000000E+00 0. -1.
        994   -1    0    0    0    0 -0.00000000000E+00 -0.00000000000E+00  0.11368683772E-12  0.17120000000E+03  0.17120000000E+03 0.  0.
         13    1    1    2    0    0  0.78253136813E+02 -0.10746900332E+03  0.68940821160E+03  0.70210884731E+03  0.10566000000E+00 0. -1.
        994    1    1    2    0    0 -0.12473707024E+03  0.10403847225E+03  0.99021543379E+02  0.25592586124E+03  0.17120000000E+03 0.  0.
        998    1    1    2    0    0  0.46483933427E+02  0.34305310673E+01  0.71157024130E+03  0.71316529144E+03  0.10000000000E+02 0. -1.
</event>
<event>
 5    1  0.1572996E-008  0.3786562E+03  0.7957747E-01  0.3457031E+00
         13   -1    0    0    0    0  0.00000000000E+00  0.00000000000E+00  0.14999999963E+04  0.15000000000E+04  0.10566000000E+00 0.  1.
        994   -1    0    0    0    0 -0.00000000000E+00 -0.00000000000E+00  0.11368683772E-12  0.17120000000E+03  0.17120000000E+03 0.  0.
         13    1    1    2    0    0  0.16841510649E+02  0.30609365259E+02  0.13354193052E+03  0.13803632889E+03  0.10566000000E+00 0.  1.
        994    1    1    2    0    0 -0.28847607423E+01 -0.89106209097E+01  0.51076304351E+01  0.17153206376E+03  0.17120000000E+03 0.  0.
        998    1    1    2    0    0 -0.13956749906E+02 -0.21698744349E+02  0.13613504353E+04  0.13616316074E+04  0.10000000000E+02 0.  1.
</event>
<event>
 5    1  0.1572996E-008  0.3857042E+03  0.7957747E-01  0.3426691E+00
         13   -1    0    0    0    0  0.00000000000E+00  0.00000000000E+00  0.14999999963E+04  0.15000000000E+04  0.10566000000E+00 0.  1.
        994   -1    0    0    0    0 -0.00000000000E+00 -0.00000000000E+00  0.11368683772E-12  0.17120000000E+03  0.17120000000E+03 0.  0.
         13    1    1    2    0    0  0.94761645152E+01  0.12106282046E+02  0.90617667291E+02  0.91912635411E+02  0.10566000000E+00 0.  1.
        994    1    1    2    0    0 -0.58092712410E+01 -0.11921520839E+02  0.18582015083E+01  0.17172292568E+03  0.17120000000E+03 0.  0.
        998    1    1    2    0    0 -0.36668932741E+01 -0.18476120742E+00  0.14075241275E+04  0.14075644389E+04  0.10000000000E+02 0.  1.
</event>
<event>
 5    1  0.1572996E-008  0.3822048E+03  0.7957747E-01  0.3441614E+00
         13   -1    0    0    0    0  0.00000000000E+00  0.00000000000E+00  0.14999999963E+04  0.15000000000E+04  0.10566000000E+00 0.  1.
        994   -1    0    0    0    0 -0.00000000000E+00 -0.00000000000E+00  0.11368683772E-12  0.17120000000E+03  0.17120000000E+03 0.  0.
         13    1    1    2    0    0 -0.66888750683E+01  0.39542015292E+02  0.22765295932E+03  0.23115837227E+03  0.10566000000E+00 0.  1.
        994    1    1    2    0    0  0.11467544623E+02 -0.38731343282E+02  0.84582176501E+01  0.17610395503E+03  0.17120000000E+03 0.  0.
        998    1    1    2    0    0 -0.47786695543E+01 -0.81067201034E+00  0.12638888193E+04  0.12639376727E+04  0.10000000000E+02 0.  1.
</event>
<event>
 5    1  0.1572996E-008  0.3700296E+03  0.7957747E-01  0.3495755E+00
         13   -1    0    0    0    0  0.00000000000E+00  0.00000000000E+00  0.14999999963E+04  0.15000000000E+04  0.10566000000E+00 0.  1.
        994   -1    0    0    0    0 -0.00000000000E+00 -0.00000000000E+00  0.11368683772E-12  0.17120000000E+03  0.17120000000E+03 0.  0.
         13    1    1    2    0    0 -0.15777188201E+02 -0.39781942424E+02  0.11063860010E+03  0.11862728863E+03  0.10566000000E+00 0.  1.
        994    1    1    2    0    0  0.59390396592E+01 -0.13228632660E+02  0.99808670476E+01  0.17210266303E+03  0.17120000000E+03 0.  0.
        998    1    1    2    0    0  0.98381485417E+01  0.53010575084E+02  0.13793805291E+04  0.13804700483E+04  0.10000000000E+02 0.  1.
</event>
<event>
 5    1  0.1572996E-008  0.3777090E+03  0.7957747E-01  0.3461195E+00
         13   -1    0    0    0    0  0.00000000000E+00  0.00000000000E+00  0.14999999963E+04  0.15000000000E+04  0.10566000000E+00 0. -1.
        994   -1    0    0    0    0 -0.00000000000E+00 -0.00000000000E+00  0.11368683772E-12  0.17120000000E+03  0.17120000000E+03 0.  0.
         13    1    1    2    0    0  0.19887812624E+02  0.16898135613E+02  0.71423207524E+02  0.76041816228E+02  0.10566000000E+00 0. -1.
        994    1    1    2    0    0  0.17576301540E+02  0.59993767792E+01  0.64568126567E+01  0.17232541695E+03  0.17120000000E+03 0.  0.
        998    1    1    2    0    0 -0.37464114164E+02 -0.22897512392E+02  0.14221199761E+04  0.14228327668E+04  0.10000000000E+02 0. -1.
</event>
<event>
 5    1  0.1572996E-008  0.3725564E+03  0.7957747E-01  0.3484224E+00
         13   -1    0    0    0    0  0.00000000000E+00  0.00000000000E+00  0.14999999963E+04  0.15000000000E+04  0.10566000000E+00 0.  1.
        994   -1    0    0    0    0 -0.00000000000E+00 -0.00000000000E+00  0.11368683772E-12  0.17120000000E+03  0.17120000000E+03 0.  0.
         13    1    1    2    0    0 -0.39541177160E+01 -0.37960165548E+02  0.97240669314E+02  0.10446228098E+03  0.10566000000E+00 0.  1.
        994    1    1    2    0    0  0.25250747582E+01  0.63953416810E+00  0.79622277584E+01  0.17140484847E+03  0.17120000000E+03 0.  0.
        998    1    1    2    0    0  0.14290429578E+01  0.37320631380E+02  0.13947970992E+04  0.13953328706E+04  0.10000000000E+02 0.  1.
</event>
<event>
 5    1  0.1572996E-008  0.3745484E+03  0.7957747E-01  0.3475245E+00
         13   -1    0    0    0    0  0.00000000000E+00  0.00000000000E+00  0.14999999963E+04  0.15000000000E+04  0.10566000000E+00 0.  1.
        994   -1    0    0    0    0 -0.00000000000E+00 -0.00000000000E+00  0.11368683772E-12  0.17120000000E+03  0.17120000000E+03 0.  0.
         13    1    1    2    0    0  0.10832202107E+02  0.19580119753E+02  0.10924928936E+02  0.24901464381E+02  0.10566000000E+00 0.  1.
        994    1    1    2    0    0 -0.12433791366E+02 -0.80004494867E+02  0.37035906325E+02  0.19296739809E+03  0.17120000000E+03 0.  0.
        998    1    1    2    0    0  0.16015892596E+01  0.60424375114E+02  0.14520391610E+04  0.14533311375E+04  0.10000000000E+02 0.  1.
</event>
<event>
 5    1  0.1572996E-008  0.3824569E+03  0.7957747E-01  0.3440530E+00
         13   -1    0    0    0    0  0.00000000000E+00  0.00000000000E+00  0.14999999963E+04  0.15000000000E+04  0.10566000000E+00 0.  1.
        994   -1    0    0    0    0 -0.00000000000E+00 -0.00000000000E+00  0.11368683772E-12  0.17120000000E+03  0.17120000000E+03 0.  0.
         13    1    1    2    0    0  0.63604171680E+01  0.90696352111E+01  0.20449488907E+02  0.23257384848E+02  0.10566000000E+00 0.  1.
        994    1    1    2    0    0  0.37820747408E+01 -0.42448263622E+01  0.30052046468E+01  0.17132073399E+03  0.17120000000E+03 0.  0.
        998    1    1    2    0    0 -0.10142491909E+02 -0.48248088488E+01  0.14765453027E+04  0.14766218812E+04  0.10000000000E+02 0.  1.
</event>
<event>
 5    1  0.1572996E-008  0.3853975E+03  0.7957747E-01  0.3427988E+00
         13   -1    0    0    0    0  0.00000000000E+00  0.00000000000E+00  0.14999999963E+04  0.15000000000E+04  0.10566000000E+00 0. -1.
        994   -1    0    0    0    0 -0.00000000000E+00 -0.00000000000E+00  0.11368683772E-12  0.17120000000E+03  0.17120000000E+03 0.  0.
         13    1    1    2    0    0  0.11528210594E+02  0.20482696655E+01  0.49099739998E+02  0.50476634991E+02  0.10566000000E+00 0. -1.
        994    1    1    2    0    0 -0.50021611943E+01  0.53620311341E+01  0.16095615933E+01  0.17136453450E+03  0.17120000000E+03 0.  0.
        998    1    1    2    0    0 -0.65260493992E+01 -0.74103007996E+01  0.14492906947E+04  0.14493588305E+04  0.10000000000E+02 0. -1.
</event>
<event>
 5    1  0.1572996E-008  0.3692613E+03  0.7957747E-01  0.3499293E+00
         13   -1    0    0    0    0  0.00000000000E+00  0.00000000000E+00  0.14999999963E+04  0.15000000000E+04  0.10566000000E+00 0.  1.
        994   -1    0    0    0    0 -0.00000000000E+00 -0.00000000000E+00  0.11368683772E-12  0.17120000000E+03  0.17120000000E+03 0.  0.
         13    1    1    2    0    0  0.65814962069E+00 -0.10247660698E+03  0.24686563801E+03  0.26729111944E+03  0.10566000000E+00 0.  1.
        994    1    1    2    0    0  0.21118420799E+02  0.18396114069E+03  0.14176735830E+03  0.28930107650E+03  0.17120000000E+03 0.  0.
        998    1    1    2    0    0 -0.21776570420E+02 -0.81484533713E+02  0.11113670000E+04  0.11146078041E+04  0.10000000000E+02 0.  1.
</event>
<event>
 5    1  0.1572996E-008  0.3763306E+03  0.7957747E-01  0.3467293E+00
         13   -1    0    0    0    0  0.00000000000E+00  0.00000000000E+00  0.14999999963E+04  0.15000000000E+04  0.10566000000E+00 0.  1.
        994   -1    0    0    0    0 -0.00000000000E+00 -0.00000000000E+00  0.11368683772E-12  0.17120000000E+03  0.17120000000E+03 0.  0.
         13    1    1    2    0    0 -0.86121323623E+01 -0.10870479475E+02  0.13389041402E+02  0.19277285637E+02  0.10566000000E+00 0.  1.
        994    1    1    2    0    0  0.57193334654E+01  0.82764733555E+01  0.63395909541E+01  0.17161247391E+03  0.17120000000E+03 0.  0.
        998    1    1    2    0    0  0.28927988969E+01  0.25940061195E+01  0.14802713639E+04  0.14803102405E+04  0.10000000000E+02 0.  1.
</event>
<event>
 5    1  0.1572996E-008  0.3826476E+03  0.7957747E-01  0.3439711E+00
         13   -1    0    0    0    0  0.00000000000E+00  0.00000000000E+00  0.14999999963E+04  0.15000000000E+04  0.10566000000E+00 0. -1.
        994   -1    0    0    0    0 -0.00000000000E+00 -0.00000000000E+00  0.11368683772E-12  0.17120000000E+03  0.17120000000E+03 0.  0.
         13    1    1    2    0    0  0.19985849439E+02  0.89252221359E+01  0.87575261294E+02  0.90269215809E+02  0.10566000000E+00 0. -1.
        994    1    1    2    0    0 -0.11188142343E+02  0.57617274549E+01  0.33275935172E+01  0.17169416097E+03  0.17120000000E+03 0.  0.
        998    1    1    2    0    0 -0.87977070956E+01 -0.14686949591E+02  0.14090971415E+04  0.14092366232E+04  0.10000000000E+02 0. -1.
</event>
<event>
 5    1  0.1572996E-008  0.3809947E+03  0.7957747E-01  0.3446839E+00
         13   -1    0    0    0    0  0.00000000000E+00  0.00000000000E+00  0.14999999963E+04  0.15000000000E+04  0.10566000000E+00 0. -1.
        994   -1    0    0    0    0 -0.00000000000E+00 -0.00000000000E+00  0.11368683772E-12  0.17120000000E+03  0.17120000000E+03 0.  0.
         13    1    1    2    0    0  0.77157265488E+00  0.11080022963E+02  0.15381593581E+02  0.18972791527E+02  0.10566000000E+00 0. -1.
        994    1    1    2    0    0  0.50475940926E+00 -0.97805188146E+01  0.39514967598E+01  0.17152541403E+03  0.17120000000E+03 0.  0.
        998    1    1    2    0    0 -0.12763320641E+01 -0.12995041489E+01  0.14806669059E+04  0.14807017944E+04  0.10000000000E+02 0. -1.
</event>
<event>
 5    1  0.1572996E-008  0.3858701E+03  0.7957747E-01  0.3425990E+00
         13   -1    0    0    0    0  0.00000000000E+00  0.00000000000E+00  0.14999999963E+04  0.15000000000E+04  0.10566000000E+00 0. -1.
        994   -1    0    0    0    0 -0.00000000000E+00 -0.00000000000E+00  0.11368683772E-12  0.17120000000E+03  0.17120000000E+03 0.  0.
         13    1    1    2    0    0 -0.33374516148E+01 -0.12646446249E+02  0.71253400396E+02  0.72443974339E+02  0.10566000000E+00 0. -1.
        994    1    1    2    0    0  0.88581511097E+01  0.81638024625E+01  0.16747888872E+01  0.17163146398E+03  0.17120000000E+03 0.  0.
        998    1    1    2    0    0 -0.55206994950E+01  0.44826437866E+01  0.14270718070E+04  0.14271245617E+04  0.10000000000E+02 0. -1.
</event>
<event>
 5    1  0.1572996E-008  0.3749185E+03  0.7957747E-01  0.3473587E+00
         13   -1    0    0    0    0  0.00000000000E+00  0.00000000000E+00  0.14999999963E+04  0.15000000000E+04  0.10566000000E+00 0. -1.
        994   -1    0    0    0    0 -0.00000000000E+00 -0.00000000000E+00  0.11368683772E-12  0.17120000000E+03  0.17120000000E+03 0.  0.
         13    1    1    2    0    0  0.61394077973E+02  0.66586930710E+01  0.31034351032E+03  0.31642799587E+03  0.10566000000E+00 0. -1.
        994    1    1    2    0    0 -0.24404824685E+02  0.11072202903E+02  0.91663520100E+01  0.17352709055E+03  0.17120000000E+03 0.  0.
        998    1    1    2    0    0 -0.36989253288E+02 -0.17730895974E+02  0.11804901339E+04  0.11812449136E+04  0.10000000000E+02 0. -1.
</event>
<event>
 5    1  0.1572996E-008  0.3803478E+03  0.7957747E-01  0.3449645E+00
         13   -1    0    0    0    0  0.00000000000E+00  0.00000000000E+00  0.14999999963E+04  0.15000000000E+04  0.10566000000E+00 0.  1.
        994   -1    0    0    0    0 -0.00000000000E+00 -0.00000000000E+00  0.11368683772E-12  0.17120000000E+03  0.17120000000E+03 0.  0.
         13    1    1    2    0    0 -0.88573405704E+00 -0.21293994850E+02  0.54960905575E+02  0.58948545759E+02  0.10566000000E+00 0.  1.
        994    1    1    2    0    0 -0.16661880193E+01  0.18314741074E+02  0.50877715423E+01  0.17226006891E+03  0.17120000000E+03 0.  0.
        998    1    1    2    0    0  0.25519220764E+01  0.29792537758E+01  0.14399513192E+04  0.14399913853E+04  0.10000000000E+02 0.  1.
</event>
<event>
 5    1  0.1572996E-008  0.3828697E+03  0.7957747E-01  0.3438757E+00
         13   -1    0    0    0    0  0.00000000000E+00  0.00000000000E+00  0.14999999963E+04  0.15000000000E+04  0.10566000000E+00 0.  1.
        994   -1    0    0    0    0 -0.00000000000E+00 -0.00000000000E+00  0.11368683772E-12  0.17120000000E+03  0.17120000000E+03 0.  0.
         13    1    1    2    0    0  0.21043629012E+02  0.12421397762E+02  0.12828408513E+03  0.13059074663E+03  0.10566000000E+00 0.  1.
        994    1    1    2    0    0  0.10269635097E+02 -0.57817635046E+01  0.31515733357E+01  0.17163410678E+03  0.17120000000E+03 0.  0.
        998    1    1    2    0    0 -0.31313264110E+02 -0.66396342570E+01  0.13685643378E+04  0.13689751466E+04  0.10000000000E+02 0.  1.
</event>
<event>
 5    1  0.1572996E-008  0.3696959E+03  0.7957747E-01  0.3497289E+00
         13   -1    0    0    0    0  0.00000000000E+00  0.00000000000E+00  0.14999999963E+04  0.15000000000E+04  0.10566000000E+00 0. -1.
        994   -1    0    0    0    0 -0.00000000000E+00 -0.00000000000E+00  0.11368683772E-12  0.17120000000E+03  0.17120000000E+03 0.  0.
         13    1    1    2    0    0 -0.57061429151E+02  0.62320075188E+01  0.16024003447E+03  0.17021082347E+03  0.10566000000E+00 0. -1.
        994    1    1    2    0    0  0.49692382728E+02  0.11500232517E+01  0.18028824823E+02  0.17917905564E+03  0.17120000000E+03 0.  0.
        998    1    1    2    0    0  0.73690464226E+01 -0.73820307706E+01  0.13217311370E+04  0.13218101209E+04  0.10000000000E+02 0. -1.
</event>
<event>
 5    1  0.1572996E-008  0.3849970E+03  0.7957747E-01  0.3429685E+00
         13   -1    0    0    0    0  0.00000000000E+00  0.00000000000E+00  0.14999999963E+04  0.15000000000E+04  0.10566000000E+00 0.  1.
        994   -1    0    0    0    0 -0.00000000000E+00 -0.00000000000E+00  0.11368683772E-12  0.17120000000E+03  0.17120000000E+03 0.  0.
         13    1    1    2    0    0  0.10021664041E+02  0.30637332627E+01  0.33788368798E+02  0.35376337314E+02  0.10566000000E+00 0.  1.
        994    1    1    2    0    0 -0.83231318438E+01  0.97767931529E+01  0.21739821101E+01  0.17169457303E+03  0.17120000000E+03 0.  0.
        998    1    1    2    0    0 -0.16985321975E+01 -0.12840526416E+02  0.14640376454E+04  0.14641290897E+04  0.10000000000E+02 0.  1.
</event>
<event>
 5    1  0.1572996E-008  0.3816025E+03  0.7957747E-01  0.3444210E+00
         13   -1    0    0    0    0  0.00000000000E+00  0.00000000000E+00  0.14999999963E+04  0.15000000000E+04  0.10566000000E+00 0.  1.
        994   -1    0    0    0    0 -0.00000000000E+00 -0.00000000000E+00  0.11368683772E-12  0.17120000000E+03  0.17120000000E+03 0.  0.
         13    1    1    2    0    0 -0.68763549185E+01  0.36655105323E+02  0.18201613451E+03  0.18579764635E+03  0.10566000000E+00 0.  1.
        994    1    1    2    0    0  0.32516330109E+01 -0.39372191859E+02  0.85337745977E+01  0.17590624752E+03  0.17120000000E+03 0.  0.
        998    1    1    2    0    0  0.36247219076E+01  0.27170865358E+01  0.13094500872E+04  0.13094961061E+04  0.10000000000E+02 0.  1.
</event>
<event>
 5    1  0.1572996E-008  0.3801936E+03  0.7957747E-01  0.3450316E+00
         13   -1    0    0    0    0  0.00000000000E+00  0.00000000000E+00  0.14999999963E+04  0.15000000000E+04  0.10566000000E+00 0. -1.
        994   -1    0    0    0    0 -0.00000000000E+00 -0.00000000000E+00  0.11368683772E-12  0.17120000000E+03  0.17120000000E+03 0.  0.
         13    1    1    2    0    0  0.24503101321E+02  0.14813805722E+02  0.90055260400E+02  0.94497682003E+02  0.10566000000E+00 0. -1.
        994    1    1    2    0    0 -0.30395050823E+02 -0.25784926620E+02  0.93613032526E+01  0.17602782608E+03  0.17120000000E+03 0.  0.
        998    1    1    2    0    0  0.58919495014E+01  0.10971120897E+02  0.14005834326E+04  0.14006744919E+04  0.10000000000E+02 0. -1.
</event>
<event>
 5    1  0.1572996E-008  0.3830477E+03  0.7957747E-01  0.3437995E+00
         13   -1    0    0    0    0  0.00000000000E+00  0.00000000000E+00  0.14999999963E+04  0.15000000000E+04  0.10566000000E+00 0. -1.
        994   -1    0    0    0    0 -0.00000000000E+00 -0.00000000000E+00  0.11368683772E-12  0.17120000000E+03  0.17120000000E+03 0.  0.
         13    1    1    2    0    0  0.89717055269E+01 -0.26314792732E+02  0.15051937428E+03  0.15306551870E+03  0.10566000000E+00 0. -1.
        994    1    1    2    0    0 -0.69549862903E+01  0.12687578643E+02  0.32956895949E+01  0.17184192753E+03  0.17120000000E+03 0.  0.
        998    1    1    2    0    0 -0.20167192367E+01  0.13627214089E+02  0.13461849324E+04  0.13462925538E+04  0.10000000000E+02 0. -1.
</event>
<event>
 5    1  0.1572996E-008  0.3778104E+03  0.7957747E-01  0.3460748E+00
         13   -1    0    0    0    0  0.00000000000E+00  0.00000000000E+00  0.14999999963E+04  0.15000000000E+04  0.10566000000E+00 0.  1.
        994   -1    0    0    0    0 -0.00000000000E+00 -0.00000000000E+00  0.11368683772E-12  0.17120000000E+03  0.17120000000E+03 0.  0.
         13    1    1    2    0    0 -0.32392107533E+02 -0.19897996734E+02  0.16101830377E+03  0.16544510938E+03  0.10566000000E+00 0.  1.
        994    1    1    2    0    0 -0.77041909164E+01  0.21905866180E+01  0.54586198221E+01  0.17147416644E+03  0.17120000000E+03 0.  0.
        998    1    1    2    0    0  0.40096298449E+02  0.17707410116E+02  0.13335230727E+04  0.13342807242E+04  0.10000000000E+02 0.  1.
</event>
<event>
 5    1  0.1572996E-008  0.3983058E+03  0.7957747E-01  0.3375129E+00
         13   -1    0    0    0    0  0.00000000000E+00  0.00000000000E+00  0.14999999963E+04  0.15000000000E+04  0.10566000000E+00 0.  1.
        994   -1    0    0    0    0 -0.00000000000E+00 -0.00000000000E+00  0.11368683772E-12  0.17120000000E+03  0.17120000000E+03 0.  0.
         13    1    1    2    0    0 -0.32335416973E+02  0.36097496575E+02  0.36954114996E+02  0.60944451995E+02  0.10566000000E+00 0.  1.
        994    1    1    2    0    0 -0.48854350723E+02 -0.41781603102E+02  0.43019001440E+02  0.18786304700E+03  0.17120000000E+03 0.  0.
        998    1    1    2    0    0  0.81189767696E+02  0.56841065264E+01  0.14200268798E+04  0.14223925010E+04  0.10000000000E+02 0.  1.
</event>
<event>
 5    1  0.1572996E-008  0.3811171E+03  0.7957747E-01  0.3446309E+00
         13   -1    0    0    0    0  0.00000000000E+00  0.00000000000E+00  0.14999999963E+04  0.15000000000E+04  0.10566000000E+00 0. -1.
        994   -1    0    0    0    0 -0.00000000000E+00 -0.00000000000E+00  0.11368683772E-12  0.17120000000E+03  0.17120000000E+03 0.  0.
         13    1    1    2    0    0  0.32052119679E+02  0.47220395537E+01  0.16393721398E+03  0.16710792119E+03  0.10566000000E+00 0. -1.
        994    1    1    2    0    0 -0.40072369639E+01  0.70844382876E+01  0.37909598422E+01  0.17143528980E+03  0.17120000000E+03 0.  0.
        998    1    1    2    0    0 -0.28044882715E+02 -0.11806477841E+02  0.13322718225E+04  0.13326567890E+04  0.10000000000E+02 0.  1.
</event>
<event>
 5    1  0.1572996E-008  0.3772359E+03  0.7957747E-01  0.3463283E+00
         13   -1    0    0    0    0  0.00000000000E+00  0.00000000000E+00  0.14999999963E+04  0.15000000000E+04  0.10566000000E+00 0. -1.
        994   -1    0    0    0    0 -0.00000000000E+00 -0.00000000000E+00  0.11368683772E-12  0.17120000000E+03  0.17120000000E+03 0.  0.
         13    1    1    2    0    0 -0.18484868039E+02 -0.82938724785E+02  0.36345399235E+03  0.37325505774E+03  0.10566000000E+00 0. -1.
        994    1    1    2    0    0  0.28293160267E+02  0.11342151651E+03  0.53120778301E+02  0.21400046825E+03  0.17120000000E+03 0.  0.
        998    1    1    2    0    0 -0.98082922279E+01 -0.30482791723E+02  0.10834252256E+04  0.10839444740E+04  0.10000000000E+02 0. -1.
</event>
<event>
 5    1  0.1572996E-008  0.3860340E+03  0.7957747E-01  0.3425299E+00
         13   -1    0    0    0    0  0.00000000000E+00  0.00000000000E+00  0.14999999963E+04  0.15000000000E+04  0.10566000000E+00 0. -1.
        994   -1    0    0    0    0 -0.00000000000E+00 -0.00000000000E+00  0.11368683772E-12  0.17120000000E+03  0.17120000000E+03 0.  0.
         13    1    1    2    0    0 -0.10986252729E+02 -0.71350052988E+01  0.78597440993E+02  0.79681710224E+02  0.10566000000E+00 0. -1.
        994    1    1    2    0    0  0.33837440244E+01  0.81587134442E+01  0.13733905233E+01  0.17143319553E+03  0.17120000000E+03 0.  0.
        998    1    1    2    0    0  0.76025087051E+01 -0.10237081455E+01  0.14200291648E+04  0.14200850942E+04  0.10000000000E+02 0. -1.
</event>
<event>
 5    1  0.1572996E-008  0.3743011E+03  0.7957747E-01  0.3476354E+00
         13   -1    0    0    0    0  0.00000000000E+00  0.00000000000E+00  0.14999999963E+04  0.15000000000E+04  0.10566000000E+00 0.  1.
        994   -1    0    0    0    0 -0.00000000000E+00 -0.00000000000E+00  0.11368683772E-12  0.17120000000E+03  0.17120000000E+03 0.  0.
         13    1    1    2    0    0  0.33800439689E+02  0.15521731487E+02  0.89513593597E+02  0.96933422896E+02  0.10566000000E+00 0.  1.
        994    1    1    2    0    0 -0.33660102008E+02 -0.22988122494E+02  0.12720148745E+02  0.17644460441E+03  0.17120000000E+03 0.  0.
        998    1    1    2    0    0 -0.14033768081E+00  0.74663910073E+01  0.13977662539E+04  0.13978219727E+04  0.10000000000E+02 0.  1.
</event>
<event>
 5    1  0.1572996E-008  0.3688090E+03  0.7957747E-01  0.3501382E+00
         13   -1    0    0    0    0  0.00000000000E+00  0.00000000000E+00  0.14999999963E+04  0.15000000000E+04  0.10566000000E+00 0. -1.
        994   -1    0    0    0    0 -0.00000000000E+00 -0.00000000000E+00  0.11368683772E-12  0.17120000000E+03  0.17120000000E+03 0.  0.
         13    1    1    2    0    0 -0.75327673458E+01 -0.53821002088E+02  0.12712229347E+03  0.13825169623E+03  0.10566000000E+00 0. -1.
        994    1    1    2    0    0  0.35805678291E+02  0.52734244288E+02  0.24592279619E+02  0.18432896499E+03  0.17120000000E+03 0.  0.
        998    1    1    2    0    0 -0.28272910945E+02  0.10867578000E+01  0.13482854232E+04  0.13486193388E+04  0.10000000000E+02 0. -1.
</event>
<event>
 5    1  0.1572996E-008  0.3798980E+03  0.7957747E-01  0.3451603E+00
         13   -1    0    0    0    0  0.00000000000E+00  0.00000000000E+00  0.14999999963E+04  0.15000000000E+04  0.10566000000E+00 0.  1.
        994   -1    0    0    0    0 -0.00000000000E+00 -0.00000000000E+00  0.11368683772E-12  0.17120000000E+03  0.17120000000E+03 0.  0.
         13    1    1    2    0    0 -0.28217444060E+02 -0.15703616659E+02  0.12886819294E+03  0.13285273818E+03  0.10566000000E+00 0.  1.
        994    1    1    2    0    0  0.10857854612E+02  0.41855829421E+01  0.46376067182E+01  0.17165768118E+03  0.17120000000E+03 0.  0.
        998    1    1    2    0    0  0.17359589448E+02  0.11518033717E+02  0.13664941966E+04  0.13666895806E+04  0.10000000000E+02 0.  1.
</event>
<event>
 5    1  0.1572996E-008  0.3816868E+03  0.7957747E-01  0.3443847E+00
         13   -1    0    0    0    0  0.00000000000E+00  0.00000000000E+00  0.14999999963E+04  0.15000000000E+04  0.10566000000E+00 0. -1.
        994   -1    0    0    0    0 -0.00000000000E+00 -0.00000000000E+00  0.11368683772E-12  0.17120000000E+03  0.17120000000E+03 0.  0.
         13    1    1    2    0    0  0.80438284436E+02  0.61902460932E+02  0.26627587304E+03  0.28496505750E+03  0.10566000000E+00 0. -1.
        994    1    1    2    0    0 -0.84421378376E+02 -0.24340411372E+02  0.45976988037E+02  0.19784526323E+03  0.17120000000E+03 0.  0.
        998    1    1    2    0    0  0.39830939404E+01 -0.37562049559E+02  0.11877471352E+04  0.11883896793E+04  0.10000000000E+02 0. -1.
</event>
<event>
 5    1  0.1572996E-008  0.3822101E+03  0.7957747E-01  0.3441591E+00
         13   -1    0    0    0    0  0.00000000000E+00  0.00000000000E+00  0.14999999963E+04  0.15000000000E+04  0.10566000000E+00 0. -1.
        994   -1    0    0    0    0 -0.00000000000E+00 -0.00000000000E+00  0.11368683772E-12  0.17120000000E+03  0.17120000000E+03 0.  0.
         13    1    1    2    0    0 -0.28524967494E+02 -0.44060677318E+01  0.14817166996E+03  0.15095675588E+03  0.10566000000E+00 0. -1.
        994    1    1    2    0    0  0.48532107647E+01  0.11743545258E+02  0.35576904042E+01  0.17170777988E+03  0.17120000000E+03 0.  0.
        998    1    1    2    0    0  0.23671756730E+02 -0.73374775263E+01  0.13482706359E+04  0.13485354642E+04  0.10000000000E+02 0. -1.
</event>
<event>
 5    1  0.1572996E-008  0.3851594E+03  0.7957747E-01  0.3428996E+00
         13   -1    0    0    0    0  0.00000000000E+00  0.00000000000E+00  0.14999999963E+04  0.15000000000E+04  0.10566000000E+00 0.  1.
        994   -1    0    0    0    0 -0.00000000000E+00 -0.00000000000E+00  0.11368683772E-12  0.17120000000E+03  0.17120000000E+03 0.  0.
         13    1    1    2    0    0  0.37489218667E+01 -0.15895985482E+02  0.85424773123E+02  0.86972063312E+02  0.10566000000E+00 0.  1.
        994    1    1    2    0    0 -0.36004543603E+01  0.11189639877E+02  0.20053099042E+01  0.17161477961E+03  0.17120000000E+03 0.  0.
        998    1    1    2    0    0 -0.14846750637E+00  0.47063456047E+01  0.14125699133E+04  0.14126131571E+04  0.10000000000E+02 0.  1.
</event>
<event>
 5    1  0.1572996E-008  0.3844647E+03  0.7957747E-01  0.3431946E+00
         13   -1    0    0    0    0  0.00000000000E+00  0.00000000000E+00  0.14999999963E+04  0.15000000000E+04  0.10566000000E+00 0.  1.
        994   -1    0    0    0    0 -0.00000000000E+00 -0.00000000000E+00  0.11368683772E-12  0.17120000000E+03  0.17120000000E+03 0.  0.
         13    1    1    2    0    0 -0.21737896236E+02 -0.90527924323E+00  0.11474783163E+03  0.11679225870E+03  0.10566000000E+00 0.  1.
        994    1    1    2    0    0  0.24240470565E+02 -0.14513753870E+01  0.38412537135E+01  0.17295635904E+03  0.17120000000E+03 0.  0.
        998    1    1    2    0    0 -0.25025743289E+01  0.23566546302E+01  0.13814109109E+04  0.13814513823E+04  0.10000000000E+02 0.  1.
</event>
<event>
 5    1  0.1572996E-008  0.3707772E+03  0.7957747E-01  0.3492327E+00
         13   -1    0    0    0    0  0.00000000000E+00  0.00000000000E+00  0.14999999963E+04  0.15000000000E+04  0.10566000000E+00 0. -1.
        994   -1    0    0    0    0 -0.00000000000E+00 -0.00000000000E+00  0.11368683772E-12  0.17120000000E+03  0.17120000000E+03 0.  0.
         13    1    1    2    0    0  0.26915138561E+02 -0.20693232760E+02  0.58029066221E+02  0.67231081029E+02  0.10566000000E+00 0. -1.
        994    1    1    2    0    0 -0.36472926411E+02  0.21453522269E+02  0.15063244072E+02  0.17699398097E+03  0.17120000000E+03 0.  0.
        998    1    1    2    0    0  0.95577878502E+01 -0.76028950878E+00  0.14269076860E+04  0.14269749380E+04  0.10000000000E+02 0. -1.
</event>
<event>
 5    1  0.1572996E-008  0.3843356E+03  0.7957747E-01  0.3432495E+00
         13   -1    0    0    0    0  0.00000000000E+00  0.00000000000E+00  0.14999999963E+04  0.15000000000E+04  0.10566000000E+00 0. -1.
        994   -1    0    0    0    0 -0.00000000000E+00 -0.00000000000E+00  0.11368683772E-12  0.17120000000E+03  0.17120000000E+03 0.  0.
         13    1    1    2    0    0  0.17663463382E+02 -0.11675644171E+02  0.10981300243E+03  0.11183570660E+03  0.10566000000E+00 0. -1.
        994    1    1    2    0    0 -0.13517319087E+02  0.12695858222E+02  0.30945815978E+01  0.17222926339E+03  0.17120000000E+03 0.  0.
        998    1    1    2    0    0 -0.41461442954E+01 -0.10202140511E+01  0.13870924123E+04  0.13871350300E+04  0.10000000000E+02 0. -1.
</event>
<event>
 5    1  0.1572996E-008  0.3686052E+03  0.7957747E-01  0.3502326E+00
         13   -1    0    0    0    0  0.00000000000E+00  0.00000000000E+00  0.14999999963E+04  0.15000000000E+04  0.10566000000E+00 0. -1.
        994   -1    0    0    0    0 -0.00000000000E+00 -0.00000000000E+00  0.11368683772E-12  0.17120000000E+03  0.17120000000E+03 0.  0.
         13    1    1    2    0    0  0.84509217253E+02 -0.20249611385E+02  0.34791549939E+03  0.35860432295E+03  0.10566000000E+00 0. -1.
        994    1    1    2    0    0 -0.45353424141E+02  0.96180432982E+02  0.50645074000E+02  0.20780272445E+03  0.17120000000E+03 0.  0.
        998    1    1    2    0    0 -0.39155793111E+02 -0.75930821597E+02  0.11014394229E+04  0.11047929526E+04  0.10000000000E+02 0. -1.
</event>
<event>
 5    1  0.1572996E-008  0.3835514E+03  0.7957747E-01  0.3435839E+00
         13   -1    0    0    0    0  0.00000000000E+00  0.00000000000E+00  0.14999999963E+04  0.15000000000E+04  0.10566000000E+00 0. -1.
        994   -1    0    0    0    0 -0.00000000000E+00 -0.00000000000E+00  0.11368683772E-12  0.17120000000E+03  0.17120000000E+03 0.  0.
         13    1    1    2    0    0  0.10003519717E+02  0.16339662644E+02  0.87208291260E+02  0.89288029492E+02  0.10566000000E+00 0. -1.
        994    1    1    2    0    0  0.11779697031E+02  0.32805912197E+00  0.28100493245E+01  0.17162810161E+03  0.17120000000E+03 0.  0.
        998    1    1    2    0    0 -0.21783216749E+02 -0.16667721766E+02  0.14099816557E+04  0.14102838689E+04  0.10000000000E+02 0. -1.
</event>
<event>
 5    1  0.1572996E-008  0.3849050E+03  0.7957747E-01  0.3430075E+00
         13   -1    0    0    0    0  0.00000000000E+00  0.00000000000E+00  0.14999999963E+04  0.15000000000E+04  0.10566000000E+00 0.  1.
        994   -1    0    0    0    0 -0.00000000000E+00 -0.00000000000E+00  0.11368683772E-12  0.17120000000E+03  0.17120000000E+03 0.  0.
         13    1    1    2    0    0 -0.80755055593E+01 -0.70179001612E+01  0.34139047081E+02  0.35776394625E+02  0.10566000000E+00 0.  1.
        994    1    1    2    0    0 -0.86791001773E+00  0.97456859894E+01  0.19922949424E+01  0.17149093534E+03  0.17120000000E+03 0.  0.
        998    1    1    2    0    0  0.89434155770E+01 -0.27277858282E+01  0.14638686543E+04  0.14639326700E+04  0.10000000000E+02 0.  1.
</event>
<event>
 5    1  0.1572996E-008  0.3828569E+03  0.7957747E-01  0.3438812E+00
         13   -1    0    0    0    0  0.00000000000E+00  0.00000000000E+00  0.14999999963E+04  0.15000000000E+04  0.10566000000E+00 0. -1.
        994   -1    0    0    0    0 -0.00000000000E+00 -0.00000000000E+00  0.11368683772E-12  0.17120000000E+03  0.17120000000E+03 0.  0.
         13    1    1    2    0    0  0.15480260573E+02 -0.17333723829E+02  0.10095319955E+03  0.10359370692E+03  0.10566000000E+00 0. -1.
        994    1    1    2    0    0  0.14762877235E+01  0.17333661243E+02  0.37007437120E+01  0.17212138374E+03  0.17120000000E+03 0.  0.
        998    1    1    2    0    0 -0.16956548297E+02  0.62586257354E-04  0.13953460530E+04  0.13954849093E+04  0.10000000000E+02 0. -1.
</event>
<event>
 5    1  0.1572996E-008  0.3836658E+03  0.7957747E-01  0.3435351E+00
         13   -1    0    0    0    0  0.00000000000E+00  0.00000000000E+00  0.14999999963E+04  0.15000000000E+04  0.10566000000E+00 0.  1.
        994   -1    0    0    0    0 -0.00000000000E+00 -0.00000000000E+00  0.11368683772E-12  0.17120000000E+03  0.17120000000E+03 0.  0.
         13    1    1    2    0    0 -0.11869426070E+02  0.52760826825E+01  0.35295204729E+02  0.37609612662E+02  0.10566000000E+00 0.  1.
        994    1    1    2    0    0  0.17930599649E+02  0.46265347807E+01  0.34274296436E+01  0.17223268709E+03  0.17120000000E+03 0.  0.
        998    1    1    2    0    0 -0.60611735789E+01 -0.99026174632E+01  0.14612773619E+04  0.14613577002E+04  0.10000000000E+02 0.  1.
</event>
<event>
 5    1  0.1572996E-008  0.3821067E+03  0.7957747E-01  0.3442037E+00
         13   -1    0    0    0    0  0.00000000000E+00  0.00000000000E+00  0.14999999963E+04  0.15000000000E+04  0.10566000000E+00 0.  1.
        994   -1    0    0    0    0 -0.00000000000E+00 -0.00000000000E+00  0.11368683772E-12  0.17120000000E+03  0.17120000000E+03 0.  0.
         13    1    1    2    0    0  0.13503337565E+02 -0.85615144479E+00  0.26852186643E+02  0.30068658304E+02  0.10566000000E+00 0.  1.
        994    1    1    2    0    0 -0.30934517069E+02 -0.30735507915E+02  0.94123242540E+01  0.17691706430E+03  0.17120000000E+03 0.  0.
        998    1    1    2    0    0  0.17431179504E+02  0.31591659360E+02  0.14637354854E+04  0.14642142774E+04  0.10000000000E+02 0.  1.
</event>
<event>
 5    1  0.1572996E-008  0.3795860E+03  0.7957747E-01  0.3452963E+00
         13   -1    0    0    0    0  0.00000000000E+00  0.00000000000E+00  0.14999999963E+04  0.15000000000E+04  0.10566000000E+00 0. -1.
        994   -1    0    0    0    0 -0.00000000000E+00 -0.00000000000E+00  0.11368683772E-12  0.17120000000E+03  0.17120000000E+03 0.  0.
         13    1    1    2    0    0 -0.82905802804E+01  0.11630775773E+02  0.20546339144E+02  0.25023426678E+02  0.10566000000E+00 0. -1.
        994    1    1    2    0    0  0.31436217640E+02 -0.14081137065E+02  0.83243745190E+01  0.17482920068E+03  0.17120000000E+03 0.  0.
        998    1    1    2    0    0 -0.23145637360E+02  0.24503612916E+01  0.14711292826E+04  0.14713473726E+04  0.10000000000E+02 0. -1.
</event>
<event>
 5    1  0.1572996E-008  0.3840979E+03  0.7957747E-01  0.3433507E+00
         13   -1    0    0    0    0  0.00000000000E+00  0.00000000000E+00  0.14999999963E+04  0.15000000000E+04  0.10566000000E+00 0.  1.
        994   -1    0    0    0    0 -0.00000000000E+00 -0.00000000000E+00  0.11368683772E-12  0.17120000000E+03  0.17120000000E+03 0.  0.
         13    1    1    2    0    0 -0.26376093181E+02  0.18793240594E+02  0.19308769717E+03  0.19578496915E+03  0.10566000000E+00 0.  1.
        994    1    1    2    0    0  0.45863548007E+02 -0.17379254189E+02  0.10053439805E+02  0.17837044364E+03  0.17120000000E+03 0.  0.
        998    1    1    2    0    0 -0.19487454826E+02 -0.14139864052E+01  0.12968588593E+04  0.12970445872E+04  0.10000000000E+02 0.  1.
</event>
<event>
 5    1  0.1572996E-008  0.3772887E+03  0.7957747E-01  0.3463050E+00
         13   -1    0    0    0    0  0.00000000000E+00  0.00000000000E+00  0.14999999963E+04  0.15000000000E+04  0.10566000000E+00 0.  1.
        994   -1    0    0    0    0 -0.00000000000E+00 -0.00000000000E+00  0.11368683772E-12  0.17120000000E+03  0.17120000000E+03 0.  0.
         13    1    1    2    0    0  0.11408921604E+02 -0.70029172054E+01  0.14091553515E+02  0.19436753486E+02  0.10566000000E+00 0.  1.
        994    1    1    2    0    0  0.12320314131E+01  0.61616068715E+01  0.56413171433E+01  0.17140813213E+03  0.17120000000E+03 0.  0.
        998    1    1    2    0    0 -0.12640953018E+02  0.84131033392E+00  0.14802671256E+04  0.14803551144E+04  0.10000000000E+02 0.  1.
</event>
<event>
 5    1  0.1572996E-008  0.3855451E+03  0.7957747E-01  0.3427364E+00
         13   -1    0    0    0    0  0.00000000000E+00  0.00000000000E+00  0.14999999963E+04  0.15000000000E+04  0.10566000000E+00 0.  1.
        994   -1    0    0    0    0 -0.00000000000E+00 -0.00000000000E+00  0.11368683772E-12  0.17120000000E+03  0.17120000000E+03 0.  0.
         13    1    1    2    0    0 -0.91089747805E+01 -0.10738304687E+02  0.71691256045E+02  0.73061152238E+02  0.10566000000E+00 0.  1.
        994    1    1    2    0    0  0.73587674536E+01  0.10001918500E+02  0.18660813192E+01  0.17165987327E+03  0.17120000000E+03 0.  0.
        998    1    1    2    0    0  0.17502073269E+01  0.73638618764E+00  0.14264426589E+04  0.14264789745E+04  0.10000000000E+02 0.  1.
</event>
<event>
 5    1  0.1572996E-008  0.3792972E+03  0.7957747E-01  0.3454224E+00
         13   -1    0    0    0    0  0.00000000000E+00  0.00000000000E+00  0.14999999963E+04  0.15000000000E+04  0.10566000000E+00 0.  1.
        994   -1    0    0    0    0 -0.00000000000E+00 -0.00000000000E+00  0.11368683772E-12  0.17120000000E+03  0.17120000000E+03 0.  0.
         13    1    1    2    0    0  0.13617836764E+02 -0.11937647346E+02  0.35757823219E+02  0.40082240303E+02  0.10566000000E+00 0.  1.
        994    1    1    2    0    0  0.82212712971E+01  0.14435108898E+02  0.54135246223E+01  0.17208924406E+03  0.17120000000E+03 0.  0.
        998    1    1    2    0    0 -0.21839108061E+02 -0.24974615521E+01  0.14588286484E+04  0.14590285156E+04  0.10000000000E+02 0.  1.
</event>
<event>
 5    1  0.1572996E-008  0.3710559E+03  0.7957747E-01  0.3491052E+00
         13   -1    0    0    0    0  0.00000000000E+00  0.00000000000E+00  0.14999999963E+04  0.15000000000E+04  0.10566000000E+00 0.  1.
        994   -1    0    0    0    0 -0.00000000000E+00 -0.00000000000E+00  0.11368683772E-12  0.17120000000E+03  0.17120000000E+03 0.  0.
         13    1    1    2    0    0  0.38694346604E+02 -0.59237439622E+02  0.24473782512E+03  0.25476055605E+03  0.10566000000E+00 0.  1.
        994    1    1    2    0    0 -0.38915627130E+02  0.53961399694E+02  0.24125084924E+02  0.18525042082E+03  0.17120000000E+03 0.  0.
        998    1    1    2    0    0  0.22128052682E+00  0.52760399281E+01  0.12311370862E+04  0.12311890231E+04  0.10000000000E+02 0.  1.
</event>
<event>
 5    1  0.1572996E-008  0.3845069E+03  0.7957747E-01  0.3431766E+00
         13   -1    0    0    0    0  0.00000000000E+00  0.00000000000E+00  0.14999999963E+04  0.15000000000E+04  0.10566000000E+00 0.  1.
        994   -1    0    0    0    0 -0.00000000000E+00 -0.00000000000E+00  0.11368683772E-12  0.17120000000E+03  0.17120000000E+03 0.  0.
         13    1    1    2    0    0  0.16552747451E+02 -0.35249796838E+01  0.74030318083E+02  0.75940227083E+02  0.10566000000E+00 0.  1.
        994    1    1    2    0    0 -0.15528383044E+02  0.14199587433E+01  0.26764522655E+01  0.17192949241E+03  0.17120000000E+03 0.  0.
        998    1    1    2    0    0 -0.10243644074E+01  0.21050209404E+01  0.14232932259E+04  0.14233302805E+04  0.10000000000E+02 0.  1.
</event>
<event>
 5    1  0.1572996E-008  0.3748627E+03  0.7957747E-01  0.3473837E+00
         13   -1    0    0    0    0  0.00000000000E+00  0.00000000000E+00  0.14999999963E+04  0.15000000000E+04  0.10566000000E+00 0. -1.
        994   -1    0    0    0    0 -0.00000000000E+00 -0.00000000000E+00  0.11368683772E-12  0.17120000000E+03  0.17120000000E+03 0.  0.
         13    1    1    2    0    0 -0.47539318626E+02  0.32583622245E+02  0.29627932442E+03  0.30183294800E+03  0.10566000000E+00 0. -1.
        994    1    1    2    0    0  0.44234860364E+01 -0.71856886985E+01  0.69914512584E+01  0.17155034754E+03  0.17120000000E+03 0.  0.
        998    1    1    2    0    0  0.43115832590E+02 -0.25397933546E+02  0.11967292206E+04  0.11978167045E+04  0.10000000000E+02 0. -1.
</event>
<event>
 5    1  0.1572996E-008  0.3814951E+03  0.7957747E-01  0.3444674E+00
         13   -1    0    0    0    0  0.00000000000E+00  0.00000000000E+00  0.14999999963E+04  0.15000000000E+04  0.10566000000E+00 0. -1.
        994   -1    0    0    0    0 -0.00000000000E+00 -0.00000000000E+00  0.11368683772E-12  0.17120000000E+03  0.17120000000E+03 0.  0.
         13    1    1    2    0    0  0.62193934180E+01 -0.14274849853E+02  0.34045106889E+02  0.37437049295E+02  0.10566000000E+00 0. -1.
        994    1    1    2    0    0  0.13562345107E+02  0.22585360071E+02  0.56924279490E+01  0.17330862480E+03  0.17120000000E+03 0.  0.
        998    1    1    2    0    0 -0.19781738525E+02 -0.83105102176E+01  0.14602624614E+04  0.14604543259E+04  0.10000000000E+02 0. -1.
</event>
<event>
 5    1  0.1572996E-008  0.3806300E+03  0.7957747E-01  0.3448420E+00
         13   -1    0    0    0    0  0.00000000000E+00  0.00000000000E+00  0.14999999963E+04  0.15000000000E+04  0.10566000000E+00 0.  1.
        994   -1    0    0    0    0 -0.00000000000E+00 -0.00000000000E+00  0.11368683772E-12  0.17120000000E+03  0.17120000000E+03 0.  0.
         13    1    1    2    0    0 -0.37579311252E+02 -0.51411652433E+02  0.29142290052E+03  0.29829964927E+03  0.10566000000E+00 0.  1.
        994    1    1    2    0    0  0.23640625556E+02  0.11926450581E+03  0.54816391426E+02  0.21701884317E+03  0.17120000000E+03 0.  0.
        998    1    1    2    0    0  0.13938685697E+02 -0.67852853373E+02  0.11537607043E+04  0.11558815076E+04  0.10000000000E+02 0.  1.
</event>
<event>
 5    1  0.1572996E-008  0.3728803E+03  0.7957747E-01  0.3482757E+00
         13   -1    0    0    0    0  0.00000000000E+00  0.00000000000E+00  0.14999999963E+04  0.15000000000E+04  0.10566000000E+00 0.  1.
        994   -1    0    0    0    0 -0.00000000000E+00 -0.00000000000E+00  0.11368683772E-12  0.17120000000E+03  0.17120000000E+03 0.  0.
         13    1    1    2    0    0  0.10854982594E+02 -0.35832529589E+02  0.50926742244E+02  0.63208741987E+02  0.10566000000E+00 0.  1.
        994    1    1    2    0    0 -0.65693884187E+01  0.29099062948E+02  0.15619216738E+02  0.17448011996E+03  0.17120000000E+03 0.  0.
        998    1    1    2    0    0 -0.42855941757E+01  0.67334666407E+01  0.14334540373E+04  0.14335111381E+04  0.10000000000E+02 0.  1.
</event>
<event>
 5    1  0.1572996E-008  0.3821089E+03  0.7957747E-01  0.3442027E+00
         13   -1    0    0    0    0  0.00000000000E+00  0.00000000000E+00  0.14999999963E+04  0.15000000000E+04  0.10566000000E+00 0. -1.
        994   -1    0    0    0    0 -0.00000000000E+00 -0.00000000000E+00  0.11368683772E-12  0.17120000000E+03  0.17120000000E+03 0.  0.
         13    1    1    2    0    0  0.30275432692E+02  0.20009862290E+01  0.14205036981E+03  0.14525468839E+03  0.10566000000E+00 0. -1.
        994    1    1    2    0    0 -0.24614852011E+02 -0.24605959014E+01  0.51065447136E+01  0.17305335094E+03  0.17120000000E+03 0.  0.
        998    1    1    2    0    0 -0.56605806817E+01  0.45960967240E+00  0.13528430818E+04  0.13528919607E+04  0.10000000000E+02 0. -1.
</event>
<event>
 5    1  0.1572996E-008  0.3857528E+03  0.7957747E-01  0.3426486E+00
         13   -1    0    0    0    0  0.00000000000E+00  0.00000000000E+00  0.14999999963E+04  0.15000000000E+04  0.10566000000E+00 0. -1.
        994   -1    0    0    0    0 -0.00000000000E+00 -0.00000000000E+00  0.11368683772E-12  0.17120000000E+03  0.17120000000E+03 0.  0.
         13    1    1    2    0    0  0.15848777980E+02  0.93911169847E+00  0.94424254994E+02  0.95749761302E+02  0.10566000000E+00 0. -1.
        994    1    1    2    0    0 -0.17760749907E+02 -0.24621140951E+02  0.42862941714E+01  0.17392371068E+03  0.17120000000E+03 0.  0.
        998    1    1    2    0    0  0.19119719275E+01  0.23682029253E+02  0.14012894471E+04  0.14015265280E+04  0.10000000000E+02 0. -1.
</event>
<event>
 5    1  0.1572996E-008  0.3838880E+03  0.7957747E-01  0.3434402E+00
         13   -1    0    0    0    0  0.00000000000E+00  0.00000000000E+00  0.14999999963E+04  0.15000000000E+04  0.10566000000E+00 0. -1.
        994   -1    0    0    0    0 -0.00000000000E+00 -0.00000000000E+00  0.11368683772E-12  0.17120000000E+03  0.17120000000E+03 0.  0.
         13    1    1    2    0    0 -0.64731441878E+01 -0.16044793554E+02  0.70617739932E+02  0.72706350156E+02  0.10566000000E+00 0. -1.
        994    1    1    2    0    0  0.11629192521E+02  0.72509311479E+00  0.26314335029E+01  0.17161622394E+03  0.17120000000E+03 0.  0.
        998    1    1    2    0    0 -0.51560483328E+01  0.15319700439E+02  0.14267508228E+04  0.14268774259E+04  0.10000000000E+02 0. -1.
</event>
<event>
 5    1  0.1572996E-008  0.3834686E+03  0.7957747E-01  0.3436193E+00
         13   -1    0    0    0    0  0.00000000000E+00  0.00000000000E+00  0.14999999963E+04  0.15000000000E+04  0.10566000000E+00 0. -1.
        994   -1    0    0    0    0 -0.00000000000E+00 -0.00000000000E+00  0.11368683772E-12  0.17120000000E+03  0.17120000000E+03 0.  0.
         13    1    1    2    0    0 -0.15615446565E+02 -0.76081268232E+01  0.59910080109E+02  0.62377517006E+02  0.10566000000E+00 0. -1.
        994    1    1    2    0    0  0.17369347406E+02  0.87440508581E+01  0.36431502963E+01  0.17233938957E+03  0.17120000000E+03 0.  0.
        998    1    1    2    0    0 -0.17539008405E+01 -0.11359240349E+01  0.14364467659E+04  0.14364830934E+04  0.10000000000E+02 0. -1.
</event>
<event>
 5    1  0.1572996E-008  0.3824519E+03  0.7957747E-01  0.3440551E+00
         13   -1    0    0    0    0  0.00000000000E+00  0.00000000000E+00  0.14999999963E+04  0.15000000000E+04  0.10566000000E+00 0. -1.
        994   -1    0    0    0    0 -0.00000000000E+00 -0.00000000000E+00  0.11368683772E-12  0.17120000000E+03  0.17120000000E+03 0.  0.
         13    1    1    2    0    0 -0.19826407131E+01 -0.12721454585E+02  0.26746810478E+02  0.29684496050E+02  0.10566000000E+00 0. -1.
        994    1    1    2    0    0  0.25776652433E+01  0.17187892345E+02  0.39028181178E+01  0.17212419932E+03  0.17120000000E+03 0.  0.
        998    1    1    2    0    0 -0.59502453026E+00 -0.44664377598E+01  0.14693503677E+04  0.14693913046E+04  0.10000000000E+02 0. -1.
</event>
<event>
 5    1  0.1572996E-008  0.3830262E+03  0.7957747E-01  0.3438087E+00
         13   -1    0    0    0    0  0.00000000000E+00  0.00000000000E+00  0.14999999963E+04  0.15000000000E+04  0.10566000000E+00 0.  1.
        994   -1    0    0    0    0 -0.00000000000E+00 -0.00000000000E+00  0.11368683772E-12  0.17120000000E+03  0.17120000000E+03 0.  0.
         13    1    1    2    0    0  0.21170197911E+02 -0.20898999973E+01  0.10039787644E+03  0.10262694442E+03  0.10566000000E+00 0.  1.
        994    1    1    2    0    0  0.10514897666E+02 -0.32290534736E+01  0.30138290946E+01  0.17157946563E+03  0.17120000000E+03 0.  0.
        998    1    1    2    0    0 -0.31685095577E+02  0.53189534709E+01  0.13965882907E+04  0.13969935900E+04  0.10000000000E+02 0.  1.
</event>
<event>
 5    1  0.1572996E-008  0.3783427E+03  0.7957747E-01  0.3458407E+00
         13   -1    0    0    0    0  0.00000000000E+00  0.00000000000E+00  0.14999999963E+04  0.15000000000E+04  0.10566000000E+00 0.  1.
        994   -1    0    0    0    0 -0.00000000000E+00 -0.00000000000E+00  0.11368683772E-12  0.17120000000E+03  0.17120000000E+03 0.  0.
         13    1    1    2    0    0  0.29044747433E+02 -0.45167770339E+01  0.86158584414E+02  0.91034671749E+02  0.10566000000E+00 0.  1.
        994    1    1    2    0    0 -0.15335269154E+02  0.14610425689E+01  0.57701317561E+01  0.17198848667E+03  0.17120000000E+03 0.  0.
        998    1    1    2    0    0 -0.13709478279E+02  0.30557344650E+01  0.14080712801E+04  0.14081768416E+04  0.10000000000E+02 0.  1.
</event>
<event>
 5    1  0.1572996E-008  0.3725131E+03  0.7957747E-01  0.3484420E+00
         13   -1    0    0    0    0  0.00000000000E+00  0.00000000000E+00  0.14999999963E+04  0.15000000000E+04  0.10566000000E+00 0. -1.
        994   -1    0    0    0    0 -0.00000000000E+00 -0.00000000000E+00  0.11368683772E-12  0.17120000000E+03  0.17120000000E+03 0.  0.
         13    1    1    2    0    0 -0.22410372453E+02  0.55724043806E+02  0.29381941182E+03  0.29989540140E+03  0.10566000000E+00 0. -1.
        994    1    1    2    0    0  0.11497188349E+02  0.76575810619E+01  0.86157759747E+01  0.17197236837E+03  0.17120000000E+03 0.  0.
        998    1    1    2    0    0  0.10913184104E+02 -0.63381624868E+02  0.11975648085E+04  0.11993322302E+04  0.10000000000E+02 0. -1.
</event>
<event>
 5    1  0.1572996E-008  0.3762633E+03  0.7957747E-01  0.3467592E+00
         13   -1    0    0    0    0  0.00000000000E+00  0.00000000000E+00  0.14999999963E+04  0.15000000000E+04  0.10566000000E+00 0. -1.
        994   -1    0    0    0    0 -0.00000000000E+00 -0.00000000000E+00  0.11368683772E-12  0.17120000000E+03  0.17120000000E+03 0.  0.
         13    1    1    2    0    0 -0.93709539971E+01  0.38204895951E+01  0.57636312395E+01  0.11646524317E+02  0.10566000000E+00 0. -1.
        994    1    1    2    0    0  0.72197771262E+00 -0.79615365627E+01  0.62477736234E+01  0.17150038481E+03  0.17120000000E+03 0.  0.
        998    1    1    2    0    0  0.86489762844E+01  0.41410469676E+01  0.14879885914E+04  0.14880530909E+04  0.10000000000E+02 0. -1.
</event>
<event>
 5    1  0.1572996E-008  0.3720714E+03  0.7957747E-01  0.3486425E+00
         13   -1    0    0    0    0  0.00000000000E+00  0.00000000000E+00  0.14999999963E+04  0.15000000000E+04  0.10566000000E+00 0.  1.
        994   -1    0    0    0    0 -0.00000000000E+00 -0.00000000000E+00  0.11368683772E-12  0.17120000000E+03  0.17120000000E+03 0.  0.
         13    1    1    2    0    0 -0.13289656208E+02 -0.70914363577E+01  0.97816601782E+01  0.17960942949E+02  0.10566000000E+00 0.  1.
        994    1    1    2    0    0  0.25925457801E+02  0.10647145160E+02  0.10891802609E+02  0.17382048909E+03  0.17120000000E+03 0.  0.
        998    1    1    2    0    0 -0.12635801593E+02 -0.35557088021E+01  0.14793265335E+04  0.14794185680E+04  0.10000000000E+02 0.  1.
</event>
<event>
 5    1  0.1572996E-008  0.4100107E+03  0.7957747E-01  0.3330064E+00
         13   -1    0    0    0    0  0.00000000000E+00  0.00000000000E+00  0.14999999963E+04  0.15000000000E+04  0.10566000000E+00 0.  1.
        994   -1    0    0    0    0 -0.00000000000E+00 -0.00000000000E+00  0.11368683772E-12  0.17120000000E+03  0.17120000000E+03 0.  0.
         13    1    1    2    0    0  0.51116887034E+02  0.40609002873E+02  0.50435268115E+02  0.82496998057E+02  0.10566000000E+00 0.  1.
        994    1    1    2    0    0 -0.38985515037E+02 -0.47164949273E+02  0.49351733837E+02  0.18838640199E+03  0.17120000000E+03 0.  0.
        998    1    1    2    0    0 -0.12131371997E+02  0.65559463999E+01  0.14002129943E+04  0.14003166000E+04  0.10000000000E+02 0.  1.
</event>
<event>
 5    1  0.1572996E-008  0.3827870E+03  0.7957747E-01  0.3439112E+00
         13   -1    0    0    0    0  0.00000000000E+00  0.00000000000E+00  0.14999999963E+04  0.15000000000E+04  0.10566000000E+00 0. -1.
        994   -1    0    0    0    0 -0.00000000000E+00 -0.00000000000E+00  0.11368683772E-12  0.17120000000E+03  0.17120000000E+03 0.  0.
         13    1    1    2    0    0 -0.45435428028E+01 -0.31660638433E+02  0.18863740646E+03  0.19132987766E+03  0.10566000000E+00 0. -1.
        994    1    1    2    0    0  0.61433279465E+00  0.17417595677E+02  0.37396350603E+01  0.17212546271E+03  0.17120000000E+03 0.  0.
        998    1    1    2    0    0  0.39292100081E+01  0.14243042755E+02  0.13076229548E+04  0.13077446596E+04  0.10000000000E+02 0. -1.
</event>
<event>
 5    1  0.1572996E-008  0.3734015E+03  0.7957747E-01  0.3480403E+00
         13   -1    0    0    0    0  0.00000000000E+00  0.00000000000E+00  0.14999999963E+04  0.15000000000E+04  0.10566000000E+00 0.  1.
        994   -1    0    0    0    0 -0.00000000000E+00 -0.00000000000E+00  0.11368683772E-12  0.17120000000E+03  0.17120000000E+03 0.  0.
         13    1    1    2    0    0 -0.42742684693E+02 -0.14528874725E+02  0.14168856949E+03  0.14870671533E+03  0.10566000000E+00 0.  1.
        994    1    1    2    0    0  0.15878818975E+02 -0.23442718717E+01  0.83828713561E+01  0.17215500293E+03  0.17120000000E+03 0.  0.
        998    1    1    2    0    0  0.26863865718E+02  0.16873146597E+02  0.13499285554E+04  0.13503382817E+04  0.10000000000E+02 0.  1.
</event>
<event>
 5    1  0.1572996E-008  0.3741324E+03  0.7957747E-01  0.3477112E+00
         13   -1    0    0    0    0  0.00000000000E+00  0.00000000000E+00  0.14999999963E+04  0.15000000000E+04  0.10566000000E+00 0. -1.
        994   -1    0    0    0    0 -0.00000000000E+00 -0.00000000000E+00  0.11368683772E-12  0.17120000000E+03  0.17120000000E+03 0.  0.
         13    1    1    2    0    0  0.81582969354E+00  0.35925588724E+02  0.10081129237E+03  0.10702448943E+03  0.10566000000E+00 0. -1.
        994    1    1    2    0    0 -0.59014019940E+02  0.99433103856E+01  0.19434817304E+02  0.18239702874E+03  0.17120000000E+03 0.  0.
        998    1    1    2    0    0  0.58198190247E+02 -0.45868899109E+02  0.13797538866E+04  0.13817784818E+04  0.10000000000E+02 0. -1.
</event>
<event>
 5    1  0.1572996E-008  0.3830646E+03  0.7957747E-01  0.3437922E+00
         13   -1    0    0    0    0  0.00000000000E+00  0.00000000000E+00  0.14999999963E+04  0.15000000000E+04  0.10566000000E+00 0. -1.
        994   -1    0    0    0    0 -0.00000000000E+00 -0.00000000000E+00  0.11368683772E-12  0.17120000000E+03  0.17120000000E+03 0.  0.
         13    1    1    2    0    0  0.12312160804E+02 -0.37381318906E+01  0.32791917853E+02  0.35226183077E+02  0.10566000000E+00 0. -1.
        994    1    1    2    0    0  0.49492459267E+01 -0.30597796163E+01  0.27061259561E+01  0.17132022766E+03  0.17120000000E+03 0.  0.
        998    1    1    2    0    0 -0.17261406730E+02  0.67979115069E+01  0.14645019525E+04  0.14646535893E+04  0.10000000000E+02 0. -1.
</event>
<event>
 5    1  0.1572996E-008  0.3802110E+03  0.7957747E-01  0.3450240E+00
         13   -1    0    0    0    0  0.00000000000E+00  0.00000000000E+00  0.14999999963E+04  0.15000000000E+04  0.10566000000E+00 0.  1.
        994   -1    0    0    0    0 -0.00000000000E+00 -0.00000000000E+00  0.11368683772E-12  0.17120000000E+03  0.17120000000E+03 0.  0.
         13    1    1    2    0    0 -0.32452687579E+02  0.22698401103E+02  0.17539730593E+03  0.17981273713E+03  0.10566000000E+00 0.  1.
        994    1    1    2    0    0  0.34738894658E+02 -0.15440913184E+02  0.88696294659E+01  0.17559419959E+03  0.17120000000E+03 0.  0.
        998    1    1    2    0    0 -0.22862070790E+01 -0.72574879190E+01  0.13157330609E+04  0.13157930633E+04  0.10000000000E+02 0.  1.
</event>
<event>
 5    1  0.1572996E-008  0.3853457E+03  0.7957747E-01  0.3428207E+00
         13   -1    0    0    0    0  0.00000000000E+00  0.00000000000E+00  0.14999999963E+04  0.15000000000E+04  0.10566000000E+00 0.  1.
        994   -1    0    0    0    0 -0.00000000000E+00 -0.00000000000E+00  0.11368683772E-12  0.17120000000E+03  0.17120000000E+03 0.  0.
         13    1    1    2    0    0 -0.14079867337E+02 -0.50428205306E+01  0.79870901230E+02  0.81259120906E+02  0.10566000000E+00 0.  1.
        994    1    1    2    0    0  0.58941580097E+01 -0.22417883256E+01  0.15892566589E+01  0.17132347314E+03  0.17120000000E+03 0.  0.
        998    1    1    2    0    0  0.81857093278E+01  0.72846088561E+01  0.14185398384E+04  0.14186174059E+04  0.10000000000E+02 0.  1.
</event>
<event>
 5    1  0.1572996E-008  0.4006863E+03  0.7957747E-01  0.3365752E+00
         13   -1    0    0    0    0  0.00000000000E+00  0.00000000000E+00  0.14999999963E+04  0.15000000000E+04  0.10566000000E+00 0. -1.
        994   -1    0    0    0    0 -0.00000000000E+00 -0.00000000000E+00  0.11368683772E-12  0.17120000000E+03  0.17120000000E+03 0.  0.
         13    1    1    2    0    0 -0.48865197979E+02 -0.70194694886E+02  0.13843496459E+03  0.16272477792E+03  0.10566000000E+00 0. -1.
        994    1    1    2    0    0 -0.14042224500E+02  0.31728711556E+02  0.32929215481E+02  0.17775733020E+03  0.17120000000E+03 0.  0.
        998    1    1    2    0    0  0.62907422479E+02  0.38465983331E+02  0.13286358162E+04  0.13307178919E+04  0.10000000000E+02 0. -1.
</event>
<event>
 5    1  0.1572996E-008  0.3833374E+03  0.7957747E-01  0.3436754E+00
         13   -1    0    0    0    0  0.00000000000E+00  0.00000000000E+00  0.14999999963E+04  0.15000000000E+04  0.10566000000E+00 0. -1.
        994   -1    0    0    0    0 -0.00000000000E+00 -0.00000000000E+00  0.11368683772E-12  0.17120000000E+03  0.17120000000E+03 0.  0.
         13    1    1    2    0    0  0.25311826372E+02 -0.21046859288E+01  0.13175969297E+03  0.13418549144E+03  0.10566000000E+00 0. -1.
        994    1    1    2    0    0 -0.14605971947E+02 -0.39315532802E+01  0.32147132429E+01  0.17189696306E+03  0.17120000000E+03 0.  0.
        998    1    1    2    0    0 -0.10705854425E+02  0.60362392089E+01  0.13650255901E+04  0.13651175455E+04  0.10000000000E+02 0. -1.
</event>
<event>
 5    1  0.1572996E-008  0.3725267E+03  0.7957747E-01  0.3484359E+00
         13   -1    0    0    0    0  0.00000000000E+00  0.00000000000E+00  0.14999999963E+04  0.15000000000E+04  0.10566000000E+00 0. -1.
        994   -1    0    0    0    0 -0.00000000000E+00 -0.00000000000E+00  0.11368683772E-12  0.17120000000E+03  0.17120000000E+03 0.  0.
         13    1    1    2    0    0 -0.58913812399E+02 -0.13464247685E+02  0.30481685333E+03  0.31074981656E+03  0.10566000000E+00 0. -1.
        994    1    1    2    0    0 -0.77060473859E+01  0.12379895037E+02  0.86835582157E+01  0.17203920818E+03  0.17120000000E+03 0.  0.
        998    1    1    2    0    0  0.66619859785E+02  0.10843526478E+01  0.11864995847E+04  0.11884109753E+04  0.10000000000E+02 0. -1.
</event>
<event>
 5    1  0.1572996E-008  0.3837620E+03  0.7957747E-01  0.3434940E+00
         13   -1    0    0    0    0  0.00000000000E+00  0.00000000000E+00  0.14999999963E+04  0.15000000000E+04  0.10566000000E+00 0.  1.
        994   -1    0    0    0    0 -0.00000000000E+00 -0.00000000000E+00  0.11368683772E-12  0.17120000000E+03  0.17120000000E+03 0.  0.
         13    1    1    2    0    0 -0.15816777989E+03  0.12549162136E+03  0.96202351337E+03  0.98298242358E+03  0.10566000000E+00 0.  1.
        994    1    1    2    0    0  0.19351497341E+03 -0.12615661139E+03  0.20477215108E+03  0.35299378095E+03  0.17120000000E+03 0.  0.
        998    1    1    2    0    0 -0.35347193515E+02  0.66499002203E+00  0.33320433182E+03  0.33522379547E+03  0.10000000000E+02 0.  1.
</event>
<event>
 5    1  0.1572996E-008  0.3738747E+03  0.7957747E-01  0.3478271E+00
         13   -1    0    0    0    0  0.00000000000E+00  0.00000000000E+00  0.14999999963E+04  0.15000000000E+04  0.10566000000E+00 0. -1.
        994   -1    0    0    0    0 -0.00000000000E+00 -0.00000000000E+00  0.11368683772E-12  0.17120000000E+03  0.17120000000E+03 0.  0.
         13    1    1    2    0    0  0.28645050788E+02  0.29981976783E+02  0.11403854037E+03  0.12134355245E+03  0.10566000000E+00 0. -1.
        994    1    1    2    0    0 -0.24742766872E+02 -0.16462734401E+02  0.10277353323E+02  0.17406404031E+03  0.17120000000E+03 0.  0.
        998    1    1    2    0    0 -0.39022839157E+01 -0.13519242383E+02  0.13756841026E+04  0.13757924072E+04  0.10000000000E+02 0. -1.
</event>
<event>
 5    1  0.1572996E-008  0.3771971E+03  0.7957747E-01  0.3463455E+00
         13   -1    0    0    0    0  0.00000000000E+00  0.00000000000E+00  0.14999999963E+04  0.15000000000E+04  0.10566000000E+00 0.  1.
        994   -1    0    0    0    0 -0.00000000000E+00 -0.00000000000E+00  0.11368683772E-12  0.17120000000E+03  0.17120000000E+03 0.  0.
         13    1    1    2    0    0  0.33792735270E+02 -0.10105531803E+02  0.10216992326E+03  0.10808688687E+03  0.10566000000E+00 0.  1.
        994    1    1    2    0    0 -0.36939713628E+02  0.77341570067E+01  0.10375960645E+02  0.17561736869E+03  0.17120000000E+03 0.  0.
        998    1    1    2    0    0  0.31469783581E+01  0.23713747966E+01  0.13874541124E+04  0.13874957444E+04  0.10000000000E+02 0.  1.
</event>
<event>
 5    1  0.1572996E-008  0.3854366E+03  0.7957747E-01  0.3427823E+00
         13   -1    0    0    0    0  0.00000000000E+00  0.00000000000E+00  0.14999999963E+04  0.15000000000E+04  0.10566000000E+00 0. -1.
        994   -1    0    0    0    0 -0.00000000000E+00 -0.00000000000E+00  0.11368683772E-12  0.17120000000E+03  0.17120000000E+03 0.  0.
         13    1    1    2    0    0 -0.93368842069E+01 -0.45063655457E+01  0.36987468171E+02  0.38413131906E+02  0.10566000000E+00 0. -1.
        994    1    1    2    0    0  0.10370841215E+02  0.76572270537E+01  0.19595012333E+01  0.17169585644E+03  0.17120000000E+03 0.  0.
        998    1    1    2    0    0 -0.10339570083E+01 -0.31508615080E+01  0.14610530269E+04  0.14610910117E+04  0.10000000000E+02 0. -1.
</event>
<event>
 5    1  0.1572996E-008  0.3729704E+03  0.7957747E-01  0.3482350E+00
         13   -1    0    0    0    0  0.00000000000E+00  0.00000000000E+00  0.14999999963E+04  0.15000000000E+04  0.10566000000E+00 0. -1.
        994   -1    0    0    0    0 -0.00000000000E+00 -0.00000000000E+00  0.11368683772E-12  0.17120000000E+03  0.17120000000E+03 0.  0.
         13    1    1    2    0    0  0.22772006691E+00  0.10649191170E+02  0.37617117302E+01  0.11296847710E+02  0.10566000000E+00 0. -1.
        994    1    1    2    0    0  0.96408408080E+01 -0.77670227830E+01  0.82494281692E+01  0.17184517892E+03  0.17120000000E+03 0.  0.
        998    1    1    2    0    0 -0.98685608749E+01 -0.28821683871E+01  0.14879888564E+04  0.14880579734E+04  0.10000000000E+02 0. -1.
</event>
<event>
 5    1  0.1572996E-008  0.3794983E+03  0.7957747E-01  0.3453346E+00
         13   -1    0    0    0    0  0.00000000000E+00  0.00000000000E+00  0.14999999963E+04  0.15000000000E+04  0.10566000000E+00 0.  1.
        994   -1    0    0    0    0 -0.00000000000E+00 -0.00000000000E+00  0.11368683772E-12  0.17120000000E+03  0.17120000000E+03 0.  0.
         13    1    1    2    0    0  0.64104615265E+01 -0.50549738531E+02  0.72296295523E+02  0.88448491185E+02  0.10566000000E+00 0.  1.
        994    1    1    2    0    0  0.93691332602E+00  0.49302193514E+02  0.24899255671E+02  0.17989162578E+03  0.17120000000E+03 0.  0.
        998    1    1    2    0    0 -0.73473748525E+01  0.12475450171E+01  0.14028044451E+04  0.14028598830E+04  0.10000000000E+02 0.  1.
</event>
<event>
 5    1  0.1572996E-008  0.3776119E+03  0.7957747E-01  0.3461623E+00
         13   -1    0    0    0    0  0.00000000000E+00  0.00000000000E+00  0.14999999963E+04  0.15000000000E+04  0.10566000000E+00 0. -1.
        994   -1    0    0    0    0 -0.00000000000E+00 -0.00000000000E+00  0.11368683772E-12  0.17120000000E+03  0.17120000000E+03 0.  0.
         13    1    1    2    0    0 -0.78628753772E+01 -0.50391378407E+02  0.25866836434E+03  0.26364834477E+03  0.10566000000E+00 0. -1.
        994    1    1    2    0    0  0.39887900628E+02  0.16458087148E+02  0.11643103592E+02  0.17693760231E+03  0.17120000000E+03 0.  0.
        998    1    1    2    0    0 -0.32025025251E+02  0.33933291258E+02  0.12296885283E+04  0.12306140529E+04  0.10000000000E+02 0. -1.
</event>
<event>
 5    1  0.1572996E-008  0.3834683E+03  0.7957747E-01  0.3436194E+00
         13   -1    0    0    0    0  0.00000000000E+00  0.00000000000E+00  0.14999999963E+04  0.15000000000E+04  0.10566000000E+00 0. -1.
        994   -1    0    0    0    0 -0.00000000000E+00 -0.00000000000E+00  0.11368683772E-12  0.17120000000E+03  0.17120000000E+03 0.  0.
         13    1    1    2    0    0  0.78258618961E+01 -0.15740283638E+02  0.55441448284E+02  0.58161550833E+02  0.10566000000E+00 0. -1.
        994    1    1    2    0    0 -0.48402399371E+02  0.22415729391E+02  0.11853682481E+02  0.17970867252E+03  0.17120000000E+03 0.  0.
        998    1    1    2    0    0  0.40576537475E+02 -0.66754457532E+01  0.14327048655E+04  0.14333297767E+04  0.10000000000E+02 0. -1.
</event>
<event>
 5    1  0.1572996E-008  0.3710616E+03  0.7957747E-01  0.3491026E+00
         13   -1    0    0    0    0  0.00000000000E+00  0.00000000000E+00  0.14999999963E+04  0.15000000000E+04  0.10566000000E+00 0. -1.
        994   -1    0    0    0    0 -0.00000000000E+00 -0.00000000000E+00  0.11368683772E-12  0.17120000000E+03  0.17120000000E+03 0.  0.
         13    1    1    2    0    0  0.99026389646E+01  0.40766216411E+01  0.24283455551E+01  0.10981308148E+02  0.10566000000E+00 0. -1.
        994    1    1    2    0    0 -0.17113597216E+02 -0.44866556682E+01  0.97942735851E+01  0.17239017688E+03  0.17120000000E+03 0.  0.
        998    1    1    2    0    0  0.72109582517E+01  0.41003402711E+00  0.14877773771E+04  0.14878285150E+04  0.10000000000E+02 0. -1.
</event>
<event>
 5    1  0.1572996E-008  0.3816384E+03  0.7957747E-01  0.3444056E+00
         13   -1    0    0    0    0  0.00000000000E+00  0.00000000000E+00  0.14999999963E+04  0.15000000000E+04  0.10566000000E+00 0.  1.
        994   -1    0    0    0    0 -0.00000000000E+00 -0.00000000000E+00  0.11368683772E-12  0.17120000000E+03  0.17120000000E+03 0.  0.
         13    1    1    2    0    0  0.61680876929E+01  0.91210734839E+01  0.16924120059E+02  0.20190995297E+02  0.10566000000E+00 0.  1.
        994    1    1    2    0    0 -0.85979133308E+01 -0.47205380689E+01  0.36283386385E+01  0.17151913140E+03  0.17120000000E+03 0.  0.
        998    1    1    2    0    0  0.24298256379E+01 -0.44005354150E+01  0.14794475376E+04  0.14794898733E+04  0.10000000000E+02 0.  1.
</event>
<event>
 5    1  0.1572996E-008  0.3842279E+03  0.7957747E-01  0.3432953E+00
         13   -1    0    0    0    0  0.00000000000E+00  0.00000000000E+00  0.14999999963E+04  0.15000000000E+04  0.10566000000E+00 0. -1.
        994   -1    0    0    0    0 -0.00000000000E+00 -0.00000000000E+00  0.11368683772E-12  0.17120000000E+03  0.17120000000E+03 0.  0.
         13    1    1    2    0    0 -0.20080524877E+02 -0.32815560234E+01  0.10399286946E+03  0.10596473069E+03  0.10566000000E+00 0. -1.
        994    1    1    2    0    0  0.62642135675E+01  0.49223688725E+02  0.10174236940E+02  0.17853617841E+03  0.17120000000E+03 0.  0.
        998    1    1    2    0    0  0.13816311310E+02 -0.45942132702E+02  0.13858328899E+04  0.13866990909E+04  0.10000000000E+02 0. -1.
</event>
<event>
 5    1  0.1572996E-008  0.3797666E+03  0.7957747E-01  0.3452175E+00
         13   -1    0    0    0    0  0.00000000000E+00  0.00000000000E+00  0.14999999963E+04  0.15000000000E+04  0.10566000000E+00 0.  1.
        994   -1    0    0    0    0 -0.00000000000E+00 -0.00000000000E+00  0.11368683772E-12  0.17120000000E+03  0.17120000000E+03 0.  0.
         13    1    1    2    0    0 -0.17062585705E+02 -0.38241215225E+02  0.19648156637E+03  0.20089434900E+03  0.10566000000E+00 0.  1.
        994    1    1    2    0    0  0.90052301412E+01  0.28795577272E+02  0.73023102715E+01  0.17399150317E+03  0.17120000000E+03 0.  0.
        998    1    1    2    0    0  0.80573555635E+01  0.94456379533E+01  0.12962161196E+04  0.12963141478E+04  0.10000000000E+02 0.  1.
</event>
<event>
 5    1  0.1572996E-008  0.3721839E+03  0.7957747E-01  0.3485914E+00
         13   -1    0    0    0    0  0.00000000000E+00  0.00000000000E+00  0.14999999963E+04  0.15000000000E+04  0.10566000000E+00 0.  1.
        994   -1    0    0    0    0 -0.00000000000E+00 -0.00000000000E+00  0.11368683772E-12  0.17120000000E+03  0.17120000000E+03 0.  0.
         13    1    1    2    0    0  0.47015421481E+01 -0.36483370225E+02  0.89989865987E+02  0.97217940453E+02  0.10566000000E+00 0.  1.
        994    1    1    2    0    0  0.18540704322E+01 -0.71569865405E+01  0.83196404733E+01  0.17156140723E+03  0.17120000000E+03 0.  0.
        998    1    1    2    0    0 -0.65556125803E+01  0.43640356765E+02  0.14016904898E+04  0.14024206523E+04  0.10000000000E+02 0.  1.
</event>
<event>
 5    1  0.1572996E-008  0.3808245E+03  0.7957747E-01  0.3447576E+00
         13   -1    0    0    0    0  0.00000000000E+00  0.00000000000E+00  0.14999999963E+04  0.15000000000E+04  0.10566000000E+00 0.  1.
        994   -1    0    0    0    0 -0.00000000000E+00 -0.00000000000E+00  0.11368683772E-12  0.17120000000E+03  0.17120000000E+03 0.  0.
         13    1    1    2    0    0 -0.63595655860E+01 -0.22353783153E+02  0.73657158258E+02  0.77236803549E+02  0.10566000000E+00 0.  1.
        994    1    1    2    0    0  0.60082693895E+01  0.64512847935E+01  0.39766790137E+01  0.17147294933E+03  0.17120000000E+03 0.  0.
        998    1    1    2    0    0  0.35129619651E+00  0.15902498359E+02  0.14223661590E+04  0.14224902471E+04  0.10000000000E+02 0.  1.
</event>
<event>
 5    1  0.1572996E-008  0.3844734E+03  0.7957747E-01  0.3431909E+00
         13   -1    0    0    0    0  0.00000000000E+00  0.00000000000E+00  0.14999999963E+04  0.15000000000E+04  0.10566000000E+00 0.  1.
        994   -1    0    0    0    0 -0.00000000000E+00 -0.00000000000E+00  0.11368683772E-12  0.17120000000E+03  0.17120000000E+03 0.  0.
         13    1    1    2    0    0  0.98827035378E+01  0.11303348922E+02  0.56006532905E+02  0.57984277336E+02  0.10566000000E+00 0.  1.
        994    1    1    2    0    0 -0.11997396502E+02 -0.16690332652E+02  0.32848907059E+01  0.17246082232E+03  0.17120000000E+03 0.  0.
        998    1    1    2    0    0  0.21146929640E+01  0.53869837299E+01  0.14407085727E+04  0.14407549003E+04  0.10000000000E+02 0.  1.
</event>
<event>
 5    1  0.1572996E-008  0.3789483E+03  0.7957747E-01  0.3455751E+00
         13   -1    0    0    0    0  0.00000000000E+00  0.00000000000E+00  0.14999999963E+04  0.15000000000E+04  0.10566000000E+00 0.  1.
        994   -1    0    0    0    0 -0.00000000000E+00 -0.00000000000E+00  0.11368683772E-12  0.17120000000E+03  0.17120000000E+03 0.  0.
         13    1    1    2    0    0 -0.97049617649E+01 -0.11089824506E+02  0.21681103256E+02  0.26215489560E+02  0.10566000000E+00 0.  1.
        994    1    1    2    0    0 -0.20093594735E+01  0.71185524890E+01  0.48485231424E+01  0.17142829256E+03  0.17120000000E+03 0.  0.
        998    1    1    2    0    0  0.11714321238E+02  0.39712720172E+01  0.14734703699E+04  0.14735562179E+04  0.10000000000E+02 0.  1.
</event>
<event>
 5    1  0.1572996E-008  0.3803171E+03  0.7957747E-01  0.3449779E+00
         13   -1    0    0    0    0  0.00000000000E+00  0.00000000000E+00  0.14999999963E+04  0.15000000000E+04  0.10566000000E+00 0. -1.
        994   -1    0    0    0    0 -0.00000000000E+00 -0.00000000000E+00  0.11368683772E-12  0.17120000000E+03  0.17120000000E+03 0.  0.
         13    1    1    2    0    0  0.12230510859E+02 -0.25799418112E+02  0.10116906773E+03  0.10512082001E+03  0.10566000000E+00 0. -1.
        994    1    1    2    0    0  0.60395932334E+01  0.22410428984E+02  0.57741806657E+01  0.17286261937E+03  0.17120000000E+03 0.  0.
        998    1    1    2    0    0 -0.18270104092E+02  0.33889891278E+01  0.13930567479E+04  0.13932165606E+04  0.10000000000E+02 0. -1.
</event>
<event>
 5    1  0.1572996E-008  0.3811476E+03  0.7957747E-01  0.3446177E+00
         13   -1    0    0    0    0  0.00000000000E+00  0.00000000000E+00  0.14999999963E+04  0.15000000000E+04  0.10566000000E+00 0. -1.
        994   -1    0    0    0    0 -0.00000000000E+00 -0.00000000000E+00  0.11368683772E-12  0.17120000000E+03  0.17120000000E+03 0.  0.
         13    1    1    2    0    0  0.39192159134E+01 -0.45826514769E+02  0.26042254572E+03  0.26445291300E+03  0.10566000000E+00 0. -1.
        994    1    1    2    0    0 -0.13272900809E+02  0.39813790851E+02  0.94429829407E+01  0.17652172038E+03  0.17120000000E+03 0.  0.
        998    1    1    2    0    0  0.93536848953E+01  0.60127239179E+01  0.12301344676E+04  0.12302253666E+04  0.10000000000E+02 0. -1.
</event>
<event>
 5    1  0.1572996E-008  0.3828475E+03  0.7957747E-01  0.3438853E+00
         13   -1    0    0    0    0  0.00000000000E+00  0.00000000000E+00  0.14999999963E+04  0.15000000000E+04  0.10566000000E+00 0.  1.
        994   -1    0    0    0    0 -0.00000000000E+00 -0.00000000000E+00  0.11368683772E-12  0.17120000000E+03  0.17120000000E+03 0.  0.
         13    1    1    2    0    0  0.57099201679E+01  0.15310669675E+02  0.50378093897E+02  0.52962093076E+02  0.10566000000E+00 0.  1.
        994    1    1    2    0    0  0.12503422669E+02 -0.75892458485E+01  0.34113867688E+01  0.17185752759E+03  0.17120000000E+03 0.  0.
        998    1    1    2    0    0 -0.18213342837E+02 -0.77214238264E+01  0.14462105156E+04  0.14463803793E+04  0.10000000000E+02 0.  1.
</event>
<event>
 5    1  0.1572996E-008  0.3808435E+03  0.7957747E-01  0.3447494E+00
         13   -1    0    0    0    0  0.00000000000E+00  0.00000000000E+00  0.14999999963E+04  0.15000000000E+04  0.10566000000E+00 0.  1.
        994   -1    0    0    0    0 -0.00000000000E+00 -0.00000000000E+00  0.11368683772E-12  0.17120000000E+03  0.17120000000E+03 0.  0.
         13    1    1    2    0    0  0.21528611559E+02 -0.41818728742E+01  0.60552372354E+02  0.64401631487E+02  0.10566000000E+00 0.  1.
        994    1    1    2    0    0 -0.24796716457E+02  0.55151064231E+01  0.58620827803E+01  0.17317360526E+03  0.17120000000E+03 0.  0.
        998    1    1    2    0    0  0.32681048972E+01 -0.13332335489E+01  0.14335855411E+04  0.14336247632E+04  0.10000000000E+02 0.  1.
</event>
<event>
 5    1  0.1572996E-008  0.3824224E+03  0.7957747E-01  0.3440678E+00
         13   -1    0    0    0    0  0.00000000000E+00  0.00000000000E+00  0.14999999963E+04  0.15000000000E+04  0.10566000000E+00 0. -1.
        994   -1    0    0    0    0 -0.00000000000E+00 -0.00000000000E+00  0.11368683772E-12  0.17120000000E+03  0.17120000000E+03 0.  0.
         13    1    1    2    0    0  0.10197552494E+02  0.56255840132E+01  0.21984806356E+02  0.24879311624E+02  0.10566000000E+00 0. -1.
        994    1    1    2    0    0 -0.98682852312E+01 -0.40887935215E+01  0.32937800998E+01  0.17156453676E+03  0.17120000000E+03 0.  0.
        998    1    1    2    0    0 -0.32926726279E+00 -0.15367904917E+01  0.14747214098E+04  0.14747561516E+04  0.10000000000E+02 0. -1.
</event>
<event>
 5    1  0.1572996E-008  0.3755050E+03  0.7957747E-01  0.3470967E+00
         13   -1    0    0    0    0  0.00000000000E+00  0.00000000000E+00  0.14999999963E+04  0.15000000000E+04  0.10566000000E+00 0.  1.
        994   -1    0    0    0    0 -0.00000000000E+00 -0.00000000000E+00  0.11368683772E-12  0.17120000000E+03  0.17120000000E+03 0.  0.
         13    1    1    2    0    0  0.25008945316E+01 -0.10416575396E+02  0.61897558836E+01  0.12372702145E+02  0.10566000000E+00 0.  1.
        994    1    1    2    0    0 -0.52632524137E+01 -0.77118680831E+01  0.67154963832E+01  0.17158587537E+03  0.17120000000E+03 0.  0.
        998    1    1    2    0    0  0.27623578821E+01  0.18128443479E+02  0.14870947440E+04  0.14872414225E+04  0.10000000000E+02 0.  1.
</event>
<event>
 5    1  0.1572996E-008  0.3847513E+03  0.7957747E-01  0.3430728E+00
         13   -1    0    0    0    0  0.00000000000E+00  0.00000000000E+00  0.14999999963E+04  0.15000000000E+04  0.10566000000E+00 0. -1.
        994   -1    0    0    0    0 -0.00000000000E+00 -0.00000000000E+00  0.11368683772E-12  0.17120000000E+03  0.17120000000E+03 0.  0.
         13    1    1    2    0    0  0.10136021700E+02 -0.10619388794E+02  0.57183603937E+02  0.59038005365E+02  0.10566000000E+00 0. -1.
        994    1    1    2    0    0  0.13526821561E+02  0.45610624610E+02  0.92386792432E+01  0.17792722437E+03  0.17120000000E+03 0.  0.
        998    1    1    2    0    0 -0.23662843262E+02 -0.34991235816E+02  0.14335777131E+04  0.14342347703E+04  0.10000000000E+02 0. -1.
</event>
<event>
 5    1  0.1572996E-008  0.3787767E+03  0.7957747E-01  0.3456502E+00
         13   -1    0    0    0    0  0.00000000000E+00  0.00000000000E+00  0.14999999963E+04  0.15000000000E+04  0.10566000000E+00 0.  1.
        994   -1    0    0    0    0 -0.00000000000E+00 -0.00000000000E+00  0.11368683772E-12  0.17120000000E+03  0.17120000000E+03 0.  0.
         13    1    1    2    0    0  0.76387551077E+01  0.81308959614E+01  0.10900531291E+02  0.15597909963E+02  0.10566000000E+00 0.  1.
        994    1    1    2    0    0 -0.53651755135E+01 -0.10654923326E+02  0.52297541717E+01  0.17169479558E+03  0.17120000000E+03 0.  0.
        998    1    1    2    0    0 -0.22735795942E+01  0.25240273649E+01  0.14838697108E+04  0.14839072945E+04  0.10000000000E+02 0.  1.
</event>
<event>
 5    1  0.1572996E-008  0.3710936E+03  0.7957747E-01  0.3490880E+00
         13   -1    0    0    0    0  0.00000000000E+00  0.00000000000E+00  0.14999999963E+04  0.15000000000E+04  0.10566000000E+00 0.  1.
        994   -1    0    0    0    0 -0.00000000000E+00 -0.00000000000E+00  0.11368683772E-12  0.17120000000E+03  0.17120000000E+03 0.  0.
         13    1    1    2    0    0 -0.38627944444E+02 -0.29636529117E+01  0.86125620542E+02  0.94437995576E+02  0.10566000000E+00 0.  1.
        994    1    1    2    0    0  0.13435211260E+02  0.17335827657E+02  0.10357300659E+02  0.17290965704E+03  0.17120000000E+03 0.  0.
        998    1    1    2    0    0  0.25192733184E+02 -0.14372174745E+02  0.14035170751E+04  0.14038523474E+04  0.10000000000E+02 0.  1.
</event>
<event>
 5    1  0.1572996E-008  0.3720606E+03  0.7957747E-01  0.3486474E+00
         13   -1    0    0    0    0  0.00000000000E+00  0.00000000000E+00  0.14999999963E+04  0.15000000000E+04  0.10566000000E+00 0. -1.
        994   -1    0    0    0    0 -0.00000000000E+00 -0.00000000000E+00  0.11368683772E-12  0.17120000000E+03  0.17120000000E+03 0.  0.
         13    1    1    2    0    0 -0.19925939905E+02 -0.99776176553E+01  0.26219249512E+02  0.34410116887E+02  0.10566000000E+00 0. -1.
        994    1    1    2    0    0  0.24191800274E+02  0.85705719522E+01  0.10460775507E+02  0.17342884918E+03  0.17120000000E+03 0.  0.
        998    1    1    2    0    0 -0.42658603687E+01  0.14070457032E+01  0.14633199713E+04  0.14633610339E+04  0.10000000000E+02 0. -1.
</event>
<event>
 5    1  0.1572996E-008  0.3788438E+03  0.7957747E-01  0.3456208E+00
         13   -1    0    0    0    0  0.00000000000E+00  0.00000000000E+00  0.14999999963E+04  0.15000000000E+04  0.10566000000E+00 0.  1.
        994   -1    0    0    0    0 -0.00000000000E+00 -0.00000000000E+00  0.11368683772E-12  0.17120000000E+03  0.17120000000E+03 0.  0.
         13    1    1    2    0    0 -0.15014475915E+02  0.45999530877E+01  0.23946581286E+02  0.28636409949E+02  0.10566000000E+00 0.  1.
        994    1    1    2    0    0  0.13577906600E+02 -0.48927217122E+01  0.54172079663E+01  0.17189265376E+03  0.17120000000E+03 0.  0.
        998    1    1    2    0    0  0.14365693150E+01  0.29276862449E+00  0.14706362070E+04  0.14706709363E+04  0.10000000000E+02 0.  1.
</event>
<event>
 5    1  0.1572996E-008  0.3778230E+03  0.7957747E-01  0.3460693E+00
         13   -1    0    0    0    0  0.00000000000E+00  0.00000000000E+00  0.14999999963E+04  0.15000000000E+04  0.10566000000E+00 0.  1.
        994   -1    0    0    0    0 -0.00000000000E+00 -0.00000000000E+00  0.11368683772E-12  0.17120000000E+03  0.17120000000E+03 0.  0.
         13    1    1    2    0    0  0.40669715262E+02 -0.78625419566E+02  0.50528735856E+03  0.51298275627E+03  0.10566000000E+00 0.  1.
        994    1    1    2    0    0 -0.46926766042E+02  0.72751782366E+02  0.30903239149E+02  0.19431776398E+03  0.17120000000E+03 0.  0.
        998    1    1    2    0    0  0.62570507801E+01  0.58736372006E+01  0.96380939857E+03  0.96389947975E+03  0.10000000000E+02 0.  0.
</event>
<event>
 5    1  0.1572996E-008  0.3709560E+03  0.7957747E-01  0.3491509E+00
         13   -1    0    0    0    0  0.00000000000E+00  0.00000000000E+00  0.14999999963E+04  0.15000000000E+04  0.10566000000E+00 0.  1.
        994   -1    0    0    0    0 -0.00000000000E+00 -0.00000000000E+00  0.11368683772E-12  0.17120000000E+03  0.17120000000E+03 0.  0.
         13    1    1    2    0    0  0.51052283595E+02 -0.19406872099E+02  0.12496958813E+03  0.13638317883E+03  0.10566000000E+00 0.  1.
        994    1    1    2    0    0 -0.32723143974E+02  0.18628343000E+02  0.16434934140E+02  0.17606068946E+03  0.17120000000E+03 0.  0.
        998    1    1    2    0    0 -0.18329139621E+02  0.77852909942E+00  0.13585954740E+04  0.13587561317E+04  0.10000000000E+02 0.  1.
</event>
<event>
 5    1  0.1572996E-008  0.3854626E+03  0.7957747E-01  0.3427713E+00
         13   -1    0    0    0    0  0.00000000000E+00  0.00000000000E+00  0.14999999963E+04  0.15000000000E+04  0.10566000000E+00 0. -1.
        994   -1    0    0    0    0 -0.00000000000E+00 -0.00000000000E+00  0.11368683772E-12  0.17120000000E+03  0.17120000000E+03 0.  0.
         13    1    1    2    0    0 -0.11057687244E+02  0.89561459850E+01  0.82812628886E+02  0.84026351016E+02  0.10566000000E+00 0. -1.
        994    1    1    2    0    0 -0.57762330752E+01  0.44843040428E+01  0.15762732665E+01  0.17136335223E+03  0.17120000000E+03 0.  0.
        998    1    1    2    0    0  0.16833920320E+02 -0.13440450028E+02  0.14156110941E+04  0.14158102968E+04  0.10000000000E+02 0. -1.
</event>
<event>
 5    1  0.1572996E-008  0.3824249E+03  0.7957747E-01  0.3440668E+00
         13   -1    0    0    0    0  0.00000000000E+00  0.00000000000E+00  0.14999999963E+04  0.15000000000E+04  0.10566000000E+00 0. -1.
        994   -1    0    0    0    0 -0.00000000000E+00 -0.00000000000E+00  0.11368683772E-12  0.17120000000E+03  0.17120000000E+03 0.  0.
         13    1    1    2    0    0 -0.26531550800E+01 -0.17510772568E+02  0.55858438376E+02  0.58598999050E+02  0.10566000000E+00 0. -1.
        994    1    1    2    0    0 -0.17252674074E+02  0.23728729860E+01  0.39205079604E+01  0.17212813736E+03  0.17120000000E+03 0.  0.
        998    1    1    2    0    0  0.19905829154E+02  0.15137899582E+02  0.14402210499E+04  0.14404728636E+04  0.10000000000E+02 0. -1.
</event>
<event>
 5    1  0.1572996E-008  0.3859110E+03  0.7957747E-01  0.3425818E+00
         13   -1    0    0    0    0  0.00000000000E+00  0.00000000000E+00  0.14999999963E+04  0.15000000000E+04  0.10566000000E+00 0.  1.
        994   -1    0    0    0    0 -0.00000000000E+00 -0.00000000000E+00  0.11368683772E-12  0.17120000000E+03  0.17120000000E+03 0.  0.
         13    1    1    2    0    0 -0.78424530274E+01  0.93402139115E+01  0.63535385841E+02  0.64695440979E+02  0.10566000000E+00 0.  1.
        994    1    1    2    0    0  0.29313550378E+00 -0.11092333799E+02  0.15823422413E+01  0.17156651656E+03  0.17120000000E+03 0.  0.
        998    1    1    2    0    0  0.75493175236E+01  0.17521198879E+01  0.14348822682E+04  0.14349380425E+04  0.10000000000E+02 0.  1.
</event>
<event>
 5    1  0.1572996E-008  0.3804493E+03  0.7957747E-01  0.3449204E+00
         13   -1    0    0    0    0  0.00000000000E+00  0.00000000000E+00  0.14999999963E+04  0.15000000000E+04  0.10566000000E+00 0.  1.
        994   -1    0    0    0    0 -0.00000000000E+00 -0.00000000000E+00  0.11368683772E-12  0.17120000000E+03  0.17120000000E+03 0.  0.
         13    1    1    2    0    0 -0.21893396363E+02  0.29166419494E+02  0.17251742800E+03  0.17633001718E+03  0.10566000000E+00 0.  1.
        994    1    1    2    0    0  0.22161954744E+02 -0.65095392952E+01  0.56894328847E+01  0.17284483211E+03  0.17120000000E+03 0.  0.
        998    1    1    2    0    0 -0.26855838140E+00 -0.22656880199E+02  0.13217931354E+04  0.13220251507E+04  0.10000000000E+02 0.  1.
</event>
<event>
 5    1  0.1572996E-008  0.3863516E+03  0.7957747E-01  0.3423960E+00
         13   -1    0    0    0    0  0.00000000000E+00  0.00000000000E+00  0.14999999963E+04  0.15000000000E+04  0.10566000000E+00 0.  1.
        994   -1    0    0    0    0 -0.00000000000E+00 -0.00000000000E+00  0.11368683772E-12  0.17120000000E+03  0.17120000000E+03 0.  0.
         13    1    1    2    0    0 -0.81905756603E+01  0.73471264505E+01  0.64155853820E+02  0.65092630460E+02  0.10566000000E+00 0.  1.
        994    1    1    2    0    0  0.95358352592E+01 -0.52801195075E+00  0.12592671480E+01  0.17147080423E+03  0.17120000000E+03 0.  0.
        998    1    1    2    0    0 -0.13452595989E+01 -0.68191144998E+01  0.14345848753E+04  0.14346365653E+04  0.10000000000E+02 0.  1.
</event>
<event>
 5    1  0.1572996E-008  0.3762383E+03  0.7957747E-01  0.3467703E+00
         13   -1    0    0    0    0  0.00000000000E+00  0.00000000000E+00  0.14999999963E+04  0.15000000000E+04  0.10566000000E+00 0. -1.
        994   -1    0    0    0    0 -0.00000000000E+00 -0.00000000000E+00  0.11368683772E-12  0.17120000000E+03  0.17120000000E+03 0.  0.
         13    1    1    2    0    0 -0.18925094349E+02 -0.38460421559E+02  0.13749294299E+03  0.14401973392E+03  0.10566000000E+00 0. -1.
        994    1    1    2    0    0  0.25123935231E+02  0.34948726272E+02  0.12341291513E+02  0.17695867615E+03  0.17120000000E+03 0.  0.
        998    1    1    2    0    0 -0.61988408823E+01  0.35116952865E+01  0.13501657618E+04  0.13502215899E+04  0.10000000000E+02 0. -1.
</event>
<event>
 5    1  0.1572996E-008  0.3781427E+03  0.7957747E-01  0.3459286E+00
         13   -1    0    0    0    0  0.00000000000E+00  0.00000000000E+00  0.14999999963E+04  0.15000000000E+04  0.10566000000E+00 0. -1.
        994   -1    0    0    0    0 -0.00000000000E+00 -0.00000000000E+00  0.11368683772E-12  0.17120000000E+03  0.17120000000E+03 0.  0.
         13    1    1    2    0    0 -0.70650518055E+02  0.71483680147E+02  0.27195943450E+03  0.28993681623E+03  0.10566000000E+00 0. -1.
        994    1    1    2    0    0  0.95320816958E+02 -0.40399795746E+02  0.54975966807E+02  0.20748493576E+03  0.17120000000E+03 0.  0.
        998    1    1    2    0    0 -0.24670298903E+02 -0.31083884401E+02  0.11730645950E+04  0.11737782480E+04  0.10000000000E+02 0. -1.
</event>
<event>
 5    1  0.1572996E-008  0.3774754E+03  0.7957747E-01  0.3462225E+00
         13   -1    0    0    0    0  0.00000000000E+00  0.00000000000E+00  0.14999999963E+04  0.15000000000E+04  0.10566000000E+00 0.  1.
        994   -1    0    0    0    0 -0.00000000000E+00 -0.00000000000E+00  0.11368683772E-12  0.17120000000E+03  0.17120000000E+03 0.  0.
         13    1    1    2    0    0 -0.12638000606E+02  0.91068951259E+00  0.12356019821E+02  0.17698327734E+02  0.10566000000E+00 0.  1.
        994    1    1    2    0    0  0.11680624943E+02 -0.32168750668E+01  0.59079669237E+01  0.17172981499E+03  0.17120000000E+03 0.  0.
        998    1    1    2    0    0  0.95737566272E+00  0.23061855542E+01  0.14817360095E+04  0.14817718573E+04  0.10000000000E+02 0.  1.
</event>
<event>
 5    1  0.1572996E-008  0.3859795E+03  0.7957747E-01  0.3425529E+00
         13   -1    0    0    0    0  0.00000000000E+00  0.00000000000E+00  0.14999999963E+04  0.15000000000E+04  0.10566000000E+00 0. -1.
        994   -1    0    0    0    0 -0.00000000000E+00 -0.00000000000E+00  0.11368683772E-12  0.17120000000E+03  0.17120000000E+03 0.  0.
         13    1    1    2    0    0 -0.18108858793E+01  0.12478767672E+02  0.69686152634E+02  0.70817864859E+02  0.10566000000E+00 0. -1.
        994    1    1    2    0    0  0.23786155265E+01 -0.91376420245E+01  0.14369233814E+01  0.17146620385E+03  0.17120000000E+03 0.  0.
        998    1    1    2    0    0 -0.56772964723E+00 -0.33411256480E+01  0.14288769203E+04  0.14289159313E+04  0.10000000000E+02 0. -1.
</event>
<event>
 5    1  0.1572996E-008  0.3702839E+03  0.7957747E-01  0.3494587E+00
         13   -1    0    0    0    0  0.00000000000E+00  0.00000000000E+00  0.14999999963E+04  0.15000000000E+04  0.10566000000E+00 0. -1.
        994   -1    0    0    0    0 -0.00000000000E+00 -0.00000000000E+00  0.11368683772E-12  0.17120000000E+03  0.17120000000E+03 0.  0.
         13    1    1    2    0    0 -0.54791293335E+01  0.12685570477E+02  0.35753192973E+01  0.14273704098E+02  0.10566000000E+00 0. -1.
        994    1    1    2    0    0  0.55808965113E+01 -0.51750166896E+01  0.11291749780E+02  0.17174070809E+03  0.17120000000E+03 0.  0.
        998    1    1    2    0    0 -0.10176717773E+00 -0.75105537871E+01  0.14851329272E+04  0.14851855878E+04  0.10000000000E+02 0. -1.
</event>
<event>
 5    1  0.1572996E-008  0.3838643E+03  0.7957747E-01  0.3434503E+00
         13   -1    0    0    0    0  0.00000000000E+00  0.00000000000E+00  0.14999999963E+04  0.15000000000E+04  0.10566000000E+00 0.  1.
        994   -1    0    0    0    0 -0.00000000000E+00 -0.00000000000E+00  0.11368683772E-12  0.17120000000E+03  0.17120000000E+03 0.  0.
         13    1    1    2    0    0 -0.11643640308E+02  0.91856485419E+01  0.47596886222E+02  0.49854039363E+02  0.10566000000E+00 0.  1.
        994    1    1    2    0    0  0.14978773169E+02 -0.10801770015E+02  0.33215789155E+01  0.17222518622E+03  0.17120000000E+03 0.  0.
        998    1    1    2    0    0 -0.33351328618E+01  0.16161214729E+01  0.14490815311E+04  0.14491207744E+04  0.10000000000E+02 0.  1.
</event>
<event>
 5    1  0.1572996E-008  0.3830030E+03  0.7957747E-01  0.3438186E+00
         13   -1    0    0    0    0  0.00000000000E+00  0.00000000000E+00  0.14999999963E+04  0.15000000000E+04  0.10566000000E+00 0.  1.
        994   -1    0    0    0    0 -0.00000000000E+00 -0.00000000000E+00  0.11368683772E-12  0.17120000000E+03  0.17120000000E+03 0.  0.
         13    1    1    2    0    0 -0.16149755795E+02 -0.13701039659E+02  0.82333795464E+02  0.85014105533E+02  0.10566000000E+00 0.  1.
        994    1    1    2    0    0  0.21684165895E+02  0.29621040958E+01  0.42119065477E+01  0.17264459814E+03  0.17120000000E+03 0.  0.
        998    1    1    2    0    0 -0.55344100994E+01  0.10738935563E+02  0.14134542943E+04  0.14135412963E+04  0.10000000000E+02 0.  1.
</event>
<event>
 5    1  0.1572996E-008  0.3751406E+03  0.7957747E-01  0.3472594E+00
         13   -1    0    0    0    0  0.00000000000E+00  0.00000000000E+00  0.14999999963E+04  0.15000000000E+04  0.10566000000E+00 0. -1.
        994   -1    0    0    0    0 -0.00000000000E+00 -0.00000000000E+00  0.11368683772E-12  0.17120000000E+03  0.17120000000E+03 0.  0.
         13    1    1    2    0    0 -0.22590770414E+02  0.77714220494E+01  0.39904041524E+02  0.46508941103E+02  0.10566000000E+00 0. -1.
        994    1    1    2    0    0  0.20220186059E+02 -0.75249720457E+01  0.81896356991E+01  0.17274834662E+03  0.17120000000E+03 0.  0.
        998    1    1    2    0    0  0.23705843551E+01 -0.24645000365E+00  0.14519063191E+04  0.14519427123E+04  0.10000000000E+02 0. -1.
</event>
<event>
 5    1  0.1572996E-008  0.3823937E+03  0.7957747E-01  0.3440802E+00
         13   -1    0    0    0    0  0.00000000000E+00  0.00000000000E+00  0.14999999963E+04  0.15000000000E+04  0.10566000000E+00 0.  1.
        994   -1    0    0    0    0 -0.00000000000E+00 -0.00000000000E+00  0.11368683772E-12  0.17120000000E+03  0.17120000000E+03 0.  0.
         13    1    1    2    0    0  0.29270133254E+01  0.11716614509E+02  0.23337935158E+02  0.26277687190E+02  0.10566000000E+00 0.  1.
        994    1    1    2    0    0 -0.31384162510E+01 -0.14111074929E+02  0.36230814790E+01  0.17184742888E+03  0.17120000000E+03 0.  0.
        998    1    1    2    0    0  0.21140292555E+00  0.23944604195E+01  0.14730389796E+04  0.14730748839E+04  0.10000000000E+02 0.  1.
</event>
<event>
 5    1  0.1572996E-008  0.3762004E+03  0.7957747E-01  0.3467872E+00
         13   -1    0    0    0    0  0.00000000000E+00  0.00000000000E+00  0.14999999963E+04  0.15000000000E+04  0.10566000000E+00 0. -1.
        994   -1    0    0    0    0 -0.00000000000E+00 -0.00000000000E+00  0.11368683772E-12  0.17120000000E+03  0.17120000000E+03 0.  0.
         13    1    1    2    0    0  0.22868846182E+02 -0.33914225270E+02  0.13485158894E+03  0.14091884546E+03  0.10566000000E+00 0. -1.
        994    1    1    2    0    0 -0.10445803658E+02  0.24123504643E+02  0.84067146859E+01  0.17341041244E+03  0.17120000000E+03 0.  0.
        998    1    1    2    0    0 -0.12423042524E+02  0.97907206275E+01  0.13567416926E+04  0.13568707421E+04  0.10000000000E+02 0. -1.
</event>
<event>
 5    1  0.1572996E-008  0.3747060E+03  0.7957747E-01  0.3474539E+00
         13   -1    0    0    0    0  0.00000000000E+00  0.00000000000E+00  0.14999999963E+04  0.15000000000E+04  0.10566000000E+00 0.  1.
        994   -1    0    0    0    0 -0.00000000000E+00 -0.00000000000E+00  0.11368683772E-12  0.17120000000E+03  0.17120000000E+03 0.  0.
         13    1    1    2    0    0 -0.53832732480E+02  0.13511901297E+02  0.18645582452E+03  0.19454130725E+03  0.10566000000E+00 0.  1.
        994    1    1    2    0    0  0.63714574043E+02 -0.10968795700E+02  0.21187741231E+02  0.18422329332E+03  0.17120000000E+03 0.  0.
        998    1    1    2    0    0 -0.98818415622E+01 -0.25431055970E+01  0.12923564305E+04  0.12924353994E+04  0.10000000000E+02 0.  1.
</event>
<event>
 5    1  0.1572996E-008  0.3796717E+03  0.7957747E-01  0.3452589E+00
         13   -1    0    0    0    0  0.00000000000E+00  0.00000000000E+00  0.14999999963E+04  0.15000000000E+04  0.10566000000E+00 0. -1.
        994   -1    0    0    0    0 -0.00000000000E+00 -0.00000000000E+00  0.11368683772E-12  0.17120000000E+03  0.17120000000E+03 0.  0.
         13    1    1    2    0    0  0.12072735386E+02 -0.23021048609E+02  0.89665540103E+02  0.93357591361E+02  0.10566000000E+00 0. -1.
        994    1    1    2    0    0 -0.33586224849E+02 -0.32662172773E+02  0.11679398885E+02  0.17787833029E+03  0.17120000000E+03 0.  0.
        998    1    1    2    0    0  0.21513489463E+02  0.55683221382E+02  0.13986550573E+04  0.13999640783E+04  0.10000000000E+02 0. -1.
</event>
<event>
 5    1  0.1572996E-008  0.3818088E+03  0.7957747E-01  0.3443320E+00
         13   -1    0    0    0    0  0.00000000000E+00  0.00000000000E+00  0.14999999963E+04  0.15000000000E+04  0.10566000000E+00 0.  1.
        994   -1    0    0    0    0 -0.00000000000E+00 -0.00000000000E+00  0.11368683772E-12  0.17120000000E+03  0.17120000000E+03 0.  0.
         13    1    1    2    0    0 -0.14947707364E+02 -0.61406864658E+01  0.37420093394E+02  0.40760477664E+02  0.10566000000E+00 0.  1.
        994    1    1    2    0    0  0.25353683575E+02  0.31263537061E+01  0.53944178537E+01  0.17317945346E+03  0.17120000000E+03 0.  0.
        998    1    1    2    0    0 -0.10405976211E+02  0.30143327598E+01  0.14571854850E+04  0.14572600689E+04  0.10000000000E+02 0.  1.
</event>
<event>
 5    1  0.1572996E-008  0.3853432E+03  0.7957747E-01  0.3428218E+00
         13   -1    0    0    0    0  0.00000000000E+00  0.00000000000E+00  0.14999999963E+04  0.15000000000E+04  0.10566000000E+00 0. -1.
        994   -1    0    0    0    0 -0.00000000000E+00 -0.00000000000E+00  0.11368683772E-12  0.17120000000E+03  0.17120000000E+03 0.  0.
         13    1    1    2    0    0  0.15081435364E+02  0.56456625115E+01  0.96966335162E+02  0.98294478567E+02  0.10566000000E+00 0. -1.
        994    1    1    2    0    0  0.41504370979E+01 -0.12657422462E+02  0.20429483624E+01  0.17172958426E+03  0.17120000000E+03 0.  0.
        998    1    1    2    0    0 -0.19231872462E+02  0.70117599508E+01  0.14009907128E+04  0.14011759372E+04  0.10000000000E+02 0. -1.
</event>
<event>
 5    1  0.1572996E-008  0.3786940E+03  0.7957747E-01  0.3456865E+00
         13   -1    0    0    0    0  0.00000000000E+00  0.00000000000E+00  0.14999999963E+04  0.15000000000E+04  0.10566000000E+00 0. -1.
        994   -1    0    0    0    0 -0.00000000000E+00 -0.00000000000E+00  0.11368683772E-12  0.17120000000E+03  0.17120000000E+03 0.  0.
         13    1    1    2    0    0  0.32080475328E+01  0.18612285472E+02  0.34862909152E+02  0.39650250163E+02  0.10566000000E+00 0. -1.
        994    1    1    2    0    0 -0.35619428249E+01 -0.16371610175E+02  0.57368957933E+01  0.17211353529E+03  0.17120000000E+03 0.  0.
        998    1    1    2    0    0  0.35389529212E+00 -0.22406752976E+01  0.14594001913E+04  0.14594362145E+04  0.10000000000E+02 0. -1.
</event>
<event>
 5    1  0.1572996E-008  0.3820162E+03  0.7957747E-01  0.3442426E+00
         13   -1    0    0    0    0  0.00000000000E+00  0.00000000000E+00  0.14999999963E+04  0.15000000000E+04  0.10566000000E+00 0.  1.
        994   -1    0    0    0    0 -0.00000000000E+00 -0.00000000000E+00  0.11368683772E-12  0.17120000000E+03  0.17120000000E+03 0.  0.
         13    1    1    2    0    0  0.22260032998E+02  0.15247526755E+02  0.11115479666E+03  0.11438267407E+03  0.10566000000E+00 0.  1.
        994    1    1    2    0    0 -0.14546229161E+02 -0.19500673003E+02  0.50867952197E+01  0.17299475286E+03  0.17120000000E+03 0.  0.
        998    1    1    2    0    0 -0.77138038368E+01  0.42531462478E+01  0.13837584044E+04  0.13838225731E+04  0.10000000000E+02 0.  1.
</event>
<event>
 5    1  0.1572996E-008  0.3819951E+03  0.7957747E-01  0.3442517E+00
         13   -1    0    0    0    0  0.00000000000E+00  0.00000000000E+00  0.14999999963E+04  0.15000000000E+04  0.10566000000E+00 0. -1.
        994   -1    0    0    0    0 -0.00000000000E+00 -0.00000000000E+00  0.11368683772E-12  0.17120000000E+03  0.17120000000E+03 0.  0.
         13    1    1    2    0    0 -0.11795136232E+02  0.21016267276E+02  0.86768791022E+02  0.90053556223E+02  0.10566000000E+00 0. -1.
        994    1    1    2    0    0  0.12343560240E+02 -0.22217080896E+02  0.52776293368E+01  0.17315673690E+03  0.17120000000E+03 0.  0.
        998    1    1    2    0    0 -0.54842400817E+00  0.12008136198E+01  0.14079535759E+04  0.14079897069E+04  0.10000000000E+02 0. -1.
</event>
<event>
 5    1  0.1572996E-008  0.3823961E+03  0.7957747E-01  0.3440791E+00
         13   -1    0    0    0    0  0.00000000000E+00  0.00000000000E+00  0.14999999963E+04  0.15000000000E+04  0.10566000000E+00 0. -1.
        994   -1    0    0    0    0 -0.00000000000E+00 -0.00000000000E+00  0.11368683772E-12  0.17120000000E+03  0.17120000000E+03 0.  0.
         13    1    1    2    0    0  0.69054945797E+01  0.10810032791E+02  0.26247194065E+02  0.29214192179E+02  0.10566000000E+00 0. -1.
        994    1    1    2    0    0 -0.75440585999E+01 -0.16070368274E+02  0.39744570206E+01  0.17216389245E+03  0.17120000000E+03 0.  0.
        998    1    1    2    0    0  0.63856402022E+00  0.52603354833E+01  0.14697783452E+04  0.14698219154E+04  0.10000000000E+02 0. -1.
</event>
<event>
 5    1  0.1572996E-008  0.3808778E+03  0.7957747E-01  0.3447345E+00
         13   -1    0    0    0    0  0.00000000000E+00  0.00000000000E+00  0.14999999963E+04  0.15000000000E+04  0.10566000000E+00 0.  1.
        994   -1    0    0    0    0 -0.00000000000E+00 -0.00000000000E+00  0.11368683772E-12  0.17120000000E+03  0.17120000000E+03 0.  0.
         13    1    1    2    0    0  0.43963326886E+01  0.12235793679E+02  0.21085715587E+02  0.24772181048E+02  0.10566000000E+00 0.  1.
        994    1    1    2    0    0 -0.65212539729E+01 -0.12868998013E+02  0.43847856559E+01  0.17186274817E+03  0.17120000000E+03 0.  0.
        998    1    1    2    0    0  0.21249212843E+01  0.63320433446E+00  0.14745294950E+04  0.14745650708E+04  0.10000000000E+02 0.  1.
</event>
<event>
 5    1  0.1572996E-008  0.3853431E+03  0.7957747E-01  0.3428218E+00
         13   -1    0    0    0    0  0.00000000000E+00  0.00000000000E+00  0.14999999963E+04  0.15000000000E+04  0.10566000000E+00 0. -1.
        994   -1    0    0    0    0 -0.00000000000E+00 -0.00000000000E+00  0.11368683772E-12  0.17120000000E+03  0.17120000000E+03 0.  0.
         13    1    1    2    0    0 -0.67854163362E+01  0.11339850194E+02  0.58498760723E+02  0.59972912615E+02  0.10566000000E+00 0. -1.
        994    1    1    2    0    0  0.17811289260E+02 -0.45109033011E+01  0.25696443668E+01  0.17220230354E+03  0.17120000000E+03 0.  0.
        998    1    1    2    0    0 -0.11025872924E+02 -0.68289468929E+01  0.14389315912E+04  0.14390247838E+04  0.10000000000E+02 0. -1.
</event>
<event>
 5    1  0.1572996E-008  0.3821673E+03  0.7957747E-01  0.3441776E+00
         13   -1    0    0    0    0  0.00000000000E+00  0.00000000000E+00  0.14999999963E+04  0.15000000000E+04  0.10566000000E+00 0.  1.
        994   -1    0    0    0    0 -0.00000000000E+00 -0.00000000000E+00  0.11368683772E-12  0.17120000000E+03  0.17120000000E+03 0.  0.
         13    1    1    2    0    0  0.11765041126E+02  0.19725906185E+02  0.84728882197E+02  0.87786799748E+02  0.10566000000E+00 0.  1.
        994    1    1    2    0    0 -0.13235173262E+02 -0.11312484968E+02  0.40499055008E+01  0.17213071737E+03  0.17120000000E+03 0.  0.
        998    1    1    2    0    0  0.14701321364E+01 -0.84134212173E+01  0.14112212086E+04  0.14112824829E+04  0.10000000000E+02 0.  1.
</event>
<event>
 5    1  0.1572996E-008  0.3835234E+03  0.7957747E-01  0.3435959E+00
         13   -1    0    0    0    0  0.00000000000E+00  0.00000000000E+00  0.14999999963E+04  0.15000000000E+04  0.10566000000E+00 0.  1.
        994   -1    0    0    0    0 -0.00000000000E+00 -0.00000000000E+00  0.11368683772E-12  0.17120000000E+03  0.17120000000E+03 0.  0.
         13    1    1    2    0    0 -0.97727096781E+01 -0.15613806050E+02  0.71232780699E+02  0.73575926796E+02  0.10566000000E+00 0.  1.
        994    1    1    2    0    0  0.19327631121E+02  0.18786039928E+01  0.36120805164E+01  0.17233564229E+03  0.17120000000E+03 0.  0.
        998    1    1    2    0    0 -0.95549214432E+01  0.13735202058E+02  0.14251551351E+04  0.14252884309E+04  0.10000000000E+02 0.  1.
</event>
<event>
 5    1  0.2285486E-008  0.3856928E+03  0.7957747E-01  0.3426739E+00
         13   -1    0    0    0    0  0.00000000000E+00  0.00000000000E+00  0.14999999963E+04  0.15000000000E+04  0.10566000000E+00 0.  1.
        994   -1    0    0    0    0 -0.00000000000E+00 -0.00000000000E+00  0.11368683772E-12  0.17120000000E+03  0.17120000000E+03 0.  0.
         13    1    1    2    0    0 -0.23200004603E+01 -0.99653242513E+01  0.39788644693E+02  0.41083299528E+02  0.10566000000E+00 0.  1.
        994    1    1    2    0    0  0.20013210406E+01  0.11835006409E+02  0.17594426257E+01  0.17162927577E+03  0.17120000000E+03 0.  0.
        998    1    1    2    0    0  0.31867941965E+00 -0.18696821578E+01  0.14584519090E+04  0.14584874247E+04  0.10000000000E+02 0.  1.
</event>
<event>
 5    1  0.1572996E-008  0.3840498E+03  0.7957747E-01  0.3433712E+00
         13   -1    0    0    0    0  0.00000000000E+00  0.00000000000E+00  0.14999999963E+04  0.15000000000E+04  0.10566000000E+00 0.  1.
        994   -1    0    0    0    0 -0.00000000000E+00 -0.00000000000E+00  0.11368683772E-12  0.17120000000E+03  0.17120000000E+03 0.  0.
         13    1    1    2    0    0  0.88400638834E+01  0.11107822004E+02  0.48020927535E+02  0.50075453912E+02  0.10566000000E+00 0.  1.
        994    1    1    2    0    0 -0.12907937830E+02  0.11432198525E+01  0.26567862417E+01  0.17171028019E+03  0.17120000000E+03 0.  0.
        998    1    1    2    0    0  0.40678739464E+01 -0.12251041856E+02  0.14493222825E+04  0.14494142659E+04  0.10000000000E+02 0.  1.
</event>
<event>
 5    1  0.1572996E-008  0.3789164E+03  0.7957747E-01  0.3455890E+00
         13   -1    0    0    0    0  0.00000000000E+00  0.00000000000E+00  0.14999999963E+04  0.15000000000E+04  0.10566000000E+00 0. -1.
        994   -1    0    0    0    0 -0.00000000000E+00 -0.00000000000E+00  0.11368683772E-12  0.17120000000E+03  0.17120000000E+03 0.  0.
         13    1    1    2    0    0  0.86593266208E+01  0.31408165355E+02  0.11125202685E+03  0.11592446433E+03  0.10566000000E+00 0. -1.
        994    1    1    2    0    0 -0.11998284869E+02 -0.17976915033E+02  0.62499008149E+01  0.17267202893E+03  0.17120000000E+03 0.  0.
        998    1    1    2    0    0  0.33389582485E+01 -0.13431250322E+02  0.13824980686E+04  0.13826035067E+04  0.10000000000E+02 0. -1.
</event>
<event>
 5    1  0.1572996E-008  0.3789252E+03  0.7957747E-01  0.3455852E+00
         13   -1    0    0    0    0  0.00000000000E+00  0.00000000000E+00  0.14999999963E+04  0.15000000000E+04  0.10566000000E+00 0.  1.
        994   -1    0    0    0    0 -0.00000000000E+00 -0.00000000000E+00  0.11368683772E-12  0.17120000000E+03  0.17120000000E+03 0.  0.
         13    1    1    2    0    0 -0.11733713265E+02 -0.17653684572E+01  0.13030351027E+02  0.17623784063E+02  0.10566000000E+00 0.  1.
        994    1    1    2    0    0  0.70074801794E+01  0.49691618614E+01  0.49242743595E+01  0.17148610972E+03  0.17120000000E+03 0.  0.
        998    1    1    2    0    0  0.47262330854E+01 -0.32037934042E+01  0.14820453709E+04  0.14820901062E+04  0.10000000000E+02 0.  1.
</event>
<event>
 5    1  0.1572996E-008  0.3848986E+03  0.7957747E-01  0.3430102E+00
         13   -1    0    0    0    0  0.00000000000E+00  0.00000000000E+00  0.14999999963E+04  0.15000000000E+04  0.10566000000E+00 0. -1.
        994   -1    0    0    0    0 -0.00000000000E+00 -0.00000000000E+00  0.11368683772E-12  0.17120000000E+03  0.17120000000E+03 0.  0.
         13    1    1    2    0    0  0.83156717918E+01  0.11169710969E+02  0.58919481836E+02  0.60542789367E+02  0.10566000000E+00 0. -1.
        994    1    1    2    0    0 -0.56841302640E+01 -0.26704760585E+01  0.18102575733E+01  0.17132471454E+03  0.17120000000E+03 0.  0.
        998    1    1    2    0    0 -0.26315415278E+01 -0.84992349100E+01  0.14392702569E+04  0.14393324961E+04  0.10000000000E+02 0. -1.
</event>
<event>
 5    1  0.1572996E-008  0.3702652E+03  0.7957747E-01  0.3494673E+00
         13   -1    0    0    0    0  0.00000000000E+00  0.00000000000E+00  0.14999999963E+04  0.15000000000E+04  0.10566000000E+00 0.  1.
        994   -1    0    0    0    0 -0.00000000000E+00 -0.00000000000E+00  0.11368683772E-12  0.17120000000E+03  0.17120000000E+03 0.  0.
         13    1    1    2    0    0  0.26015564392E+02 -0.70133694388E+02  0.33120410017E+03  0.33954633235E+03  0.10566000000E+00 0.  1.
        994    1    1    2    0    0 -0.14902816032E+02  0.27327368927E+02  0.12484844730E+02  0.17445397779E+03  0.17120000000E+03 0.  0.
        998    1    1    2    0    0 -0.11112748360E+02  0.42806325461E+02  0.11563110514E+04  0.11571996899E+04  0.10000000000E+02 0.  1.
</event>
<event>
 5    1  0.1572996E-008  0.3750260E+03  0.7957747E-01  0.3473106E+00
         13   -1    0    0    0    0  0.00000000000E+00  0.00000000000E+00  0.14999999963E+04  0.15000000000E+04  0.10566000000E+00 0.  1.
        994   -1    0    0    0    0 -0.00000000000E+00 -0.00000000000E+00  0.11368683772E-12  0.17120000000E+03  0.17120000000E+03 0.  0.
         13    1    1    2    0    0 -0.43981993313E+01 -0.37479001438E+02  0.12382356791E+03  0.12944615421E+03  0.10566000000E+00 0.  1.
        994    1    1    2    0    0 -0.17366015439E+02 -0.10717820001E+02  0.80821100045E+01  0.17260130550E+03  0.17120000000E+03 0.  0.
        998    1    1    2    0    0  0.21764214770E+02  0.48196821439E+02  0.13680943184E+04  0.13691525403E+04  0.10000000000E+02 0.  1.
</event>
<event>
 5    1  0.1572996E-008  0.3835459E+03  0.7957747E-01  0.3435863E+00
         13   -1    0    0    0    0  0.00000000000E+00  0.00000000000E+00  0.14999999963E+04  0.15000000000E+04  0.10566000000E+00 0.  1.
        994   -1    0    0    0    0 -0.00000000000E+00 -0.00000000000E+00  0.11368683772E-12  0.17120000000E+03  0.17120000000E+03 0.  0.
         13    1    1    2    0    0 -0.12784477770E+02 -0.41272736364E+01  0.34065663891E+02  0.36619091740E+02  0.10566000000E+00 0.  1.
        994    1    1    2    0    0  0.40065782332E+02 -0.11930994240E+02  0.81498609000E+01  0.17641846777E+03  0.17120000000E+03 0.  0.
        998    1    1    2    0    0 -0.27281304562E+02  0.16058267876E+02  0.14577844715E+04  0.14581624405E+04  0.10000000000E+02 0.  1.
</event>
<event>
 5    1  0.1572996E-008  0.3753849E+03  0.7957747E-01  0.3471503E+00
         13   -1    0    0    0    0  0.00000000000E+00  0.00000000000E+00  0.14999999963E+04  0.15000000000E+04  0.10566000000E+00 0. -1.
        994   -1    0    0    0    0 -0.00000000000E+00 -0.00000000000E+00  0.11368683772E-12  0.17120000000E+03  0.17120000000E+03 0.  0.
         13    1    1    2    0    0  0.11161134539E+02 -0.13904072660E+02  0.50736700115E+01  0.18537730502E+02  0.10566000000E+00 0. -1.
        994    1    1    2    0    0 -0.57891857996E+01  0.29572405565E+02  0.17057343951E+02  0.17466663913E+03  0.17120000000E+03 0.  0.
        998    1    1    2    0    0 -0.53719487397E+01 -0.15668332905E+02  0.14778689823E+04  0.14779956304E+04  0.10000000000E+02 0. -1.
</event>
<event>
 5    1  0.1572996E-008  0.3719452E+03  0.7957747E-01  0.3486999E+00
         13   -1    0    0    0    0  0.00000000000E+00  0.00000000000E+00  0.14999999963E+04  0.15000000000E+04  0.10566000000E+00 0. -1.
        994   -1    0    0    0    0 -0.00000000000E+00 -0.00000000000E+00  0.11368683772E-12  0.17120000000E+03  0.17120000000E+03 0.  0.
         13    1    1    2    0    0 -0.27683258366E+02 -0.49270541580E+02  0.12133411642E+03  0.13385039422E+03  0.10566000000E+00 0. -1.
        994    1    1    2    0    0  0.38293898176E+02  0.38874795995E+02  0.22527259001E+02  0.18109276573E+03  0.17120000000E+03 0.  0.
        998    1    1    2    0    0 -0.10610639810E+02  0.10395745585E+02  0.13561386209E+04  0.13562568401E+04  0.10000000000E+02 0. -1.
</event>
<event>
 5    1  0.1572996E-008  0.3851254E+03  0.7957747E-01  0.3429141E+00
         13   -1    0    0    0    0  0.00000000000E+00  0.00000000000E+00  0.14999999963E+04  0.15000000000E+04  0.10566000000E+00 0. -1.
        994   -1    0    0    0    0 -0.00000000000E+00 -0.00000000000E+00  0.11368683772E-12  0.17120000000E+03  0.17120000000E+03 0.  0.
         13    1    1    2    0    0  0.13007547369E+02  0.50668041897E+01  0.69055192796E+02  0.70452108623E+02  0.10566000000E+00 0. -1.
        994    1    1    2    0    0  0.56147331636E+01  0.25595111409E+01  0.16930839526E+01  0.17131953438E+03  0.17120000000E+03 0.  0.
        998    1    1    2    0    0 -0.18622280533E+02 -0.76263153306E+01  0.14292517195E+04  0.14294283570E+04  0.10000000000E+02 0. -1.
</event>
<event>
 5    1  0.1572996E-008  0.3858037E+03  0.7957747E-01  0.3426271E+00
         13   -1    0    0    0    0  0.00000000000E+00  0.00000000000E+00  0.14999999963E+04  0.15000000000E+04  0.10566000000E+00 0. -1.
        994   -1    0    0    0    0 -0.00000000000E+00 -0.00000000000E+00  0.11368683772E-12  0.17120000000E+03  0.17120000000E+03 0.  0.
         13    1    1    2    0    0 -0.34651767770E+01 -0.14007044807E+02  0.84122125060E+02  0.85350734285E+02  0.10566000000E+00 0. -1.
        994    1    1    2    0    0  0.28374333123E+01  0.10656037424E+02  0.16305967939E+01  0.17156252798E+03  0.17120000000E+03 0.  0.
        998    1    1    2    0    0  0.62774346478E+00  0.33510073829E+01  0.14142472744E+04  0.14142867377E+04  0.10000000000E+02 0. -1.
</event>
<event>
 5    1  0.1572996E-008  0.3705207E+03  0.7957747E-01  0.3493501E+00
         13   -1    0    0    0    0  0.00000000000E+00  0.00000000000E+00  0.14999999963E+04  0.15000000000E+04  0.10566000000E+00 0.  1.
        994   -1    0    0    0    0 -0.00000000000E+00 -0.00000000000E+00  0.11368683772E-12  0.17120000000E+03  0.17120000000E+03 0.  0.
         13    1    1    2    0    0  0.32207154221E+02  0.44288012063E+02  0.20074462963E+03  0.20807966332E+03  0.10566000000E+00 0.  1.
        994    1    1    2    0    0  0.14738067081E+01  0.54728753536E+01  0.91080351584E+01  0.17153577112E+03  0.17120000000E+03 0.  0.
        998    1    1    2    0    0 -0.33680960929E+02 -0.49760887416E+02  0.12901473315E+04  0.12915845656E+04  0.10000000000E+02 0.  1.
</event>
<event>
 5    1  0.1572996E-008  0.3801576E+03  0.7957747E-01  0.3450473E+00
         13   -1    0    0    0    0  0.00000000000E+00  0.00000000000E+00  0.14999999963E+04  0.15000000000E+04  0.10566000000E+00 0.  1.
        994   -1    0    0    0    0 -0.00000000000E+00 -0.00000000000E+00  0.11368683772E-12  0.17120000000E+03  0.17120000000E+03 0.  0.
         13    1    1    2    0    0  0.14397129422E+02  0.26768210306E+02  0.11869950248E+03  0.12252916988E+03  0.10566000000E+00 0.  1.
        994    1    1    2    0    0  0.40549728424E+01 -0.12436515902E+02  0.46255255351E+01  0.17176130303E+03  0.17120000000E+03 0.  0.
        998    1    1    2    0    0 -0.18452102264E+02 -0.14331694404E+02  0.13766749683E+04  0.13769095271E+04  0.10000000000E+02 0.  1.
</event>
<event>
 5    1  0.1572996E-008  0.3842750E+03  0.7957747E-01  0.3432753E+00
         13   -1    0    0    0    0  0.00000000000E+00  0.00000000000E+00  0.14999999963E+04  0.15000000000E+04  0.10566000000E+00 0. -1.
        994   -1    0    0    0    0 -0.00000000000E+00 -0.00000000000E+00  0.11368683772E-12  0.17120000000E+03  0.17120000000E+03 0.  0.
         13    1    1    2    0    0  0.33270575072E+01 -0.11832831397E+02  0.36497374327E+02  0.38511747653E+02  0.10566000000E+00 0. -1.
        994    1    1    2    0    0  0.40971970297E+00  0.15224067724E+02  0.27554603242E+01  0.17189814621E+03  0.17120000000E+03 0.  0.
        998    1    1    2    0    0 -0.37367772101E+01 -0.33912363272E+01  0.14607471616E+04  0.14607901061E+04  0.10000000000E+02 0. -1.
</event>
<event>
 5    1  0.1572996E-008  0.3817103E+03  0.7957747E-01  0.3443745E+00
         13   -1    0    0    0    0  0.00000000000E+00  0.00000000000E+00  0.14999999963E+04  0.15000000000E+04  0.10566000000E+00 0. -1.
        994   -1    0    0    0    0 -0.00000000000E+00 -0.00000000000E+00  0.11368683772E-12  0.17120000000E+03  0.17120000000E+03 0.  0.
         13    1    1    2    0    0 -0.18251107810E+02  0.14768835753E+02  0.93313037071E+02  0.96221387941E+02  0.10566000000E+00 0. -1.
        994    1    1    2    0    0 -0.44119402459E+01  0.40590000658E+01  0.33917523328E+01  0.17133850905E+03  0.17120000000E+03 0.  0.
        998    1    1    2    0    0  0.22663048056E+02 -0.18827835819E+02  0.14032952069E+04  0.14036401030E+04  0.10000000000E+02 0. -1.
</event>
<event>
 5    1  0.1572996E-008  0.3817026E+03  0.7957747E-01  0.3443778E+00
         13   -1    0    0    0    0  0.00000000000E+00  0.00000000000E+00  0.14999999963E+04  0.15000000000E+04  0.10566000000E+00 0. -1.
        994   -1    0    0    0    0 -0.00000000000E+00 -0.00000000000E+00  0.11368683772E-12  0.17120000000E+03  0.17120000000E+03 0.  0.
         13    1    1    2    0    0 -0.62066396525E+02 -0.70538953853E+02  0.29652906153E+03  0.31105863931E+03  0.10566000000E+00 0. -1.
        994    1    1    2    0    0  0.11968052688E+02  0.21874730681E+02  0.19535835961E+02  0.17410579259E+03  0.17120000000E+03 0.  0.
        998    1    1    2    0    0  0.50098343837E+02  0.48664223172E+02  0.11839350988E+04  0.11860355681E+04  0.10000000000E+02 0.  1.
</event>
<event>
 5    1  0.1572996E-008  0.3808494E+03  0.7957747E-01  0.3447468E+00
         13   -1    0    0    0    0  0.00000000000E+00  0.00000000000E+00  0.14999999963E+04  0.15000000000E+04  0.10566000000E+00 0. -1.
        994   -1    0    0    0    0 -0.00000000000E+00 -0.00000000000E+00  0.11368683772E-12  0.17120000000E+03  0.17120000000E+03 0.  0.
         13    1    1    2    0    0  0.24538996729E+01  0.32335487604E+02  0.13208016779E+03  0.13600289434E+03  0.10566000000E+00 0. -1.
        994    1    1    2    0    0  0.98561023159E+01 -0.30493088211E+02  0.71360217805E+01  0.17431963168E+03  0.17120000000E+03 0.  0.
        998    1    1    2    0    0 -0.12310001989E+02 -0.18423993923E+01  0.13607838067E+04  0.13608774740E+04  0.10000000000E+02 0. -1.
</event>
<event>
 5    1  0.1572996E-008  0.3838102E+03  0.7957747E-01  0.3434734E+00
         13   -1    0    0    0    0  0.00000000000E+00  0.00000000000E+00  0.14999999963E+04  0.15000000000E+04  0.10566000000E+00 0. -1.
        994   -1    0    0    0    0 -0.00000000000E+00 -0.00000000000E+00  0.11368683772E-12  0.17120000000E+03  0.17120000000E+03 0.  0.
         13    1    1    2    0    0  0.56648091525E+01  0.24863301128E+02  0.13478070417E+03  0.13717187462E+03  0.10566000000E+00 0. -1.
        994    1    1    2    0    0 -0.21982531636E+01 -0.25680095157E+02  0.44181927606E+01  0.17318562305E+03  0.17120000000E+03 0.  0.
        998    1    1    2    0    0 -0.34665559889E+01  0.81679402836E+00  0.13608010994E+04  0.13608425023E+04  0.10000000000E+02 0. -1.
</event>
<event>
 5    1  0.1572996E-008  0.3711461E+03  0.7957747E-01  0.3490640E+00
         13   -1    0    0    0    0  0.00000000000E+00  0.00000000000E+00  0.14999999963E+04  0.15000000000E+04  0.10566000000E+00 0.  1.
        994   -1    0    0    0    0 -0.00000000000E+00 -0.00000000000E+00  0.11368683772E-12  0.17120000000E+03  0.17120000000E+03 0.  0.
         13    1    1    2    0    0  0.10194586335E+03 -0.41389959376E+02  0.55409674589E+03  0.56491530583E+03  0.10566000000E+00 0.  1.
        994    1    1    2    0    0 -0.67387491314E+02  0.77077212058E+02  0.45686439252E+02  0.20464276517E+03  0.17120000000E+03 0.  0.
        998    1    1    2    0    0 -0.34558372032E+02 -0.35687252682E+02  0.90021681114E+03  0.90164192900E+03  0.10000000000E+02 0.  1.
</event>
<event>
 5    1  0.1572996E-008  0.3839253E+03  0.7957747E-01  0.3434243E+00
         13   -1    0    0    0    0  0.00000000000E+00  0.00000000000E+00  0.14999999963E+04  0.15000000000E+04  0.10566000000E+00 0. -1.
        994   -1    0    0    0    0 -0.00000000000E+00 -0.00000000000E+00  0.11368683772E-12  0.17120000000E+03  0.17120000000E+03 0.  0.
         13    1    1    2    0    0 -0.68095855971E+01 -0.12270077155E+02  0.45714523512E+02  0.47820017496E+02  0.10566000000E+00 0. -1.
        994    1    1    2    0    0  0.14483118539E+02 -0.11601619946E+01  0.28616276946E+01  0.17183927261E+03  0.17120000000E+03 0.  0.
        998    1    1    2    0    0 -0.76735329415E+01  0.13430239150E+02  0.14514238451E+04  0.14515407099E+04  0.10000000000E+02 0. -1.
</event>
<event>
 5    1  0.1572996E-008  0.3700561E+03  0.7957747E-01  0.3495633E+00
         13   -1    0    0    0    0  0.00000000000E+00  0.00000000000E+00  0.14999999963E+04  0.15000000000E+04  0.10566000000E+00 0. -1.
        994   -1    0    0    0    0 -0.00000000000E+00 -0.00000000000E+00  0.11368683772E-12  0.17120000000E+03  0.17120000000E+03 0.  0.
         13    1    1    2    0    0 -0.16066429282E+02  0.77401729119E+02  0.27307309657E+03  0.28428521779E+03  0.10566000000E+00 0. -1.
        994    1    1    2    0    0  0.23172662901E+02 -0.76282334259E+02  0.31544871356E+02  0.19146928144E+03  0.17120000000E+03 0.  0.
        998    1    1    2    0    0 -0.71062336190E+01 -0.11193948599E+01  0.11953820283E+04  0.11954455008E+04  0.10000000000E+02 0. -1.
</event>
<event>
 5    1  0.1572996E-008  0.3776545E+03  0.7957747E-01  0.3461435E+00
         13   -1    0    0    0    0  0.00000000000E+00  0.00000000000E+00  0.14999999963E+04  0.15000000000E+04  0.10566000000E+00 0.  1.
        994   -1    0    0    0    0 -0.00000000000E+00 -0.00000000000E+00  0.11368683772E-12  0.17120000000E+03  0.17120000000E+03 0.  0.
         13    1    1    2    0    0  0.13941143171E+01 -0.12118408608E+02  0.11529782040E+02  0.16785303687E+02  0.10566000000E+00 0.  1.
        994    1    1    2    0    0 -0.10515262818E+01  0.12002883229E+02  0.58111059852E+01  0.17172182117E+03  0.17120000000E+03 0.  0.
        998    1    1    2    0    0 -0.34258803534E+00  0.11552537895E+00  0.14826591083E+04  0.14826928751E+04  0.10000000000E+02 0.  1.
</event>
<event>
 5    1  0.1572996E-008  0.3783055E+03  0.7957747E-01  0.3458570E+00
         13   -1    0    0    0    0  0.00000000000E+00  0.00000000000E+00  0.14999999963E+04  0.15000000000E+04  0.10566000000E+00 0.  1.
        994   -1    0    0    0    0 -0.00000000000E+00 -0.00000000000E+00  0.11368683772E-12  0.17120000000E+03  0.17120000000E+03 0.  0.
         13    1    1    2    0    0  0.11853783236E+03 -0.44673530861E+02  0.53624820413E+03  0.55100734084E+03  0.10566000000E+00 0.  1.
        994    1    1    2    0    0 -0.16703552863E+03  0.50602900447E+02  0.11535084633E+03  0.27032717049E+03  0.17120000000E+03 0.  0.
        998    1    1    2    0    0  0.48497696265E+02 -0.59293695862E+01  0.84840094581E+03  0.84986548866E+03  0.10000000000E+02 0.  1.
</event>
<event>
 5    1  0.1572996E-008  0.3823109E+03  0.7957747E-01  0.3441158E+00
         13   -1    0    0    0    0  0.00000000000E+00  0.00000000000E+00  0.14999999963E+04  0.15000000000E+04  0.10566000000E+00 0. -1.
        994   -1    0    0    0    0 -0.00000000000E+00 -0.00000000000E+00  0.11368683772E-12  0.17120000000E+03  0.17120000000E+03 0.  0.
         13    1    1    2    0    0  0.90682941113E+01  0.13153870970E+02  0.40482334316E+02  0.43521130906E+02  0.10566000000E+00 0. -1.
        994    1    1    2    0    0  0.49773739355E+00 -0.24404059702E+02  0.49502970480E+01  0.17300217141E+03  0.17120000000E+03 0.  0.
        998    1    1    2    0    0 -0.95660315048E+01  0.11250188732E+02  0.14545673649E+04  0.14546766977E+04  0.10000000000E+02 0. -1.
</event>
<event>
 5    1  0.1572996E-008  0.3860682E+03  0.7957747E-01  0.3425154E+00
         13   -1    0    0    0    0  0.00000000000E+00  0.00000000000E+00  0.14999999963E+04  0.15000000000E+04  0.10566000000E+00 0. -1.
        994   -1    0    0    0    0 -0.00000000000E+00 -0.00000000000E+00  0.11368683772E-12  0.17120000000E+03  0.17120000000E+03 0.  0.
         13    1    1    2    0    0 -0.79515772779E+01 -0.88928693585E+01  0.62628934510E+02  0.63755041436E+02  0.10566000000E+00 0. -1.
        994    1    1    2    0    0  0.69695792957E+01  0.12472263396E+02  0.17699938036E+01  0.17180426441E+03  0.17120000000E+03 0.  0.
        998    1    1    2    0    0  0.98199798212E+00 -0.35793940375E+01  0.14356010680E+04  0.14356406942E+04  0.10000000000E+02 0. -1.
</event>
<event>
 5    1  0.1572996E-008  0.3849761E+03  0.7957747E-01  0.3429774E+00
         13   -1    0    0    0    0  0.00000000000E+00  0.00000000000E+00  0.14999999963E+04  0.15000000000E+04  0.10566000000E+00 0.  1.
        994   -1    0    0    0    0 -0.00000000000E+00 -0.00000000000E+00  0.11368683772E-12  0.17120000000E+03  0.17120000000E+03 0.  0.
         13    1    1    2    0    0  0.15838575327E+02 -0.12490855725E+02  0.11943790482E+03  0.12112929545E+03  0.10566000000E+00 0.  1.
        994    1    1    2    0    0 -0.90690555464E+01  0.16073037230E+02  0.27629697286E+01  0.17221400726E+03  0.17120000000E+03 0.  0.
        998    1    1    2    0    0 -0.67695197805E+01 -0.35821815056E+01  0.13777991217E+04  0.13778566973E+04  0.10000000000E+02 0.  1.
</event>
<event>
 5    1  0.1572996E-008  0.3745601E+03  0.7957747E-01  0.3475192E+00
         13   -1    0    0    0    0  0.00000000000E+00  0.00000000000E+00  0.14999999963E+04  0.15000000000E+04  0.10566000000E+00 0.  1.
        994   -1    0    0    0    0 -0.00000000000E+00 -0.00000000000E+00  0.11368683772E-12  0.17120000000E+03  0.17120000000E+03 0.  0.
         13    1    1    2    0    0 -0.16874272861E+02 -0.48614019845E+01  0.19350090354E+02  0.26130661580E+02  0.10566000000E+00 0.  1.
        994    1    1    2    0    0  0.96546369292E+01  0.12317089958E+02  0.77390038106E+01  0.17208792781E+03  0.17120000000E+03 0.  0.
        998    1    1    2    0    0  0.72196359321E+01 -0.74556879732E+01  0.14729109021E+04  0.14729814106E+04  0.10000000000E+02 0.  1.
</event>
<event>
 5    1  0.1572996E-008  0.3858859E+03  0.7957747E-01  0.3425924E+00
         13   -1    0    0    0    0  0.00000000000E+00  0.00000000000E+00  0.14999999963E+04  0.15000000000E+04  0.10566000000E+00 0. -1.
        994   -1    0    0    0    0 -0.00000000000E+00 -0.00000000000E+00  0.11368683772E-12  0.17120000000E+03  0.17120000000E+03 0.  0.
         13    1    1    2    0    0 -0.11340307010E+02 -0.32064217857E+01  0.56037083457E+02  0.57262986214E+02  0.10566000000E+00 0. -1.
        994    1    1    2    0    0  0.12994427475E+02  0.10179082636E+02  0.20849407122E+01  0.17200655757E+03  0.17120000000E+03 0.  0.
        998    1    1    2    0    0 -0.16541204651E+01 -0.69726608501E+01  0.14418779721E+04  0.14419304562E+04  0.10000000000E+02 0. -1.
</event>
<event>
 5    1  0.1572996E-008  0.3789856E+03  0.7957747E-01  0.3455587E+00
         13   -1    0    0    0    0  0.00000000000E+00  0.00000000000E+00  0.14999999963E+04  0.15000000000E+04  0.10566000000E+00 0.  1.
        994   -1    0    0    0    0 -0.00000000000E+00 -0.00000000000E+00  0.11368683772E-12  0.17120000000E+03  0.17120000000E+03 0.  0.
         13    1    1    2    0    0  0.37193678604E+02 -0.19094267119E+02  0.16939742609E+03  0.17448054303E+03  0.10566000000E+00 0.  1.
        994    1    1    2    0    0 -0.32149767706E+02  0.24127541659E+02  0.10084707758E+02  0.17614450647E+03  0.17120000000E+03 0.  0.
        998    1    1    2    0    0 -0.50439108985E+01 -0.50332745394E+01  0.13205178624E+04  0.13205749505E+04  0.10000000000E+02 0.  1.
</event>
<event>
 5    1  0.1572996E-008  0.3768087E+03  0.7957747E-01  0.3465173E+00
         13   -1    0    0    0    0  0.00000000000E+00  0.00000000000E+00  0.14999999963E+04  0.15000000000E+04  0.10566000000E+00 0. -1.
        994   -1    0    0    0    0 -0.00000000000E+00 -0.00000000000E+00  0.11368683772E-12  0.17120000000E+03  0.17120000000E+03 0.  0.
         13    1    1    2    0    0 -0.10840366441E+02 -0.26515685550E+00  0.75198633427E+01  0.13196338942E+02  0.10566000000E+00 0. -1.
        994    1    1    2    0    0  0.12520088036E+02  0.28153537514E+01  0.63094330658E+01  0.17179618089E+03  0.17120000000E+03 0.  0.
        998    1    1    2    0    0 -0.16797215942E+01 -0.25501968959E+01  0.14861706999E+04  0.14862074802E+04  0.10000000000E+02 0. -1.
</event>
<event>
 5    1  0.1572996E-008  0.3781087E+03  0.7957747E-01  0.3459435E+00
         13   -1    0    0    0    0  0.00000000000E+00  0.00000000000E+00  0.14999999963E+04  0.15000000000E+04  0.10566000000E+00 0.  1.
        994   -1    0    0    0    0 -0.00000000000E+00 -0.00000000000E+00  0.11368683772E-12  0.17120000000E+03  0.17120000000E+03 0.  0.
         13    1    1    2    0    0 -0.67280102911E+01  0.79604172338E+01  0.83959696975E+01  0.13384238350E+02  0.10566000000E+00 0.  1.
        994    1    1    2    0    0  0.28014581442E+01 -0.56375549953E+01  0.52242456192E+01  0.17139534106E+03  0.17120000000E+03 0.  0.
        998    1    1    2    0    0  0.39265521469E+01 -0.23228622384E+01  0.14863797810E+04  0.14864204206E+04  0.10000000000E+02 0.  1.
</event>
<event>
 5    1  0.1572996E-008  0.3792686E+03  0.7957747E-01  0.3454349E+00
         13   -1    0    0    0    0  0.00000000000E+00  0.00000000000E+00  0.14999999963E+04  0.15000000000E+04  0.10566000000E+00 0.  1.
        994   -1    0    0    0    0 -0.00000000000E+00 -0.00000000000E+00  0.11368683772E-12  0.17120000000E+03  0.17120000000E+03 0.  0.
         13    1    1    2    0    0  0.24911777801E+02 -0.12250224805E+02  0.82096105773E+02  0.86662831873E+02  0.10566000000E+00 0.  1.
        994    1    1    2    0    0 -0.18753457744E+02  0.12197079482E+02  0.61816384587E+01  0.17276606605E+03  0.17120000000E+03 0.  0.
        998    1    1    2    0    0 -0.61583200576E+01  0.53145322607E-01  0.14117222520E+04  0.14117711021E+04  0.10000000000E+02 0.  1.
</event>
<event>
 5    1  0.1572996E-008  0.3766627E+03  0.7957747E-01  0.3465820E+00
         13   -1    0    0    0    0  0.00000000000E+00  0.00000000000E+00  0.14999999963E+04  0.15000000000E+04  0.10566000000E+00 0. -1.
        994   -1    0    0    0    0 -0.00000000000E+00 -0.00000000000E+00  0.11368683772E-12  0.17120000000E+03  0.17120000000E+03 0.  0.
         13    1    1    2    0    0 -0.79301902305E+01 -0.36239557170E+02  0.15002722156E+03  0.15454569484E+03  0.10566000000E+00 0. -1.
        994    1    1    2    0    0  0.24892126131E+02 -0.28458140045E+02  0.10674663070E+02  0.17564985656E+03  0.17120000000E+03 0.  0.
        998    1    1    2    0    0 -0.16961935901E+02  0.64697697215E+02  0.13392981116E+04  0.13410044486E+04  0.10000000000E+02 0. -1.
</event>
<event>
 5    1  0.1572996E-008  0.3065921E+03  0.7957747E-01  0.3850053E+00
         13   -1    0    0    0    0  0.00000000000E+00  0.00000000000E+00  0.14999999963E+04  0.15000000000E+04  0.10566000000E+00 0. -1.
        994   -1    0    0    0    0 -0.00000000000E+00 -0.00000000000E+00  0.11368683772E-12  0.17120000000E+03  0.17120000000E+03 0.  0.
         13    1    1    2    0    0 -0.14920441794E+03 -0.78075467757E+02  0.77955188085E+03  0.79753299813E+03  0.10566000000E+00 0. -1.
        994    1    1    2    0    0  0.97810778871E+02  0.79844042090E+02  0.74191548166E+02  0.22529057978E+03  0.17120000000E+03 0.  0.
        998    1    1    2    0    0  0.51393639069E+02 -0.17685743326E+01  0.64625656726E+03  0.64837642209E+03  0.10000000000E+02 0. -1.
</event>
<event>
 5    1  0.1572996E-008  0.3855450E+03  0.7957747E-01  0.3427364E+00
         13   -1    0    0    0    0  0.00000000000E+00  0.00000000000E+00  0.14999999963E+04  0.15000000000E+04  0.10566000000E+00 0. -1.
        994   -1    0    0    0    0 -0.00000000000E+00 -0.00000000000E+00  0.11368683772E-12  0.17120000000E+03  0.17120000000E+03 0.  0.
         13    1    1    2    0    0  0.14785892456E+02  0.43541793514E+01  0.90548185944E+02  0.91850784621E+02  0.10566000000E+00 0. -1.
        994    1    1    2    0    0 -0.40858384297E+01 -0.86953445595E+01  0.16628940324E+01  0.17147742799E+03  0.17120000000E+03 0.  0.
        998    1    1    2    0    0 -0.10700054027E+02  0.43411652082E+01  0.14077889163E+04  0.14078717874E+04  0.10000000000E+02 0. -1.
</event>
<event>
 5    1  0.1572996E-008  0.3816741E+03  0.7957747E-01  0.3443901E+00
         13   -1    0    0    0    0  0.00000000000E+00  0.00000000000E+00  0.14999999963E+04  0.15000000000E+04  0.10566000000E+00 0. -1.
        994   -1    0    0    0    0 -0.00000000000E+00 -0.00000000000E+00  0.11368683772E-12  0.17120000000E+03  0.17120000000E+03 0.  0.
         13    1    1    2    0    0  0.47614353242E+02  0.42882311034E+02  0.36725941012E+03  0.37280759745E+03  0.10566000000E+00 0. -1.
        994    1    1    2    0    0 -0.60317863740E+02 -0.61341301271E+02  0.28299011733E+02  0.19367827445E+03  0.17120000000E+03 0.  0.
        998    1    1    2    0    0  0.12703510498E+02  0.18458990237E+02  0.11044415744E+04  0.11047141281E+04  0.10000000000E+02 0. -1.
</event>
<event>
 5    1  0.1572996E-008  0.3816439E+03  0.7957747E-01  0.3444032E+00
         13   -1    0    0    0    0  0.00000000000E+00  0.00000000000E+00  0.14999999963E+04  0.15000000000E+04  0.10566000000E+00 0.  1.
        994   -1    0    0    0    0 -0.00000000000E+00 -0.00000000000E+00  0.11368683772E-12  0.17120000000E+03  0.17120000000E+03 0.  0.
         13    1    1    2    0    0  0.25920869749E+02  0.14274560019E+02  0.11705159020E+03  0.12073417282E+03  0.10566000000E+00 0.  1.
        994    1    1    2    0    0 -0.22340990950E+02 -0.36896979418E+02  0.95163567223E+01  0.17680641394E+03  0.17120000000E+03 0.  0.
        998    1    1    2    0    0 -0.35798787994E+01  0.22622419399E+02  0.13734320494E+04  0.13736594132E+04  0.10000000000E+02 0.  1.
</event>
<event>
 5    1  0.1572996E-008  0.3850784E+03  0.7957747E-01  0.3429340E+00
         13   -1    0    0    0    0  0.00000000000E+00  0.00000000000E+00  0.14999999963E+04  0.15000000000E+04  0.10566000000E+00 0.  1.
        994   -1    0    0    0    0 -0.00000000000E+00 -0.00000000000E+00  0.11368683772E-12  0.17120000000E+03  0.17120000000E+03 0.  0.
         13    1    1    2    0    0  0.28044446615E+01 -0.12391401580E+02  0.50181496918E+02  0.51764906452E+02  0.10566000000E+00 0.  1.
        994    1    1    2    0    0  0.20427552902E+01  0.11084224971E+02  0.20090123433E+01  0.17158236804E+03  0.17120000000E+03 0.  0.
        998    1    1    2    0    0 -0.48471999517E+01  0.13071766092E+01  0.14478094870E+04  0.14478527255E+04  0.10000000000E+02 0.  1.
</event>
<event>
 5    1  0.1572996E-008  0.3838300E+03  0.7957747E-01  0.3434650E+00
         13   -1    0    0    0    0  0.00000000000E+00  0.00000000000E+00  0.14999999963E+04  0.15000000000E+04  0.10566000000E+00 0.  1.
        994   -1    0    0    0    0 -0.00000000000E+00 -0.00000000000E+00  0.11368683772E-12  0.17120000000E+03  0.17120000000E+03 0.  0.
         13    1    1    2    0    0  0.26469775624E+02 -0.23786662606E+01  0.14884023935E+03  0.15119436196E+03  0.10566000000E+00 0.  1.
        994    1    1    2    0    0 -0.24370601827E+02 -0.21779407753E+01  0.41909680232E+01  0.17299038665E+03  0.17120000000E+03 0.  0.
        998    1    1    2    0    0 -0.20991737976E+01  0.45566070359E+01  0.13469687889E+04  0.13470152514E+04  0.10000000000E+02 0.  0.
</event>
<event>
 5    1  0.1572996E-008  0.3805727E+03  0.7957747E-01  0.3448668E+00
         13   -1    0    0    0    0  0.00000000000E+00  0.00000000000E+00  0.14999999963E+04  0.15000000000E+04  0.10566000000E+00 0.  1.
        994   -1    0    0    0    0 -0.00000000000E+00 -0.00000000000E+00  0.11368683772E-12  0.17120000000E+03  0.17120000000E+03 0.  0.
         13    1    1    2    0    0  0.21105068177E+02 -0.46524483619E+01  0.56861462387E+02  0.60830142588E+02  0.10566000000E+00 0.  1.
        994    1    1    2    0    0 -0.22903335366E+02  0.98752597280E+01  0.59227227308E+01  0.17310864268E+03  0.17120000000E+03 0.  0.
        998    1    1    2    0    0  0.17982671884E+01 -0.52228113660E+01  0.14372158112E+04  0.14372612147E+04  0.10000000000E+02 0.  1.
</event>
<event>
 5    1  0.1572996E-008  0.3710786E+03  0.7957747E-01  0.3490949E+00
         13   -1    0    0    0    0  0.00000000000E+00  0.00000000000E+00  0.14999999963E+04  0.15000000000E+04  0.10566000000E+00 0. -1.
        994   -1    0    0    0    0 -0.00000000000E+00 -0.00000000000E+00  0.11368683772E-12  0.17120000000E+03  0.17120000000E+03 0.  0.
         13    1    1    2    0    0 -0.31065347782E+02 -0.45935523250E+02  0.14344232014E+03  0.15378829116E+03  0.10566000000E+00 0. -1.
        994    1    1    2    0    0 -0.36328570579E+02  0.37478946506E+02  0.21132996894E+02  0.18022341698E+03  0.17120000000E+03 0.  0.
        998    1    1    2    0    0  0.67393918361E+02  0.84565767436E+01  0.13354246792E+04  0.13371882919E+04  0.10000000000E+02 0. -1.
</event>
<event>
 5    1  0.1572996E-008  0.3794248E+03  0.7957747E-01  0.3453667E+00
         13   -1    0    0    0    0  0.00000000000E+00  0.00000000000E+00  0.14999999963E+04  0.15000000000E+04  0.10566000000E+00 0.  1.
        994   -1    0    0    0    0 -0.00000000000E+00 -0.00000000000E+00  0.11368683772E-12  0.17120000000E+03  0.17120000000E+03 0.  0.
         13    1    1    2    0    0 -0.46947079240E+02  0.75536849800E+01  0.21309054967E+03  0.21833158253E+03  0.10566000000E+00 0.  1.
        994    1    1    2    0    0  0.50908786204E+02 -0.86560724885E+01  0.13407397944E+02  0.17932046850E+03  0.17120000000E+03 0.  0.
        998    1    1    2    0    0 -0.39617069642E+01  0.11023875085E+01  0.12735020487E+04  0.12735479490E+04  0.10000000000E+02 0. -1.
</event>
<event>
 5    1  0.1572996E-008  0.3714439E+03  0.7957747E-01  0.3489281E+00
         13   -1    0    0    0    0  0.00000000000E+00  0.00000000000E+00  0.14999999963E+04  0.15000000000E+04  0.10566000000E+00 0. -1.
        994   -1    0    0    0    0 -0.00000000000E+00 -0.00000000000E+00  0.11368683772E-12  0.17120000000E+03  0.17120000000E+03 0.  0.
         13    1    1    2    0    0  0.44820839021E+02  0.85705041550E+02  0.56089029831E+03  0.56916798896E+03  0.10566000000E+00 0. -1.
        994    1    1    2    0    0 -0.46891142642E+02 -0.37667155744E+02  0.21067315692E+02  0.18267694346E+03  0.17120000000E+03 0.  0.
        998    1    1    2    0    0  0.20703036202E+01 -0.48037885806E+02  0.91804238228E+03  0.91935506758E+03  0.10000000000E+02 0. -1.
</event>
<event>
 5    1  0.1572996E-008  0.3799974E+03  0.7957747E-01  0.3451170E+00
         13   -1    0    0    0    0  0.00000000000E+00  0.00000000000E+00  0.14999999963E+04  0.15000000000E+04  0.10566000000E+00 0.  1.
        994   -1    0    0    0    0 -0.00000000000E+00 -0.00000000000E+00  0.11368683772E-12  0.17120000000E+03  0.17120000000E+03 0.  0.
         13    1    1    2    0    0  0.29339159291E+02  0.13836105501E+02  0.16913083544E+03  0.17221345692E+03  0.10566000000E+00 0.  1.
        994    1    1    2    0    0  0.20435735192E+02  0.93587251921E+01  0.58251412456E+01  0.17276740804E+03  0.17120000000E+03 0.  0.
        998    1    1    2    0    0 -0.49774894483E+02 -0.23194830693E+02  0.13250440196E+04  0.13262191350E+04  0.10000000000E+02 0.  1.
</event>
<event>
 5    1  0.1572996E-008  0.3844385E+03  0.7957747E-01  0.3432057E+00
         13   -1    0    0    0    0  0.00000000000E+00  0.00000000000E+00  0.14999999963E+04  0.15000000000E+04  0.10566000000E+00 0. -1.
        994   -1    0    0    0    0 -0.00000000000E+00 -0.00000000000E+00  0.11368683772E-12  0.17120000000E+03  0.17120000000E+03 0.  0.
         13    1    1    2    0    0 -0.17709125904E+02 -0.69040411244E+01  0.92697284659E+02  0.94625983067E+02  0.10566000000E+00 0. -1.
        994    1    1    2    0    0  0.19482821996E+02 -0.87358775647E+01  0.34126246488E+01  0.17256008205E+03  0.17120000000E+03 0.  0.
        998    1    1    2    0    0 -0.17736960920E+01  0.15639918689E+02  0.14038900870E+04  0.14040139349E+04  0.10000000000E+02 0. -1.
</event>
<event>
 5    1  0.1572996E-008  0.3801311E+03  0.7957747E-01  0.3450588E+00
         13   -1    0    0    0    0  0.00000000000E+00  0.00000000000E+00  0.14999999963E+04  0.15000000000E+04  0.10566000000E+00 0.  1.
        994   -1    0    0    0    0 -0.00000000000E+00 -0.00000000000E+00  0.11368683772E-12  0.17120000000E+03  0.17120000000E+03 0.  0.
         13    1    1    2    0    0 -0.54285982460E+02 -0.47795506978E+02  0.40145020207E+03  0.40791378290E+03  0.10566000000E+00 0.  1.
        994    1    1    2    0    0  0.60182533124E+02  0.62127612235E+02  0.29486195240E+02  0.19406352879E+03  0.17120000000E+03 0.  0.
        998    1    1    2    0    0 -0.58965506641E+01 -0.14332105257E+02  0.10690635990E+04  0.10692226883E+04  0.10000000000E+02 0.  1.
</event>
<event>
 5    1  0.1572996E-008  0.3786858E+03  0.7957747E-01  0.3456901E+00
         13   -1    0    0    0    0  0.00000000000E+00  0.00000000000E+00  0.14999999963E+04  0.15000000000E+04  0.10566000000E+00 0. -1.
        994   -1    0    0    0    0 -0.00000000000E+00 -0.00000000000E+00  0.11368683772E-12  0.17120000000E+03  0.17120000000E+03 0.  0.
         13    1    1    2    0    0 -0.42206339802E+02 -0.45880994372E+02  0.29622190864E+03  0.30271087045E+03  0.10566000000E+00 0. -1.
        994    1    1    2    0    0  0.50086462191E+02  0.52918907002E+02  0.22835070807E+02  0.18745651462E+03  0.17120000000E+03 0.  0.
        998    1    1    2    0    0 -0.78801223884E+01 -0.70379126309E+01  0.11809430168E+04  0.11810326149E+04  0.10000000000E+02 0. -1.
</event>
<event>
 5    1  0.1572996E-008  0.2890765E+03  0.7957747E-01  0.3977227E+00
         13   -1    0    0    0    0  0.00000000000E+00  0.00000000000E+00  0.14999999963E+04  0.15000000000E+04  0.10566000000E+00 0.  1.
        994   -1    0    0    0    0 -0.00000000000E+00 -0.00000000000E+00  0.11368683772E-12  0.17120000000E+03  0.17120000000E+03 0.  0.
         13    1    1    2    0    0  0.16019080458E+03  0.81520302226E+02  0.60888745930E+03  0.63486266452E+03  0.10566000000E+00 0.  1.
        994    1    1    2    0    0 -0.11308199825E+03 -0.11704220795E+03  0.12378648884E+03  0.26668136716E+03  0.17120000000E+03 0.  0.
        998    1    1    2    0    0 -0.47108806327E+02  0.35521905722E+02  0.76732604814E+03  0.76965596832E+03  0.10000000000E+02 0. -1.
</event>
<event>
 5    1  0.1572996E-008  0.3840681E+03  0.7957747E-01  0.3433634E+00
         13   -1    0    0    0    0  0.00000000000E+00  0.00000000000E+00  0.14999999963E+04  0.15000000000E+04  0.10566000000E+00 0.  1.
        994   -1    0    0    0    0 -0.00000000000E+00 -0.00000000000E+00  0.11368683772E-12  0.17120000000E+03  0.17120000000E+03 0.  0.
         13    1    1    2    0    0  0.89138337707E+01  0.16745539275E+02  0.79922134154E+02  0.82142730718E+02  0.10566000000E+00 0.  1.
        994    1    1    2    0    0 -0.17495631118E+02 -0.16989326260E+02  0.40577635162E+01  0.17297583577E+03  0.17120000000E+03 0.  0.
        998    1    1    2    0    0  0.85817973469E+01  0.24378698510E+00  0.14160200986E+04  0.14160814335E+04  0.10000000000E+02 0.  1.
</event>
<event>
 5    1  0.1572996E-008  0.3718642E+03  0.7957747E-01  0.3487367E+00
         13   -1    0    0    0    0  0.00000000000E+00  0.00000000000E+00  0.14999999963E+04  0.15000000000E+04  0.10566000000E+00 0.  1.
        994   -1    0    0    0    0 -0.00000000000E+00 -0.00000000000E+00  0.11368683772E-12  0.17120000000E+03  0.17120000000E+03 0.  0.
         13    1    1    2    0    0 -0.81766600530E+01 -0.10889625537E+02  0.73553197774E+01  0.15477519408E+02  0.10566000000E+00 0.  1.
        994    1    1    2    0    0  0.16450222261E+02  0.36127281450E+01  0.92730275856E+01  0.17227620456E+03  0.17120000000E+03 0.  0.
        998    1    1    2    0    0 -0.82735622076E+01  0.72768973915E+01  0.14833716489E+04  0.14834462760E+04  0.10000000000E+02 0.  1.
</event>
<event>
 5    1  0.1572996E-008  0.3829707E+03  0.7957747E-01  0.3438324E+00
         13   -1    0    0    0    0  0.00000000000E+00  0.00000000000E+00  0.14999999963E+04  0.15000000000E+04  0.10566000000E+00 0.  1.
        994   -1    0    0    0    0 -0.00000000000E+00 -0.00000000000E+00  0.11368683772E-12  0.17120000000E+03  0.17120000000E+03 0.  0.
         13    1    1    2    0    0 -0.12121773056E+02  0.87387423100E+01  0.39809240561E+02  0.42521639165E+02  0.10566000000E+00 0.  1.
        994    1    1    2    0    0  0.17918616392E+02 -0.92018154141E+01  0.39853500276E+01  0.17242700843E+03  0.17120000000E+03 0.  0.
        998    1    1    2    0    0 -0.57968433359E+01  0.46307310408E+00  0.14562054057E+04  0.14562513524E+04  0.10000000000E+02 0.  1.
</event>
<event>
 5    1  0.1572996E-008  0.3864816E+03  0.7957747E-01  0.3423413E+00
         13   -1    0    0    0    0  0.00000000000E+00  0.00000000000E+00  0.14999999963E+04  0.15000000000E+04  0.10566000000E+00 0. -1.
        994   -1    0    0    0    0 -0.00000000000E+00 -0.00000000000E+00  0.11368683772E-12  0.17120000000E+03  0.17120000000E+03 0.  0.
         13    1    1    2    0    0  0.84765881335E+01  0.60575944877E+01  0.61639881021E+02  0.62514263122E+02  0.10566000000E+00 0. -1.
        994    1    1    2    0    0 -0.21599703370E+01 -0.98432302938E+01  0.12287787314E+01  0.17150074213E+03  0.17120000000E+03 0.  0.
        998    1    1    2    0    0 -0.63166177965E+01  0.37856358061E+01  0.14371313365E+04  0.14371849947E+04  0.10000000000E+02 0. -1.
</event>
<event>
 5    1  0.1572996E-008  0.3810406E+03  0.7957747E-01  0.3446640E+00
         13   -1    0    0    0    0  0.00000000000E+00  0.00000000000E+00  0.14999999963E+04  0.15000000000E+04  0.10566000000E+00 0. -1.
        994   -1    0    0    0    0 -0.00000000000E+00 -0.00000000000E+00  0.11368683772E-12  0.17120000000E+03  0.17120000000E+03 0.  0.
         13    1    1    2    0    0 -0.10759619690E+03  0.17791144907E+03  0.95345526070E+03  0.97586186041E+03  0.10566000000E+00 0. -1.
        994    1    1    2    0    0  0.11902145892E+03 -0.18849038321E+03  0.19219188483E+03  0.34050241238E+03  0.17120000000E+03 0.  0.
        998    1    1    2    0    0 -0.11425262023E+02  0.10578934138E+02  0.35435285076E+03  0.35483572720E+03  0.10000000000E+02 0.  1.
</event>
<event>
 5    1  0.1572996E-008  0.3790978E+03  0.7957747E-01  0.3455096E+00
         13   -1    0    0    0    0  0.00000000000E+00  0.00000000000E+00  0.14999999963E+04  0.15000000000E+04  0.10566000000E+00 0. -1.
        994   -1    0    0    0    0 -0.00000000000E+00 -0.00000000000E+00  0.11368683772E-12  0.17120000000E+03  0.17120000000E+03 0.  0.
         13    1    1    2    0    0  0.69783159679E+01  0.29351076113E+02  0.10517275009E+03  0.10941435504E+03  0.10566000000E+00 0. -1.
        994    1    1    2    0    0  0.38404509338E+01 -0.45941589770E+01  0.47094974201E+01  0.17136941012E+03  0.17120000000E+03 0.  0.
        998    1    1    2    0    0 -0.10818766902E+02 -0.24756917136E+02  0.13901177488E+04  0.13904162348E+04  0.10000000000E+02 0. -1.
</event>
<event>
 5    1  0.1572996E-008  0.3798513E+03  0.7957747E-01  0.3451806E+00
         13   -1    0    0    0    0  0.00000000000E+00  0.00000000000E+00  0.14999999963E+04  0.15000000000E+04  0.10566000000E+00 0. -1.
        994   -1    0    0    0    0 -0.00000000000E+00 -0.00000000000E+00  0.11368683772E-12  0.17120000000E+03  0.17120000000E+03 0.  0.
         13    1    1    2    0    0  0.13645284627E+02  0.22795458082E+02  0.94262821978E+02  0.97935271853E+02  0.10566000000E+00 0. -1.
        994    1    1    2    0    0  0.85725203652E+01  0.68497198863E+01  0.46110593151E+01  0.17161325309E+03  0.17120000000E+03 0.  0.
        998    1    1    2    0    0 -0.22217804992E+02 -0.29645177968E+02  0.14011261150E+04  0.14016514751E+04  0.10000000000E+02 0. -1.
</event>
<event>
 5    1  0.1572996E-008  0.3855238E+03  0.7957747E-01  0.3427454E+00
         13   -1    0    0    0    0  0.00000000000E+00  0.00000000000E+00  0.14999999963E+04  0.15000000000E+04  0.10566000000E+00 0. -1.
        994   -1    0    0    0    0 -0.00000000000E+00 -0.00000000000E+00  0.11368683772E-12  0.17120000000E+03  0.17120000000E+03 0.  0.
         13    1    1    2    0    0  0.35401305712E+01  0.12339481992E+02  0.64838647943E+02  0.66097328021E+02  0.10566000000E+00 0. -1.
        994    1    1    2    0    0 -0.12948070930E+02  0.50383521294E+01  0.20043380348E+01  0.17177454673E+03  0.17120000000E+03 0.  0.
        998    1    1    2    0    0  0.94079403593E+01 -0.17377834122E+02  0.14331570103E+04  0.14333281253E+04  0.10000000000E+02 0. -1.
</event>
<event>
 5    1  0.1572996E-008  0.3845837E+03  0.7957747E-01  0.3431440E+00
         13   -1    0    0    0    0  0.00000000000E+00  0.00000000000E+00  0.14999999963E+04  0.15000000000E+04  0.10566000000E+00 0.  1.
        994   -1    0    0    0    0 -0.00000000000E+00 -0.00000000000E+00  0.11368683772E-12  0.17120000000E+03  0.17120000000E+03 0.  0.
         13    1    1    2    0    0 -0.10733653057E+02 -0.66233229342E+01  0.42394449135E+02  0.44230986832E+02  0.10566000000E+00 0.  1.
        994    1    1    2    0    0  0.10666167450E+02  0.45233916914E+01  0.22791156612E+01  0.17160670898E+03  0.17120000000E+03 0.  0.
        998    1    1    2    0    0  0.67485607337E-01  0.20999312428E+01  0.14553264315E+04  0.14553623042E+04  0.10000000000E+02 0.  1.
</event>
<event>
 5    1  0.1572996E-008  0.3753944E+03  0.7957747E-01  0.3471461E+00
         13   -1    0    0    0    0  0.00000000000E+00  0.00000000000E+00  0.14999999963E+04  0.15000000000E+04  0.10566000000E+00 0. -1.
        994   -1    0    0    0    0 -0.00000000000E+00 -0.00000000000E+00  0.11368683772E-12  0.17120000000E+03  0.17120000000E+03 0.  0.
         13    1    1    2    0    0 -0.21652681134E+02  0.53971648008E+02  0.28405874405E+03  0.28995026923E+03  0.10566000000E+00 0. -1.
        994    1    1    2    0    0  0.17743948120E+02 -0.15611320430E+02  0.83747716218E+01  0.17302640787E+03  0.17120000000E+03 0.  0.
        998    1    1    2    0    0  0.39087330141E+01 -0.38360327577E+02  0.12075664806E+04  0.12082233229E+04  0.10000000000E+02 0. -1.
</event>
<event>
 5    1  0.1572996E-008  0.3847575E+03  0.7957747E-01  0.3430701E+00
         13   -1    0    0    0    0  0.00000000000E+00  0.00000000000E+00  0.14999999963E+04  0.15000000000E+04  0.10566000000E+00 0. -1.
        994   -1    0    0    0    0 -0.00000000000E+00 -0.00000000000E+00  0.11368683772E-12  0.17120000000E+03  0.17120000000E+03 0.  0.
         13    1    1    2    0    0  0.30290788410E+01  0.95972398728E+01  0.28156656309E+02  0.29901350979E+02  0.10566000000E+00 0. -1.
        994    1    1    2    0    0  0.20420353919E+01 -0.11665212426E+02  0.22122870958E+01  0.17162337051E+03  0.17120000000E+03 0.  0.
        998    1    1    2    0    0 -0.50711142329E+01  0.20679725529E+01  0.14696310529E+04  0.14696752785E+04  0.10000000000E+02 0. -1.
</event>
<event>
 5    1  0.1572996E-008  0.3858804E+03  0.7957747E-01  0.3425947E+00
         13   -1    0    0    0    0  0.00000000000E+00  0.00000000000E+00  0.14999999963E+04  0.15000000000E+04  0.10566000000E+00 0. -1.
        994   -1    0    0    0    0 -0.00000000000E+00 -0.00000000000E+00  0.11368683772E-12  0.17120000000E+03  0.17120000000E+03 0.  0.
         13    1    1    2    0    0  0.12712369122E+02 -0.60389900713E+01  0.82743345675E+02  0.83931794615E+02  0.10566000000E+00 0. -1.
        994    1    1    2    0    0 -0.11848161107E+02  0.57101897297E-01  0.16541445207E+01  0.17161747690E+03  0.17120000000E+03 0.  0.
        998    1    1    2    0    0 -0.86420801498E+00  0.59818881740E+01  0.14156025061E+04  0.14156507285E+04  0.10000000000E+02 0. -1.
</event>
<event>
 5    1  0.1572996E-008  0.3768821E+03  0.7957747E-01  0.3464848E+00
         13   -1    0    0    0    0  0.00000000000E+00  0.00000000000E+00  0.14999999963E+04  0.15000000000E+04  0.10566000000E+00 0. -1.
        994   -1    0    0    0    0 -0.00000000000E+00 -0.00000000000E+00  0.11368683772E-12  0.17120000000E+03  0.17120000000E+03 0.  0.
         13    1    1    2    0    0  0.13964845724E+02 -0.10929718262E+02  0.25981641164E+02  0.31456835489E+02  0.10566000000E+00 0. -1.
        994    1    1    2    0    0  0.40504960507E+01  0.46519512208E+01  0.58439194313E+01  0.17141073059E+03  0.17120000000E+03 0.  0.
        998    1    1    2    0    0 -0.18015341775E+02  0.62777670412E+01  0.14681744357E+04  0.14683324339E+04  0.10000000000E+02 0. -1.
</event>
<event>
 5    1  0.1572996E-008  0.3781514E+03  0.7957747E-01  0.3459247E+00
         13   -1    0    0    0    0  0.00000000000E+00  0.00000000000E+00  0.14999999963E+04  0.15000000000E+04  0.10566000000E+00 0.  1.
        994   -1    0    0    0    0 -0.00000000000E+00 -0.00000000000E+00  0.11368683772E-12  0.17120000000E+03  0.17120000000E+03 0.  0.
         13    1    1    2    0    0 -0.23541477070E+02  0.19311146546E+02  0.91452375387E+02  0.96388119867E+02  0.10566000000E+00 0.  1.
        994    1    1    2    0    0  0.53816160724E+01 -0.16030803386E+02  0.60315919126E+01  0.17213880605E+03  0.17120000000E+03 0.  0.
        998    1    1    2    0    0  0.18159860997E+02 -0.32803431596E+01  0.14025160290E+04  0.14026730741E+04  0.10000000000E+02 0.  1.
</event>
<event>
 5    1  0.1572996E-008  0.3860326E+03  0.7957747E-01  0.3425305E+00
         13   -1    0    0    0    0  0.00000000000E+00  0.00000000000E+00  0.14999999963E+04  0.15000000000E+04  0.10566000000E+00 0. -1.
        994   -1    0    0    0    0 -0.00000000000E+00 -0.00000000000E+00  0.11368683772E-12  0.17120000000E+03  0.17120000000E+03 0.  0.
         13    1    1    2    0    0 -0.92071444143E+01  0.63204874885E+01  0.55293059233E+02  0.56409694501E+02  0.10566000000E+00 0. -1.
        994    1    1    2    0    0  0.24468738256E+01 -0.15234665646E+02  0.18990765696E+01  0.17190441740E+03  0.17120000000E+03 0.  0.
        998    1    1    2    0    0  0.67602705887E+01  0.89141781575E+01  0.14428078605E+04  0.14428858881E+04  0.10000000000E+02 0. -1.
</event>
<event>
 5    1  0.1572996E-008  0.3747909E+03  0.7957747E-01  0.3474159E+00
         13   -1    0    0    0    0  0.00000000000E+00  0.00000000000E+00  0.14999999963E+04  0.15000000000E+04  0.10566000000E+00 0. -1.
        994   -1    0    0    0    0 -0.00000000000E+00 -0.00000000000E+00  0.11368683772E-12  0.17120000000E+03  0.17120000000E+03 0.  0.
         13    1    1    2    0    0  0.34886421448E-01 -0.16087725384E+02  0.15910509173E+02  0.22626789239E+02  0.10566000000E+00 0. -1.
        994    1    1    2    0    0  0.83061056708E+01  0.16771096562E+02  0.79785056441E+01  0.17240463342E+03  0.17120000000E+03 0.  0.
        998    1    1    2    0    0 -0.83409920923E+01 -0.68337117785E+00  0.14761109815E+04  0.14761685773E+04  0.10000000000E+02 0. -1.
</event>
<event>
 5    1  0.1572996E-008  0.3739428E+03  0.7957747E-01  0.3477965E+00
         13   -1    0    0    0    0  0.00000000000E+00  0.00000000000E+00  0.14999999963E+04  0.15000000000E+04  0.10566000000E+00 0. -1.
        994   -1    0    0    0    0 -0.00000000000E+00 -0.00000000000E+00  0.11368683772E-12  0.17120000000E+03  0.17120000000E+03 0.  0.
         13    1    1    2    0    0  0.30608320779E+01  0.24973965262E+02  0.39557768649E+02  0.46881722008E+02  0.10566000000E+00 0. -1.
        994    1    1    2    0    0 -0.92106721293E+01 -0.28002469484E+02  0.10192749445E+02  0.17401812239E+03  0.17120000000E+03 0.  0.
        998    1    1    2    0    0  0.61498400513E+01  0.30285042216E+01  0.14502494782E+04  0.14503001556E+04  0.10000000000E+02 0. -1.
</event>
<event>
 5    1  0.1572996E-008  0.3811877E+03  0.7957747E-01  0.3446003E+00
         13   -1    0    0    0    0  0.00000000000E+00  0.00000000000E+00  0.14999999963E+04  0.15000000000E+04  0.10566000000E+00 0. -1.
        994   -1    0    0    0    0 -0.00000000000E+00 -0.00000000000E+00  0.11368683772E-12  0.17120000000E+03  0.17120000000E+03 0.  0.
         13    1    1    2    0    0 -0.24282626370E+02 -0.86774928018E+01  0.91052677028E+02  0.94633746532E+02  0.10566000000E+00 0. -1.
        994    1    1    2    0    0  0.17626282770E+02  0.90743758571E+01  0.48446328325E+01  0.17241212431E+03  0.17120000000E+03 0.  0.
        998    1    1    2    0    0  0.66563435998E+01 -0.39688305527E+00  0.14041026864E+04  0.14041541292E+04  0.10000000000E+02 0. -1.
</event>
<event>
 5    1  0.1572996E-008  0.3713128E+03  0.7957747E-01  0.3489879E+00
         13   -1    0    0    0    0  0.00000000000E+00  0.00000000000E+00  0.14999999963E+04  0.15000000000E+04  0.10566000000E+00 0. -1.
        994   -1    0    0    0    0 -0.00000000000E+00 -0.00000000000E+00  0.11368683772E-12  0.17120000000E+03  0.17120000000E+03 0.  0.
         13    1    1    2    0    0  0.10361425626E+02  0.35130071331E+02  0.71990992420E+02  0.80772490406E+02  0.10566000000E+00 0. -1.
        994    1    1    2    0    0 -0.24233017254E+02 -0.29942728457E+02  0.13709115120E+02  0.17601473220E+03  0.17120000000E+03 0.  0.
        998    1    1    2    0    0  0.13871591628E+02 -0.51873428740E+01  0.14142998887E+04  0.14144127774E+04  0.10000000000E+02 0. -1.
</event>
<event>
 5    1  0.1572996E-008  0.3774176E+03  0.7957747E-01  0.3462480E+00
         13   -1    0    0    0    0  0.00000000000E+00  0.00000000000E+00  0.14999999963E+04  0.15000000000E+04  0.10566000000E+00 0. -1.
        994   -1    0    0    0    0 -0.00000000000E+00 -0.00000000000E+00  0.11368683772E-12  0.17120000000E+03  0.17120000000E+03 0.  0.
         13    1    1    2    0    0 -0.15705653348E+02  0.74829694682E+01  0.25752360881E+02  0.31078250178E+02  0.10566000000E+00 0. -1.
        994    1    1    2    0    0  0.11890838039E+02  0.41047318955E+01  0.59761416911E+01  0.17176552367E+03  0.17120000000E+03 0.  0.
        998    1    1    2    0    0  0.38148153086E+01 -0.11587701364E+02  0.14682714937E+04  0.14683562261E+04  0.10000000000E+02 0. -1.
</event>
<event>
 5    1  0.1572996E-008  0.3832302E+03  0.7957747E-01  0.3437213E+00
         13   -1    0    0    0    0  0.00000000000E+00  0.00000000000E+00  0.14999999963E+04  0.15000000000E+04  0.10566000000E+00 0.  1.
        994   -1    0    0    0    0 -0.00000000000E+00 -0.00000000000E+00  0.11368683772E-12  0.17120000000E+03  0.17120000000E+03 0.  0.
         13    1    1    2    0    0 -0.15306315287E+02 -0.21734017075E+02  0.15481975843E+03  0.15708538936E+03  0.10566000000E+00 0.  1.
        994    1    1    2    0    0  0.17222114444E+02 -0.68922399484E+01  0.36503738896E+01  0.17224073103E+03  0.17120000000E+03 0.  0.
        998    1    1    2    0    0 -0.19157991573E+01  0.28626257023E+02  0.13415298640E+04  0.13418738796E+04  0.10000000000E+02 0.  1.
</event>
<event>
 5    1  0.1572996E-008  0.3841497E+03  0.7957747E-01  0.3433286E+00
         13   -1    0    0    0    0  0.00000000000E+00  0.00000000000E+00  0.14999999963E+04  0.15000000000E+04  0.10566000000E+00 0.  1.
        994   -1    0    0    0    0 -0.00000000000E+00 -0.00000000000E+00  0.11368683772E-12  0.17120000000E+03  0.17120000000E+03 0.  0.
         13    1    1    2    0    0  0.73168079414E+01 -0.78874795966E+01  0.27151122493E+02  0.29205181552E+02  0.10566000000E+00 0.  1.
        994    1    1    2    0    0 -0.86543521215E+01  0.82169567181E+01  0.25226775407E+01  0.17163397126E+03  0.17120000000E+03 0.  0.
        998    1    1    2    0    0  0.13375441800E+01 -0.32947712153E+00  0.14703261962E+04  0.14703608472E+04  0.10000000000E+02 0.  1.
</event>
<event>
 5    1  0.1572996E-008  0.3743114E+03  0.7957747E-01  0.3476308E+00
         13   -1    0    0    0    0  0.00000000000E+00  0.00000000000E+00  0.14999999963E+04  0.15000000000E+04  0.10566000000E+00 0. -1.
        994   -1    0    0    0    0 -0.00000000000E+00 -0.00000000000E+00  0.11368683772E-12  0.17120000000E+03  0.17120000000E+03 0.  0.
         13    1    1    2    0    0 -0.12702519380E+02 -0.55626139959E+02  0.32852372714E+03  0.33344185686E+03  0.10566000000E+00 0. -1.
        994    1    1    2    0    0 -0.13531902711E+02 -0.75955572450E+01  0.78536465570E+01  0.17208115715E+03  0.17120000000E+03 0.  0.
        998    1    1    2    0    0  0.26234422092E+02  0.63221697204E+02  0.11636226226E+04  0.11656769860E+04  0.10000000000E+02 0. -1.
</event>
<event>
 5    1  0.1572996E-008  0.3790204E+03  0.7957747E-01  0.3455435E+00
         13   -1    0    0    0    0  0.00000000000E+00  0.00000000000E+00  0.14999999963E+04  0.15000000000E+04  0.10566000000E+00 0.  1.
        994   -1    0    0    0    0 -0.00000000000E+00 -0.00000000000E+00  0.11368683772E-12  0.17120000000E+03  0.17120000000E+03 0.  0.
         13    1    1    2    0    0  0.39940744210E+02  0.43371126306E+00  0.19186373190E+03  0.19597743221E+03  0.10566000000E+00 0.  1.
        994    1    1    2    0    0 -0.65010558206E+01 -0.55377700423E+01  0.48730946632E+01  0.17148212057E+03  0.17120000000E+03 0.  0.
        998    1    1    2    0    0 -0.33439688389E+02  0.51040587792E+01  0.13032631697E+04  0.13037404472E+04  0.10000000000E+02 0.  1.
</event>
<event>
 5    1  0.1572996E-008  0.3711469E+03  0.7957747E-01  0.3490636E+00
         13   -1    0    0    0    0  0.00000000000E+00  0.00000000000E+00  0.14999999963E+04  0.15000000000E+04  0.10566000000E+00 0.  1.
        994   -1    0    0    0    0 -0.00000000000E+00 -0.00000000000E+00  0.11368683772E-12  0.17120000000E+03  0.17120000000E+03 0.  0.
         13    1    1    2    0    0  0.30796408075E+02 -0.65171308915E+02  0.33496090548E+03  0.34262886279E+03  0.10566000000E+00 0.  1.
        994    1    1    2    0    0  0.13998771974E+02  0.35451720712E+02  0.13690819154E+02  0.17592517912E+03  0.17120000000E+03 0.  0.
        998    1    1    2    0    0 -0.44795180049E+02  0.29719588203E+02  0.11513482716E+04  0.11526459581E+04  0.10000000000E+02 0.  1.
</event>
<event>
 5    1  0.1572996E-008  0.3775592E+03  0.7957747E-01  0.3461855E+00
         13   -1    0    0    0    0  0.00000000000E+00  0.00000000000E+00  0.14999999963E+04  0.15000000000E+04  0.10566000000E+00 0. -1.
        994   -1    0    0    0    0 -0.00000000000E+00 -0.00000000000E+00  0.11368683772E-12  0.17120000000E+03  0.17120000000E+03 0.  0.
         13    1    1    2    0    0  0.12334005565E+03  0.45463158408E+02  0.40540754439E+03  0.42618652761E+03  0.10566000000E+00 0. -1.
        994    1    1    2    0    0 -0.11809482645E+03 -0.55443534324E+02  0.78960407442E+02  0.22926962179E+03  0.17120000000E+03 0.  0.
        998    1    1    2    0    0 -0.52452292004E+01  0.99803759163E+01  0.10156320444E+04  0.10157438506E+04  0.10000000000E+02 0. -1.
</event>
<event>
 5    1  0.1572996E-008  0.3725903E+03  0.7957747E-01  0.3484070E+00
         13   -1    0    0    0    0  0.00000000000E+00  0.00000000000E+00  0.14999999963E+04  0.15000000000E+04  0.10566000000E+00 0. -1.
        994   -1    0    0    0    0 -0.00000000000E+00 -0.00000000000E+00  0.11368683772E-12  0.17120000000E+03  0.17120000000E+03 0.  0.
         13    1    1    2    0    0  0.63275103113E+02 -0.42496276975E+02  0.19097219179E+03  0.20562115998E+03  0.10566000000E+00 0. -1.
        994    1    1    2    0    0 -0.89917429271E+02  0.25009818753E+02  0.43717996410E+02  0.19982827210E+03  0.17120000000E+03 0.  0.
        998    1    1    2    0    0  0.26642326158E+02  0.17486458222E+02  0.12653098081E+04  0.12657505679E+04  0.10000000000E+02 0. -1.
</event>
<event>
 5    1  0.1572996E-008  0.3804741E+03  0.7957747E-01  0.3449097E+00
         13   -1    0    0    0    0  0.00000000000E+00  0.00000000000E+00  0.14999999963E+04  0.15000000000E+04  0.10566000000E+00 0.  1.
        994   -1    0    0    0    0 -0.00000000000E+00 -0.00000000000E+00  0.11368683772E-12  0.17120000000E+03  0.17120000000E+03 0.  0.
         13    1    1    2    0    0  0.30747013176E+01 -0.12846052278E+02  0.21292710540E+02  0.25057245130E+02  0.10566000000E+00 0.  1.
        994    1    1    2    0    0  0.64420695953E+01  0.24294138559E+01  0.40522297801E+01  0.17138629723E+03  0.17120000000E+03 0.  0.
        998    1    1    2    0    0 -0.95167709128E+01  0.10416638422E+02  0.14746550560E+04  0.14747564576E+04  0.10000000000E+02 0.  1.
</event>
<event>
 5    1  0.1572996E-008  0.3768881E+03  0.7957747E-01  0.3464821E+00
         13   -1    0    0    0    0  0.00000000000E+00  0.00000000000E+00  0.14999999963E+04  0.15000000000E+04  0.10566000000E+00 0.  1.
        994   -1    0    0    0    0 -0.00000000000E+00 -0.00000000000E+00  0.11368683772E-12  0.17120000000E+03  0.17120000000E+03 0.  0.
         13    1    1    2    0    0  0.22746479364E+02  0.39696515651E+02  0.20098711995E+03  0.20612872005E+03  0.10566000000E+00 0.  1.
        994    1    1    2    0    0 -0.22630166984E+02  0.13959906294E+00  0.74441285991E+01  0.17284964274E+03  0.17120000000E+03 0.  0.
        998    1    1    2    0    0 -0.11631237942E+00 -0.39836114714E+02  0.12915687477E+04  0.12922216372E+04  0.10000000000E+02 0.  1.
</event>
<event>
 5    1  0.1572996E-008  0.3724554E+03  0.7957747E-01  0.3484682E+00
         13   -1    0    0    0    0  0.00000000000E+00  0.00000000000E+00  0.14999999963E+04  0.15000000000E+04  0.10566000000E+00 0.  1.
        994   -1    0    0    0    0 -0.00000000000E+00 -0.00000000000E+00  0.11368683772E-12  0.17120000000E+03  0.17120000000E+03 0.  0.
         13    1    1    2    0    0 -0.65121831800E+02 -0.32433486702E+02  0.27818615697E+03  0.28754188066E+03  0.10566000000E+00 0.  1.
        994    1    1    2    0    0  0.58100912250E+02  0.34247875061E+02  0.23751642009E+02  0.18553224369E+03  0.17120000000E+03 0.  0.
        998    1    1    2    0    0  0.70209195498E+01 -0.18143883591E+01  0.11980621973E+04  0.11981258757E+04  0.10000000000E+02 0.  1.
</event>
<event>
 5    1  0.1572996E-008  0.3827914E+03  0.7957747E-01  0.3439094E+00
         13   -1    0    0    0    0  0.00000000000E+00  0.00000000000E+00  0.14999999963E+04  0.15000000000E+04  0.10566000000E+00 0.  1.
        994   -1    0    0    0    0 -0.00000000000E+00 -0.00000000000E+00  0.11368683772E-12  0.17120000000E+03  0.17120000000E+03 0.  0.
         13    1    1    2    0    0 -0.13760372735E+02  0.39982278021E+01  0.36002483829E+02  0.38749499213E+02  0.10566000000E+00 0.  1.
        994    1    1    2    0    0  0.14536264778E+02 -0.23086465072E+01  0.34485545963E+01  0.17186612631E+03  0.17120000000E+03 0.  0.
        998    1    1    2    0    0 -0.77589204332E+00 -0.16895812949E+01  0.14605489579E+04  0.14605843745E+04  0.10000000000E+02 0.  1.
</event>
<event>
 5    1  0.1572996E-008  0.3800273E+03  0.7957747E-01  0.3451039E+00
         13   -1    0    0    0    0  0.00000000000E+00  0.00000000000E+00  0.14999999963E+04  0.15000000000E+04  0.10566000000E+00 0.  1.
        994   -1    0    0    0    0 -0.00000000000E+00 -0.00000000000E+00  0.11368683772E-12  0.17120000000E+03  0.17120000000E+03 0.  0.
         13    1    1    2    0    0  0.18797621190E+02 -0.11718830730E+02  0.56197394615E+02  0.60405627897E+02  0.10566000000E+00 0.  1.
        994    1    1    2    0    0 -0.87436807683E+01  0.28692194562E+02  0.71325020011E+01  0.17395403579E+03  0.17120000000E+03 0.  0.
        998    1    1    2    0    0 -0.10053940422E+02 -0.16973363832E+02  0.14366700997E+04  0.14368403363E+04  0.10000000000E+02 0.  1.
</event>
<event>
 5    1  0.1572996E-008  0.3720429E+03  0.7957747E-01  0.3486554E+00
         13   -1    0    0    0    0  0.00000000000E+00  0.00000000000E+00  0.14999999963E+04  0.15000000000E+04  0.10566000000E+00 0. -1.
        994   -1    0    0    0    0 -0.00000000000E+00 -0.00000000000E+00  0.11368683772E-12  0.17120000000E+03  0.17120000000E+03 0.  0.
         13    1    1    2    0    0 -0.10246594703E+03 -0.30988993015E+02  0.50058547761E+03  0.51190372097E+03  0.10566000000E+00 0. -1.
        994    1    1    2    0    0  0.94565305156E+02  0.23827728673E+02  0.41601241344E+02  0.20137145000E+03  0.17120000000E+03 0.  0.
        998    1    1    2    0    0  0.79006418725E+01  0.71612643420E+01  0.95781327733E+03  0.95792482903E+03  0.10000000000E+02 0. -1.
</event>
<event>
 5    1  0.1572996E-008  0.3829657E+03  0.7957747E-01  0.3438346E+00
         13   -1    0    0    0    0  0.00000000000E+00  0.00000000000E+00  0.14999999963E+04  0.15000000000E+04  0.10566000000E+00 0.  1.
        994   -1    0    0    0    0 -0.00000000000E+00 -0.00000000000E+00  0.11368683772E-12  0.17120000000E+03  0.17120000000E+03 0.  0.
         13    1    1    2    0    0 -0.25372831752E+02  0.56542823215E+01  0.12087966982E+03  0.12364326605E+03  0.10566000000E+00 0.  1.
        994    1    1    2    0    0  0.22165884386E+02 -0.64267211235E+01  0.44087418578E+01  0.17280482105E+03  0.17120000000E+03 0.  0.
        998    1    1    2    0    0  0.32069473658E+01  0.77243880200E+00  0.13747115846E+04  0.13747519129E+04  0.10000000000E+02 0.  1.
</event>
<event>
 5    1  0.1572996E-008  0.3706673E+03  0.7957747E-01  0.3492830E+00
         13   -1    0    0    0    0  0.00000000000E+00  0.00000000000E+00  0.14999999963E+04  0.15000000000E+04  0.10566000000E+00 0.  1.
        994   -1    0    0    0    0 -0.00000000000E+00 -0.00000000000E+00  0.11368683772E-12  0.17120000000E+03  0.17120000000E+03 0.  0.
         13    1    1    2    0    0 -0.22524340417E+01  0.41557097219E+02  0.81747769960E+02  0.91732081879E+02  0.10566000000E+00 0.  1.
        994    1    1    2    0    0 -0.30581470359E+02  0.80436174630E+01  0.14804051917E+02  0.17472414276E+03  0.17120000000E+03 0.  0.
        998    1    1    2    0    0  0.32833904401E+02 -0.49600714682E+02  0.14034481744E+04  0.14047437754E+04  0.10000000000E+02 0.  1.
</event>
<event>
 5    1  0.1572996E-008  0.3837071E+03  0.7957747E-01  0.3435174E+00
         13   -1    0    0    0    0  0.00000000000E+00  0.00000000000E+00  0.14999999963E+04  0.15000000000E+04  0.10566000000E+00 0.  1.
        994   -1    0    0    0    0 -0.00000000000E+00 -0.00000000000E+00  0.11368683772E-12  0.17120000000E+03  0.17120000000E+03 0.  0.
         13    1    1    2    0    0  0.52837435229E+01  0.10541325913E+02  0.31501125325E+02  0.33635837412E+02  0.10566000000E+00 0.  1.
        994    1    1    2    0    0 -0.15805337266E+02  0.13597529913E+02  0.37103088424E+01  0.17250480543E+03  0.17120000000E+03 0.  0.
        998    1    1    2    0    0  0.10521593743E+02 -0.24138855826E+02  0.14647885621E+04  0.14650593572E+04  0.10000000000E+02 0.  1.
</event>
<event>
 5    1  0.1572996E-008  0.3756647E+03  0.7957747E-01  0.3470255E+00
         13   -1    0    0    0    0  0.00000000000E+00  0.00000000000E+00  0.14999999963E+04  0.15000000000E+04  0.10566000000E+00 0. -1.
        994   -1    0    0    0    0 -0.00000000000E+00 -0.00000000000E+00  0.11368683772E-12  0.17120000000E+03  0.17120000000E+03 0.  0.
         13    1    1    2    0    0 -0.19801506003E+01 -0.10466650087E+03  0.52329285001E+03  0.53366133027E+03  0.10566000000E+00 0. -1.
        994    1    1    2    0    0  0.23614163512E+01  0.10855279546E+03  0.47434019327E+02  0.20820353474E+03  0.17120000000E+03 0.  0.
        998    1    1    2    0    0 -0.38126575092E+00 -0.38862945954E+01  0.92927312695E+03  0.92933513498E+03  0.10000000000E+02 0.  1.
</event>
<event>
 5    1  0.1572996E-008  0.3779439E+03  0.7957747E-01  0.3460160E+00
         13   -1    0    0    0    0  0.00000000000E+00  0.00000000000E+00  0.14999999963E+04  0.15000000000E+04  0.10566000000E+00 0. -1.
        994   -1    0    0    0    0 -0.00000000000E+00 -0.00000000000E+00  0.11368683772E-12  0.17120000000E+03  0.17120000000E+03 0.  0.
         13    1    1    2    0    0 -0.34397662053E+01  0.38190919766E+02  0.15596209665E+03  0.16060686505E+03  0.10566000000E+00 0. -1.
        994    1    1    2    0    0  0.76841506822E+01 -0.41074164122E+01  0.54302401459E+01  0.17150756412E+03  0.17120000000E+03 0.  0.
        998    1    1    2    0    0 -0.42443844769E+01 -0.34083503354E+02  0.13386076595E+04  0.13390855708E+04  0.10000000000E+02 0. -1.
</event>
<event>
 5    1  0.1572996E-008  0.3850425E+03  0.7957747E-01  0.3429492E+00
         13   -1    0    0    0    0  0.00000000000E+00  0.00000000000E+00  0.14999999963E+04  0.15000000000E+04  0.10566000000E+00 0. -1.
        994   -1    0    0    0    0 -0.00000000000E+00 -0.00000000000E+00  0.11368683772E-12  0.17120000000E+03  0.17120000000E+03 0.  0.
         13    1    1    2    0    0 -0.16424401263E+01 -0.18901885154E+02  0.10898869507E+03  0.11062787031E+03  0.10566000000E+00 0. -1.
        994    1    1    2    0    0 -0.82449456575E+00  0.15409774228E+02  0.23925074284E+01  0.17191074726E+03  0.17120000000E+03 0.  0.
        998    1    1    2    0    0  0.24669346921E+01  0.34921109264E+01  0.13886187938E+04  0.13886613824E+04  0.10000000000E+02 0. -1.
</event>
<event>
 5    1  0.1572996E-008  0.3808168E+03  0.7957747E-01  0.3447610E+00
         13   -1    0    0    0    0  0.00000000000E+00  0.00000000000E+00  0.14999999963E+04  0.15000000000E+04  0.10566000000E+00 0.  1.
        994   -1    0    0    0    0 -0.00000000000E+00 -0.00000000000E+00  0.11368683772E-12  0.17120000000E+03  0.17120000000E+03 0.  0.
         13    1    1    2    0    0 -0.99028204047E+01  0.18676676441E+02  0.55062527146E+01  0.21845230094E+02  0.10566000000E+00 0.  1.
        994    1    1    2    0    0  0.26078179366E+02 -0.27142633605E+02  0.21943219305E+02  0.17665712233E+03  0.17120000000E+03 0.  0.
        998    1    1    2    0    0 -0.16175358961E+02  0.84659571636E+01  0.14725505243E+04  0.14726976476E+04  0.10000000000E+02 0.  1.
</event>
<event>
 5    1  0.1572996E-008  0.3740566E+03  0.7957747E-01  0.3477453E+00
         13   -1    0    0    0    0  0.00000000000E+00  0.00000000000E+00  0.14999999963E+04  0.15000000000E+04  0.10566000000E+00 0.  1.
        994   -1    0    0    0    0 -0.00000000000E+00 -0.00000000000E+00  0.11368683772E-12  0.17120000000E+03  0.17120000000E+03 0.  0.
         13    1    1    2    0    0 -0.35013098056E+02 -0.12780262868E+03  0.65598845538E+03  0.66923859250E+03  0.10566000000E+00 0.  1.
        994    1    1    2    0    0  0.42071608869E+02  0.12501617528E+03  0.69029767971E+02  0.22687796989E+03  0.17120000000E+03 0.  0.
        998    1    1    2    0    0 -0.70585108128E+01  0.27864534013E+01  0.77498177293E+03  0.77508343761E+03  0.10000000000E+02 0.  0.
</event>
<event>
 5    1  0.1572996E-008  0.3749711E+03  0.7957747E-01  0.3473352E+00
         13   -1    0    0    0    0  0.00000000000E+00  0.00000000000E+00  0.14999999963E+04  0.15000000000E+04  0.10566000000E+00 0.  1.
        994   -1    0    0    0    0 -0.00000000000E+00 -0.00000000000E+00  0.11368683772E-12  0.17120000000E+03  0.17120000000E+03 0.  0.
         13    1    1    2    0    0 -0.97247810705E+01 -0.28798870573E+02  0.65132884249E+02  0.71876631027E+02  0.10566000000E+00 0.  1.
        994    1    1    2    0    0  0.10152435962E+02  0.23369762726E+02  0.89037598920E+01  0.17331455422E+03  0.17120000000E+03 0.  0.
        998    1    1    2    0    0 -0.42765489138E+00  0.54291078478E+01  0.14259633521E+04  0.14260088147E+04  0.10000000000E+02 0.  1.
</event>
<event>
 5    1  0.1572996E-008  0.3698497E+03  0.7957747E-01  0.3496582E+00
         13   -1    0    0    0    0  0.00000000000E+00  0.00000000000E+00  0.14999999963E+04  0.15000000000E+04  0.10566000000E+00 0.  1.
        994   -1    0    0    0    0 -0.00000000000E+00 -0.00000000000E+00  0.11368683772E-12  0.17120000000E+03  0.17120000000E+03 0.  0.
         13    1    1    2    0    0  0.50641890411E+01 -0.17272569033E+02  0.13294968758E+02  0.22377555942E+02  0.10566000000E+00 0.  1.
        994    1    1    2    0    0 -0.42460346768E+01  0.10007216524E+02  0.97565430712E+01  0.17182201060E+03  0.17120000000E+03 0.  0.
        998    1    1    2    0    0 -0.81815436427E+00  0.72653525086E+01  0.14769484844E+04  0.14770004335E+04  0.10000000000E+02 0.  1.
</event>
<event>
 5    1  0.1572996E-008  0.3777258E+03  0.7957747E-01  0.3461121E+00
         13   -1    0    0    0    0  0.00000000000E+00  0.00000000000E+00  0.14999999963E+04  0.15000000000E+04  0.10566000000E+00 0. -1.
        994   -1    0    0    0    0 -0.00000000000E+00 -0.00000000000E+00  0.11368683772E-12  0.17120000000E+03  0.17120000000E+03 0.  0.
         13    1    1    2    0    0  0.33273972031E+02  0.38189459307E+02  0.22777307578E+03  0.23333704642E+03  0.10566000000E+00 0. -1.
        994    1    1    2    0    0 -0.48048003361E+01 -0.46151647097E+02  0.12572187893E+02  0.17782170999E+03  0.17120000000E+03 0.  0.
        998    1    1    2    0    0 -0.28469171695E+02  0.79621877907E+01  0.12596547326E+04  0.12600412436E+04  0.10000000000E+02 0. -1.
</event>
<event>
 5    1  0.1572996E-008  0.3845672E+03  0.7957747E-01  0.3431510E+00
         13   -1    0    0    0    0  0.00000000000E+00  0.00000000000E+00  0.14999999963E+04  0.15000000000E+04  0.10566000000E+00 0.  1.
        994   -1    0    0    0    0 -0.00000000000E+00 -0.00000000000E+00  0.11368683772E-12  0.17120000000E+03  0.17120000000E+03 0.  0.
         13    1    1    2    0    0  0.80411017303E+02  0.57000280270E+02  0.30358379854E+03  0.31918348572E+03  0.10566000000E+00 0.  1.
        994    1    1    2    0    0 -0.32109421385E+02  0.40307863240E+01  0.22727927375E+02  0.17570788503E+03  0.17120000000E+03 0.  0.
        998    1    1    2    0    0 -0.48301595918E+02 -0.61031066594E+02  0.11736882704E+04  0.11763086292E+04  0.10000000000E+02 0.  1.
</event>
<event>
 5    1  0.1572996E-008  0.3786408E+03  0.7957747E-01  0.3457098E+00
         13   -1    0    0    0    0  0.00000000000E+00  0.00000000000E+00  0.14999999963E+04  0.15000000000E+04  0.10566000000E+00 0.  1.
        994   -1    0    0    0    0 -0.00000000000E+00 -0.00000000000E+00  0.11368683772E-12  0.17120000000E+03  0.17120000000E+03 0.  0.
         13    1    1    2    0    0  0.47013759765E+01 -0.40282401729E+02  0.17025417205E+03  0.17501791077E+03  0.10566000000E+00 0.  1.
        994    1    1    2    0    0 -0.15144951426E+01  0.22386555768E+02  0.65132677614E+01  0.17278690411E+03  0.17120000000E+03 0.  0.
        998    1    1    2    0    0 -0.31868808339E+01  0.17895845961E+02  0.13232325565E+04  0.13233951851E+04  0.10000000000E+02 0.  1.
</event>
<event>
 5    1  0.1572996E-008  0.3754063E+03  0.7957747E-01  0.3471408E+00
         13   -1    0    0    0    0  0.00000000000E+00  0.00000000000E+00  0.14999999963E+04  0.15000000000E+04  0.10566000000E+00 0.  1.
        994   -1    0    0    0    0 -0.00000000000E+00 -0.00000000000E+00  0.11368683772E-12  0.17120000000E+03  0.17120000000E+03 0.  0.
         13    1    1    2    0    0 -0.83981979916E+02 -0.60919592384E+02  0.38508897325E+03  0.39882038334E+03  0.10566000000E+00 0.  1.
        994    1    1    2    0    0  0.73225860281E+02  0.52402499580E+01  0.33291127439E+02  0.18922797362E+03  0.17120000000E+03 0.  0.
        998    1    1    2    0    0  0.10756119635E+02  0.55679342426E+02  0.10816198956E+04  0.10831516430E+04  0.10000000000E+02 0.  1.
</event>
<event>
 5    1  0.1572996E-008  0.3839952E+03  0.7957747E-01  0.3433945E+00
         13   -1    0    0    0    0  0.00000000000E+00  0.00000000000E+00  0.14999999963E+04  0.15000000000E+04  0.10566000000E+00 0.  1.
        994   -1    0    0    0    0 -0.00000000000E+00 -0.00000000000E+00  0.11368683772E-12  0.17120000000E+03  0.17120000000E+03 0.  0.
         13    1    1    2    0    0  0.13480006143E+02 -0.17107229097E+02  0.10437966468E+03  0.10662782665E+03  0.10566000000E+00 0.  1.
        994    1    1    2    0    0 -0.15431938770E+02  0.16182719928E+02  0.37813381289E+01  0.17269558094E+03  0.17120000000E+03 0.  0.
        998    1    1    2    0    0  0.19519326267E+01  0.92450916893E+00  0.13918389935E+04  0.13918765924E+04  0.10000000000E+02 0.  1.
</event>
<event>
 5    1  0.1572996E-008  0.3847512E+03  0.7957747E-01  0.3430728E+00
         13   -1    0    0    0    0  0.00000000000E+00  0.00000000000E+00  0.14999999963E+04  0.15000000000E+04  0.10566000000E+00 0. -1.
        994   -1    0    0    0    0 -0.00000000000E+00 -0.00000000000E+00  0.11368683772E-12  0.17120000000E+03  0.17120000000E+03 0.  0.
         13    1    1    2    0    0  0.15039870604E+02 -0.37633484227E+01  0.65608194229E+02  0.67415182364E+02  0.10566000000E+00 0. -1.
        994    1    1    2    0    0 -0.16217084316E+02  0.54190759748E+01  0.27165308574E+01  0.17207318137E+03  0.17120000000E+03 0.  0.
        998    1    1    2    0    0  0.11772137121E+01 -0.16557275520E+01  0.14316752712E+04  0.14317116363E+04  0.10000000000E+02 0. -1.
</event>
<event>
 5    1  0.1572996E-008  0.3791400E+03  0.7957747E-01  0.3454912E+00
         13   -1    0    0    0    0  0.00000000000E+00  0.00000000000E+00  0.14999999963E+04  0.15000000000E+04  0.10566000000E+00 0.  1.
        994   -1    0    0    0    0 -0.00000000000E+00 -0.00000000000E+00  0.11368683772E-12  0.17120000000E+03  0.17120000000E+03 0.  0.
         13    1    1    2    0    0  0.68313139805E+02  0.15253956431E+02  0.13802206634E+03  0.15475616375E+03  0.10566000000E+00 0.  1.
        994    1    1    2    0    0 -0.65316241879E+02 -0.12498064389E+02  0.32008616094E+02  0.18643069643E+03  0.17120000000E+03 0.  0.
        998    1    1    2    0    0 -0.29968979259E+01 -0.27558920415E+01  0.13299693138E+04  0.13300131398E+04  0.10000000000E+02 0.  1.
</event>
<event>
 5    1  0.1572996E-008  0.3845687E+03  0.7957747E-01  0.3431503E+00
         13   -1    0    0    0    0  0.00000000000E+00  0.00000000000E+00  0.14999999963E+04  0.15000000000E+04  0.10566000000E+00 0.  1.
        994   -1    0    0    0    0 -0.00000000000E+00 -0.00000000000E+00  0.11368683772E-12  0.17120000000E+03  0.17120000000E+03 0.  0.
         13    1    1    2    0    0 -0.25564344394E+01  0.11324291469E+02  0.33748131065E+02  0.35689248363E+02  0.10566000000E+00 0.  1.
        994    1    1    2    0    0  0.86941296118E+01 -0.22481938229E+02  0.37602191247E+01  0.17292947893E+03  0.17120000000E+03 0.  0.
        998    1    1    2    0    0 -0.61376951725E+01  0.11157646760E+02  0.14624916461E+04  0.14625812727E+04  0.10000000000E+02 0.  1.
</event>
<event>
 5    1  0.1572996E-008  0.4043287E+03  0.7957747E-01  0.3351617E+00
         13   -1    0    0    0    0  0.00000000000E+00  0.00000000000E+00  0.14999999963E+04  0.15000000000E+04  0.10566000000E+00 0.  1.
        994   -1    0    0    0    0 -0.00000000000E+00 -0.00000000000E+00  0.11368683772E-12  0.17120000000E+03  0.17120000000E+03 0.  0.
         13    1    1    2    0    0 -0.68166667325E+01  0.10564269020E+03  0.15000252608E+03  0.18359633420E+03  0.10566000000E+00 0.  1.
        994    1    1    2    0    0 -0.61138310496E+02 -0.11995741202E+03  0.10706647452E+03  0.24269393003E+03  0.17120000000E+03 0.  0.
        998    1    1    2    0    0  0.67954977229E+02  0.14314721813E+02  0.12429309957E+04  0.12449097358E+04  0.10000000000E+02 0.  1.
</event>
<event>
 5    1  0.1572996E-008  0.3786846E+03  0.7957747E-01  0.3456906E+00
         13   -1    0    0    0    0  0.00000000000E+00  0.00000000000E+00  0.14999999963E+04  0.15000000000E+04  0.10566000000E+00 0.  1.
        994   -1    0    0    0    0 -0.00000000000E+00 -0.00000000000E+00  0.11368683772E-12  0.17120000000E+03  0.17120000000E+03 0.  0.
         13    1    1    2    0    0  0.14049987464E+02  0.29874226476E+02  0.10559598750E+03  0.11063631997E+03  0.10566000000E+00 0.  1.
        994    1    1    2    0    0 -0.22196973456E+02 -0.24624221831E+02  0.84975391148E+01  0.17458724496E+03  0.17120000000E+03 0.  0.
        998    1    1    2    0    0  0.81469859921E+01 -0.52500046458E+01  0.13859064697E+04  0.13859764351E+04  0.10000000000E+02 0.  1.
</event>
<event>
 5    1  0.1572996E-008  0.3705183E+03  0.7957747E-01  0.3493512E+00
         13   -1    0    0    0    0  0.00000000000E+00  0.00000000000E+00  0.14999999963E+04  0.15000000000E+04  0.10566000000E+00 0.  1.
        994   -1    0    0    0    0 -0.00000000000E+00 -0.00000000000E+00  0.11368683772E-12  0.17120000000E+03  0.17120000000E+03 0.  0.
         13    1    1    2    0    0 -0.80862520097E+01  0.58276802143E+02  0.16189204173E+03  0.17225161096E+03  0.10566000000E+00 0.  1.
        994    1    1    2    0    0 -0.26179821493E+02 -0.73249829736E+02  0.30182630615E+02  0.19045039197E+03  0.17120000000E+03 0.  0.
        998    1    1    2    0    0  0.34266073503E+02  0.14973027592E+02  0.13079253239E+04  0.13084979971E+04  0.10000000000E+02 0.  1.
</event>
<event>
 5    1  0.1572996E-008  0.3859765E+03  0.7957747E-01  0.3425541E+00
         13   -1    0    0    0    0  0.00000000000E+00  0.00000000000E+00  0.14999999963E+04  0.15000000000E+04  0.10566000000E+00 0. -1.
        994   -1    0    0    0    0 -0.00000000000E+00 -0.00000000000E+00  0.11368683772E-12  0.17120000000E+03  0.17120000000E+03 0.  0.
         13    1    1    2    0    0 -0.10686700411E+02  0.79528672851E+01  0.70271843143E+02  0.71523400133E+02  0.10566000000E+00 0. -1.
        994    1    1    2    0    0  0.29855234787E+02  0.80395374239E+00  0.40757185108E+01  0.17383334797E+03  0.17120000000E+03 0.  0.
        998    1    1    2    0    0 -0.19168534377E+02 -0.87568210275E+01  0.14256524346E+04  0.14258432519E+04  0.10000000000E+02 0. -1.
</event>
<event>
 5    1  0.1572996E-008  0.3795898E+03  0.7957747E-01  0.3452947E+00
         13   -1    0    0    0    0  0.00000000000E+00  0.00000000000E+00  0.14999999963E+04  0.15000000000E+04  0.10566000000E+00 0. -1.
        994   -1    0    0    0    0 -0.00000000000E+00 -0.00000000000E+00  0.11368683772E-12  0.17120000000E+03  0.17120000000E+03 0.  0.
         13    1    1    2    0    0 -0.22612050464E+02 -0.13008688754E+02  0.78491359197E+02  0.82712970216E+02  0.10566000000E+00 0. -1.
        994    1    1    2    0    0  0.99645965288E+01  0.58822886633E+01  0.47886819126E+01  0.17165740875E+03  0.17120000000E+03 0.  0.
        998    1    1    2    0    0  0.12647453935E+02  0.71264000905E+01  0.14167199552E+04  0.14168296210E+04  0.10000000000E+02 0. -1.
</event>
<event>
 5    1  0.1572996E-008  0.3802650E+03  0.7957747E-01  0.3450006E+00
         13   -1    0    0    0    0  0.00000000000E+00  0.00000000000E+00  0.14999999963E+04  0.15000000000E+04  0.10566000000E+00 0. -1.
        994   -1    0    0    0    0 -0.00000000000E+00 -0.00000000000E+00  0.11368683772E-12  0.17120000000E+03  0.17120000000E+03 0.  0.
         13    1    1    2    0    0  0.13738839334E+02  0.43199408897E+01  0.24222806501E+02  0.28181077239E+02  0.10566000000E+00 0. -1.
        994    1    1    2    0    0 -0.91964271357E+01 -0.80876743269E+01  0.45005626540E+01  0.17169647583E+03  0.17120000000E+03 0.  0.
        998    1    1    2    0    0 -0.45424121982E+01  0.37677334372E+01  0.14712766271E+04  0.14713224469E+04  0.10000000000E+02 0. -1.
</event>
<event>
 5    1  0.1572996E-008  0.3787685E+03  0.7957747E-01  0.3456539E+00
         13   -1    0    0    0    0  0.00000000000E+00  0.00000000000E+00  0.14999999963E+04  0.15000000000E+04  0.10566000000E+00 0.  1.
        994   -1    0    0    0    0 -0.00000000000E+00 -0.00000000000E+00  0.11368683772E-12  0.17120000000E+03  0.17120000000E+03 0.  0.
         13    1    1    2    0    0  0.12201575493E+02 -0.14992620003E+02  0.36973391462E+02  0.41721696266E+02  0.10566000000E+00 0.  1.
        994    1    1    2    0    0 -0.18301156542E+02  0.65260848529E+01  0.60243175730E+01  0.17240433439E+03  0.17120000000E+03 0.  0.
        998    1    1    2    0    0  0.60995810495E+01  0.84665351501E+01  0.14570022872E+04  0.14570739693E+04  0.10000000000E+02 0.  1.
</event>
<event>
 5    1  0.1572996E-008  0.3778020E+03  0.7957747E-01  0.3460785E+00
         13   -1    0    0    0    0  0.00000000000E+00  0.00000000000E+00  0.14999999963E+04  0.15000000000E+04  0.10566000000E+00 0.  1.
        994   -1    0    0    0    0 -0.00000000000E+00 -0.00000000000E+00  0.11368683772E-12  0.17120000000E+03  0.17120000000E+03 0.  0.
         13    1    1    2    0    0 -0.56075156907E+02  0.45239095761E+01  0.26086538546E+03  0.26686260411E+03  0.10566000000E+00 0.  1.
        994    1    1    2    0    0  0.50624591340E+02 -0.80866133024E+00  0.13928219047E+02  0.17907243916E+03  0.17120000000E+03 0.  0.
        998    1    1    2    0    0  0.54505655673E+01 -0.37152482458E+01  0.12252063918E+04  0.12252649567E+04  0.10000000000E+02 0.  1.
</event>
<event>
 5    1  0.1572996E-008  0.3821150E+03  0.7957747E-01  0.3442001E+00
         13   -1    0    0    0    0  0.00000000000E+00  0.00000000000E+00  0.14999999963E+04  0.15000000000E+04  0.10566000000E+00 0. -1.
        994   -1    0    0    0    0 -0.00000000000E+00 -0.00000000000E+00  0.11368683772E-12  0.17120000000E+03  0.17120000000E+03 0.  0.
         13    1    1    2    0    0 -0.25846148113E+02 -0.30626421707E+02  0.22007535299E+03  0.22369437462E+03  0.10566000000E+00 0. -1.
        994    1    1    2    0    0  0.26693136981E+02  0.33195271554E+02  0.91162600877E+01  0.17665501921E+03  0.17120000000E+03 0.  0.
        998    1    1    2    0    0 -0.84698886724E+00 -0.25688498469E+01  0.12708083832E+04  0.12708506062E+04  0.10000000000E+02 0. -1.
</event>
<event>
 5    1  0.1572996E-008  0.3843098E+03  0.7957747E-01  0.3432605E+00
         13   -1    0    0    0    0  0.00000000000E+00  0.00000000000E+00  0.14999999963E+04  0.15000000000E+04  0.10566000000E+00 0. -1.
        994   -1    0    0    0    0 -0.00000000000E+00 -0.00000000000E+00  0.11368683772E-12  0.17120000000E+03  0.17120000000E+03 0.  0.
         13    1    1    2    0    0  0.12158869342E+02 -0.17933341235E+02  0.11177356755E+03  0.11385422433E+03  0.10566000000E+00 0. -1.
        994    1    1    2    0    0 -0.16581249073E+02  0.14684722663E+02  0.35918190506E+01  0.17266418292E+03  0.17120000000E+03 0.  0.
        998    1    1    2    0    0  0.44223797316E+01  0.32486185730E+01  0.13846346097E+04  0.13846815927E+04  0.10000000000E+02 0. -1.
</event>
<event>
 5    1  0.1572996E-008  0.3826211E+03  0.7957747E-01  0.3439824E+00
         13   -1    0    0    0    0  0.00000000000E+00  0.00000000000E+00  0.14999999963E+04  0.15000000000E+04  0.10566000000E+00 0. -1.
        994   -1    0    0    0    0 -0.00000000000E+00 -0.00000000000E+00  0.11368683772E-12  0.17120000000E+03  0.17120000000E+03 0.  0.
         13    1    1    2    0    0  0.29926688915E+02  0.43445942965E+01  0.13898161500E+03  0.14223354978E+03  0.10566000000E+00 0. -1.
        994    1    1    2    0    0 -0.41382821465E+02  0.91850888209E+01  0.87941283744E+01  0.17658901569E+03  0.17120000000E+03 0.  0.
        998    1    1    2    0    0  0.11456132550E+02 -0.13529683117E+02  0.13522242529E+04  0.13523774345E+04  0.10000000000E+02 0. -1.
</event>
<event>
 5    1  0.1572996E-008  0.3847665E+03  0.7957747E-01  0.3430663E+00
         13   -1    0    0    0    0  0.00000000000E+00  0.00000000000E+00  0.14999999963E+04  0.15000000000E+04  0.10566000000E+00 0.  1.
        994   -1    0    0    0    0 -0.00000000000E+00 -0.00000000000E+00  0.11368683772E-12  0.17120000000E+03  0.17120000000E+03 0.  0.
         13    1    1    2    0    0  0.99394728630E+01  0.15424030797E+01  0.28685919214E+02  0.30398441625E+02  0.10566000000E+00 0.  1.
        994    1    1    2    0    0 -0.62390813638E+01 -0.16245993623E+01  0.18829046479E+01  0.17133169815E+03  0.17120000000E+03 0.  0.
        998    1    1    2    0    0 -0.37003914992E+01  0.82196282595E-01  0.14694311724E+04  0.14694698602E+04  0.10000000000E+02 0.  1.
</event>
<event>
 5    1  0.1572996E-008  0.3952235E+03  0.7957747E-01  0.3387438E+00
         13   -1    0    0    0    0  0.00000000000E+00  0.00000000000E+00  0.14999999963E+04  0.15000000000E+04  0.10566000000E+00 0. -1.
        994   -1    0    0    0    0 -0.00000000000E+00 -0.00000000000E+00  0.11368683772E-12  0.17120000000E+03  0.17120000000E+03 0.  0.
         13    1    1    2    0    0  0.97136835551E+02 -0.11353076592E+03  0.34839217601E+03  0.37908035968E+03  0.10566000000E+00 0. -1.
        994    1    1    2    0    0 -0.10792266608E+03  0.86608952533E+02  0.10295408711E+03  0.24301727627E+03  0.17120000000E+03 0.  0.
        998    1    1    2    0    0  0.10785830524E+02  0.26921813383E+02  0.10486537332E+04  0.10491023641E+04  0.10000000000E+02 0. -1.
</event>
<event>
 5    1  0.1572996E-008  0.3813060E+03  0.7957747E-01  0.3445492E+00
         13   -1    0    0    0    0  0.00000000000E+00  0.00000000000E+00  0.14999999963E+04  0.15000000000E+04  0.10566000000E+00 0.  1.
        994   -1    0    0    0    0 -0.00000000000E+00 -0.00000000000E+00  0.11368683772E-12  0.17120000000E+03  0.17120000000E+03 0.  0.
         13    1    1    2    0    0 -0.11221447661E+02  0.20433071996E+02  0.86300456772E+02  0.89393575395E+02  0.10566000000E+00 0.  1.
        994    1    1    2    0    0 -0.99755613120E+01  0.26217305179E+01  0.38295453985E+01  0.17155317168E+03  0.17120000000E+03 0.  0.
        998    1    1    2    0    0  0.21197008973E+02 -0.23054802514E+02  0.14098699941E+04  0.14102532529E+04  0.10000000000E+02 0.  1.
</event>
<event>
 5    1  0.1572996E-008  0.3795320E+03  0.7957747E-01  0.3453199E+00
         13   -1    0    0    0    0  0.00000000000E+00  0.00000000000E+00  0.14999999963E+04  0.15000000000E+04  0.10566000000E+00 0. -1.
        994   -1    0    0    0    0 -0.00000000000E+00 -0.00000000000E+00  0.11368683772E-12  0.17120000000E+03  0.17120000000E+03 0.  0.
         13    1    1    2    0    0 -0.44462424693E+02  0.80910180531E+01  0.21694325433E+03  0.22160044798E+03  0.10566000000E+00 0. -1.
        994    1    1    2    0    0  0.37053366412E+02  0.63842886195E+01  0.91173865813E+01  0.17551717250E+03  0.17120000000E+03 0.  0.
        998    1    1    2    0    0  0.74090582811E+01 -0.14475306673E+02  0.12739393554E+04  0.12740823795E+04  0.10000000000E+02 0. -1.
</event>
<event>
 5    1  0.1572996E-008  0.3834846E+03  0.7957747E-01  0.3436125E+00
         13   -1    0    0    0    0  0.00000000000E+00  0.00000000000E+00  0.14999999963E+04  0.15000000000E+04  0.10566000000E+00 0.  1.
        994   -1    0    0    0    0 -0.00000000000E+00 -0.00000000000E+00  0.11368683772E-12  0.17120000000E+03  0.17120000000E+03 0.  0.
         13    1    1    2    0    0  0.13952981121E+02  0.91680429154E+01  0.59682218082E+02  0.61973518637E+02  0.10566000000E+00 0.  1.
        994    1    1    2    0    0 -0.10187963102E+02  0.66279393316E+01  0.28727315644E+01  0.17165493514E+03  0.17120000000E+03 0.  0.
        998    1    1    2    0    0 -0.37650180196E+01 -0.15795982247E+02  0.14374450466E+04  0.14375715462E+04  0.10000000000E+02 0.  1.
</event>
<event>
 5    1  0.1572996E-008  0.3729729E+03  0.7957747E-01  0.3482339E+00
         13   -1    0    0    0    0  0.00000000000E+00  0.00000000000E+00  0.14999999963E+04  0.15000000000E+04  0.10566000000E+00 0.  1.
        994   -1    0    0    0    0 -0.00000000000E+00 -0.00000000000E+00  0.11368683772E-12  0.17120000000E+03  0.17120000000E+03 0.  0.
         13    1    1    2    0    0 -0.35894902007E+02 -0.54683849189E+01  0.80538545995E+02  0.88344868435E+02  0.10566000000E+00 0.  1.
        994    1    1    2    0    0  0.30173954428E+02 -0.13137770079E+01  0.10851834943E+02  0.17418207674E+03  0.17120000000E+03 0.  0.
        998    1    1    2    0    0  0.57209475787E+01  0.67821619269E+01  0.14086096153E+04  0.14086730548E+04  0.10000000000E+02 0.  1.
</event>
<event>
 5    1  0.1572996E-008  0.3724811E+03  0.7957747E-01  0.3484566E+00
         13   -1    0    0    0    0  0.00000000000E+00  0.00000000000E+00  0.14999999963E+04  0.15000000000E+04  0.10566000000E+00 0.  1.
        994   -1    0    0    0    0 -0.00000000000E+00 -0.00000000000E+00  0.11368683772E-12  0.17120000000E+03  0.17120000000E+03 0.  0.
         13    1    1    2    0    0  0.28415786304E+02  0.74483803185E+01  0.50814180127E+02  0.58694355322E+02  0.10566000000E+00 0.  1.
        994    1    1    2    0    0 -0.21510079816E+02  0.79840117045E+00  0.95680118752E+01  0.17281292726E+03  0.17120000000E+03 0.  0.
        998    1    1    2    0    0 -0.69057064876E+01 -0.82467814890E+01  0.14396178043E+04  0.14396927174E+04  0.10000000000E+02 0.  1.
</event>
<event>
 5    1  0.1572996E-008  0.3766951E+03  0.7957747E-01  0.3465676E+00
         13   -1    0    0    0    0  0.00000000000E+00  0.00000000000E+00  0.14999999963E+04  0.15000000000E+04  0.10566000000E+00 0.  1.
        994   -1    0    0    0    0 -0.00000000000E+00 -0.00000000000E+00  0.11368683772E-12  0.17120000000E+03  0.17120000000E+03 0.  0.
         13    1    1    2    0    0  0.47722924473E+02 -0.12370293968E+02  0.20322420174E+03  0.20911860039E+03  0.10566000000E+00 0.  1.
        994    1    1    2    0    0 -0.28953516555E+02  0.13984846127E+02  0.93131789380E+01  0.17444213179E+03  0.17120000000E+03 0.  0.
        998    1    1    2    0    0 -0.18769407918E+02 -0.16145521589E+01  0.12874626156E+04  0.12876392678E+04  0.10000000000E+02 0.  1.
</event>
<event>
 5    1  0.1572996E-008  0.3796924E+03  0.7957747E-01  0.3452499E+00
         13   -1    0    0    0    0  0.00000000000E+00  0.00000000000E+00  0.14999999963E+04  0.15000000000E+04  0.10566000000E+00 0. -1.
        994   -1    0    0    0    0 -0.00000000000E+00 -0.00000000000E+00  0.11368683772E-12  0.17120000000E+03  0.17120000000E+03 0.  0.
         13    1    1    2    0    0 -0.12236935976E+02  0.43301785502E+01  0.17824171796E+02  0.22050063778E+02  0.10566000000E+00 0. -1.
        994    1    1    2    0    0  0.84331291891E+01 -0.39936429438E+01  0.45799152916E+01  0.17151525435E+03  0.17120000000E+03 0.  0.
        998    1    1    2    0    0  0.38038067874E+01 -0.33653560641E+00  0.14775959092E+04  0.14776346819E+04  0.10000000000E+02 0. -1.
</event>
<event>
 5    1  0.1572996E-008  0.3798660E+03  0.7957747E-01  0.3451742E+00
         13   -1    0    0    0    0  0.00000000000E+00  0.00000000000E+00  0.14999999963E+04  0.15000000000E+04  0.10566000000E+00 0.  1.
        994   -1    0    0    0    0 -0.00000000000E+00 -0.00000000000E+00  0.11368683772E-12  0.17120000000E+03  0.17120000000E+03 0.  0.
         13    1    1    2    0    0 -0.31683650285E+02  0.47381135684E+01  0.12272311771E+03  0.12683563459E+03  0.10566000000E+00 0.  1.
        994    1    1    2    0    0  0.13542570067E+02 -0.21777033225E+02  0.64032956455E+01  0.17322841157E+03  0.17120000000E+03 0.  0.
        998    1    1    2    0    0  0.18141080218E+02  0.17038919657E+02  0.13708735829E+04  0.13711359538E+04  0.10000000000E+02 0.  1.
</event>
<event>
 5    1  0.1572996E-008  0.3860250E+03  0.7957747E-01  0.3425337E+00
         13   -1    0    0    0    0  0.00000000000E+00  0.00000000000E+00  0.14999999963E+04  0.15000000000E+04  0.10566000000E+00 0. -1.
        994   -1    0    0    0    0 -0.00000000000E+00 -0.00000000000E+00  0.11368683772E-12  0.17120000000E+03  0.17120000000E+03 0.  0.
         13    1    1    2    0    0  0.89088990353E+00 -0.14956220856E+02  0.85827773643E+02  0.87125771845E+02  0.10566000000E+00 0. -1.
        994    1    1    2    0    0  0.18638693142E+01  0.29373455136E+02  0.39667000907E+01  0.17375686630E+03  0.17120000000E+03 0.  0.
        998    1    1    2    0    0 -0.27547592177E+01 -0.14417234280E+02  0.14102055225E+04  0.14103173619E+04  0.10000000000E+02 0. -1.
</event>
<event>
 5    1  0.1572996E-008  0.3822926E+03  0.7957747E-01  0.3441236E+00
         13   -1    0    0    0    0  0.00000000000E+00  0.00000000000E+00  0.14999999963E+04  0.15000000000E+04  0.10566000000E+00 0. -1.
        994   -1    0    0    0    0 -0.00000000000E+00 -0.00000000000E+00  0.11368683772E-12  0.17120000000E+03  0.17120000000E+03 0.  0.
         13    1    1    2    0    0 -0.42535112053E+01  0.97495344616E+01  0.17746273638E+02  0.20690267563E+02  0.10566000000E+00 0. -1.
        994    1    1    2    0    0  0.53337189056E+01 -0.70104576699E+01  0.32377716884E+01  0.17145704488E+03  0.17120000000E+03 0.  0.
        998    1    1    2    0    0 -0.10802077003E+01 -0.27390767917E+01  0.14790159510E+04  0.14790526876E+04  0.10000000000E+02 0. -1.
</event>
<event>
 5    1  0.1572996E-008  0.3727849E+03  0.7957747E-01  0.3483189E+00
         13   -1    0    0    0    0  0.00000000000E+00  0.00000000000E+00  0.14999999963E+04  0.15000000000E+04  0.10566000000E+00 0.  1.
        994   -1    0    0    0    0 -0.00000000000E+00 -0.00000000000E+00  0.11368683772E-12  0.17120000000E+03  0.17120000000E+03 0.  0.
         13    1    1    2    0    0 -0.59016227476E+01  0.12158346208E+02  0.80169833647E+01  0.15714252126E+02  0.10566000000E+00 0.  1.
        994    1    1    2    0    0  0.36239071855E+01 -0.16129802160E+02  0.87571783291E+01  0.17221913771E+03  0.17120000000E+03 0.  0.
        998    1    1    2    0    0  0.22777155621E+01  0.39714559515E+01  0.14832258346E+04  0.14832666102E+04  0.10000000000E+02 0.  1.
</event>
<event>
 5    1  0.1572996E-008  0.3735832E+03  0.7957747E-01  0.3479583E+00
         13   -1    0    0    0    0  0.00000000000E+00  0.00000000000E+00  0.14999999963E+04  0.15000000000E+04  0.10566000000E+00 0. -1.
        994   -1    0    0    0    0 -0.00000000000E+00 -0.00000000000E+00  0.11368683772E-12  0.17120000000E+03  0.17120000000E+03 0.  0.
         13    1    1    2    0    0 -0.27596865919E+02 -0.31954053343E+02  0.12447527455E+03  0.13144106539E+03  0.10566000000E+00 0. -1.
        994    1    1    2    0    0  0.28729564289E+02 -0.68251094639E+01  0.10392070737E+02  0.17403851619E+03  0.17120000000E+03 0.  0.
        998    1    1    2    0    0 -0.11326983691E+01  0.38779162807E+02  0.13651326510E+04  0.13657204184E+04  0.10000000000E+02 0. -1.
</event>
<event>
 5    1  0.1572996E-008  0.3850318E+03  0.7957747E-01  0.3429537E+00
         13   -1    0    0    0    0  0.00000000000E+00  0.00000000000E+00  0.14999999963E+04  0.15000000000E+04  0.10566000000E+00 0. -1.
        994   -1    0    0    0    0 -0.00000000000E+00 -0.00000000000E+00  0.11368683772E-12  0.17120000000E+03  0.17120000000E+03 0.  0.
         13    1    1    2    0    0  0.16936103990E+02 -0.52802444085E+01  0.92077911573E+02  0.93771347240E+02  0.10566000000E+00 0. -1.
        994    1    1    2    0    0 -0.19325398060E+02  0.22431908664E+01  0.28599593896E+01  0.17232562863E+03  0.17120000000E+03 0.  0.
        998    1    1    2    0    0  0.23892940706E+01  0.30370535422E+01  0.14050621253E+04  0.14051030241E+04  0.10000000000E+02 0. -1.
</event>
<event>
 5    1  0.1572996E-008  0.3876127E+03  0.7957747E-01  0.3418666E+00
         13   -1    0    0    0    0  0.00000000000E+00  0.00000000000E+00  0.14999999963E+04  0.15000000000E+04  0.10566000000E+00 0. -1.
        994   -1    0    0    0    0 -0.00000000000E+00 -0.00000000000E+00  0.11368683772E-12  0.17120000000E+03  0.17120000000E+03 0.  0.
         13    1    1    2    0    0  0.55108780537E+02 -0.24438513038E+02  0.77514784312E+02  0.98197614852E+02  0.10566000000E+00 0. -1.
        994    1    1    2    0    0 -0.53744713439E+02  0.26228836925E+02  0.34030768060E+02  0.18451010618E+03  0.17120000000E+03 0.  0.
        998    1    1    2    0    0 -0.13640670976E+01 -0.17903238873E+01  0.13884544439E+04  0.13884922790E+04  0.10000000000E+02 0. -1.
</event>
<event>
 5    1  0.1572996E-008  0.3757204E+03  0.7957747E-01  0.3470007E+00
         13   -1    0    0    0    0  0.00000000000E+00  0.00000000000E+00  0.14999999963E+04  0.15000000000E+04  0.10566000000E+00 0.  1.
        994   -1    0    0    0    0 -0.00000000000E+00 -0.00000000000E+00  0.11368683772E-12  0.17120000000E+03  0.17120000000E+03 0.  0.
         13    1    1    2    0    0  0.20990643212E+02  0.42458589640E+02  0.14951128002E+03  0.15683422125E+03  0.10566000000E+00 0.  1.
        994    1    1    2    0    0 -0.33768971562E+02 -0.49159693513E+02  0.18467933409E+02  0.18222931562E+03  0.17120000000E+03 0.  0.
        998    1    1    2    0    0  0.12778328350E+02  0.67011038735E+01  0.13320207828E+04  0.13321364631E+04  0.10000000000E+02 0.  1.
</event>
<event>
 5    1  0.1572996E-008  0.3812349E+03  0.7957747E-01  0.3445799E+00
         13   -1    0    0    0    0  0.00000000000E+00  0.00000000000E+00  0.14999999963E+04  0.15000000000E+04  0.10566000000E+00 0. -1.
        994   -1    0    0    0    0 -0.00000000000E+00 -0.00000000000E+00  0.11368683772E-12  0.17120000000E+03  0.17120000000E+03 0.  0.
         13    1    1    2    0    0 -0.11808169371E+02 -0.22649076892E+02  0.95885788881E+02  0.99229578359E+02  0.10566000000E+00 0. -1.
        994    1    1    2    0    0  0.16824031016E+02  0.24539814662E-02  0.44540139017E+01  0.17208232409E+03  0.17120000000E+03 0.  0.
        998    1    1    2    0    0 -0.50158616457E+01  0.22646622910E+02  0.13996601935E+04  0.13998880975E+04  0.10000000000E+02 0. -1.
</event>
<event>
 5    1  0.1572996E-008  0.3764552E+03  0.7957747E-01  0.3466740E+00
         13   -1    0    0    0    0  0.00000000000E+00  0.00000000000E+00  0.14999999963E+04  0.15000000000E+04  0.10566000000E+00 0. -1.
        994   -1    0    0    0    0 -0.00000000000E+00 -0.00000000000E+00  0.11368683772E-12  0.17120000000E+03  0.17120000000E+03 0.  0.
         13    1    1    2    0    0 -0.20829109184E+02  0.97574993997E+00  0.33989292550E+02  0.39875895594E+02  0.10566000000E+00 0. -1.
        994    1    1    2    0    0  0.16775240082E+02  0.19593772430E+01  0.68987881938E+01  0.17216933849E+03  0.17120000000E+03 0.  0.
        998    1    1    2    0    0  0.40538691021E+01 -0.29351271830E+01  0.14591119155E+04  0.14591547659E+04  0.10000000000E+02 0. -1.
</event>
<event>
 5    1  0.1572996E-008  0.3704526E+03  0.7957747E-01  0.3493813E+00
         13   -1    0    0    0    0  0.00000000000E+00  0.00000000000E+00  0.14999999963E+04  0.15000000000E+04  0.10566000000E+00 0.  1.
        994   -1    0    0    0    0 -0.00000000000E+00 -0.00000000000E+00  0.11368683772E-12  0.17120000000E+03  0.17120000000E+03 0.  0.
         13    1    1    2    0    0 -0.17662775263E+02 -0.61890217790E+02  0.21902798613E+03  0.22828850728E+03  0.10566000000E+00 0.  1.
        994    1    1    2    0    0  0.46045934174E+01  0.44088721799E+02  0.15847118032E+02  0.17755446719E+03  0.17120000000E+03 0.  0.
        998    1    1    2    0    0  0.13058181845E+02  0.17801495991E+02  0.12651248921E+04  0.12653570255E+04  0.10000000000E+02 0.  1.
</event>
<event>
 5    1  0.1572996E-008  0.3758818E+03  0.7957747E-01  0.3469288E+00
         13   -1    0    0    0    0  0.00000000000E+00  0.00000000000E+00  0.14999999963E+04  0.15000000000E+04  0.10566000000E+00 0. -1.
        994   -1    0    0    0    0 -0.00000000000E+00 -0.00000000000E+00  0.11368683772E-12  0.17120000000E+03  0.17120000000E+03 0.  0.
         13    1    1    2    0    0 -0.32291137900E+02  0.16815235302E+02  0.11065862466E+03  0.11649382859E+03  0.10566000000E+00 0. -1.
        994    1    1    2    0    0  0.86781973796E+01 -0.29395170967E+01  0.65111524690E+01  0.17156860720E+03  0.17120000000E+03 0.  0.
        998    1    1    2    0    0  0.23612940521E+02 -0.13875718205E+02  0.13828302192E+04  0.13831375642E+04  0.10000000000E+02 0. -1.
</event>
<event>
 5    1  0.1572996E-008  0.3842168E+03  0.7957747E-01  0.3433001E+00
         13   -1    0    0    0    0  0.00000000000E+00  0.00000000000E+00  0.14999999963E+04  0.15000000000E+04  0.10566000000E+00 0. -1.
        994   -1    0    0    0    0 -0.00000000000E+00 -0.00000000000E+00  0.11368683772E-12  0.17120000000E+03  0.17120000000E+03 0.  0.
         13    1    1    2    0    0  0.11435178005E+02  0.47957014909E+01  0.37748195972E+02  0.39732851797E+02  0.10566000000E+00 0. -1.
        994    1    1    2    0    0 -0.53989352751E+01 -0.67115992999E+01  0.22641370081E+01  0.17143150347E+03  0.17120000000E+03 0.  0.
        998    1    1    2    0    0 -0.60362427301E+01  0.19158978089E+01  0.14599876633E+04  0.14600356447E+04  0.10000000000E+02 0. -1.
</event>
<event>
 5    1  0.1572996E-008  0.3723005E+03  0.7957747E-01  0.3485384E+00
         13   -1    0    0    0    0  0.00000000000E+00  0.00000000000E+00  0.14999999963E+04  0.15000000000E+04  0.10566000000E+00 0.  1.
        994   -1    0    0    0    0 -0.00000000000E+00 -0.00000000000E+00  0.11368683772E-12  0.17120000000E+03  0.17120000000E+03 0.  0.
         13    1    1    2    0    0  0.10386726142E+01  0.25604943428E+02  0.21394752776E+02  0.33383208041E+02  0.10566000000E+00 0.  1.
        994    1    1    2    0    0 -0.10752521338E+01 -0.28611895957E+02  0.15055132568E+02  0.17422942855E+03  0.17120000000E+03 0.  0.
        998    1    1    2    0    0  0.36579519604E-01  0.30069525294E+01  0.14635501109E+04  0.14635873634E+04  0.10000000000E+02 0.  1.
</event>
<event>
 5    1  0.1572996E-008  0.3769863E+03  0.7957747E-01  0.3464387E+00
         13   -1    0    0    0    0  0.00000000000E+00  0.00000000000E+00  0.14999999963E+04  0.15000000000E+04  0.10566000000E+00 0. -1.
        994   -1    0    0    0    0 -0.00000000000E+00 -0.00000000000E+00  0.11368683772E-12  0.17120000000E+03  0.17120000000E+03 0.  0.
         13    1    1    2    0    0  0.17263418881E+02 -0.99674661478E+01  0.34673879074E+02  0.39995813118E+02  0.10566000000E+00 0. -1.
        994    1    1    2    0    0  0.78532029355E+01  0.23953418474E+01  0.58898678095E+01  0.17149793294E+03  0.17120000000E+03 0.  0.
        998    1    1    2    0    0 -0.25116621817E+02  0.75721243005E+01  0.14594362494E+04  0.14597062539E+04  0.10000000000E+02 0. -1.
</event>
<event>
 5    1  0.1572996E-008  0.3825525E+03  0.7957747E-01  0.3440119E+00
         13   -1    0    0    0    0  0.00000000000E+00  0.00000000000E+00  0.14999999963E+04  0.15000000000E+04  0.10566000000E+00 0.  1.
        994   -1    0    0    0    0 -0.00000000000E+00 -0.00000000000E+00  0.11368683772E-12  0.17120000000E+03  0.17120000000E+03 0.  0.
         13    1    1    2    0    0  0.18157045617E+02  0.16054097567E+01  0.56332363089E+02  0.59208123946E+02  0.10566000000E+00 0.  1.
        994    1    1    2    0    0 -0.15844789914E+02 -0.13569954900E+01  0.36889461902E+01  0.17197658890E+03  0.17120000000E+03 0.  0.
        998    1    1    2    0    0 -0.23122557029E+01 -0.24841426670E+00  0.14399786870E+04  0.14400152872E+04  0.10000000000E+02 0.  1.
</event>
<event>
 5    1  0.1572996E-008  0.3748782E+03  0.7957747E-01  0.3473768E+00
         13   -1    0    0    0    0  0.00000000000E+00  0.00000000000E+00  0.14999999963E+04  0.15000000000E+04  0.10566000000E+00 0. -1.
        994   -1    0    0    0    0 -0.00000000000E+00 -0.00000000000E+00  0.11368683772E-12  0.17120000000E+03  0.17120000000E+03 0.  0.
         13    1    1    2    0    0 -0.12810293580E+02 -0.14932631765E+02  0.25800048875E+02  0.32445967377E+02  0.10566000000E+00 0. -1.
        994    1    1    2    0    0 -0.15186861792E+01  0.20940859550E+02  0.82418120204E+01  0.17267945295E+03  0.17120000000E+03 0.  0.
        998    1    1    2    0    0  0.14328979759E+02 -0.60082277850E+01  0.14659581354E+04  0.14660745797E+04  0.10000000000E+02 0. -1.
</event>
<event>
 5    1  0.1572996E-008  0.3826779E+03  0.7957747E-01  0.3439580E+00
         13   -1    0    0    0    0  0.00000000000E+00  0.00000000000E+00  0.14999999963E+04  0.15000000000E+04  0.10566000000E+00 0. -1.
        994   -1    0    0    0    0 -0.00000000000E+00 -0.00000000000E+00  0.11368683772E-12  0.17120000000E+03  0.17120000000E+03 0.  0.
         13    1    1    2    0    0  0.15740144466E+02  0.18874893475E+02  0.10927859303E+03  0.11200819528E+03  0.10566000000E+00 0. -1.
        994    1    1    2    0    0 -0.12631712634E+02 -0.58299122817E+01  0.34290137842E+01  0.17179856279E+03  0.17120000000E+03 0.  0.
        998    1    1    2    0    0 -0.31084318323E+01 -0.13044981193E+02  0.13872923895E+04  0.13873932419E+04  0.10000000000E+02 0. -1.
</event>
<event>
 5    1  0.1572996E-008  0.3839489E+03  0.7957747E-01  0.3434142E+00
         13   -1    0    0    0    0  0.00000000000E+00  0.00000000000E+00  0.14999999963E+04  0.15000000000E+04  0.10566000000E+00 0. -1.
        994   -1    0    0    0    0 -0.00000000000E+00 -0.00000000000E+00  0.11368683772E-12  0.17120000000E+03  0.17120000000E+03 0.  0.
         13    1    1    2    0    0 -0.72149230549E+01 -0.16348531905E+02  0.79573325268E+02  0.81555225880E+02  0.10566000000E+00 0. -1.
        994    1    1    2    0    0 -0.10636883426E+02  0.40231480058E+01  0.25797949159E+01  0.17159669097E+03  0.17120000000E+03 0.  0.
        998    1    1    2    0    0  0.17851806481E+02  0.12325383899E+02  0.14178468761E+04  0.14180480832E+04  0.10000000000E+02 0. -1.
</event>
<event>
 5    1  0.1572996E-008  0.3831308E+03  0.7957747E-01  0.3437639E+00
         13   -1    0    0    0    0  0.00000000000E+00  0.00000000000E+00  0.14999999963E+04  0.15000000000E+04  0.10566000000E+00 0.  1.
        994   -1    0    0    0    0 -0.00000000000E+00 -0.00000000000E+00  0.11368683772E-12  0.17120000000E+03  0.17120000000E+03 0.  0.
         13    1    1    2    0    0 -0.61293581794E+01 -0.15910133593E+02  0.57001369119E+02  0.59496795108E+02  0.10566000000E+00 0.  1.
        994    1    1    2    0    0  0.46159520574E+00  0.79431445405E+01  0.27705081895E+01  0.17140718285E+03  0.17120000000E+03 0.  0.
        998    1    1    2    0    0  0.56677629736E+01  0.79669890524E+01  0.14402281190E+04  0.14402960220E+04  0.10000000000E+02 0.  1.
</event>
<event>
 5    1  0.1572996E-008  0.3853696E+03  0.7957747E-01  0.3428106E+00
         13   -1    0    0    0    0  0.00000000000E+00  0.00000000000E+00  0.14999999963E+04  0.15000000000E+04  0.10566000000E+00 0.  1.
        994   -1    0    0    0    0 -0.00000000000E+00 -0.00000000000E+00  0.11368683772E-12  0.17120000000E+03  0.17120000000E+03 0.  0.
         13    1    1    2    0    0  0.10398219823E+01 -0.14314712063E+02  0.74144292609E+02  0.75520722333E+02  0.10566000000E+00 0.  1.
        994    1    1    2    0    0  0.54387415264E+01  0.47722537125E+01  0.16187137675E+01  0.17136048129E+03  0.17120000000E+03 0.  0.
        998    1    1    2    0    0 -0.64785635088E+01  0.95424583509E+01  0.14242369899E+04  0.14243187964E+04  0.10000000000E+02 0.  1.
</event>
<event>
 5    1  0.1572996E-008  0.3812331E+03  0.7957747E-01  0.3445807E+00
         13   -1    0    0    0    0  0.00000000000E+00  0.00000000000E+00  0.14999999963E+04  0.15000000000E+04  0.10566000000E+00 0. -1.
        994   -1    0    0    0    0 -0.00000000000E+00 -0.00000000000E+00  0.11368683772E-12  0.17120000000E+03  0.17120000000E+03 0.  0.
         13    1    1    2    0    0  0.13560138574E+02  0.18678740175E+02  0.75194281124E+02  0.78657255041E+02  0.10566000000E+00 0. -1.
        994    1    1    2    0    0  0.10865768218E+02 -0.24424592151E+02  0.58948407420E+01  0.17337478123E+03  0.17120000000E+03 0.  0.
        998    1    1    2    0    0 -0.24425906793E+02  0.57458519763E+01  0.14189108744E+04  0.14191679637E+04  0.10000000000E+02 0. -1.
</event>
<event>
 5    1  0.1572996E-008  0.3745575E+03  0.7957747E-01  0.3475204E+00
         13   -1    0    0    0    0  0.00000000000E+00  0.00000000000E+00  0.14999999963E+04  0.15000000000E+04  0.10566000000E+00 0.  1.
        994   -1    0    0    0    0 -0.00000000000E+00 -0.00000000000E+00  0.11368683772E-12  0.17120000000E+03  0.17120000000E+03 0.  0.
         13    1    1    2    0    0  0.47286400837E+01  0.53859918957E+02  0.24057596569E+03  0.24657667639E+03  0.10566000000E+00 0.  1.
        994    1    1    2    0    0  0.16150675877E+02 -0.12157899964E+02  0.82985661615E+01  0.17258900621E+03  0.17120000000E+03 0.  0.
        998    1    1    2    0    0 -0.20879315961E+02 -0.41702018994E+02  0.12511254644E+04  0.12520343174E+04  0.10000000000E+02 0.  1.
</event>
<event>
 5    1  0.1572996E-008  0.3701062E+03  0.7957747E-01  0.3495403E+00
         13   -1    0    0    0    0  0.00000000000E+00  0.00000000000E+00  0.14999999963E+04  0.15000000000E+04  0.10566000000E+00 0.  1.
        994   -1    0    0    0    0 -0.00000000000E+00 -0.00000000000E+00  0.11368683772E-12  0.17120000000E+03  0.17120000000E+03 0.  0.
         13    1    1    2    0    0  0.13630702150E+02  0.32729344021E+02  0.71130115652E+02  0.79476477765E+02  0.10566000000E+00 0.  1.
        994    1    1    2    0    0  0.48497837846E+01  0.41268395706E+01  0.93537554441E+01  0.17157355259E+03  0.17120000000E+03 0.  0.
        998    1    1    2    0    0 -0.18480485935E+02 -0.36856183592E+02  0.14195161252E+04  0.14201499696E+04  0.10000000000E+02 0.  1.
</event>
<event>
 5    1  0.1572996E-008  0.3807336E+03  0.7957747E-01  0.3447970E+00
         13   -1    0    0    0    0  0.00000000000E+00  0.00000000000E+00  0.14999999963E+04  0.15000000000E+04  0.10566000000E+00 0.  1.
        994   -1    0    0    0    0 -0.00000000000E+00 -0.00000000000E+00  0.11368683772E-12  0.17120000000E+03  0.17120000000E+03 0.  0.
         13    1    1    2    0    0 -0.24599921608E+01 -0.41017439910E+02  0.17265066443E+03  0.17747322341E+03  0.10566000000E+00 0.  1.
        994    1    1    2    0    0  0.50429664903E+02  0.61203920517E+02  0.25028967567E+02  0.19032855857E+03  0.17120000000E+03 0.  0.
        998    1    1    2    0    0 -0.47969672742E+02 -0.20186480607E+02  0.13023203643E+04  0.13033982180E+04  0.10000000000E+02 0.  1.
</event>
<event>
 5    1  0.1572996E-008  0.3778230E+03  0.7957747E-01  0.3460693E+00
         13   -1    0    0    0    0  0.00000000000E+00  0.00000000000E+00  0.14999999963E+04  0.15000000000E+04  0.10566000000E+00 0. -1.
        994   -1    0    0    0    0 -0.00000000000E+00 -0.00000000000E+00  0.11368683772E-12  0.17120000000E+03  0.17120000000E+03 0.  0.
         13    1    1    2    0    0  0.40599126224E+02  0.24293609296E+01  0.16098267528E+03  0.16604103032E+03  0.10566000000E+00 0. -1.
        994    1    1    2    0    0 -0.18871455431E+02  0.20268635077E+01  0.64500536937E+01  0.17236961217E+03  0.17120000000E+03 0.  0.
        998    1    1    2    0    0 -0.21727670794E+02 -0.44562244373E+01  0.13325672673E+04  0.13327893575E+04  0.10000000000E+02 0. -1.
</event>
<event>
 5    1  0.1572996E-008  0.3783664E+03  0.7957747E-01  0.3458303E+00
         13   -1    0    0    0    0  0.00000000000E+00  0.00000000000E+00  0.14999999963E+04  0.15000000000E+04  0.10566000000E+00 0. -1.
        994   -1    0    0    0    0 -0.00000000000E+00 -0.00000000000E+00  0.11368683772E-12  0.17120000000E+03  0.17120000000E+03 0.  0.
         13    1    1    2    0    0  0.13973119445E+02  0.40402957405E+01  0.18933987318E+02  0.23876329209E+02  0.10566000000E+00 0. -1.
        994    1    1    2    0    0 -0.16362098532E+02 -0.11806463247E+01  0.58650776927E+01  0.17208414026E+03  0.17120000000E+03 0.  0.
        998    1    1    2    0    0  0.23889790873E+01 -0.28596494158E+01  0.14752009313E+04  0.14752395305E+04  0.10000000000E+02 0. -1.
</event>
<event>
 5    1  0.1572996E-008  0.3827189E+03  0.7957747E-01  0.3439404E+00
         13   -1    0    0    0    0  0.00000000000E+00  0.00000000000E+00  0.14999999963E+04  0.15000000000E+04  0.10566000000E+00 0.  1.
        994   -1    0    0    0    0 -0.00000000000E+00 -0.00000000000E+00  0.11368683772E-12  0.17120000000E+03  0.17120000000E+03 0.  0.
         13    1    1    2    0    0 -0.44161549555E+01  0.19458940169E+02  0.69786528078E+02  0.72583217360E+02  0.10566000000E+00 0.  1.
        994    1    1    2    0    0  0.97731727290E+01 -0.14652293604E+02  0.37953254050E+01  0.17214543011E+03  0.17120000000E+03 0.  0.
        998    1    1    2    0    0 -0.53570177735E+01 -0.48066465659E+01  0.14264181428E+04  0.14264713525E+04  0.10000000000E+02 0.  1.
</event>
<event>
 5    1  0.1572996E-008  0.3787752E+03  0.7957747E-01  0.3456509E+00
         13   -1    0    0    0    0  0.00000000000E+00  0.00000000000E+00  0.14999999963E+04  0.15000000000E+04  0.10566000000E+00 0.  1.
        994   -1    0    0    0    0 -0.00000000000E+00 -0.00000000000E+00  0.11368683772E-12  0.17120000000E+03  0.17120000000E+03 0.  0.
         13    1    1    2    0    0  0.13005717350E+02  0.17049960459E+02  0.46553318410E+02  0.51254974924E+02  0.10566000000E+00 0.  1.
        994    1    1    2    0    0 -0.55561258063E+01 -0.13471489088E+02  0.54657476492E+01  0.17190597997E+03  0.17120000000E+03 0.  0.
        998    1    1    2    0    0 -0.74495915433E+01 -0.35784713716E+01  0.14479809302E+04  0.14480390451E+04  0.10000000000E+02 0.  1.
</event>
<event>
 5    1  0.1572996E-008  0.3807253E+03  0.7957747E-01  0.3448006E+00
         13   -1    0    0    0    0  0.00000000000E+00  0.00000000000E+00  0.14999999963E+04  0.15000000000E+04  0.10566000000E+00 0.  1.
        994   -1    0    0    0    0 -0.00000000000E+00 -0.00000000000E+00  0.11368683772E-12  0.17120000000E+03  0.17120000000E+03 0.  0.
         13    1    1    2    0    0 -0.60933966066E+01  0.20443046125E+02  0.70896208054E+02  0.74036012166E+02  0.10566000000E+00 0.  1.
        994    1    1    2    0    0  0.10394218500E+02  0.29685527949E+02  0.70736325228E+01  0.17420891661E+03  0.17120000000E+03 0.  0.
        998    1    1    2    0    0 -0.43008218938E+01 -0.50128574073E+02  0.14220301557E+04  0.14229550712E+04  0.10000000000E+02 0.  1.
</event>
<event>
 5    1  0.1572996E-008  0.3804101E+03  0.7957747E-01  0.3449375E+00
         13   -1    0    0    0    0  0.00000000000E+00  0.00000000000E+00  0.14999999963E+04  0.15000000000E+04  0.10566000000E+00 0. -1.
        994   -1    0    0    0    0 -0.00000000000E+00 -0.00000000000E+00  0.11368683772E-12  0.17120000000E+03  0.17120000000E+03 0.  0.
         13    1    1    2    0    0 -0.31613590638E+02  0.19253599915E+02  0.19690051745E+03  0.20034955742E+03  0.10566000000E+00 0. -1.
        994    1    1    2    0    0 -0.35193729693E+01 -0.15538752371E+02  0.47741316536E+01  0.17200602066E+03  0.17120000000E+03 0.  0.
        998    1    1    2    0    0  0.35132963608E+02 -0.37148475438E+01  0.12983253472E+04  0.12988444219E+04  0.10000000000E+02 0. -1.
</event>
<event>
 5    1  0.1572996E-008  0.3741214E+03  0.7957747E-01  0.3477162E+00
         13   -1    0    0    0    0  0.00000000000E+00  0.00000000000E+00  0.14999999963E+04  0.15000000000E+04  0.10566000000E+00 0. -1.
        994   -1    0    0    0    0 -0.00000000000E+00 -0.00000000000E+00  0.11368683772E-12  0.17120000000E+03  0.17120000000E+03 0.  0.
         13    1    1    2    0    0  0.97391213405E+02  0.34061399739E+02  0.54664806470E+03  0.55629969010E+03  0.10566000000E+00 0. -1.
        994    1    1    2    0    0 -0.98174281794E+02  0.21952904004E+01  0.40754188566E+02  0.20152754847E+03  0.17120000000E+03 0.  0.
        998    1    1    2    0    0  0.78306838947E+00 -0.36256690139E+02  0.91259774302E+03  0.91337276144E+03  0.10000000000E+02 0.  1.
</event>
<event>
 5    1  0.1572996E-008  0.3823262E+03  0.7957747E-01  0.3441092E+00
         13   -1    0    0    0    0  0.00000000000E+00  0.00000000000E+00  0.14999999963E+04  0.15000000000E+04  0.10566000000E+00 0. -1.
        994   -1    0    0    0    0 -0.00000000000E+00 -0.00000000000E+00  0.11368683772E-12  0.17120000000E+03  0.17120000000E+03 0.  0.
         13    1    1    2    0    0 -0.11328644060E+02  0.82432012772E+01  0.32916809434E+02  0.35774516780E+02  0.10566000000E+00 0. -1.
        994    1    1    2    0    0 -0.19197871492E+01 -0.63894550690E+01  0.31111669802E+01  0.17135819233E+03  0.17120000000E+03 0.  0.
        998    1    1    2    0    0  0.13248431210E+02 -0.18537462082E+01  0.14639720199E+04  0.14640672909E+04  0.10000000000E+02 0. -1.
</event>
<event>
 5    1  0.1572996E-008  0.3810186E+03  0.7957747E-01  0.3446735E+00
         13   -1    0    0    0    0  0.00000000000E+00  0.00000000000E+00  0.14999999963E+04  0.15000000000E+04  0.10566000000E+00 0.  1.
        994   -1    0    0    0    0 -0.00000000000E+00 -0.00000000000E+00  0.11368683772E-12  0.17120000000E+03  0.17120000000E+03 0.  0.
         13    1    1    2    0    0 -0.60765261429E+01 -0.16022434398E+02  0.37514337705E+02  0.41242929957E+02  0.10566000000E+00 0.  1.
        994    1    1    2    0    0  0.85414604946E+01  0.22490398964E+02  0.55505101034E+01  0.17297116163E+03  0.17120000000E+03 0.  0.
        998    1    1    2    0    0 -0.24649343518E+01 -0.64679645667E+01  0.14569351485E+04  0.14569859084E+04  0.10000000000E+02 0.  1.
</event>
<event>
 5    1  0.1572996E-008  0.2477690E+03  0.7957747E-01  0.4357782E+00
         13   -1    0    0    0    0  0.00000000000E+00  0.00000000000E+00  0.14999999963E+04  0.15000000000E+04  0.10566000000E+00 0.  1.
        994   -1    0    0    0    0 -0.00000000000E+00 -0.00000000000E+00  0.11368683772E-12  0.17120000000E+03  0.17120000000E+03 0.  0.
         13    1    1    2    0    0  0.14089723058E+03 -0.87194031271E+02  0.26601828402E+03  0.31340160700E+03  0.10566000000E+00 0.  1.
        994    1    1    2    0    0 -0.18115318666E+03  0.37688274006E+02  0.19995919860E+03  0.32176078713E+03  0.17120000000E+03 0.  0.
        998    1    1    2    0    0  0.40255956082E+02  0.49505757266E+02  0.10340225137E+04  0.10360376059E+04  0.10000000000E+02 0. -1.
</event>
<event>
 5    1  0.1572996E-008  0.3836123E+03  0.7957747E-01  0.3435579E+00
         13   -1    0    0    0    0  0.00000000000E+00  0.00000000000E+00  0.14999999963E+04  0.15000000000E+04  0.10566000000E+00 0. -1.
        994   -1    0    0    0    0 -0.00000000000E+00 -0.00000000000E+00  0.11368683772E-12  0.17120000000E+03  0.17120000000E+03 0.  0.
         13    1    1    2    0    0  0.19729875365E+02  0.37693099184E+01  0.81106608900E+02  0.83556979664E+02  0.10566000000E+00 0. -1.
        994    1    1    2    0    0 -0.23035451490E+02 -0.37865033084E+01  0.41230419112E+01  0.17283347218E+03  0.17120000000E+03 0.  0.
        998    1    1    2    0    0  0.33055761255E+01  0.17193389972E-01  0.14147703455E+04  0.14148095482E+04  0.10000000000E+02 0. -1.
</event>
<event>
 5    1  0.1572996E-008  0.3807396E+03  0.7957747E-01  0.3447944E+00
         13   -1    0    0    0    0  0.00000000000E+00  0.00000000000E+00  0.14999999963E+04  0.15000000000E+04  0.10566000000E+00 0. -1.
        994   -1    0    0    0    0 -0.00000000000E+00 -0.00000000000E+00  0.11368683772E-12  0.17120000000E+03  0.17120000000E+03 0.  0.
         13    1    1    2    0    0  0.10822047606E+02 -0.27679250337E+02  0.13103411679E+03  0.13436222884E+03  0.10566000000E+00 0. -1.
        994    1    1    2    0    0 -0.10800114216E+02 -0.55559548412E+01  0.42523114426E+01  0.17168294398E+03  0.17120000000E+03 0.  0.
        998    1    1    2    0    0 -0.21933389118E-01  0.33235205178E+02  0.13647135680E+04  0.13651548272E+04  0.10000000000E+02 0. -1.
</event>
<event>
 5    1  0.1572996E-008  0.3837550E+03  0.7957747E-01  0.3434969E+00
         13   -1    0    0    0    0  0.00000000000E+00  0.00000000000E+00  0.14999999963E+04  0.15000000000E+04  0.10566000000E+00 0.  1.
        994   -1    0    0    0    0 -0.00000000000E+00 -0.00000000000E+00  0.11368683772E-12  0.17120000000E+03  0.17120000000E+03 0.  0.
         13    1    1    2    0    0 -0.23736685491E+01 -0.11740100741E+02  0.31599244084E+02  0.33793307896E+02  0.10566000000E+00 0.  1.
        994    1    1    2    0    0 -0.44530111184E+01  0.62110954327E+01  0.24423880918E+01  0.17138790002E+03  0.17120000000E+03 0.  0.
        998    1    1    2    0    0  0.68266796675E+01  0.55290053088E+01  0.14659583641E+04  0.14660187921E+04  0.10000000000E+02 0.  1.
</event>
<event>
 5    1  0.1572996E-008  0.3812624E+03  0.7957747E-01  0.3445680E+00
         13   -1    0    0    0    0  0.00000000000E+00  0.00000000000E+00  0.14999999963E+04  0.15000000000E+04  0.10566000000E+00 0. -1.
        994   -1    0    0    0    0 -0.00000000000E+00 -0.00000000000E+00  0.11368683772E-12  0.17120000000E+03  0.17120000000E+03 0.  0.
         13    1    1    2    0    0 -0.21732545696E+02 -0.27091658939E+01  0.65235967177E+02  0.68814138807E+02  0.10566000000E+00 0. -1.
        994    1    1    2    0    0  0.20641984405E+02  0.49206452689E+01  0.49977721837E+01  0.17258250780E+03  0.17120000000E+03 0.  0.
        998    1    1    2    0    0  0.10905612914E+01 -0.22114793749E+01  0.14297662569E+04  0.14298033534E+04  0.10000000000E+02 0. -1.
</event>
<event>
 5    1  0.1572996E-008  0.3863598E+03  0.7957747E-01  0.3423926E+00
         13   -1    0    0    0    0  0.00000000000E+00  0.00000000000E+00  0.14999999963E+04  0.15000000000E+04  0.10566000000E+00 0.  1.
        994   -1    0    0    0    0 -0.00000000000E+00 -0.00000000000E+00  0.11368683772E-12  0.17120000000E+03  0.17120000000E+03 0.  0.
         13    1    1    2    0    0  0.23475756486E+02 -0.12660262189E+03  0.32443497092E+03  0.34905214013E+03  0.10566000000E+00 0.  1.
        994    1    1    2    0    0  0.23211016143E+01  0.12539281353E+03  0.80878740746E+02  0.22711132932E+03  0.17120000000E+03 0.  0.
        998    1    1    2    0    0 -0.25796858100E+02  0.12098083533E+01  0.10946862846E+04  0.10950365306E+04  0.10000000000E+02 0.  1.
</event>
<event>
 5    1  0.1572996E-008  0.3854880E+03  0.7957747E-01  0.3427605E+00
         13   -1    0    0    0    0  0.00000000000E+00  0.00000000000E+00  0.14999999963E+04  0.15000000000E+04  0.10566000000E+00 0.  1.
        994   -1    0    0    0    0 -0.00000000000E+00 -0.00000000000E+00  0.11368683772E-12  0.17120000000E+03  0.17120000000E+03 0.  0.
         13    1    1    2    0    0 -0.11388553483E+02 -0.19357099967E+01  0.49131804652E+02  0.50471690243E+02  0.10566000000E+00 0.  1.
        994    1    1    2    0    0  0.59168760057E+01 -0.59168534281E+01  0.16179921683E+01  0.17141200797E+03  0.17120000000E+03 0.  0.
        998    1    1    2    0    0  0.54716774775E+01  0.78525634248E+01  0.14492501995E+04  0.14493163018E+04  0.10000000000E+02 0.  1.
</event>
<event>
 5    1  0.1572996E-008  0.3777940E+03  0.7957747E-01  0.3460821E+00
         13   -1    0    0    0    0  0.00000000000E+00  0.00000000000E+00  0.14999999963E+04  0.15000000000E+04  0.10566000000E+00 0.  1.
        994   -1    0    0    0    0 -0.00000000000E+00 -0.00000000000E+00  0.11368683772E-12  0.17120000000E+03  0.17120000000E+03 0.  0.
         13    1    1    2    0    0 -0.24168563319E+02 -0.37781472618E+01  0.53031936962E+02  0.58401980717E+02  0.10566000000E+00 0.  1.
        994    1    1    2    0    0  0.26523772726E+02 -0.67869933858E+00  0.76251197620E+01  0.17341151520E+03  0.17120000000E+03 0.  0.
        998    1    1    2    0    0 -0.23552094063E+01  0.44568466004E+01  0.14393429396E+04  0.14393865041E+04  0.10000000000E+02 0.  1.
</event>
<event>
 5    1  0.1572996E-008  0.3830473E+03  0.7957747E-01  0.3437996E+00
         13   -1    0    0    0    0  0.00000000000E+00  0.00000000000E+00  0.14999999963E+04  0.15000000000E+04  0.10566000000E+00 0. -1.
        994   -1    0    0    0    0 -0.00000000000E+00 -0.00000000000E+00  0.11368683772E-12  0.17120000000E+03  0.17120000000E+03 0.  0.
         13    1    1    2    0    0 -0.47069777214E+02 -0.48833340141E+01  0.28262794338E+03  0.28656234300E+03  0.10566000000E+00 0. -1.
        994    1    1    2    0    0  0.68756838870E+02 -0.45626331865E+01  0.18479819228E+02  0.18547038640E+03  0.17120000000E+03 0.  0.
        998    1    1    2    0    0 -0.21687061655E+02  0.94459672006E+01  0.11988922337E+04  0.11991672706E+04  0.10000000000E+02 0. -1.
</event>
<event>
 5    1  0.1572996E-008  0.3367383E+03  0.7957747E-01  0.3664272E+00
         13   -1    0    0    0    0  0.00000000000E+00  0.00000000000E+00  0.14999999963E+04  0.15000000000E+04  0.10566000000E+00 0.  1.
        994   -1    0    0    0    0 -0.00000000000E+00 -0.00000000000E+00  0.11368683772E-12  0.17120000000E+03  0.17120000000E+03 0.  0.
         13    1    1    2    0    0 -0.19468061699E+03  0.86715342420E+02  0.93689611943E+03  0.96083008019E+03  0.10566000000E+00 0.  1.
        994    1    1    2    0    0  0.19982643827E+03 -0.24226474726E+02  0.17462055165E+03  0.31673222849E+03  0.17120000000E+03 0.  0.
        998    1    1    2    0    0 -0.51458212769E+01 -0.62488867694E+02  0.38848332520E+03  0.39363769132E+03  0.10000000000E+02 0. -1.
</event>
<event>
 5    1  0.1572996E-008  0.3863167E+03  0.7957747E-01  0.3424107E+00
         13   -1    0    0    0    0  0.00000000000E+00  0.00000000000E+00  0.14999999963E+04  0.15000000000E+04  0.10566000000E+00 0. -1.
        994   -1    0    0    0    0 -0.00000000000E+00 -0.00000000000E+00  0.11368683772E-12  0.17120000000E+03  0.17120000000E+03 0.  0.
         13    1    1    2    0    0  0.65428874936E+01 -0.86826928081E+01  0.58099758219E+02  0.59108303988E+02  0.10566000000E+00 0. -1.
        994    1    1    2    0    0 -0.49473535635E-01  0.18761101272E+02  0.21312865623E+01  0.17223810191E+03  0.17120000000E+03 0.  0.
        998    1    1    2    0    0 -0.64934139580E+01 -0.10078408463E+02  0.14397689515E+04  0.14398535941E+04  0.10000000000E+02 0. -1.
</event>
<event>
 5    1  0.1572996E-008  0.3763034E+03  0.7957747E-01  0.3467414E+00
         13   -1    0    0    0    0  0.00000000000E+00  0.00000000000E+00  0.14999999963E+04  0.15000000000E+04  0.10566000000E+00 0. -1.
        994   -1    0    0    0    0 -0.00000000000E+00 -0.00000000000E+00  0.11368683772E-12  0.17120000000E+03  0.17120000000E+03 0.  0.
         13    1    1    2    0    0  0.38265881764E+02  0.27107376694E+01  0.11037831630E+03  0.11685465194E+03  0.10566000000E+00 0. -1.
        994    1    1    2    0    0 -0.42494308136E+02  0.59715632791E+01  0.12268449122E+02  0.17692196199E+03  0.17120000000E+03 0.  0.
        998    1    1    2    0    0  0.42284263725E+01 -0.86823009485E+01  0.13773532309E+04  0.13774233861E+04  0.10000000000E+02 0. -1.
</event>
<event>
 5    1  0.1572996E-008  0.3813240E+03  0.7957747E-01  0.3445413E+00
         13   -1    0    0    0    0  0.00000000000E+00  0.00000000000E+00  0.14999999963E+04  0.15000000000E+04  0.10566000000E+00 0. -1.
        994   -1    0    0    0    0 -0.00000000000E+00 -0.00000000000E+00  0.11368683772E-12  0.17120000000E+03  0.17120000000E+03 0.  0.
         13    1    1    2    0    0 -0.32130359111E+01 -0.29557305048E+02  0.12961968315E+03  0.13298583122E+03  0.10566000000E+00 0. -1.
        994    1    1    2    0    0  0.41833244328E+01  0.13410237939E+02  0.41233384336E+01  0.17182484280E+03  0.17120000000E+03 0.  0.
        998    1    1    2    0    0 -0.97028852165E+00  0.16147067109E+02  0.13662569747E+04  0.13663893260E+04  0.10000000000E+02 0. -1.
</event>
<event>
 5    1  0.1572996E-008  0.3741253E+03  0.7957747E-01  0.3477144E+00
         13   -1    0    0    0    0  0.00000000000E+00  0.00000000000E+00  0.14999999963E+04  0.15000000000E+04  0.10566000000E+00 0.  1.
        994   -1    0    0    0    0 -0.00000000000E+00 -0.00000000000E+00  0.11368683772E-12  0.17120000000E+03  0.17120000000E+03 0.  0.
         13    1    1    2    0    0  0.29247362567E+02 -0.14950252282E+00  0.59497606339E+02  0.66297864915E+02  0.10566000000E+00 0.  1.
        994    1    1    2    0    0 -0.75198075497E+01 -0.16432475582E+01  0.73306137816E+01  0.17152966410E+03  0.17120000000E+03 0.  0.
        998    1    1    2    0    0 -0.21727555018E+02  0.17927500810E+01  0.14331717762E+04  0.14333724710E+04  0.10000000000E+02 0.  1.
</event>
<event>
 5    1  0.1572996E-008  0.3724088E+03  0.7957747E-01  0.3484893E+00
         13   -1    0    0    0    0  0.00000000000E+00  0.00000000000E+00  0.14999999963E+04  0.15000000000E+04  0.10566000000E+00 0. -1.
        994   -1    0    0    0    0 -0.00000000000E+00 -0.00000000000E+00  0.11368683772E-12  0.17120000000E+03  0.17120000000E+03 0.  0.
         13    1    1    2    0    0  0.21820230217E+02 -0.11576086994E+02  0.34064142465E+02  0.42077371623E+02  0.10566000000E+00 0. -1.
        994    1    1    2    0    0 -0.20585841907E+02  0.14512011439E+02  0.10193867080E+02  0.17334281147E+03  0.17120000000E+03 0.  0.
        998    1    1    2    0    0 -0.12343883100E+01 -0.29359244448E+01  0.14557419867E+04  0.14557798169E+04  0.10000000000E+02 0. -1.
</event>
<event>
 5    1  0.1572996E-008  0.3807089E+03  0.7957747E-01  0.3448078E+00
         13   -1    0    0    0    0  0.00000000000E+00  0.00000000000E+00  0.14999999963E+04  0.15000000000E+04  0.10566000000E+00 0. -1.
        994   -1    0    0    0    0 -0.00000000000E+00 -0.00000000000E+00  0.11368683772E-12  0.17120000000E+03  0.17120000000E+03 0.  0.
         13    1    1    2    0    0  0.41784893185E+02 -0.81015184380E+01  0.19990815821E+03  0.20438907697E+03  0.10566000000E+00 0. -1.
        994    1    1    2    0    0 -0.49019107469E+02  0.98723848157E+00  0.11834745354E+02  0.17847506474E+03  0.17120000000E+03 0.  0.
        998    1    1    2    0    0  0.72342142849E+01  0.71142799565E+01  0.12882570927E+04  0.12883358583E+04  0.10000000000E+02 0. -1.
</event>
<event>
 5    1  0.1572996E-008  0.3785339E+03  0.7957747E-01  0.3457567E+00
         13   -1    0    0    0    0  0.00000000000E+00  0.00000000000E+00  0.14999999963E+04  0.15000000000E+04  0.10566000000E+00 0. -1.
        994   -1    0    0    0    0 -0.00000000000E+00 -0.00000000000E+00  0.11368683772E-12  0.17120000000E+03  0.17120000000E+03 0.  0.
         13    1    1    2    0    0  0.31353410597E+02  0.65772716376E+01  0.12355110093E+03  0.12763691693E+03  0.10566000000E+00 0. -1.
        994    1    1    2    0    0  0.11151141460E+02  0.10319127857E+02  0.56508669596E+01  0.17196570778E+03  0.17120000000E+03 0.  0.
        998    1    1    2    0    0 -0.42504552058E+02 -0.16896399494E+02  0.13707980284E+04  0.13715973753E+04  0.10000000000E+02 0. -1.
</event>
<event>
 5    1  0.1572996E-008  0.3801595E+03  0.7957747E-01  0.3450464E+00
         13   -1    0    0    0    0  0.00000000000E+00  0.00000000000E+00  0.14999999963E+04  0.15000000000E+04  0.10566000000E+00 0. -1.
        994   -1    0    0    0    0 -0.00000000000E+00 -0.00000000000E+00  0.11368683772E-12  0.17120000000E+03  0.17120000000E+03 0.  0.
         13    1    1    2    0    0 -0.42148455725E+02  0.11285019568E+02  0.25895092980E+03  0.26260129321E+03  0.10566000000E+00 0. -1.
        994    1    1    2    0    0  0.12513170812E+02 -0.44139237114E+01  0.46411240125E+01  0.17177613978E+03  0.17120000000E+03 0.  0.
        998    1    1    2    0    0  0.29635284912E+02 -0.68710958562E+01  0.12364079425E+04  0.12368225670E+04  0.10000000000E+02 0. -1.
</event>
<event>
 5    1  0.1572996E-008  0.3790327E+03  0.7957747E-01  0.3455381E+00
         13   -1    0    0    0    0  0.00000000000E+00  0.00000000000E+00  0.14999999963E+04  0.15000000000E+04  0.10566000000E+00 0.  1.
        994   -1    0    0    0    0 -0.00000000000E+00 -0.00000000000E+00  0.11368683772E-12  0.17120000000E+03  0.17120000000E+03 0.  0.
         13    1    1    2    0    0  0.45638345940E+02  0.27413655723E+02  0.18521523499E+03  0.19271497496E+03  0.10566000000E+00 0.  1.
        994    1    1    2    0    0 -0.10149081412E+03 -0.43708069421E+02  0.46727365103E+02  0.20905422103E+03  0.17120000000E+03 0.  0.
        998    1    1    2    0    0  0.55852468177E+02  0.16294413699E+02  0.12680573962E+04  0.12694308040E+04  0.10000000000E+02 0.  1.
</event>
<event>
 5    1  0.1572996E-008  0.3142644E+03  0.7957747E-01  0.3799169E+00
         13   -1    0    0    0    0  0.00000000000E+00  0.00000000000E+00  0.14999999963E+04  0.15000000000E+04  0.10566000000E+00 0. -1.
        994   -1    0    0    0    0 -0.00000000000E+00 -0.00000000000E+00  0.11368683772E-12  0.17120000000E+03  0.17120000000E+03 0.  0.
         13    1    1    2    0    0 -0.21305128238E+02 -0.18268134744E+03  0.98131133800E+03  0.99839788484E+03  0.10566000000E+00 0. -1.
        994    1    1    2    0    0 -0.55031808537E+02  0.84649774986E+02  0.75819641604E+02  0.21272550954E+03  0.17120000000E+03 0.  0.
        998    1    1    2    0    0  0.76336936775E+02  0.98031572452E+02  0.44286901667E+03  0.46007660562E+03  0.10000000000E+02 0. -1.
</event>
<event>
 5    1  0.1572996E-008  0.3842412E+03  0.7957747E-01  0.3432897E+00
         13   -1    0    0    0    0  0.00000000000E+00  0.00000000000E+00  0.14999999963E+04  0.15000000000E+04  0.10566000000E+00 0.  1.
        994   -1    0    0    0    0 -0.00000000000E+00 -0.00000000000E+00  0.11368683772E-12  0.17120000000E+03  0.17120000000E+03 0.  0.
         13    1    1    2    0    0 -0.16480584166E+02  0.10412518987E+01  0.68992379529E+02  0.70941197178E+02  0.10566000000E+00 0.  1.
        994    1    1    2    0    0  0.83521627420E+01 -0.71968004346E+02  0.19508706352E+02  0.18692025544E+03  0.17120000000E+03 0.  0.
        998    1    1    2    0    0  0.81284214238E+01  0.70926752447E+02  0.14114989104E+04  0.14133385474E+04  0.10000000000E+02 0.  1.
</event>
<event>
 5    1  0.1572996E-008  0.3797384E+03  0.7957747E-01  0.3452298E+00
         13   -1    0    0    0    0  0.00000000000E+00  0.00000000000E+00  0.14999999963E+04  0.15000000000E+04  0.10566000000E+00 0.  1.
        994   -1    0    0    0    0 -0.00000000000E+00 -0.00000000000E+00  0.11368683772E-12  0.17120000000E+03  0.17120000000E+03 0.  0.
         13    1    1    2    0    0 -0.85286384137E+01 -0.25110781472E+02  0.84266273417E+02  0.88340845700E+02  0.10566000000E+00 0.  1.
        994    1    1    2    0    0  0.65385379573E+01  0.60936713550E+01  0.45325887861E+01  0.17149306012E+03  0.17120000000E+03 0.  0.
        998    1    1    2    0    0  0.19901004564E+01  0.19017110117E+02  0.14112011341E+04  0.14113660942E+04  0.10000000000E+02 0.  1.
</event>
<event>
 5    1  0.1572996E-008  0.3757745E+03  0.7957747E-01  0.3469766E+00
         13   -1    0    0    0    0  0.00000000000E+00  0.00000000000E+00  0.14999999963E+04  0.15000000000E+04  0.10566000000E+00 0. -1.
        994   -1    0    0    0    0 -0.00000000000E+00 -0.00000000000E+00  0.11368683772E-12  0.17120000000E+03  0.17120000000E+03 0.  0.
         13    1    1    2    0    0  0.71908826511E+01  0.13516621337E+02  0.15714109040E+02  0.21939740943E+02  0.10566000000E+00 0. -1.
        994    1    1    2    0    0 -0.68289464503E+01 -0.14951220811E+02  0.71980276780E+01  0.17213780850E+03  0.17120000000E+03 0.  0.
        998    1    1    2    0    0 -0.36193620079E+00  0.14345994732E+01  0.14770878596E+04  0.14771224506E+04  0.10000000000E+02 0. -1.
</event>
<event>
 5    1  0.1572996E-008  0.3789890E+03  0.7957747E-01  0.3455573E+00
         13   -1    0    0    0    0  0.00000000000E+00  0.00000000000E+00  0.14999999963E+04  0.15000000000E+04  0.10566000000E+00 0.  1.
        994   -1    0    0    0    0 -0.00000000000E+00 -0.00000000000E+00  0.11368683772E-12  0.17120000000E+03  0.17120000000E+03 0.  0.
         13    1    1    2    0    0  0.39084945136E+02 -0.76873751574E+01  0.18632486263E+03  0.19053528353E+03  0.10566000000E+00 0.  1.
        994    1    1    2    0    0 -0.60400080397E+01  0.18298917668E+02  0.58908634531E+01  0.17238176921E+03  0.17120000000E+03 0.  0.
        998    1    1    2    0    0 -0.33044937096E+02 -0.10611542510E+02  0.13077842702E+04  0.13082829473E+04  0.10000000000E+02 0.  1.
</event>
<event>
 5    1  0.1572996E-008  0.3809818E+03  0.7957747E-01  0.3446894E+00
         13   -1    0    0    0    0  0.00000000000E+00  0.00000000000E+00  0.14999999963E+04  0.15000000000E+04  0.10566000000E+00 0.  1.
        994   -1    0    0    0    0 -0.00000000000E+00 -0.00000000000E+00  0.11368683772E-12  0.17120000000E+03  0.17120000000E+03 0.  0.
         13    1    1    2    0    0  0.17108789075E+02 -0.74178334122E+01  0.45591644669E+02  0.49257934831E+02  0.10566000000E+00 0.  1.
        994    1    1    2    0    0 -0.15480541961E+02  0.76840444050E+01  0.46342430484E+01  0.17213253012E+03  0.17120000000E+03 0.  0.
        998    1    1    2    0    0 -0.16282471135E+01 -0.26621099283E+00  0.14497741086E+04  0.14498095350E+04  0.10000000000E+02 0.  1.
</event>
<event>
 5    1  0.1572996E-008  0.2903608E+03  0.7957747E-01  0.3967332E+00
         13   -1    0    0    0    0  0.00000000000E+00  0.00000000000E+00  0.14999999963E+04  0.15000000000E+04  0.10566000000E+00 0.  1.
        994   -1    0    0    0    0 -0.00000000000E+00 -0.00000000000E+00  0.11368683772E-12  0.17120000000E+03  0.17120000000E+03 0.  0.
         13    1    1    2    0    0  0.16382946978E+03  0.11080145283E+03  0.49921821848E+03  0.53696917783E+03  0.10566000000E+00 0.  1.
        994    1    1    2    0    0 -0.17331649744E+03 -0.13388842086E+03  0.22404793261E+03  0.35703169836E+03  0.17120000000E+03 0.  0.
        998    1    1    2    0    0  0.94870276663E+01  0.23086968025E+02  0.77673384519E+03  0.77719912381E+03  0.10000000000E+02 0. -1.
</event>
<event>
 5    1  0.1572996E-008  0.3814639E+03  0.7957747E-01  0.3444809E+00
         13   -1    0    0    0    0  0.00000000000E+00  0.00000000000E+00  0.14999999963E+04  0.15000000000E+04  0.10566000000E+00 0.  1.
        994   -1    0    0    0    0 -0.00000000000E+00 -0.00000000000E+00  0.11368683772E-12  0.17120000000E+03  0.17120000000E+03 0.  0.
         13    1    1    2    0    0  0.35813893911E+02  0.90352643811E+01  0.20911278578E+03  0.21234980419E+03  0.10566000000E+00 0.  1.
        994    1    1    2    0    0 -0.29829322139E+02  0.38702469472E+02  0.11380455702E+02  0.17840018042E+03  0.17120000000E+03 0.  0.
        998    1    1    2    0    0 -0.59845717719E+01 -0.47737733854E+02  0.12795067548E+04  0.12804500154E+04  0.10000000000E+02 0. -1.
</event>
<event>
 5    1  0.1572996E-008  0.3848090E+03  0.7957747E-01  0.3430483E+00
         13   -1    0    0    0    0  0.00000000000E+00  0.00000000000E+00  0.14999999963E+04  0.15000000000E+04  0.10566000000E+00 0. -1.
        994   -1    0    0    0    0 -0.00000000000E+00 -0.00000000000E+00  0.11368683772E-12  0.17120000000E+03  0.17120000000E+03 0.  0.
         13    1    1    2    0    0  0.31762696485E+01  0.98967802707E+01  0.31542293391E+02  0.33210877510E+02  0.10566000000E+00 0. -1.
        994    1    1    2    0    0 -0.63303153132E+01 -0.14276170986E+01  0.18635957562E+01  0.17133307904E+03  0.17120000000E+03 0.  0.
        998    1    1    2    0    0  0.31540456647E+01 -0.84691631721E+01  0.14665941071E+04  0.14666560435E+04  0.10000000000E+02 0. -1.
</event>
<event>
 5    1  0.1572996E-008  0.3830294E+03  0.7957747E-01  0.3438073E+00
         13   -1    0    0    0    0  0.00000000000E+00  0.00000000000E+00  0.14999999963E+04  0.15000000000E+04  0.10566000000E+00 0.  1.
        994   -1    0    0    0    0 -0.00000000000E+00 -0.00000000000E+00  0.11368683772E-12  0.17120000000E+03  0.17120000000E+03 0.  0.
         13    1    1    2    0    0  0.11248625318E+02 -0.10480721752E+02  0.47639512433E+02  0.50059079185E+02  0.10566000000E+00 0.  1.
        994    1    1    2    0    0  0.53986055339E+01 -0.19506895276E+01  0.27207431849E+01  0.17131781161E+03  0.17120000000E+03 0.  0.
        998    1    1    2    0    0 -0.16647230852E+02  0.12431411279E+02  0.14496397407E+04  0.14498231092E+04  0.10000000000E+02 0.  1.
</event>
<event>
 5    1  0.1572996E-008  0.3833487E+03  0.7957747E-01  0.3436706E+00
         13   -1    0    0    0    0  0.00000000000E+00  0.00000000000E+00  0.14999999963E+04  0.15000000000E+04  0.10566000000E+00 0.  1.
        994   -1    0    0    0    0 -0.00000000000E+00 -0.00000000000E+00  0.11368683772E-12  0.17120000000E+03  0.17120000000E+03 0.  0.
         13    1    1    2    0    0 -0.16670542741E+02  0.18962863542E+02  0.12186283781E+03  0.12445103291E+03  0.10566000000E+00 0.  1.
        994    1    1    2    0    0  0.24178926619E+02 -0.10565356023E+02  0.47576135463E+01  0.17328682041E+03  0.17120000000E+03 0.  0.
        998    1    1    2    0    0 -0.75083838782E+01 -0.83975075189E+01  0.13733795449E+04  0.13734621467E+04  0.10000000000E+02 0.  1.
</event>
<event>
 5    1  0.1572996E-008  0.3841470E+03  0.7957747E-01  0.3433298E+00
         13   -1    0    0    0    0  0.00000000000E+00  0.00000000000E+00  0.14999999963E+04  0.15000000000E+04  0.10566000000E+00 0. -1.
        994   -1    0    0    0    0 -0.00000000000E+00 -0.00000000000E+00  0.11368683772E-12  0.17120000000E+03  0.17120000000E+03 0.  0.
         13    1    1    2    0    0  0.86293221369E+01  0.14029280208E+02  0.61818798492E+02  0.63975471195E+02  0.10566000000E+00 0. -1.
        994    1    1    2    0    0 -0.12912859930E+02 -0.17524930940E+02  0.36185103271E+01  0.17261633403E+03  0.17120000000E+03 0.  0.
        998    1    1    2    0    0  0.42835377928E+01  0.34956507326E+01  0.14345626875E+04  0.14346081948E+04  0.10000000000E+02 0. -1.
</event>
<event>
 5    1  0.1572996E-008  0.3759158E+03  0.7957747E-01  0.3469137E+00
         13   -1    0    0    0    0  0.00000000000E+00  0.00000000000E+00  0.14999999963E+04  0.15000000000E+04  0.10566000000E+00 0.  1.
        994   -1    0    0    0    0 -0.00000000000E+00 -0.00000000000E+00  0.11368683772E-12  0.17120000000E+03  0.17120000000E+03 0.  0.
         13    1    1    2    0    0 -0.19100154759E+02 -0.14281412113E+02  0.43025287291E+02  0.49193100677E+02  0.10566000000E+00 0.  1.
        994    1    1    2    0    0  0.24400047291E+02 -0.21520237910E+01  0.82450866044E+01  0.17313987111E+03  0.17120000000E+03 0.  0.
        998    1    1    2    0    0 -0.52998925320E+01  0.16433435904E+02  0.14487296224E+04  0.14488670282E+04  0.10000000000E+02 0.  1.
</event>
<event>
 5    1  0.1572996E-008  0.3860258E+03  0.7957747E-01  0.3425333E+00
         13   -1    0    0    0    0  0.00000000000E+00  0.00000000000E+00  0.14999999963E+04  0.15000000000E+04  0.10566000000E+00 0.  1.
        994   -1    0    0    0    0 -0.00000000000E+00 -0.00000000000E+00  0.11368683772E-12  0.17120000000E+03  0.17120000000E+03 0.  0.
         13    1    1    2    0    0  0.12227847738E+02  0.34197429103E+01  0.72264295414E+02  0.73371346298E+02  0.10566000000E+00 0.  1.
        994    1    1    2    0    0 -0.90219516745E+01 -0.18656546772E+01  0.13999738229E+01  0.17145342285E+03  0.17120000000E+03 0.  0.
        998    1    1    2    0    0 -0.32058960630E+01 -0.15540882332E+01  0.14263357270E+04  0.14263752309E+04  0.10000000000E+02 0.  1.
</event>
<event>
 5    1  0.1572996E-008  0.3779782E+03  0.7957747E-01  0.3460010E+00
         13   -1    0    0    0    0  0.00000000000E+00  0.00000000000E+00  0.14999999963E+04  0.15000000000E+04  0.10566000000E+00 0.  1.
        994   -1    0    0    0    0 -0.00000000000E+00 -0.00000000000E+00  0.11368683772E-12  0.17120000000E+03  0.17120000000E+03 0.  0.
         13    1    1    2    0    0 -0.22748149937E+01 -0.10911486331E+02  0.97979259253E+01  0.14840681712E+02  0.10566000000E+00 0.  1.
        994    1    1    2    0    0  0.22998009620E+01  0.47502263360E+01  0.52510054952E+01  0.17136180086E+03  0.17120000000E+03 0.  0.
        998    1    1    2    0    0 -0.24985968342E-01  0.61612599948E+01  0.14849510649E+04  0.14849975174E+04  0.10000000000E+02 0.  1.
</event>
<event>
 5    1  0.1572996E-008  0.3787977E+03  0.7957747E-01  0.3456410E+00
         13   -1    0    0    0    0  0.00000000000E+00  0.00000000000E+00  0.14999999963E+04  0.15000000000E+04  0.10566000000E+00 0. -1.
        994   -1    0    0    0    0 -0.00000000000E+00 -0.00000000000E+00  0.11368683772E-12  0.17120000000E+03  0.17120000000E+03 0.  0.
         13    1    1    2    0    0  0.10143442004E+02  0.54864264245E+01  0.12040749578E+02  0.16672765368E+02  0.10566000000E+00 0. -1.
        994    1    1    2    0    0 -0.55888774464E+01  0.95990127974E+00  0.48492435786E+01  0.17136251669E+03  0.17120000000E+03 0.  0.
        998    1    1    2    0    0 -0.45545645572E+01 -0.64463277042E+01  0.14831100031E+04  0.14831647179E+04  0.10000000000E+02 0. -1.
</event>
<event>
 5    1  0.1572996E-008  0.3838098E+03  0.7957747E-01  0.3434736E+00
         13   -1    0    0    0    0  0.00000000000E+00  0.00000000000E+00  0.14999999963E+04  0.15000000000E+04  0.10566000000E+00 0.  1.
        994   -1    0    0    0    0 -0.00000000000E+00 -0.00000000000E+00  0.11368683772E-12  0.17120000000E+03  0.17120000000E+03 0.  0.
         13    1    1    2    0    0  0.26122833899E+01  0.74512894277E+02  0.15399599867E+03  0.17109580418E+03  0.10566000000E+00 0.  1.
        994    1    1    2    0    0  0.18069683926E+02 -0.32459419158E+02  0.23524479718E+02  0.17675680614E+03  0.17120000000E+03 0.  0.
        998    1    1    2    0    0 -0.20681967316E+02 -0.42053475118E+02  0.13224795179E+04  0.13233473897E+04  0.10000000000E+02 0.  1.
</event>
<event>
 5    1  0.1572996E-008  0.3747927E+03  0.7957747E-01  0.3474151E+00
         13   -1    0    0    0    0  0.00000000000E+00  0.00000000000E+00  0.14999999963E+04  0.15000000000E+04  0.10566000000E+00 0.  1.
        994   -1    0    0    0    0 -0.00000000000E+00 -0.00000000000E+00  0.11368683772E-12  0.17120000000E+03  0.17120000000E+03 0.  0.
         13    1    1    2    0    0  0.28731104634E+02  0.17074385158E+02  0.87948578356E+02  0.94084932911E+02  0.10566000000E+00 0.  1.
        994    1    1    2    0    0 -0.54831337017E+00  0.75948022322E+01  0.69824889152E+01  0.17151144807E+03  0.17120000000E+03 0.  0.
        998    1    1    2    0    0 -0.28182791264E+02 -0.24669187390E+02  0.14050689290E+04  0.14056036190E+04  0.10000000000E+02 0.  1.
</event>
<event>
 5    1  0.1572996E-008  0.3779216E+03  0.7957747E-01  0.3460259E+00
         13   -1    0    0    0    0  0.00000000000E+00  0.00000000000E+00  0.14999999963E+04  0.15000000000E+04  0.10566000000E+00 0.  1.
        994   -1    0    0    0    0 -0.00000000000E+00 -0.00000000000E+00  0.11368683772E-12  0.17120000000E+03  0.17120000000E+03 0.  0.
         13    1    1    2    0    0  0.76506637673E+02  0.56904624234E+02  0.46286152816E+03  0.47258037124E+03  0.10566000000E+00 0.  1.
        994    1    1    2    0    0 -0.93536267942E+02 -0.71040717713E+02  0.53125770548E+02  0.21430726654E+03  0.17120000000E+03 0.  0.
        998    1    1    2    0    0  0.17029630269E+02  0.14136093479E+02  0.98401269757E+03  0.98431236222E+03  0.10000000000E+02 0.  1.
</event>
<event>
 5    1  0.1572996E-008  0.3785561E+03  0.7957747E-01  0.3457470E+00
         13   -1    0    0    0    0  0.00000000000E+00  0.00000000000E+00  0.14999999963E+04  0.15000000000E+04  0.10566000000E+00 0. -1.
        994   -1    0    0    0    0 -0.00000000000E+00 -0.00000000000E+00  0.11368683772E-12  0.17120000000E+03  0.17120000000E+03 0.  0.
         13    1    1    2    0    0 -0.26396507543E+02  0.29351056851E+02  0.18458883400E+03  0.18876257296E+03  0.10566000000E+00 0. -1.
        994    1    1    2    0    0 -0.29238323616E+02 -0.29852132241E+02  0.10751067334E+02  0.17655326340E+03  0.17120000000E+03 0.  0.
        998    1    1    2    0    0  0.55634831158E+02  0.50107538987E+00  0.13046600949E+04  0.13058841636E+04  0.10000000000E+02 0. -1.
</event>
<event>
 5    1  0.1572996E-008  0.3762262E+03  0.7957747E-01  0.3467757E+00
         13   -1    0    0    0    0  0.00000000000E+00  0.00000000000E+00  0.14999999963E+04  0.15000000000E+04  0.10566000000E+00 0.  1.
        994   -1    0    0    0    0 -0.00000000000E+00 -0.00000000000E+00  0.11368683772E-12  0.17120000000E+03  0.17120000000E+03 0.  0.
         13    1    1    2    0    0  0.11322564382E+02  0.89539034156E+01  0.14361709748E+02  0.20362777843E+02  0.10566000000E+00 0.  1.
        994    1    1    2    0    0 -0.10917445718E+02 -0.12516160054E+02  0.69847191125E+01  0.17214549423E+03  0.17120000000E+03 0.  0.
        998    1    1    2    0    0 -0.40511866403E+00  0.35622566384E+01  0.14786535674E+04  0.14786917279E+04  0.10000000000E+02 0.  1.
</event>
<event>
 5    1  0.1572996E-008  0.3838912E+03  0.7957747E-01  0.3434389E+00
         13   -1    0    0    0    0  0.00000000000E+00  0.00000000000E+00  0.14999999963E+04  0.15000000000E+04  0.10566000000E+00 0. -1.
        994   -1    0    0    0    0 -0.00000000000E+00 -0.00000000000E+00  0.11368683772E-12  0.17120000000E+03  0.17120000000E+03 0.  0.
         13    1    1    2    0    0 -0.46765216076E+01  0.94573630416E+01  0.24473917376E+02  0.26651367053E+02  0.10566000000E+00 0. -1.
        994    1    1    2    0    0  0.47881719119E+01 -0.10338461340E+02  0.26102131629E+01  0.17159855357E+03  0.17120000000E+03 0.  0.
        998    1    1    2    0    0 -0.11165030431E+00  0.88109829884E+00  0.14729158657E+04  0.14729500794E+04  0.10000000000E+02 0. -1.
</event>
<event>
 5    1  0.1572996E-008  0.3700447E+03  0.7957747E-01  0.3495686E+00
         13   -1    0    0    0    0  0.00000000000E+00  0.00000000000E+00  0.14999999963E+04  0.15000000000E+04  0.10566000000E+00 0. -1.
        994   -1    0    0    0    0 -0.00000000000E+00 -0.00000000000E+00  0.11368683772E-12  0.17120000000E+03  0.17120000000E+03 0.  0.
         13    1    1    2    0    0  0.13896341234E+03 -0.16258967271E+03  0.89786391135E+03  0.92298745718E+03  0.10566000000E+00 0. -1.
        994    1    1    2    0    0 -0.12367683705E+03  0.16212770022E+03  0.17044847794E+03  0.31613837925E+03  0.17120000000E+03 0.  0.
        998    1    1    2    0    0 -0.15286575289E+02  0.46197249201E+00  0.43168760699E+03  0.43207416358E+03  0.10000000000E+02 0. -1.
</event>
<event>
 5    1  0.1572996E-008  0.3740163E+03  0.7957747E-01  0.3477634E+00
         13   -1    0    0    0    0  0.00000000000E+00  0.00000000000E+00  0.14999999963E+04  0.15000000000E+04  0.10566000000E+00 0. -1.
        994   -1    0    0    0    0 -0.00000000000E+00 -0.00000000000E+00  0.11368683772E-12  0.17120000000E+03  0.17120000000E+03 0.  0.
         13    1    1    2    0    0 -0.46826045757E+02 -0.49307615287E+02  0.24889746106E+03  0.25801914032E+03  0.10566000000E+00 0. -1.
        994    1    1    2    0    0  0.54858075483E+02  0.55871800865E+02  0.28391997097E+02  0.19038543032E+03  0.17120000000E+03 0.  0.
        998    1    1    2    0    0 -0.80320297261E+01 -0.65641855780E+01  0.12227105381E+04  0.12227954294E+04  0.10000000000E+02 0. -1.
</event>
<event>
 5    1  0.1572996E-008  0.4054769E+03  0.7957747E-01  0.3347214E+00
         13   -1    0    0    0    0  0.00000000000E+00  0.00000000000E+00  0.14999999963E+04  0.15000000000E+04  0.10566000000E+00 0.  1.
        994   -1    0    0    0    0 -0.00000000000E+00 -0.00000000000E+00  0.11368683772E-12  0.17120000000E+03  0.17120000000E+03 0.  0.
         13    1    1    2    0    0 -0.10999810529E+03  0.26196721441E+02  0.42640640243E+03  0.44114428770E+03  0.10566000000E+00 0.  1.
        994    1    1    2    0    0 -0.47035029991E+02  0.67491218467E+02  0.58744305455E+02  0.19881572382E+03  0.17120000000E+03 0.  0.
        998    1    1    2    0    0  0.15703313528E+03 -0.93687939908E+02  0.10148492884E+04  0.10312399885E+04  0.10000000000E+02 0.  1.
</event>
<event>
 5    1  0.1572996E-008  0.3812602E+03  0.7957747E-01  0.3445690E+00
         13   -1    0    0    0    0  0.00000000000E+00  0.00000000000E+00  0.14999999963E+04  0.15000000000E+04  0.10566000000E+00 0.  1.
        994   -1    0    0    0    0 -0.00000000000E+00 -0.00000000000E+00  0.11368683772E-12  0.17120000000E+03  0.17120000000E+03 0.  0.
         13    1    1    2    0    0  0.26902854050E+01  0.21245230134E+02  0.58947427777E+01  0.22211631986E+02  0.10566000000E+00 0.  1.
        994    1    1    2    0    0  0.71889893805E+01 -0.22418555000E+02  0.19041424453E+02  0.17385709368E+03  0.17120000000E+03 0.  0.
        998    1    1    2    0    0 -0.98792747855E+01  0.11733248652E+01  0.14750638290E+04  0.14751312743E+04  0.10000000000E+02 0.  1.
</event>
<event>
 5    1  0.1572996E-008  0.3772233E+03  0.7957747E-01  0.3463339E+00
         13   -1    0    0    0    0  0.00000000000E+00  0.00000000000E+00  0.14999999963E+04  0.15000000000E+04  0.10566000000E+00 0. -1.
        994   -1    0    0    0    0 -0.00000000000E+00 -0.00000000000E+00  0.11368683772E-12  0.17120000000E+03  0.17120000000E+03 0.  0.
         13    1    1    2    0    0  0.15039986121E+01 -0.33931438076E+02  0.96205694491E+02  0.10202524844E+03  0.10566000000E+00 0. -1.
        994    1    1    2    0    0 -0.10609621897E+02  0.33733533664E+02  0.97721477828E+01  0.17508697908E+03  0.17120000000E+03 0.  0.
        998    1    1    2    0    0  0.91056232846E+01  0.19790441217E+00  0.13940221540E+04  0.13940877725E+04  0.10000000000E+02 0. -1.
</event>
<event>
 5    1  0.1572996E-008  0.3726148E+03  0.7957747E-01  0.3483959E+00
         13   -1    0    0    0    0  0.00000000000E+00  0.00000000000E+00  0.14999999963E+04  0.15000000000E+04  0.10566000000E+00 0.  1.
        994   -1    0    0    0    0 -0.00000000000E+00 -0.00000000000E+00  0.11368683772E-12  0.17120000000E+03  0.17120000000E+03 0.  0.
         13    1    1    2    0    0  0.41880065807E+01  0.26737784427E+02  0.24184128009E+02  0.36295064772E+02  0.10566000000E+00 0.  1.
        994    1    1    2    0    0 -0.62205206705E+01 -0.26161116917E+02  0.14883631641E+02  0.17393694664E+03  0.17120000000E+03 0.  0.
        998    1    1    2    0    0  0.20325140898E+01 -0.57666751031E+00  0.14609322366E+04  0.14609679886E+04  0.10000000000E+02 0.  1.
</event>
<event>
 5    1  0.1572996E-008  0.3713600E+03  0.7957747E-01  0.3489664E+00
         13   -1    0    0    0    0  0.00000000000E+00  0.00000000000E+00  0.14999999963E+04  0.15000000000E+04  0.10566000000E+00 0. -1.
        994   -1    0    0    0    0 -0.00000000000E+00 -0.00000000000E+00  0.11368683772E-12  0.17120000000E+03  0.17120000000E+03 0.  0.
         13    1    1    2    0    0 -0.10010126386E+03 -0.12333763502E+03  0.68003430873E+03  0.69834025192E+03  0.10566000000E+00 0. -1.
        994    1    1    2    0    0  0.97108699413E+02  0.10122073724E+03  0.84376368229E+02  0.23686398769E+03  0.17120000000E+03 0.  0.
        998    1    1    2    0    0  0.29925644488E+01  0.22116897778E+02  0.73558931932E+03  0.73599576039E+03  0.10000000000E+02 0.  1.
</event>
<event>
 5    1  0.1572996E-008  0.3988120E+03  0.7957747E-01  0.3373126E+00
         13   -1    0    0    0    0  0.00000000000E+00  0.00000000000E+00  0.14999999963E+04  0.15000000000E+04  0.10566000000E+00 0. -1.
        994   -1    0    0    0    0 -0.00000000000E+00 -0.00000000000E+00  0.11368683772E-12  0.17120000000E+03  0.17120000000E+03 0.  0.
         13    1    1    2    0    0  0.57839147959E+02 -0.21741986569E+02  0.60069868531E+02  0.86177034563E+02  0.10566000000E+00 0. -1.
        994    1    1    2    0    0 -0.50453854707E+02  0.21896281733E+02  0.38950401679E+02  0.18398807679E+03  0.17120000000E+03 0.  0.
        998    1    1    2    0    0 -0.73852932519E+01 -0.15429516396E+00  0.14009797261E+04  0.14010348887E+04  0.10000000000E+02 0. -1.
</event>
<event>
 5    1  0.1572996E-008  0.3811370E+03  0.7957747E-01  0.3446223E+00
         13   -1    0    0    0    0  0.00000000000E+00  0.00000000000E+00  0.14999999963E+04  0.15000000000E+04  0.10566000000E+00 0. -1.
        994   -1    0    0    0    0 -0.00000000000E+00 -0.00000000000E+00  0.11368683772E-12  0.17120000000E+03  0.17120000000E+03 0.  0.
         13    1    1    2    0    0 -0.13547715200E+02 -0.13352626368E+02  0.47822956097E+02  0.51467266413E+02  0.10566000000E+00 0. -1.
        994    1    1    2    0    0  0.16706676867E+02  0.13659968275E+02  0.51128376354E+01  0.17263049816E+03  0.17120000000E+03 0.  0.
        998    1    1    2    0    0 -0.31589616667E+01 -0.30734190669E+00  0.14470642025E+04  0.14471022354E+04  0.10000000000E+02 0. -1.
</event>
<event>
 5    1  0.1572996E-008  0.3785034E+03  0.7957747E-01  0.3457701E+00
         13   -1    0    0    0    0  0.00000000000E+00  0.00000000000E+00  0.14999999963E+04  0.15000000000E+04  0.10566000000E+00 0. -1.
        994   -1    0    0    0    0 -0.00000000000E+00 -0.00000000000E+00  0.11368683772E-12  0.17120000000E+03  0.17120000000E+03 0.  0.
         13    1    1    2    0    0  0.26191389642E+02 -0.52480913923E+01  0.67356696502E+02  0.72460106833E+02  0.10566000000E+00 0. -1.
        994    1    1    2    0    0 -0.29947187429E+02  0.63516209070E+01  0.80454210640E+01  0.17410153912E+03  0.17120000000E+03 0.  0.
        998    1    1    2    0    0  0.37557977870E+01 -0.11035295147E+01  0.14245978787E+04  0.14246383540E+04  0.10000000000E+02 0. -1.
</event>
<event>
 5    1  0.1572996E-008  0.3839763E+03  0.7957747E-01  0.3434025E+00
         13   -1    0    0    0    0  0.00000000000E+00  0.00000000000E+00  0.14999999963E+04  0.15000000000E+04  0.10566000000E+00 0.  1.
        994   -1    0    0    0    0 -0.00000000000E+00 -0.00000000000E+00  0.11368683772E-12  0.17120000000E+03  0.17120000000E+03 0.  0.
         13    1    1    2    0    0  0.86750793546E+01 -0.89990715071E+01  0.39347148189E+02  0.41284979404E+02  0.10566000000E+00 0.  1.
        994    1    1    2    0    0  0.88993406416E+01 -0.75499758896E+01  0.25887781943E+01  0.17161684699E+03  0.17120000000E+03 0.  0.
        998    1    1    2    0    0 -0.17574419996E+02  0.16549047397E+02  0.14580640699E+04  0.14582981736E+04  0.10000000000E+02 0.  1.
</event>
<event>
 5    1  0.1572996E-008  0.3851227E+03  0.7957747E-01  0.3429152E+00
         13   -1    0    0    0    0  0.00000000000E+00  0.00000000000E+00  0.14999999963E+04  0.15000000000E+04  0.10566000000E+00 0.  1.
        994   -1    0    0    0    0 -0.00000000000E+00 -0.00000000000E+00  0.11368683772E-12  0.17120000000E+03  0.17120000000E+03 0.  0.
         13    1    1    2    0    0  0.96446167384E+01 -0.17513552670E+02  0.11778604317E+03  0.11947094328E+03  0.10566000000E+00 0.  1.
        994    1    1    2    0    0 -0.18096231516E+02  0.15087276671E+02  0.33961604375E+01  0.17284696531E+03  0.17120000000E+03 0.  0.
        998    1    1    2    0    0  0.84516147773E+01  0.24262759987E+01  0.13788177927E+04  0.13788820914E+04  0.10000000000E+02 0.  1.
</event>
<event>
 5    1  0.1572996E-008  0.3818626E+03  0.7957747E-01  0.3443088E+00
         13   -1    0    0    0    0  0.00000000000E+00  0.00000000000E+00  0.14999999963E+04  0.15000000000E+04  0.10566000000E+00 0.  1.
        994   -1    0    0    0    0 -0.00000000000E+00 -0.00000000000E+00  0.11368683772E-12  0.17120000000E+03  0.17120000000E+03 0.  0.
         13    1    1    2    0    0 -0.15696382235E+02  0.23443097046E+02  0.13046290802E+03  0.13347860034E+03  0.10566000000E+00 0.  1.
        994    1    1    2    0    0  0.66658267176E+01 -0.60038554874E+01  0.34633045034E+01  0.17146986325E+03  0.17120000000E+03 0.  0.
        998    1    1    2    0    0  0.90305555178E+01 -0.17439241559E+02  0.13660737838E+04  0.13662515364E+04  0.10000000000E+02 0.  1.
</event>
<event>
 5    1  0.1572996E-008  0.3787674E+03  0.7957747E-01  0.3456543E+00
         13   -1    0    0    0    0  0.00000000000E+00  0.00000000000E+00  0.14999999963E+04  0.15000000000E+04  0.10566000000E+00 0. -1.
        994   -1    0    0    0    0 -0.00000000000E+00 -0.00000000000E+00  0.11368683772E-12  0.17120000000E+03  0.17120000000E+03 0.  0.
         13    1    1    2    0    0  0.43236305005E+02  0.73968932731E+01  0.16432643455E+03  0.17008021742E+03  0.10566000000E+00 0. -1.
        994    1    1    2    0    0 -0.59537109186E+02  0.10381887142E+01  0.16751822674E+02  0.18203243878E+03  0.17120000000E+03 0.  0.
        998    1    1    2    0    0  0.16300804181E+02 -0.84350819874E+01  0.13189217391E+04  0.13190873438E+04  0.10000000000E+02 0. -1.
</event>
<event>
 5    1  0.1572996E-008  0.3795100E+03  0.7957747E-01  0.3453295E+00
         13   -1    0    0    0    0  0.00000000000E+00  0.00000000000E+00  0.14999999963E+04  0.15000000000E+04  0.10566000000E+00 0. -1.
        994   -1    0    0    0    0 -0.00000000000E+00 -0.00000000000E+00  0.11368683772E-12  0.17120000000E+03  0.17120000000E+03 0.  0.
         13    1    1    2    0    0 -0.17187333751E+02 -0.60368553956E+01  0.36118831668E+02  0.40452802494E+02  0.10566000000E+00 0. -1.
        994    1    1    2    0    0  0.13442923665E+02 -0.27971938417E+00  0.49862920879E+01  0.17179957377E+03  0.17120000000E+03 0.  0.
        998    1    1    2    0    0  0.37444100860E+01  0.63165747798E+01  0.14588948725E+04  0.14589476237E+04  0.10000000000E+02 0. -1.
</event>
<event>
 5    1  0.1572996E-008  0.3768483E+03  0.7957747E-01  0.3464998E+00
         13   -1    0    0    0    0  0.00000000000E+00  0.00000000000E+00  0.14999999963E+04  0.15000000000E+04  0.10566000000E+00 0.  1.
        994   -1    0    0    0    0 -0.00000000000E+00 -0.00000000000E+00  0.11368683772E-12  0.17120000000E+03  0.17120000000E+03 0.  0.
         13    1    1    2    0    0 -0.25381708382E+02  0.96179578988E+00  0.15735692645E+02  0.29879413625E+02  0.10566000000E+00 0.  1.
        994    1    1    2    0    0  0.23256112269E+02  0.13402113914E+02  0.17191716542E+02  0.17414206423E+03  0.17120000000E+03 0.  0.
        998    1    1    2    0    0  0.21255961133E+01 -0.14363909704E+02  0.14670725871E+04  0.14671785221E+04  0.10000000000E+02 0.  1.
</event>
<event>
 5    1  0.1572996E-008  0.3732264E+03  0.7957747E-01  0.3481193E+00
         13   -1    0    0    0    0  0.00000000000E+00  0.00000000000E+00  0.14999999963E+04  0.15000000000E+04  0.10566000000E+00 0. -1.
        994   -1    0    0    0    0 -0.00000000000E+00 -0.00000000000E+00  0.11368683772E-12  0.17120000000E+03  0.17120000000E+03 0.  0.
         13    1    1    2    0    0 -0.25542103959E+02 -0.87186302380E+02  0.40262773468E+03  0.41275047461E+03  0.10566000000E+00 0. -1.
        994    1    1    2    0    0  0.26739178390E+02  0.83674565682E+02  0.34458298174E+02  0.19548204755E+03  0.17120000000E+03 0.  0.
        998    1    1    2    0    0 -0.11970744317E+01  0.35117366979E+01  0.10629139634E+04  0.10629674778E+04  0.10000000000E+02 0.  0.
</event>
<event>
 5    1  0.1572996E-008  0.3810742E+03  0.7957747E-01  0.3446495E+00
         13   -1    0    0    0    0  0.00000000000E+00  0.00000000000E+00  0.14999999963E+04  0.15000000000E+04  0.10566000000E+00 0.  1.
        994   -1    0    0    0    0 -0.00000000000E+00 -0.00000000000E+00  0.11368683772E-12  0.17120000000E+03  0.17120000000E+03 0.  0.
         13    1    1    2    0    0  0.63155855959E+01  0.16015114145E+02  0.39127254695E+02  0.42747207237E+02  0.10566000000E+00 0.  1.
        994    1    1    2    0    0  0.11325189017E+01 -0.18858886026E+02  0.47817873565E+01  0.17230567510E+03  0.17120000000E+03 0.  0.
        998    1    1    2    0    0 -0.74481044976E+01  0.28437718809E+01  0.14560909542E+04  0.14561471177E+04  0.10000000000E+02 0.  1.
</event>
<event>
 5    1  0.1572996E-008  0.3817329E+03  0.7957747E-01  0.3443648E+00
         13   -1    0    0    0    0  0.00000000000E+00  0.00000000000E+00  0.14999999963E+04  0.15000000000E+04  0.10566000000E+00 0. -1.
        994   -1    0    0    0    0 -0.00000000000E+00 -0.00000000000E+00  0.11368683772E-12  0.17120000000E+03  0.17120000000E+03 0.  0.
         13    1    1    2    0    0 -0.29752679324E+01 -0.24933979496E+02  0.95498878943E+02  0.98745139608E+02  0.10566000000E+00 0. -1.
        994    1    1    2    0    0 -0.53204574591E+01  0.16479387868E+02  0.42583247529E+01  0.17212626418E+03  0.17120000000E+03 0.  0.
        998    1    1    2    0    0  0.82957253915E+01  0.84545916288E+01  0.14002427926E+04  0.14003285962E+04  0.10000000000E+02 0. -1.
</event>
<event>
 5    1  0.1572996E-008  0.3705217E+03  0.7957747E-01  0.3493497E+00
         13   -1    0    0    0    0  0.00000000000E+00  0.00000000000E+00  0.14999999963E+04  0.15000000000E+04  0.10566000000E+00 0. -1.
        994   -1    0    0    0    0 -0.00000000000E+00 -0.00000000000E+00  0.11368683772E-12  0.17120000000E+03  0.17120000000E+03 0.  0.
         13    1    1    2    0    0  0.87369149594E+01  0.11052001771E+02  0.36444743507E+01  0.14552449398E+02  0.10566000000E+00 0. -1.
        994    1    1    2    0    0 -0.14674882430E+02 -0.90692907059E+01  0.12257909671E+02  0.17250304507E+03  0.17120000000E+03 0.  0.
        998    1    1    2    0    0  0.59379674709E+01 -0.19827110649E+01  0.14840976123E+04  0.14841445055E+04  0.10000000000E+02 0. -1.
</event>
<event>
 5    1  0.1572996E-008  0.3747980E+03  0.7957747E-01  0.3474127E+00
         13   -1    0    0    0    0  0.00000000000E+00  0.00000000000E+00  0.14999999963E+04  0.15000000000E+04  0.10566000000E+00 0.  1.
        994   -1    0    0    0    0 -0.00000000000E+00 -0.00000000000E+00  0.11368683772E-12  0.17120000000E+03  0.17120000000E+03 0.  0.
         13    1    1    2    0    0  0.56062889618E+01 -0.13556409174E+02  0.12726016754E+02  0.19420848902E+02  0.10566000000E+00 0.  1.
        994    1    1    2    0    0 -0.45115949867E+01  0.14576103229E+02  0.75748200363E+01  0.17204544508E+03  0.17120000000E+03 0.  0.
        998    1    1    2    0    0 -0.10946939751E+01 -0.10196940542E+01  0.14796991595E+04  0.14797337060E+04  0.10000000000E+02 0.  1.
</event>
<event>
 5    1  0.1572996E-008  0.3841078E+03  0.7957747E-01  0.3433465E+00
         13   -1    0    0    0    0  0.00000000000E+00  0.00000000000E+00  0.14999999963E+04  0.15000000000E+04  0.10566000000E+00 0. -1.
        994   -1    0    0    0    0 -0.00000000000E+00 -0.00000000000E+00  0.11368683772E-12  0.17120000000E+03  0.17120000000E+03 0.  0.
         13    1    1    2    0    0 -0.86312706359E+01  0.41332154124E+02  0.25096315534E+03  0.25449039727E+03  0.10566000000E+00 0. -1.
        994    1    1    2    0    0  0.16017077009E+02 -0.74104642227E+02  0.21267936872E+02  0.18844046777E+03  0.17120000000E+03 0.  0.
        998    1    1    2    0    0 -0.73858063730E+01  0.32772488103E+02  0.12277689041E+04  0.12282691350E+04  0.10000000000E+02 0. -1.
</event>
<event>
 5    1  0.1572996E-008  0.3853800E+03  0.7957747E-01  0.3428062E+00
         13   -1    0    0    0    0  0.00000000000E+00  0.00000000000E+00  0.14999999963E+04  0.15000000000E+04  0.10566000000E+00 0.  1.
        994   -1    0    0    0    0 -0.00000000000E+00 -0.00000000000E+00  0.11368683772E-12  0.17120000000E+03  0.17120000000E+03 0.  0.
         13    1    1    2    0    0  0.16923599918E+02  0.22900796747E+00  0.88783373439E+02  0.90382294959E+02  0.10566000000E+00 0.  1.
        994    1    1    2    0    0 -0.26060682382E+02  0.13728707849E+01  0.36817483491E+01  0.17321674056E+03  0.17120000000E+03 0.  0.
        998    1    1    2    0    0  0.91370824640E+01 -0.16018787523E+01  0.14075348745E+04  0.14076009645E+04  0.10000000000E+02 0.  1.
</event>
<event>
 5    1  0.1572996E-008  0.3825033E+03  0.7957747E-01  0.3440330E+00
         13   -1    0    0    0    0  0.00000000000E+00  0.00000000000E+00  0.14999999963E+04  0.15000000000E+04  0.10566000000E+00 0. -1.
        994   -1    0    0    0    0 -0.00000000000E+00 -0.00000000000E+00  0.11368683772E-12  0.17120000000E+03  0.17120000000E+03 0.  0.
         13    1    1    2    0    0 -0.10298450140E+02  0.31339439825E+02  0.16752167461E+03  0.17073880986E+03  0.10566000000E+00 0. -1.
        994    1    1    2    0    0  0.28508975907E+02 -0.27513219179E+02  0.80967614296E+01  0.17591116077E+03  0.17120000000E+03 0.  0.
        998    1    1    2    0    0 -0.18210525768E+02 -0.38262206462E+01  0.13243815602E+04  0.13245500294E+04  0.10000000000E+02 0. -1.
</event>
<event>
 5    1  0.1572996E-008  0.4134538E+03  0.7957747E-01  0.3317288E+00
         13   -1    0    0    0    0  0.00000000000E+00  0.00000000000E+00  0.14999999963E+04  0.15000000000E+04  0.10566000000E+00 0.  1.
        994   -1    0    0    0    0 -0.00000000000E+00 -0.00000000000E+00  0.11368683772E-12  0.17120000000E+03  0.17120000000E+03 0.  0.
         13    1    1    2    0    0  0.12684513835E+03  0.24480435678E+01  0.41319584829E+03  0.43223431406E+03  0.10566000000E+00 0.  1.
        994    1    1    2    0    0  0.33722201177E+02 -0.12930969364E+03  0.11490130305E+03  0.24570293682E+03  0.17120000000E+03 0.  0.
        998    1    1    2    0    0 -0.16056733953E+03  0.12686165007E+03  0.97190284494E+03  0.99326274912E+03  0.10000000000E+02 0.  1.
</event>
<event>
 5    1  0.1572996E-008  0.3737734E+03  0.7957747E-01  0.3478727E+00
         13   -1    0    0    0    0  0.00000000000E+00  0.00000000000E+00  0.14999999963E+04  0.15000000000E+04  0.10566000000E+00 0.  1.
        994   -1    0    0    0    0 -0.00000000000E+00 -0.00000000000E+00  0.11368683772E-12  0.17120000000E+03  0.17120000000E+03 0.  0.
         13    1    1    2    0    0 -0.89898266735E+01  0.10959225600E+02  0.10957050486E+02  0.17916186223E+02  0.10566000000E+00 0.  1.
        994    1    1    2    0    0 -0.50468001388E+01  0.86363957265E+01  0.76515580735E+01  0.17166258726E+03  0.17120000000E+03 0.  0.
        998    1    1    2    0    0  0.14036626812E+02 -0.19595621327E+02  0.14813913877E+04  0.14816212265E+04  0.10000000000E+02 0.  1.
</event>
<event>
 5    1  0.1572996E-008  0.3846157E+03  0.7957747E-01  0.3431304E+00
         13   -1    0    0    0    0  0.00000000000E+00  0.00000000000E+00  0.14999999963E+04  0.15000000000E+04  0.10566000000E+00 0. -1.
        994   -1    0    0    0    0 -0.00000000000E+00 -0.00000000000E+00  0.11368683772E-12  0.17120000000E+03  0.17120000000E+03 0.  0.
         13    1    1    2    0    0 -0.13270476792E+02 -0.36069361051E+02  0.32106028606E+02  0.50079063468E+02  0.10566000000E+00 0. -1.
        994    1    1    2    0    0  0.76352445941E+01  0.23290733733E+02  0.21103437185E+02  0.17422844285E+03  0.17120000000E+03 0.  0.
        998    1    1    2    0    0  0.56352321977E+01  0.12778627319E+02  0.14467905305E+04  0.14468924937E+04  0.10000000000E+02 0. -1.
</event>
<event>
 5    1  0.1572996E-008  0.3818791E+03  0.7957747E-01  0.3443017E+00
         13   -1    0    0    0    0  0.00000000000E+00  0.00000000000E+00  0.14999999963E+04  0.15000000000E+04  0.10566000000E+00 0. -1.
        994   -1    0    0    0    0 -0.00000000000E+00 -0.00000000000E+00  0.11368683772E-12  0.17120000000E+03  0.17120000000E+03 0.  0.
         13    1    1    2    0    0  0.27051295441E+02 -0.71035759121E+01  0.10919312550E+03  0.11271815823E+03  0.10566000000E+00 0. -1.
        994    1    1    2    0    0 -0.33279980003E+02  0.11751831142E+02  0.73370945767E+01  0.17495409558E+03  0.17120000000E+03 0.  0.
        998    1    1    2    0    0  0.62286845619E+01 -0.46482552302E+01  0.13834697762E+04  0.13835277462E+04  0.10000000000E+02 0. -1.
</event>
<event>
 5    1  0.1572996E-008  0.3689342E+03  0.7957747E-01  0.3500804E+00
         13   -1    0    0    0    0  0.00000000000E+00  0.00000000000E+00  0.14999999963E+04  0.15000000000E+04  0.10566000000E+00 0. -1.
        994   -1    0    0    0    0 -0.00000000000E+00 -0.00000000000E+00  0.11368683772E-12  0.17120000000E+03  0.17120000000E+03 0.  0.
         13    1    1    2    0    0 -0.48715477047E+02  0.85315506291E+01  0.14271461406E+03  0.15104124367E+03  0.10566000000E+00 0. -1.
        994    1    1    2    0    0 -0.10453400038E+02 -0.17522998993E+02  0.11273400487E+02  0.17277979808E+03  0.17120000000E+03 0.  0.
        998    1    1    2    0    0  0.59168877084E+02  0.89914483640E+01  0.13460119817E+04  0.13473789583E+04  0.10000000000E+02 0. -1.
</event>
<event>
 5    1  0.3345764E-008  0.3864603E+03  0.7957747E-01  0.3423502E+00
         13   -1    0    0    0    0  0.00000000000E+00  0.00000000000E+00  0.14999999963E+04  0.15000000000E+04  0.10566000000E+00 0. -1.
        994   -1    0    0    0    0 -0.00000000000E+00 -0.00000000000E+00  0.11368683772E-12  0.17120000000E+03  0.17120000000E+03 0.  0.
         13    1    1    2    0    0 -0.86583462159E+01 -0.66717533594E+01  0.63993681275E+02  0.64920579628E+02  0.10566000000E+00 0. -1.
        994    1    1    2    0    0  0.10614761834E+02  0.79976219862E+01  0.14852174588E+01  0.17172152165E+03  0.17120000000E+03 0.  0.
        998    1    1    2    0    0 -0.19564156185E+01 -0.13258686269E+01  0.14345210975E+04  0.14345578987E+04  0.10000000000E+02 0. -1.
</event>
<event>
 5    1  0.1572996E-008  0.3805803E+03  0.7957747E-01  0.3448636E+00
         13   -1    0    0    0    0  0.00000000000E+00  0.00000000000E+00  0.14999999963E+04  0.15000000000E+04  0.10566000000E+00 0. -1.
        994   -1    0    0    0    0 -0.00000000000E+00 -0.00000000000E+00  0.11368683772E-12  0.17120000000E+03  0.17120000000E+03 0.  0.
         13    1    1    2    0    0 -0.17544322715E+02 -0.19450137275E+01  0.39073142225E+02  0.42875493528E+02  0.10566000000E+00 0. -1.
        994    1    1    2    0    0  0.11885091965E+02  0.24225759076E+01  0.43315437129E+01  0.17168379818E+03  0.17120000000E+03 0.  0.
        998    1    1    2    0    0  0.56592307504E+01 -0.47756218015E+00  0.14565953103E+04  0.14566407083E+04  0.10000000000E+02 0. -1.
</event>
<event>
 5    1  0.1572996E-008  0.3825135E+03  0.7957747E-01  0.3440287E+00
         13   -1    0    0    0    0  0.00000000000E+00  0.00000000000E+00  0.14999999963E+04  0.15000000000E+04  0.10566000000E+00 0. -1.
        994   -1    0    0    0    0 -0.00000000000E+00 -0.00000000000E+00  0.11368683772E-12  0.17120000000E+03  0.17120000000E+03 0.  0.
         13    1    1    2    0    0  0.18030175380E+02 -0.10211172615E+02  0.76458895114E+02  0.79216974674E+02  0.10566000000E+00 0. -1.
        994    1    1    2    0    0 -0.75221020276E+01  0.55170674788E+00  0.30583289582E+01  0.17139334811E+03  0.17120000000E+03 0.  0.
        998    1    1    2    0    0 -0.10508073352E+02  0.96594658676E+01  0.14204827722E+04  0.14205896772E+04  0.10000000000E+02 0. -1.
</event>
<event>
 5    1  0.1572996E-008  0.3913223E+03  0.7957747E-01  0.3403293E+00
         13   -1    0    0    0    0  0.00000000000E+00  0.00000000000E+00  0.14999999963E+04  0.15000000000E+04  0.10566000000E+00 0. -1.
        994   -1    0    0    0    0 -0.00000000000E+00 -0.00000000000E+00  0.11368683772E-12  0.17120000000E+03  0.17120000000E+03 0.  0.
         13    1    1    2    0    0  0.10419556758E+03  0.39664226946E+02  0.22831526905E+03  0.25408234974E+03  0.10566000000E+00 0. -1.
        994    1    1    2    0    0 -0.10118459817E+03 -0.36161555252E+02  0.67818811558E+02  0.21320134189E+03  0.17120000000E+03 0.  0.
        998    1    1    2    0    0 -0.30109694089E+01 -0.35026716939E+01  0.12038659157E+04  0.12039163084E+04  0.10000000000E+02 0.  0.
</event>
<event>
 5    1  0.1572996E-008  0.3779527E+03  0.7957747E-01  0.3460122E+00
         13   -1    0    0    0    0  0.00000000000E+00  0.00000000000E+00  0.14999999963E+04  0.15000000000E+04  0.10566000000E+00 0. -1.
        994   -1    0    0    0    0 -0.00000000000E+00 -0.00000000000E+00  0.11368683772E-12  0.17120000000E+03  0.17120000000E+03 0.  0.
         13    1    1    2    0    0 -0.11141862277E+02 -0.26996712390E+02  0.86590305624E+02  0.91383016841E+02  0.10566000000E+00 0. -1.
        994    1    1    2    0    0  0.97244281181E+01 -0.19291814825E+01  0.55010619610E+01  0.17157502128E+03  0.17120000000E+03 0.  0.
        998    1    1    2    0    0  0.14174341588E+01  0.28925893873E+02  0.14079086287E+04  0.14082419619E+04  0.10000000000E+02 0. -1.
</event>
<event>
 5    1  0.1572996E-008  0.3802001E+03  0.7957747E-01  0.3450288E+00
         13   -1    0    0    0    0  0.00000000000E+00  0.00000000000E+00  0.14999999963E+04  0.15000000000E+04  0.10566000000E+00 0.  1.
        994   -1    0    0    0    0 -0.00000000000E+00 -0.00000000000E+00  0.11368683772E-12  0.17120000000E+03  0.17120000000E+03 0.  0.
         13    1    1    2    0    0 -0.94896070902E+01  0.22441371949E+02  0.64553162544E+02  0.68998476622E+02  0.10566000000E+00 0.  1.
        994    1    1    2    0    0  0.90662019540E+01 -0.41709801878E+02  0.10142740735E+02  0.17673205363E+03  0.17120000000E+03 0.  0.
        998    1    1    2    0    0  0.42340513620E+00  0.19268429929E+02  0.14253040930E+04  0.14254694697E+04  0.10000000000E+02 0.  1.
</event>
<event>
 5    1  0.1572996E-008  0.3812649E+03  0.7957747E-01  0.3445669E+00
         13   -1    0    0    0    0  0.00000000000E+00  0.00000000000E+00  0.14999999963E+04  0.15000000000E+04  0.10566000000E+00 0. -1.
        994   -1    0    0    0    0 -0.00000000000E+00 -0.00000000000E+00  0.11368683772E-12  0.17120000000E+03  0.17120000000E+03 0.  0.
         13    1    1    2    0    0  0.25911476386E+02  0.18388285926E+02  0.13230953890E+03  0.13607115387E+03  0.10566000000E+00 0. -1.
        994    1    1    2    0    0 -0.19549962628E+02 -0.27026806376E+02  0.72088607290E+01  0.17456820150E+03  0.17120000000E+03 0.  0.
        998    1    1    2    0    0 -0.63615137579E+01  0.86385204494E+01  0.13604815967E+04  0.13605606446E+04  0.10000000000E+02 0. -1.
</event>
<event>
 5    1  0.1572996E-008  0.3850808E+03  0.7957747E-01  0.3429330E+00
         13   -1    0    0    0    0  0.00000000000E+00  0.00000000000E+00  0.14999999963E+04  0.15000000000E+04  0.10566000000E+00 0. -1.
        994   -1    0    0    0    0 -0.00000000000E+00 -0.00000000000E+00  0.11368683772E-12  0.17120000000E+03  0.17120000000E+03 0.  0.
         13    1    1    2    0    0  0.78483829261E+01 -0.12954248691E+02  0.72503643409E+02  0.74068881086E+02  0.10566000000E+00 0. -1.
        994    1    1    2    0    0 -0.56437486109E+01  0.75139145746E+01  0.18804252821E+01  0.17146803437E+03  0.17120000000E+03 0.  0.
        998    1    1    2    0    0 -0.22046343152E+01  0.54403341160E+01  0.14256159276E+04  0.14256630845E+04  0.10000000000E+02 0. -1.
</event>
<event>
 5    1  0.1572996E-008  0.3820178E+03  0.7957747E-01  0.3442419E+00
         13   -1    0    0    0    0  0.00000000000E+00  0.00000000000E+00  0.14999999963E+04  0.15000000000E+04  0.10566000000E+00 0. -1.
        994   -1    0    0    0    0 -0.00000000000E+00 -0.00000000000E+00  0.11368683772E-12  0.17120000000E+03  0.17120000000E+03 0.  0.
         13    1    1    2    0    0  0.65942377040E+01  0.17342755881E+02  0.53143189299E+02  0.56289118712E+02  0.10566000000E+00 0. -1.
        994    1    1    2    0    0 -0.73518724094E+01 -0.14837249123E+02  0.40290737969E+01  0.17204612005E+03  0.17120000000E+03 0.  0.
        998    1    1    2    0    0  0.75763470538E+00 -0.25055067587E+01  0.14428277332E+04  0.14428647612E+04  0.10000000000E+02 0. -1.
</event>
<event>
 5    1  0.1572996E-008  0.3851716E+03  0.7957747E-01  0.3428945E+00
         13   -1    0    0    0    0  0.00000000000E+00  0.00000000000E+00  0.14999999963E+04  0.15000000000E+04  0.10566000000E+00 0.  1.
        994   -1    0    0    0    0 -0.00000000000E+00 -0.00000000000E+00  0.11368683772E-12  0.17120000000E+03  0.17120000000E+03 0.  0.
         13    1    1    2    0    0 -0.41793163287E+01 -0.94403659986E+01  0.33178695890E+02  0.34748010305E+02  0.10566000000E+00 0.  1.
        994    1    1    2    0    0 -0.55938099222E+01  0.18540769183E+02  0.27786451191E+01  0.17231428176E+03  0.17120000000E+03 0.  0.
        998    1    1    2    0    0  0.97731262508E+01 -0.91004031845E+01  0.14640426553E+04  0.14641377079E+04  0.10000000000E+02 0.  1.
</event>
<event>
 5    1  0.1572996E-008  0.3718718E+03  0.7957747E-01  0.3487332E+00
         13   -1    0    0    0    0  0.00000000000E+00  0.00000000000E+00  0.14999999963E+04  0.15000000000E+04  0.10566000000E+00 0.  1.
        994   -1    0    0    0    0 -0.00000000000E+00 -0.00000000000E+00  0.11368683772E-12  0.17120000000E+03  0.17120000000E+03 0.  0.
         13    1    1    2    0    0  0.21526287265E+02  0.54214775317E+02  0.18398380453E+03  0.19300951894E+03  0.10566000000E+00 0.  1.
        994    1    1    2    0    0 -0.27116755297E+02 -0.45975091342E+02  0.18145999176E+02  0.18024357056E+03  0.17120000000E+03 0.  0.
        998    1    1    2    0    0  0.55904680326E+01 -0.82396839755E+01  0.12978701926E+04  0.12979469105E+04  0.10000000000E+02 0.  1.
</event>
<event>
 5    1  0.1572996E-008  0.3717459E+03  0.7957747E-01  0.3487905E+00
         13   -1    0    0    0    0  0.00000000000E+00  0.00000000000E+00  0.14999999963E+04  0.15000000000E+04  0.10566000000E+00 0.  1.
        994   -1    0    0    0    0 -0.00000000000E+00 -0.00000000000E+00  0.11368683772E-12  0.17120000000E+03  0.17120000000E+03 0.  0.
         13    1    1    2    0    0  0.16387836781E+02  0.41113349119E+02  0.89954021839E+02  0.10025271008E+03  0.10566000000E+00 0.  1.
        994    1    1    2    0    0 -0.40680396132E+01  0.15902576158E+02  0.12813294411E+02  0.17246176790E+03  0.17120000000E+03 0.  0.
        998    1    1    2    0    0 -0.12319797168E+02 -0.57015925277E+02  0.13972326800E+04  0.13984855220E+04  0.10000000000E+02 0.  1.
</event>
<event>
 5    1  0.1572996E-008  0.4269618E+03  0.7957747E-01  0.3269125E+00
         13   -1    0    0    0    0  0.00000000000E+00  0.00000000000E+00  0.14999999963E+04  0.15000000000E+04  0.10566000000E+00 0.  1.
        994   -1    0    0    0    0 -0.00000000000E+00 -0.00000000000E+00  0.11368683772E-12  0.17120000000E+03  0.17120000000E+03 0.  0.
         13    1    1    2    0    0 -0.13304491645E+03  0.22643713617E+02  0.21834501185E+03  0.25668705250E+03  0.10566000000E+00 0.  1.
        994    1    1    2    0    0  0.46363714593E+02 -0.68862242379E+02  0.76098530368E+02  0.20491956661E+03  0.17120000000E+03 0.  0.
        998    1    1    2    0    0  0.86681201852E+02  0.46218528762E+02  0.12055564541E+04  0.12095933809E+04  0.10000000000E+02 0.  1.
</event>
<event>
 5    1  0.2273001E-008  0.3859234E+03  0.7957747E-01  0.3425765E+00
         13   -1    0    0    0    0  0.00000000000E+00  0.00000000000E+00  0.14999999963E+04  0.15000000000E+04  0.10566000000E+00 0. -1.
        994   -1    0    0    0    0 -0.00000000000E+00 -0.00000000000E+00  0.11368683772E-12  0.17120000000E+03  0.17120000000E+03 0.  0.
         13    1    1    2    0    0  0.11543733089E+02 -0.31166367222E+01  0.58945301645E+02  0.60145913811E+02  0.10566000000E+00 0. -1.
        994    1    1    2    0    0 -0.13367433076E+02  0.54562674317E+01  0.18561720463E+01  0.17181776537E+03  0.17120000000E+03 0.  0.
        998    1    1    2    0    0  0.18236999865E+01 -0.23396307096E+01  0.14391985226E+04  0.14392363208E+04  0.10000000000E+02 0. -1.
</event>
<event>
 5    1  0.1572996E-008  0.3844409E+03  0.7957747E-01  0.3432047E+00
         13   -1    0    0    0    0  0.00000000000E+00  0.00000000000E+00  0.14999999963E+04  0.15000000000E+04  0.10566000000E+00 0.  1.
        994   -1    0    0    0    0 -0.00000000000E+00 -0.00000000000E+00  0.11368683772E-12  0.17120000000E+03  0.17120000000E+03 0.  0.
         13    1    1    2    0    0 -0.85356369999E+01 -0.15801539265E+02  0.86450358918E+02  0.88296214320E+02  0.10566000000E+00 0.  1.
        994    1    1    2    0    0  0.46804687982E+00  0.86297051405E+01  0.21540886206E+01  0.17143153437E+03  0.17120000000E+03 0.  0.
        998    1    1    2    0    0  0.80675901201E+01  0.71718341245E+01  0.14113955487E+04  0.14114722513E+04  0.10000000000E+02 0.  1.
</event>
<event>
 5    1  0.1572996E-008  0.3799853E+03  0.7957747E-01  0.3451222E+00
         13   -1    0    0    0    0  0.00000000000E+00  0.00000000000E+00  0.14999999963E+04  0.15000000000E+04  0.10566000000E+00 0. -1.
        994   -1    0    0    0    0 -0.00000000000E+00 -0.00000000000E+00  0.11368683772E-12  0.17120000000E+03  0.17120000000E+03 0.  0.
         13    1    1    2    0    0  0.69623948654E+01  0.80377563502E+01  0.11886206755E+02  0.15949092277E+02  0.10566000000E+00 0. -1.
        994    1    1    2    0    0 -0.50473048578E+01 -0.37452364889E+01  0.42726231382E+01  0.17136860095E+03  0.17120000000E+03 0.  0.
        998    1    1    2    0    0 -0.19150900076E+01 -0.42925198612E+01  0.14838411664E+04  0.14838823068E+04  0.10000000000E+02 0. -1.
</event>
<event>
 5    1  0.1572996E-008  0.3747049E+03  0.7957747E-01  0.3474544E+00
         13   -1    0    0    0    0  0.00000000000E+00  0.00000000000E+00  0.14999999963E+04  0.15000000000E+04  0.10566000000E+00 0. -1.
        994   -1    0    0    0    0 -0.00000000000E+00 -0.00000000000E+00  0.11368683772E-12  0.17120000000E+03  0.17120000000E+03 0.  0.
         13    1    1    2    0    0  0.12933795456E+02 -0.11792800881E+03  0.62762201037E+03  0.63873601542E+03  0.10566000000E+00 0. -1.
        994    1    1    2    0    0  0.66005156283E+01  0.11440628293E+03  0.52917078306E+02  0.21270171968E+03  0.17120000000E+03 0.  0.
        998    1    1    2    0    0 -0.19534311084E+02  0.35217258780E+01  0.81946090760E+03  0.81976226490E+03  0.10000000000E+02 0. -1.
</event>
<event>
 5    1  0.1572996E-008  0.3821347E+03  0.7957747E-01  0.3441916E+00
         13   -1    0    0    0    0  0.00000000000E+00  0.00000000000E+00  0.14999999963E+04  0.15000000000E+04  0.10566000000E+00 0. -1.
        994   -1    0    0    0    0 -0.00000000000E+00 -0.00000000000E+00  0.11368683772E-12  0.17120000000E+03  0.17120000000E+03 0.  0.
         13    1    1    2    0    0 -0.40321861141E+02 -0.14170755561E+02  0.24936372150E+03  0.25299988056E+03  0.10566000000E+00 0. -1.
        994    1    1    2    0    0  0.29469036047E+02  0.62426850483E+02  0.19043284372E+02  0.18557376546E+03  0.17120000000E+03 0.  0.
        998    1    1    2    0    0  0.10852825093E+02 -0.48256094922E+02  0.12315929904E+04  0.12326263540E+04  0.10000000000E+02 0. -1.
</event>
<event>
 5    1  0.1572996E-008  0.3782735E+03  0.7957747E-01  0.3458711E+00
         13   -1    0    0    0    0  0.00000000000E+00  0.00000000000E+00  0.14999999963E+04  0.15000000000E+04  0.10566000000E+00 0.  1.
        994   -1    0    0    0    0 -0.00000000000E+00 -0.00000000000E+00  0.11368683772E-12  0.17120000000E+03  0.17120000000E+03 0.  0.
         13    1    1    2    0    0 -0.11233975531E+02 -0.15467443384E+01  0.10444211814E+02  0.15417112205E+02  0.10566000000E+00 0.  1.
        994    1    1    2    0    0  0.15421230012E+02 -0.26016864607E+01  0.58299640037E+01  0.17201166120E+03  0.17120000000E+03 0.  0.
        998    1    1    2    0    0 -0.41872544811E+01  0.41484307991E+01  0.14837258205E+04  0.14837712266E+04  0.10000000000E+02 0.  1.
</event>
<event>
 5    1  0.1572996E-008  0.3822365E+03  0.7957747E-01  0.3441478E+00
         13   -1    0    0    0    0  0.00000000000E+00  0.00000000000E+00  0.14999999963E+04  0.15000000000E+04  0.10566000000E+00 0.  1.
        994   -1    0    0    0    0 -0.00000000000E+00 -0.00000000000E+00  0.11368683772E-12  0.17120000000E+03  0.17120000000E+03 0.  0.
         13    1    1    2    0    0 -0.13050640669E+02 -0.27369344934E+02  0.14055206443E+03  0.14378558427E+03  0.10566000000E+00 0.  1.
        994    1    1    2    0    0  0.23808135394E+02  0.21152648626E+02  0.63814185459E+01  0.17425390773E+03  0.17120000000E+03 0.  0.
        998    1    1    2    0    0 -0.10757494725E+02  0.62166963081E+01  0.13530665133E+04  0.13531605080E+04  0.10000000000E+02 0.  1.
</event>
<event>
 5    1  0.1572996E-008  0.3713620E+03  0.7957747E-01  0.3489655E+00
         13   -1    0    0    0    0  0.00000000000E+00  0.00000000000E+00  0.14999999963E+04  0.15000000000E+04  0.10566000000E+00 0.  1.
        994   -1    0    0    0    0 -0.00000000000E+00 -0.00000000000E+00  0.11368683772E-12  0.17120000000E+03  0.17120000000E+03 0.  0.
         13    1    1    2    0    0 -0.51450971604E+02 -0.14249992152E+02  0.16696384849E+03  0.17529176427E+03  0.10566000000E+00 0.  1.
        994    1    1    2    0    0  0.21730083055E+02  0.26158819320E+02  0.12549325317E+02  0.17499544538E+03  0.17120000000E+03 0.  0.
        998    1    1    2    0    0  0.29720888549E+02 -0.11908827168E+02  0.13204868225E+04  0.13209127903E+04  0.10000000000E+02 0.  1.
</event>
<event>
 5    1  0.1572996E-008  0.3715707E+03  0.7957747E-01  0.3488703E+00
         13   -1    0    0    0    0  0.00000000000E+00  0.00000000000E+00  0.14999999963E+04  0.15000000000E+04  0.10566000000E+00 0.  1.
        994   -1    0    0    0    0 -0.00000000000E+00 -0.00000000000E+00  0.11368683772E-12  0.17120000000E+03  0.17120000000E+03 0.  0.
         13    1    1    2    0    0  0.91629184126E+01 -0.47119567498E+01  0.24897768277E+01  0.10600554841E+02  0.10566000000E+00 0.  1.
        994    1    1    2    0    0  0.78524448541E+01 -0.47458514982E+01  0.87399431293E+01  0.17166831566E+03  0.17120000000E+03 0.  0.
        998    1    1    2    0    0 -0.17015363267E+02  0.94578082481E+01  0.14887702763E+04  0.14889311295E+04  0.10000000000E+02 0.  1.
</event>
<event>
 5    1  0.1572996E-008  0.3470095E+03  0.7957747E-01  0.3608718E+00
         13   -1    0    0    0    0  0.00000000000E+00  0.00000000000E+00  0.14999999963E+04  0.15000000000E+04  0.10566000000E+00 0. -1.
        994   -1    0    0    0    0 -0.00000000000E+00 -0.00000000000E+00  0.11368683772E-12  0.17120000000E+03  0.17120000000E+03 0.  0.
         13    1    1    2    0    0 -0.22919260752E+02 -0.30429172676E+03  0.63621525431E+03  0.70561222244E+03  0.10566000000E+00 0. -1.
        994    1    1    2    0    0 -0.79968026830E+01  0.29258123880E+03  0.52457891277E+03  0.62462805402E+03  0.17120000000E+03 0.  0.
        998    1    1    2    0    0  0.30916063435E+02  0.11710487963E+02  0.33920582920E+03  0.34095972353E+03  0.10000000000E+02 0. -1.
</event>
<event>
 5    1  0.1572996E-008  0.3774322E+03  0.7957747E-01  0.3462416E+00
         13   -1    0    0    0    0  0.00000000000E+00  0.00000000000E+00  0.14999999963E+04  0.15000000000E+04  0.10566000000E+00 0. -1.
        994   -1    0    0    0    0 -0.00000000000E+00 -0.00000000000E+00  0.11368683772E-12  0.17120000000E+03  0.17120000000E+03 0.  0.
         13    1    1    2    0    0 -0.57444373457E+01  0.41120166413E+02  0.16320348545E+03  0.16840206494E+03  0.10566000000E+00 0. -1.
        994    1    1    2    0    0 -0.95249724106E+01 -0.19096166706E+02  0.69718543524E+01  0.17266567532E+03  0.17120000000E+03 0.  0.
        998    1    1    2    0    0  0.15269409756E+02 -0.22023999707E+02  0.13298246565E+04  0.13301322597E+04  0.10000000000E+02 0. -1.
</event>
<event>
 5    1  0.1572996E-008  0.3824366E+03  0.7957747E-01  0.3440617E+00
         13   -1    0    0    0    0  0.00000000000E+00  0.00000000000E+00  0.14999999963E+04  0.15000000000E+04  0.10566000000E+00 0. -1.
        994   -1    0    0    0    0 -0.00000000000E+00 -0.00000000000E+00  0.11368683772E-12  0.17120000000E+03  0.17120000000E+03 0.  0.
         13    1    1    2    0    0 -0.56769185726E+01 -0.10422649282E+02  0.23201242606E+02  0.26060848894E+02  0.10566000000E+00 0. -1.
        994    1    1    2    0    0  0.24761206687E+01  0.68211045396E+01  0.30828602693E+01  0.17138145369E+03  0.17120000000E+03 0.  0.
        998    1    1    2    0    0  0.32007979039E+01  0.36015447428E+01  0.14737158934E+04  0.14737576974E+04  0.10000000000E+02 0. -1.
</event>
<event>
 5    1  0.1572996E-008  0.3733455E+03  0.7957747E-01  0.3480656E+00
         13   -1    0    0    0    0  0.00000000000E+00  0.00000000000E+00  0.14999999963E+04  0.15000000000E+04  0.10566000000E+00 0.  1.
        994   -1    0    0    0    0 -0.00000000000E+00 -0.00000000000E+00  0.11368683772E-12  0.17120000000E+03  0.17120000000E+03 0.  0.
         13    1    1    2    0    0  0.12415243984E+02  0.49863166271E+01  0.84026943661E+01  0.15799306103E+02  0.10566000000E+00 0.  1.
        994    1    1    2    0    0 -0.12327836369E+02 -0.58694939159E+01  0.81683233907E+01  0.17193774459E+03  0.17120000000E+03 0.  0.
        998    1    1    2    0    0 -0.87407614731E-01  0.88317728884E+00  0.14834289785E+04  0.14834629493E+04  0.10000000000E+02 0.  1.
</event>
<event>
 5    1  0.1572996E-008  0.3802431E+03  0.7957747E-01  0.3450100E+00
         13   -1    0    0    0    0  0.00000000000E+00  0.00000000000E+00  0.14999999963E+04  0.15000000000E+04  0.10566000000E+00 0.  1.
        994   -1    0    0    0    0 -0.00000000000E+00 -0.00000000000E+00  0.11368683772E-12  0.17120000000E+03  0.17120000000E+03 0.  0.
         13    1    1    2    0    0 -0.18819988001E+02  0.26220228766E+02  0.14388032388E+03  0.14745592938E+03  0.10566000000E+00 0.  1.
        994    1    1    2    0    0  0.16427957925E+02  0.94966629532E+01  0.52140772053E+01  0.17232727877E+03  0.17120000000E+03 0.  0.
        998    1    1    2    0    0  0.23920300753E+01 -0.35716891719E+02  0.13509055952E+04  0.13514167918E+04  0.10000000000E+02 0.  1.
</event>
<event>
 5    1  0.1572996E-008  0.3708749E+03  0.7957747E-01  0.3491880E+00
         13   -1    0    0    0    0  0.00000000000E+00  0.00000000000E+00  0.14999999963E+04  0.15000000000E+04  0.10566000000E+00 0. -1.
        994   -1    0    0    0    0 -0.00000000000E+00 -0.00000000000E+00  0.11368683772E-12  0.17120000000E+03  0.17120000000E+03 0.  0.
         13    1    1    2    0    0  0.68234039645E+02  0.34795755860E+02  0.37950206519E+03  0.38715430702E+03  0.10566000000E+00 0. -1.
        994    1    1    2    0    0 -0.39396666192E+02  0.15637339612E+02  0.15031390602E+02  0.17700849245E+03  0.17120000000E+03 0.  0.
        998    1    1    2    0    0 -0.28837373453E+02 -0.50433095472E+02  0.11054665405E+04  0.11070372005E+04  0.10000000000E+02 0. -1.
</event>
<event>
 5    1  0.1572996E-008  0.3826716E+03  0.7957747E-01  0.3439607E+00
         13   -1    0    0    0    0  0.00000000000E+00  0.00000000000E+00  0.14999999963E+04  0.15000000000E+04  0.10566000000E+00 0. -1.
        994   -1    0    0    0    0 -0.00000000000E+00 -0.00000000000E+00  0.11368683772E-12  0.17120000000E+03  0.17120000000E+03 0.  0.
         13    1    1    2    0    0  0.72209857024E+01  0.93859357153E+01  0.23815279284E+02  0.26597314060E+02  0.10566000000E+00 0. -1.
        994    1    1    2    0    0 -0.46883007577E+01 -0.11419336563E+02  0.32956570072E+01  0.17167609841E+03  0.17120000000E+03 0.  0.
        998    1    1    2    0    0 -0.25326849447E+01  0.20334008476E+01  0.14728890600E+04  0.14729265875E+04  0.10000000000E+02 0. -1.
</event>
<event>
 5    1  0.1572996E-008  0.3728521E+03  0.7957747E-01  0.3482885E+00
         13   -1    0    0    0    0  0.00000000000E+00  0.00000000000E+00  0.14999999963E+04  0.15000000000E+04  0.10566000000E+00 0.  1.
        994   -1    0    0    0    0 -0.00000000000E+00 -0.00000000000E+00  0.11368683772E-12  0.17120000000E+03  0.17120000000E+03 0.  0.
         13    1    1    2    0    0 -0.25730935036E+02  0.49845530982E+01  0.21618025970E+02  0.33974652291E+02  0.10566000000E+00 0.  1.
        994    1    1    2    0    0  0.33399230620E+02 -0.35401682718E+01  0.16448752341E+02  0.17523710466E+03  0.17120000000E+03 0.  0.
        998    1    1    2    0    0 -0.76682955838E+01 -0.14443848264E+01  0.14619332180E+04  0.14619882430E+04  0.10000000000E+02 0.  1.
</event>
<event>
 5    1  0.1572996E-008  0.3714234E+03  0.7957747E-01  0.3489375E+00
         13   -1    0    0    0    0  0.00000000000E+00  0.00000000000E+00  0.14999999963E+04  0.15000000000E+04  0.10566000000E+00 0.  1.
        994   -1    0    0    0    0 -0.00000000000E+00 -0.00000000000E+00  0.11368683772E-12  0.17120000000E+03  0.17120000000E+03 0.  0.
         13    1    1    2    0    0 -0.59549190144E+02  0.15506680869E+02  0.19532284254E+03  0.20478668701E+03  0.10566000000E+00 0.  1.
        994    1    1    2    0    0  0.53271235306E+02 -0.25769482905E+02  0.20674113888E+02  0.18231497400E+03  0.17120000000E+03 0.  0.
        998    1    1    2    0    0  0.62779548372E+01  0.10262802036E+02  0.12840030399E+04  0.12840983390E+04  0.10000000000E+02 0.  1.
</event>
<event>
 5    1  0.1572996E-008  0.3826604E+03  0.7957747E-01  0.3439656E+00
         13   -1    0    0    0    0  0.00000000000E+00  0.00000000000E+00  0.14999999963E+04  0.15000000000E+04  0.10566000000E+00 0.  1.
        994   -1    0    0    0    0 -0.00000000000E+00 -0.00000000000E+00  0.11368683772E-12  0.17120000000E+03  0.17120000000E+03 0.  0.
         13    1    1    2    0    0 -0.98444359981E+01  0.17819969676E+01  0.15814305700E+02  0.18713413962E+02  0.10566000000E+00 0.  1.
        994    1    1    2    0    0  0.29045112453E+02  0.13255059511E+01  0.56026225115E+01  0.17374177650E+03  0.17120000000E+03 0.  0.
        998    1    1    2    0    0 -0.19200676455E+02 -0.31075029186E+01  0.14785830681E+04  0.14787448095E+04  0.10000000000E+02 0.  1.
</event>
<event>
 5    1  0.1572996E-008  0.3754637E+03  0.7957747E-01  0.3471151E+00
         13   -1    0    0    0    0  0.00000000000E+00  0.00000000000E+00  0.14999999963E+04  0.15000000000E+04  0.10566000000E+00 0.  1.
        994   -1    0    0    0    0 -0.00000000000E+00 -0.00000000000E+00  0.11368683772E-12  0.17120000000E+03  0.17120000000E+03 0.  0.
         13    1    1    2    0    0 -0.88828140755E+01  0.30115180806E+02  0.76372878075E+02  0.82575154679E+02  0.10566000000E+00 0.  1.
        994    1    1    2    0    0 -0.67906756280E+01 -0.14570766517E+02  0.73183280389E+01  0.17210874015E+03  0.17120000000E+03 0.  0.
        998    1    1    2    0    0  0.15673489704E+02 -0.15544414289E+02  0.14163087902E+04  0.14165161052E+04  0.10000000000E+02 0.  1.
</event>
<event>
 5    1  0.1572996E-008  0.3845509E+03  0.7957747E-01  0.3431579E+00
         13   -1    0    0    0    0  0.00000000000E+00  0.00000000000E+00  0.14999999963E+04  0.15000000000E+04  0.10566000000E+00 0. -1.
        994   -1    0    0    0    0 -0.00000000000E+00 -0.00000000000E+00  0.11368683772E-12  0.17120000000E+03  0.17120000000E+03 0.  0.
         13    1    1    2    0    0 -0.16910373224E+02 -0.83202222230E+00  0.74975051409E+02  0.76863011139E+02  0.10566000000E+00 0. -1.
        994    1    1    2    0    0  0.15549836761E+02 -0.14628402592E+01  0.26571008801E+01  0.17193149075E+03  0.17120000000E+03 0.  0.
        998    1    1    2    0    0  0.13605364629E+01  0.22948624815E+01  0.14223678440E+04  0.14224054981E+04  0.10000000000E+02 0. -1.
</event>
<event>
 5    1  0.1572996E-008  0.3811813E+03  0.7957747E-01  0.3446031E+00
         13   -1    0    0    0    0  0.00000000000E+00  0.00000000000E+00  0.14999999963E+04  0.15000000000E+04  0.10566000000E+00 0. -1.
        994   -1    0    0    0    0 -0.00000000000E+00 -0.00000000000E+00  0.11368683772E-12  0.17120000000E+03  0.17120000000E+03 0.  0.
         13    1    1    2    0    0  0.44929879761E+02 -0.80471025234E+01  0.25336893183E+03  0.25744761941E+03  0.10566000000E+00 0. -1.
        994    1    1    2    0    0 -0.44585546682E+02 -0.54347034461E+01  0.10285178585E+02  0.17729250371E+03  0.17120000000E+03 0.  0.
        998    1    1    2    0    0 -0.34433307920E+00  0.13481805969E+02  0.12363458859E+04  0.12364598769E+04  0.10000000000E+02 0. -1.
</event>
<event>
 5    1  0.1572996E-008  0.3864477E+03  0.7957747E-01  0.3423555E+00
         13   -1    0    0    0    0  0.00000000000E+00  0.00000000000E+00  0.14999999963E+04  0.15000000000E+04  0.10566000000E+00 0.  1.
        994   -1    0    0    0    0 -0.00000000000E+00 -0.00000000000E+00  0.11368683772E-12  0.17120000000E+03  0.17120000000E+03 0.  0.
         13    1    1    2    0    0 -0.34162315305E+02  0.10238504535E+02  0.25026069968E+02  0.43568407180E+02  0.10566000000E+00 0.  1.
        994    1    1    2    0    0  0.13689968227E+02  0.11381845761E+02  0.21092326619E+02  0.17341074905E+03  0.17120000000E+03 0.  0.
        998    1    1    2    0    0  0.20472347078E+02 -0.21620350297E+02  0.14538815997E+04  0.14542208438E+04  0.10000000000E+02 0.  1.
</event>
<event>
 5    1  0.1572996E-008  0.3798697E+03  0.7957747E-01  0.3451726E+00
         13   -1    0    0    0    0  0.00000000000E+00  0.00000000000E+00  0.14999999963E+04  0.15000000000E+04  0.10566000000E+00 0.  1.
        994   -1    0    0    0    0 -0.00000000000E+00 -0.00000000000E+00  0.11368683772E-12  0.17120000000E+03  0.17120000000E+03 0.  0.
         13    1    1    2    0    0  0.39160810531E+02 -0.21393298498E+02  0.21122751562E+03  0.21588959405E+03  0.10566000000E+00 0.  1.
        994    1    1    2    0    0 -0.36540123700E+02  0.17363863872E+02  0.96920937515E+01  0.17618189774E+03  0.17120000000E+03 0.  0.
        998    1    1    2    0    0 -0.26206868313E+01  0.40294346268E+01  0.12790803869E+04  0.12791285082E+04  0.10000000000E+02 0.  1.
</event>
<event>
 5    1  0.1572996E-008  0.3826083E+03  0.7957747E-01  0.3439879E+00
         13   -1    0    0    0    0  0.00000000000E+00  0.00000000000E+00  0.14999999963E+04  0.15000000000E+04  0.10566000000E+00 0.  1.
        994   -1    0    0    0    0 -0.00000000000E+00 -0.00000000000E+00  0.11368683772E-12  0.17120000000E+03  0.17120000000E+03 0.  0.
         13    1    1    2    0    0 -0.50143790451E+01 -0.23437018030E+02  0.95335851136E+02  0.98302459212E+02  0.10566000000E+00 0.  1.
        994    1    1    2    0    0  0.28346735620E+01  0.24415296539E+02  0.48271440404E+01  0.17302278289E+03  0.17120000000E+03 0.  0.
        998    1    1    2    0    0  0.21797054832E+01 -0.97827850899E+00  0.13998370011E+04  0.13998747579E+04  0.10000000000E+02 0.  0.
</event>
<event>
 5    1  0.1572996E-008  0.3834545E+03  0.7957747E-01  0.3436253E+00
         13   -1    0    0    0    0  0.00000000000E+00  0.00000000000E+00  0.14999999963E+04  0.15000000000E+04  0.10566000000E+00 0.  1.
        994   -1    0    0    0    0 -0.00000000000E+00 -0.00000000000E+00  0.11368683772E-12  0.17120000000E+03  0.17120000000E+03 0.  0.
         13    1    1    2    0    0  0.31705908167E+01 -0.20183523758E+02  0.79911122395E+02  0.82481670229E+02  0.10566000000E+00 0.  1.
        994    1    1    2    0    0 -0.11732311764E+02  0.24908255824E+02  0.49089837788E+01  0.17346932429E+03  0.17120000000E+03 0.  0.
        998    1    1    2    0    0  0.85617209475E+01 -0.47247320658E+01  0.14151798901E+04  0.14152490055E+04  0.10000000000E+02 0.  1.
</event>
<event>
 5    1  0.1572996E-008  0.3757721E+03  0.7957747E-01  0.3469777E+00
         13   -1    0    0    0    0  0.00000000000E+00  0.00000000000E+00  0.14999999963E+04  0.15000000000E+04  0.10566000000E+00 0.  1.
        994   -1    0    0    0    0 -0.00000000000E+00 -0.00000000000E+00  0.11368683772E-12  0.17120000000E+03  0.17120000000E+03 0.  0.
         13    1    1    2    0    0 -0.38815574494E+02  0.37291144632E+02  0.32009836764E+03  0.32459244357E+03  0.10566000000E+00 0.  1.
        994    1    1    2    0    0  0.18824015363E+02  0.28979616553E+02  0.10342108456E+02  0.17495874067E+03  0.17120000000E+03 0.  0.
        998    1    1    2    0    0  0.19991559130E+02 -0.66270761186E+02  0.11695595202E+04  0.11716488158E+04  0.10000000000E+02 0.  1.
</event>
<event>
 5    1  0.1572996E-008  0.4079760E+03  0.7957747E-01  0.3337714E+00
         13   -1    0    0    0    0  0.00000000000E+00  0.00000000000E+00  0.14999999963E+04  0.15000000000E+04  0.10566000000E+00 0. -1.
        994   -1    0    0    0    0 -0.00000000000E+00 -0.00000000000E+00  0.11368683772E-12  0.17120000000E+03  0.17120000000E+03 0.  0.
         13    1    1    2    0    0 -0.35637280555E+02 -0.35062584869E+02  0.30539481204E+02  0.58583886004E+02  0.10566000000E+00 0. -1.
        994    1    1    2    0    0  0.11471645142E+02 -0.41263462301E+02  0.40092374067E+02  0.18097267866E+03  0.17120000000E+03 0.  0.
        998    1    1    2    0    0  0.24165635412E+02  0.76326047170E+02  0.14293681410E+04  0.14316434353E+04  0.10000000000E+02 0. -1.
</event>
<event>
 5    1  0.1572996E-008  0.3836834E+03  0.7957747E-01  0.3435275E+00
         13   -1    0    0    0    0  0.00000000000E+00  0.00000000000E+00  0.14999999963E+04  0.15000000000E+04  0.10566000000E+00 0. -1.
        994   -1    0    0    0    0 -0.00000000000E+00 -0.00000000000E+00  0.11368683772E-12  0.17120000000E+03  0.17120000000E+03 0.  0.
         13    1    1    2    0    0  0.67077181605E+01 -0.91014393181E+01  0.23557780784E+02  0.26130631070E+02  0.10566000000E+00 0. -1.
        994    1    1    2    0    0  0.39024405949E+01  0.64606913607E+02  0.16246348613E+02  0.18374620043E+03  0.17120000000E+03 0.  0.
        998    1    1    2    0    0 -0.10610158755E+02 -0.55505474289E+02  0.14601958669E+04  0.14613231685E+04  0.10000000000E+02 0. -1.
</event>
<event>
 5    1  0.1572996E-008  0.3843353E+03  0.7957747E-01  0.3432496E+00
         13   -1    0    0    0    0  0.00000000000E+00  0.00000000000E+00  0.14999999963E+04  0.15000000000E+04  0.10566000000E+00 0.  1.
        994   -1    0    0    0    0 -0.00000000000E+00 -0.00000000000E+00  0.11368683772E-12  0.17120000000E+03  0.17120000000E+03 0.  0.
         13    1    1    2    0    0  0.13666144217E+02  0.62678699449E+01  0.59760111348E+02  0.61622493975E+02  0.10566000000E+00 0.  1.
        994    1    1    2    0    0  0.35182281083E+01 -0.14238468364E+02  0.26697952356E+01  0.17184783885E+03  0.17120000000E+03 0.  0.
        998    1    1    2    0    0 -0.17184372325E+02  0.79705984195E+01  0.14375700897E+04  0.14377296672E+04  0.10000000000E+02 0.  1.
</event>
<event>
 5    1  0.1572996E-008  0.3854898E+03  0.7957747E-01  0.3427597E+00
         13   -1    0    0    0    0  0.00000000000E+00  0.00000000000E+00  0.14999999963E+04  0.15000000000E+04  0.10566000000E+00 0. -1.
        994   -1    0    0    0    0 -0.00000000000E+00 -0.00000000000E+00  0.11368683772E-12  0.17120000000E+03  0.17120000000E+03 0.  0.
         13    1    1    2    0    0  0.53543798895E+00 -0.12696003484E+02  0.56293665600E+02  0.57710165040E+02  0.10566000000E+00 0. -1.
        994    1    1    2    0    0  0.69521063679E+01  0.14876842728E+02  0.22730318101E+01  0.17200075263E+03  0.17120000000E+03 0.  0.
        998    1    1    2    0    0 -0.74875443569E+01 -0.21808392445E+01  0.14414332989E+04  0.14414890823E+04  0.10000000000E+02 0. -1.
</event>
<event>
 5    1  0.1572996E-008  0.3842194E+03  0.7957747E-01  0.3432990E+00
         13   -1    0    0    0    0  0.00000000000E+00  0.00000000000E+00  0.14999999963E+04  0.15000000000E+04  0.10566000000E+00 0. -1.
        994   -1    0    0    0    0 -0.00000000000E+00 -0.00000000000E+00  0.11368683772E-12  0.17120000000E+03  0.17120000000E+03 0.  0.
         13    1    1    2    0    0  0.60874983635E+01  0.25135146161E+02  0.15166644992E+03  0.15385563495E+03  0.10566000000E+00 0. -1.
        994    1    1    2    0    0  0.37466592158E+01 -0.27355712079E+02  0.45357762704E+01  0.17347157031E+03  0.17120000000E+03 0.  0.
        998    1    1    2    0    0 -0.98341575793E+01  0.22205659179E+01  0.13437977701E+04  0.13438727947E+04  0.10000000000E+02 0. -1.
</event>
<event>
 5    1  0.1572996E-008  0.3850906E+03  0.7957747E-01  0.3429288E+00
         13   -1    0    0    0    0  0.00000000000E+00  0.00000000000E+00  0.14999999963E+04  0.15000000000E+04  0.10566000000E+00 0. -1.
        994   -1    0    0    0    0 -0.00000000000E+00 -0.00000000000E+00  0.11368683772E-12  0.17120000000E+03  0.17120000000E+03 0.  0.
         13    1    1    2    0    0 -0.95123430841E+00 -0.16936478020E+02  0.97538312888E+02  0.99002438251E+02  0.10566000000E+00 0. -1.
        994    1    1    2    0    0 -0.71712884149E+01  0.25418507844E+01  0.17755095170E+01  0.17137818069E+03  0.17120000000E+03 0.  0.
        998    1    1    2    0    0  0.81225227233E+01  0.14394627236E+02  0.14006861739E+04  0.14008193811E+04  0.10000000000E+02 0. -1.
</event>
<event>
 5    1  0.1572996E-008  0.3690965E+03  0.7957747E-01  0.3500053E+00
         13   -1    0    0    0    0  0.00000000000E+00  0.00000000000E+00  0.14999999963E+04  0.15000000000E+04  0.10566000000E+00 0.  1.
        994   -1    0    0    0    0 -0.00000000000E+00 -0.00000000000E+00  0.11368683772E-12  0.17120000000E+03  0.17120000000E+03 0.  0.
         13    1    1    2    0    0 -0.14185960676E+03 -0.26827181338E+02  0.79127069718E+03  0.80433399348E+03  0.10566000000E+00 0.  1.
        994    1    1    2    0    0  0.10792848998E+03  0.35782633768E+01  0.52282257340E+02  0.20905558436E+03  0.17120000000E+03 0.  0.
        998    1    1    2    0    0  0.33931116775E+02  0.23248917961E+02  0.65644704176E+03  0.65781042216E+03  0.10000000000E+02 0.  1.
</event>
<event>
 5    1  0.1572996E-008  0.3768157E+03  0.7957747E-01  0.3465142E+00
         13   -1    0    0    0    0  0.00000000000E+00  0.00000000000E+00  0.14999999963E+04  0.15000000000E+04  0.10566000000E+00 0. -1.
        994   -1    0    0    0    0 -0.00000000000E+00 -0.00000000000E+00  0.11368683772E-12  0.17120000000E+03  0.17120000000E+03 0.  0.
         13    1    1    2    0    0  0.24835407253E+02 -0.41059832812E+02  0.23159071871E+03  0.23650999869E+03  0.10566000000E+00 0. -1.
        994    1    1    2    0    0  0.14202856295E+02  0.16014715173E+02  0.72988292736E+01  0.17268730451E+03  0.17120000000E+03 0.  0.
        998    1    1    2    0    0 -0.39038263548E+02  0.25045117639E+02  0.12611104483E+04  0.12620026968E+04  0.10000000000E+02 0. -1.
</event>
<event>
 5    1  0.3203424E-008  0.3863794E+03  0.7957747E-01  0.3423843E+00
         13   -1    0    0    0    0  0.00000000000E+00  0.00000000000E+00  0.14999999963E+04  0.15000000000E+04  0.10566000000E+00 0. -1.
        994   -1    0    0    0    0 -0.00000000000E+00 -0.00000000000E+00  0.11368683772E-12  0.17120000000E+03  0.17120000000E+03 0.  0.
         13    1    1    2    0    0  0.89806448071E+01 -0.56741788514E+01  0.59347568989E+02  0.60290906410E+02  0.10566000000E+00 0. -1.
        994    1    1    2    0    0 -0.11243901095E+02  0.11203607136E+01  0.13649789944E+01  0.17157792308E+03  0.17120000000E+03 0.  0.
        998    1    1    2    0    0  0.22632562876E+01  0.45538181378E+01  0.14392874483E+04  0.14393311705E+04  0.10000000000E+02 0. -1.
</event>
<event>
 5    1  0.1572996E-008  0.3733610E+03  0.7957747E-01  0.3480586E+00
         13   -1    0    0    0    0  0.00000000000E+00  0.00000000000E+00  0.14999999963E+04  0.15000000000E+04  0.10566000000E+00 0. -1.
        994   -1    0    0    0    0 -0.00000000000E+00 -0.00000000000E+00  0.11368683772E-12  0.17120000000E+03  0.17120000000E+03 0.  0.
         13    1    1    2    0    0 -0.16129398366E+02 -0.44107807527E+02  0.15266390068E+03  0.15972455638E+03  0.10566000000E+00 0. -1.
        994    1    1    2    0    0 -0.90233785131E+01  0.20785264824E+02  0.92797997462E+01  0.17294219635E+03  0.17120000000E+03 0.  0.
        998    1    1    2    0    0  0.25152776879E+02  0.23322542703E+02  0.13380562959E+04  0.13385332473E+04  0.10000000000E+02 0. -1.
</event>
<event>
 5    1  0.1572996E-008  0.3723954E+03  0.7957747E-01  0.3484954E+00
         13   -1    0    0    0    0  0.00000000000E+00  0.00000000000E+00  0.14999999963E+04  0.15000000000E+04  0.10566000000E+00 0. -1.
        994   -1    0    0    0    0 -0.00000000000E+00 -0.00000000000E+00  0.11368683772E-12  0.17120000000E+03  0.17120000000E+03 0.  0.
         13    1    1    2    0    0  0.29659885935E+02 -0.17967294243E+03  0.93168548586E+03  0.94931550646E+03  0.10566000000E+00 0. -1.
        994    1    1    2    0    0 -0.25692645354E+02  0.16284638717E+03  0.10786919960E+03  0.26100624909E+03  0.17120000000E+03 0.  0.
        998    1    1    2    0    0 -0.39672405807E+01  0.16826555259E+02  0.46044531082E+03  0.46087824446E+03  0.10000000000E+02 0.  1.
</event>
<event>
 5    1  0.1572996E-008  0.3790672E+03  0.7957747E-01  0.3455230E+00
         13   -1    0    0    0    0  0.00000000000E+00  0.00000000000E+00  0.14999999963E+04  0.15000000000E+04  0.10566000000E+00 0. -1.
        994   -1    0    0    0    0 -0.00000000000E+00 -0.00000000000E+00  0.11368683772E-12  0.17120000000E+03  0.17120000000E+03 0.  0.
         13    1    1    2    0    0  0.17702496232E+02  0.23424750606E+02  0.87785110073E+02  0.92565296026E+02  0.10566000000E+00 0. -1.
        994    1    1    2    0    0 -0.22427015999E+02 -0.18417276727E+02  0.74338796526E+01  0.17380123617E+03  0.17120000000E+03 0.  0.
        998    1    1    2    0    0  0.47245197672E+01 -0.50074738781E+01  0.14047810066E+04  0.14048334678E+04  0.10000000000E+02 0. -1.
</event>
<event>
 5    1  0.1572996E-008  0.3742702E+03  0.7957747E-01  0.3476493E+00
         13   -1    0    0    0    0  0.00000000000E+00  0.00000000000E+00  0.14999999963E+04  0.15000000000E+04  0.10566000000E+00 0.  1.
        994   -1    0    0    0    0 -0.00000000000E+00 -0.00000000000E+00  0.11368683772E-12  0.17120000000E+03  0.17120000000E+03 0.  0.
         13    1    1    2    0    0  0.51916379930E+02  0.50006769420E+02  0.19341970872E+03  0.20641507304E+03  0.10566000000E+00 0.  1.
        994    1    1    2    0    0 -0.45229228404E+01 -0.57704156306E+02  0.25202300917E+02  0.18246868898E+03  0.17120000000E+03 0.  0.
        998    1    1    2    0    0 -0.47393457090E+02  0.76973868867E+01  0.12813779866E+04  0.12823162380E+04  0.10000000000E+02 0.  1.
</event>
<event>
 5    1  0.1572996E-008  0.3852247E+03  0.7957747E-01  0.3428720E+00
         13   -1    0    0    0    0  0.00000000000E+00  0.00000000000E+00  0.14999999963E+04  0.15000000000E+04  0.10566000000E+00 0.  1.
        994   -1    0    0    0    0 -0.00000000000E+00 -0.00000000000E+00  0.11368683772E-12  0.17120000000E+03  0.17120000000E+03 0.  0.
         13    1    1    2    0    0 -0.80404451525E+01  0.80062802469E+01  0.41237949955E+02  0.42770655386E+02  0.10566000000E+00 0.  1.
        994    1    1    2    0    0  0.99667423744E+01 -0.82598615650E+01  0.20694685738E+01  0.17170114725E+03  0.17120000000E+03 0.  0.
        998    1    1    2    0    0 -0.19262972219E+01  0.25358131809E+00  0.14566925778E+04  0.14567281974E+04  0.10000000000E+02 0.  1.
</event>
<event>
 5    1  0.1572996E-008  0.3806920E+03  0.7957747E-01  0.3448151E+00
         13   -1    0    0    0    0  0.00000000000E+00  0.00000000000E+00  0.14999999963E+04  0.15000000000E+04  0.10566000000E+00 0. -1.
        994   -1    0    0    0    0 -0.00000000000E+00 -0.00000000000E+00  0.11368683772E-12  0.17120000000E+03  0.17120000000E+03 0.  0.
         13    1    1    2    0    0 -0.14186950159E+02 -0.14097121791E+01  0.24452700346E+02  0.28305521749E+02  0.10566000000E+00 0. -1.
        994    1    1    2    0    0  0.22269612461E+02 -0.24220313490E+01  0.54596628557E+01  0.17274562163E+03  0.17120000000E+03 0.  0.
        998    1    1    2    0    0 -0.80826623019E+01  0.38317435281E+01  0.14700876331E+04  0.14701488566E+04  0.10000000000E+02 0. -1.
</event>
<event>
 5    1  0.1572996E-008  0.3843865E+03  0.7957747E-01  0.3432278E+00
         13   -1    0    0    0    0  0.00000000000E+00  0.00000000000E+00  0.14999999963E+04  0.15000000000E+04  0.10566000000E+00 0. -1.
        994   -1    0    0    0    0 -0.00000000000E+00 -0.00000000000E+00  0.11368683772E-12  0.17120000000E+03  0.17120000000E+03 0.  0.
         13    1    1    2    0    0 -0.11858681517E+00  0.12614276561E+02  0.39811038405E+02  0.41761992037E+02  0.10566000000E+00 0. -1.
        994    1    1    2    0    0 -0.13246406097E+00 -0.13485492939E+02  0.25345949865E+01  0.17174906183E+03  0.17120000000E+03 0.  0.
        998    1    1    2    0    0  0.25105087614E+00  0.87121637785E+00  0.14576543629E+04  0.14576889461E+04  0.10000000000E+02 0. -1.
</event>
<event>
 5    1  0.1572996E-008  0.3756231E+03  0.7957747E-01  0.3470441E+00
         13   -1    0    0    0    0  0.00000000000E+00  0.00000000000E+00  0.14999999963E+04  0.15000000000E+04  0.10566000000E+00 0.  1.
        994   -1    0    0    0    0 -0.00000000000E+00 -0.00000000000E+00  0.11368683772E-12  0.17120000000E+03  0.17120000000E+03 0.  0.
         13    1    1    2    0    0 -0.11756960372E+02  0.45273097808E+01 -0.87256681270E+00  0.12629140427E+02  0.10566000000E+00 0.  1.
        994    1    1    2    0    0  0.22361474599E+02 -0.63436230512E+01  0.15872639774E+02  0.17349829334E+03  0.17120000000E+03 0.  0.
        998    1    1    2    0    0 -0.10604514226E+02  0.18163132704E+01  0.14849999233E+04  0.14850725662E+04  0.10000000000E+02 0.  1.
</event>
<event>
 5    1  0.1572996E-008  0.3852353E+03  0.7957747E-01  0.3428675E+00
         13   -1    0    0    0    0  0.00000000000E+00  0.00000000000E+00  0.14999999963E+04  0.15000000000E+04  0.10566000000E+00 0.  1.
        994   -1    0    0    0    0 -0.00000000000E+00 -0.00000000000E+00  0.11368683772E-12  0.17120000000E+03  0.17120000000E+03 0.  0.
         13    1    1    2    0    0  0.26959246367E+01  0.12029319206E+02  0.50558348697E+02  0.52039699434E+02  0.10566000000E+00 0.  1.
        994    1    1    2    0    0 -0.12484064130E+01 -0.72015922472E+01  0.16889282612E+01  0.17136427261E+03  0.17120000000E+03 0.  0.
        998    1    1    2    0    0 -0.14475182237E+01 -0.48277269585E+01  0.14477527193E+04  0.14477960280E+04  0.10000000000E+02 0.  1.
</event>
<event>
 5    1  0.1572996E-008  0.3841709E+03  0.7957747E-01  0.3433196E+00
         13   -1    0    0    0    0  0.00000000000E+00  0.00000000000E+00  0.14999999963E+04  0.15000000000E+04  0.10566000000E+00 0. -1.
        994   -1    0    0    0    0 -0.00000000000E+00 -0.00000000000E+00  0.11368683772E-12  0.17120000000E+03  0.17120000000E+03 0.  0.
         13    1    1    2    0    0 -0.12379144309E+02 -0.53916028372E+01  0.43865024173E+02  0.45896231923E+02  0.10566000000E+00 0. -1.
        994    1    1    2    0    0  0.10039433770E+02  0.35981972456E+01  0.24174765817E+01  0.17154888938E+03  0.17120000000E+03 0.  0.
        998    1    1    2    0    0  0.23397105397E+01  0.17934055916E+01  0.14537174955E+04  0.14537548787E+04  0.10000000000E+02 0. -1.
</event>
<event>
 5    1  0.1572996E-008  0.3768726E+03  0.7957747E-01  0.3464890E+00
         13   -1    0    0    0    0  0.00000000000E+00  0.00000000000E+00  0.14999999963E+04  0.15000000000E+04  0.10566000000E+00 0. -1.
        994   -1    0    0    0    0 -0.00000000000E+00 -0.00000000000E+00  0.11368683772E-12  0.17120000000E+03  0.17120000000E+03 0.  0.
         13    1    1    2    0    0  0.44388683194E+02 -0.46145435850E+02  0.12788345476E+03  0.14301729130E+03  0.10566000000E+00 0. -1.
        994    1    1    2    0    0 -0.82029321162E+02 -0.22668511508E+00  0.39138910090E+02  0.19383022262E+03  0.17120000000E+03 0.  0.
        998    1    1    2    0    0  0.37640637968E+02  0.46372120965E+02  0.13329776314E+04  0.13343524861E+04  0.10000000000E+02 0. -1.
</event>
<event>
 5    1  0.1572996E-008  0.3787371E+03  0.7957747E-01  0.3456676E+00
         13   -1    0    0    0    0  0.00000000000E+00  0.00000000000E+00  0.14999999963E+04  0.15000000000E+04  0.10566000000E+00 0.  1.
        994   -1    0    0    0    0 -0.00000000000E+00 -0.00000000000E+00  0.11368683772E-12  0.17120000000E+03  0.17120000000E+03 0.  0.
         13    1    1    2    0    0  0.18926565738E+02  0.22400956908E+02  0.86908807958E+02  0.91723333050E+02  0.10566000000E+00 0.  1.
        994    1    1    2    0    0 -0.13692222187E+02 -0.17040602972E+02  0.63777897897E+01  0.17270777429E+03  0.17120000000E+03 0.  0.
        998    1    1    2    0    0 -0.52343435508E+01 -0.53603539361E+01  0.14067133985E+04  0.14067688927E+04  0.10000000000E+02 0.  1.
</event>
<event>
 5    1  0.1572996E-008  0.3821913E+03  0.7957747E-01  0.3441672E+00
         13   -1    0    0    0    0  0.00000000000E+00  0.00000000000E+00  0.14999999963E+04  0.15000000000E+04  0.10566000000E+00 0. -1.
        994   -1    0    0    0    0 -0.00000000000E+00 -0.00000000000E+00  0.11368683772E-12  0.17120000000E+03  0.17120000000E+03 0.  0.
         13    1    1    2    0    0 -0.21085621122E+02  0.59809769947E+01  0.74476132775E+02  0.77634277359E+02  0.10566000000E+00 0. -1.
        994    1    1    2    0    0  0.25412477034E+02  0.27250839031E+01  0.52020212317E+01  0.17317540558E+03  0.17120000000E+03 0.  0.
        998    1    1    2    0    0 -0.43268559121E+01 -0.87060608978E+01  0.14203218423E+04  0.14203903171E+04  0.10000000000E+02 0. -1.
</event>
<event>
 5    1  0.1572996E-008  0.3847062E+03  0.7957747E-01  0.3430919E+00
         13   -1    0    0    0    0  0.00000000000E+00  0.00000000000E+00  0.14999999963E+04  0.15000000000E+04  0.10566000000E+00 0. -1.
        994   -1    0    0    0    0 -0.00000000000E+00 -0.00000000000E+00  0.11368683772E-12  0.17120000000E+03  0.17120000000E+03 0.  0.
         13    1    1    2    0    0  0.20247184308E+01  0.22052312006E+02  0.41702231348E+01  0.22534548466E+02  0.10566000000E+00 0. -1.
        994    1    1    2    0    0  0.28742567727E+02 -0.40849228883E+02  0.28193399914E+02  0.18055221544E+03  0.17120000000E+03 0.  0.
        998    1    1    2    0    0 -0.30767286157E+02  0.18796916877E+02  0.14676363732E+04  0.14681132361E+04  0.10000000000E+02 0. -1.
</event>
<event>
 5    1  0.1572996E-008  0.3778862E+03  0.7957747E-01  0.3460415E+00
         13   -1    0    0    0    0  0.00000000000E+00  0.00000000000E+00  0.14999999963E+04  0.15000000000E+04  0.10566000000E+00 0.  1.
        994   -1    0    0    0    0 -0.00000000000E+00 -0.00000000000E+00  0.11368683772E-12  0.17120000000E+03  0.17120000000E+03 0.  0.
         13    1    1    2    0    0  0.15256844788E+02 -0.26513240664E+02  0.11032575048E+03  0.11448801521E+03  0.10566000000E+00 0.  1.
        994    1    1    2    0    0  0.21483389346E+02 -0.17648751239E+02  0.78107070784E+01  0.17361872475E+03  0.17120000000E+03 0.  0.
        998    1    1    2    0    0 -0.36740234134E+02  0.44161991903E+02  0.13818635387E+04  0.13830932600E+04  0.10000000000E+02 0.  1.
</event>
<event>
 5    1  0.1572996E-008  0.3825460E+03  0.7957747E-01  0.3440147E+00
         13   -1    0    0    0    0  0.00000000000E+00  0.00000000000E+00  0.14999999963E+04  0.15000000000E+04  0.10566000000E+00 0. -1.
        994   -1    0    0    0    0 -0.00000000000E+00 -0.00000000000E+00  0.11368683772E-12  0.17120000000E+03  0.17120000000E+03 0.  0.
         13    1    1    2    0    0  0.77552746691E+01  0.10246172880E+03  0.37139082941E+03  0.38534362520E+03  0.10566000000E+00 0. -1.
        994    1    1    2    0    0  0.69506988826E+00 -0.21386776866E+02  0.19409302546E+02  0.17362038582E+03  0.17120000000E+03 0.  0.
        998    1    1    2    0    0 -0.84503445574E+01 -0.81074951935E+02  0.11091998643E+04  0.11122359890E+04  0.10000000000E+02 0.  0.
</event>
<event>
 5    1  0.1766745E-008  0.3857488E+03  0.7957747E-01  0.3426503E+00
         13   -1    0    0    0    0  0.00000000000E+00  0.00000000000E+00  0.14999999963E+04  0.15000000000E+04  0.10566000000E+00 0.  1.
        994   -1    0    0    0    0 -0.00000000000E+00 -0.00000000000E+00  0.11368683772E-12  0.17120000000E+03  0.17120000000E+03 0.  0.
         13    1    1    2    0    0  0.11847142702E+02  0.24091245064E+01  0.56062065034E+02  0.57350893376E+02  0.10566000000E+00 0.  1.
        994    1    1    2    0    0 -0.14279223421E+02 -0.29337985322E+01  0.19562898324E+01  0.17183064472E+03  0.17120000000E+03 0.  0.
        998    1    1    2    0    0  0.24320807194E+01  0.52467402586E+00  0.14419816414E+04  0.14420184619E+04  0.10000000000E+02 0.  1.
</event>
<event>
 5    1  0.1572996E-008  0.3818687E+03  0.7957747E-01  0.3443062E+00
         13   -1    0    0    0    0  0.00000000000E+00  0.00000000000E+00  0.14999999963E+04  0.15000000000E+04  0.10566000000E+00 0.  1.
        994   -1    0    0    0    0 -0.00000000000E+00 -0.00000000000E+00  0.11368683772E-12  0.17120000000E+03  0.17120000000E+03 0.  0.
         13    1    1    2    0    0  0.93267069846E+01 -0.16481479724E+02  0.57056661341E+02  0.60117388537E+02  0.10566000000E+00 0.  1.
        994    1    1    2    0    0  0.11212903497E+02  0.11480527948E+02  0.40489025382E+01  0.17199815504E+03  0.17120000000E+03 0.  0.
        998    1    1    2    0    0 -0.20539610482E+02  0.50009517758E+01  0.14388944324E+04  0.14390844564E+04  0.10000000000E+02 0.  1.
</event>
<event>
 5    1  0.1572996E-008  0.3989834E+03  0.7957747E-01  0.3372449E+00
         13   -1    0    0    0    0  0.00000000000E+00  0.00000000000E+00  0.14999999963E+04  0.15000000000E+04  0.10566000000E+00 0. -1.
        994   -1    0    0    0    0 -0.00000000000E+00 -0.00000000000E+00  0.11368683772E-12  0.17120000000E+03  0.17120000000E+03 0.  0.
         13    1    1    2    0    0 -0.45707942072E+02 -0.99969232539E+02  0.21970910589E+03  0.24567288372E+03  0.10566000000E+00 0. -1.
        994    1    1    2    0    0 -0.29720686479E+02  0.85940165739E+02  0.60197927025E+02  0.20298340255E+03  0.17120000000E+03 0.  0.
        998    1    1    2    0    0  0.75428628552E+02  0.14029066800E+02  0.12200929634E+04  0.12225437137E+04  0.10000000000E+02 0.  1.
</event>
<event>
 5    1  0.1572996E-008  0.3809648E+03  0.7957747E-01  0.3446968E+00
         13   -1    0    0    0    0  0.00000000000E+00  0.00000000000E+00  0.14999999963E+04  0.15000000000E+04  0.10566000000E+00 0.  1.
        994   -1    0    0    0    0 -0.00000000000E+00 -0.00000000000E+00  0.11368683772E-12  0.17120000000E+03  0.17120000000E+03 0.  0.
         13    1    1    2    0    0 -0.26589185276E+02  0.18862862934E+02  0.13750540662E+03  0.14131716238E+03  0.10566000000E+00 0.  1.
        994    1    1    2    0    0  0.24440812874E+02 -0.12463263547E+02  0.61591051942E+01  0.17349369109E+03  0.17120000000E+03 0.  0.
        998    1    1    2    0    0  0.21483724021E+01 -0.63995993870E+01  0.13563354845E+04  0.13563891465E+04  0.10000000000E+02 0.  1.
</event>
<event>
 5    1  0.1572996E-008  0.3801217E+03  0.7957747E-01  0.3450629E+00
         13   -1    0    0    0    0  0.00000000000E+00  0.00000000000E+00  0.14999999963E+04  0.15000000000E+04  0.10566000000E+00 0. -1.
        994   -1    0    0    0    0 -0.00000000000E+00 -0.00000000000E+00  0.11368683772E-12  0.17120000000E+03  0.17120000000E+03 0.  0.
         13    1    1    2    0    0  0.83715914050E+01 -0.23048311283E+02  0.69493088510E+02  0.73692663884E+02  0.10566000000E+00 0. -1.
        994    1    1    2    0    0 -0.92570432541E+01  0.23059684755E+02  0.61376734156E+01  0.17310272368E+03  0.17120000000E+03 0.  0.
        998    1    1    2    0    0  0.88545184909E+00 -0.11373471970E-01  0.14243692344E+04  0.14244046124E+04  0.10000000000E+02 0. -1.
</event>
<event>
 5    1  0.1572996E-008  0.3809884E+03  0.7957747E-01  0.3446866E+00
         13   -1    0    0    0    0  0.00000000000E+00  0.00000000000E+00  0.14999999963E+04  0.15000000000E+04  0.10566000000E+00 0.  1.
        994   -1    0    0    0    0 -0.00000000000E+00 -0.00000000000E+00  0.11368683772E-12  0.17120000000E+03  0.17120000000E+03 0.  0.
         13    1    1    2    0    0  0.25964469042E+02 -0.55214108548E+01  0.10684412703E+03  0.11009231705E+03  0.10566000000E+00 0.  1.
        994    1    1    2    0    0  0.61658954344E+01  0.15554704733E+02  0.45684743228E+01  0.17207637276E+03  0.17120000000E+03 0.  0.
        998    1    1    2    0    0 -0.32130364477E+02 -0.10033293878E+02  0.13885873949E+04  0.13890313102E+04  0.10000000000E+02 0.  1.
</event>
<event>
 5    1  0.1572996E-008  0.3748029E+03  0.7957747E-01  0.3474105E+00
         13   -1    0    0    0    0  0.00000000000E+00  0.00000000000E+00  0.14999999963E+04  0.15000000000E+04  0.10566000000E+00 0. -1.
        994   -1    0    0    0    0 -0.00000000000E+00 -0.00000000000E+00  0.11368683772E-12  0.17120000000E+03  0.17120000000E+03 0.  0.
         13    1    1    2    0    0 -0.19862036697E+02 -0.13652004870E+02  0.39039751636E+02  0.45880182111E+02  0.10566000000E+00 0. -1.
        994    1    1    2    0    0  0.20983210512E+02  0.14786141307E+02  0.90245417998E+01  0.17334880286E+03  0.17120000000E+03 0.  0.
        998    1    1    2    0    0 -0.11211738152E+01 -0.11341364377E+01  0.14519357028E+04  0.14519710150E+04  0.10000000000E+02 0. -1.
</event>
<event>
 5    1  0.1572996E-008  0.3776277E+03  0.7957747E-01  0.3461554E+00
         13   -1    0    0    0    0  0.00000000000E+00  0.00000000000E+00  0.14999999963E+04  0.15000000000E+04  0.10566000000E+00 0.  1.
        994   -1    0    0    0    0 -0.00000000000E+00 -0.00000000000E+00  0.11368683772E-12  0.17120000000E+03  0.17120000000E+03 0.  0.
         13    1    1    2    0    0  0.17047988347E+02 -0.39294287204E+02  0.24755156040E+03  0.25122989697E+03  0.10566000000E+00 0.  1.
        994    1    1    2    0    0  0.23581690209E+02 -0.13728724821E+02  0.78482829084E+01  0.17353849585E+03  0.17120000000E+03 0.  0.
        998    1    1    2    0    0 -0.40629678556E+02  0.53023012025E+02  0.12446001530E+04  0.12464316072E+04  0.10000000000E+02 0.  1.
</event>
<event>
 5    1  0.1572996E-008  0.3854992E+03  0.7957747E-01  0.3427558E+00
         13   -1    0    0    0    0  0.00000000000E+00  0.00000000000E+00  0.14999999963E+04  0.15000000000E+04  0.10566000000E+00 0.  1.
        994   -1    0    0    0    0 -0.00000000000E+00 -0.00000000000E+00  0.11368683772E-12  0.17120000000E+03  0.17120000000E+03 0.  0.
         13    1    1    2    0    0 -0.12855161492E+02  0.58302602338E+01  0.78447936813E+02  0.79707823115E+02  0.10566000000E+00 0.  1.
        994    1    1    2    0    0  0.49595394447E+01  0.13023555077E+02  0.20204052816E+01  0.17177814778E+03  0.17120000000E+03 0.  0.
        998    1    1    2    0    0  0.78956220476E+01 -0.18853815311E+02  0.14195316542E+04  0.14197140291E+04  0.10000000000E+02 0.  1.
</event>
<event>
 5    1  0.1572996E-008  0.3858507E+03  0.7957747E-01  0.3426072E+00
         13   -1    0    0    0    0  0.00000000000E+00  0.00000000000E+00  0.14999999963E+04  0.15000000000E+04  0.10566000000E+00 0. -1.
        994   -1    0    0    0    0 -0.00000000000E+00 -0.00000000000E+00  0.11368683772E-12  0.17120000000E+03  0.17120000000E+03 0.  0.
         13    1    1    2    0    0  0.86314478489E+01 -0.87946533627E+01  0.68402945750E+02  0.69504114777E+02  0.10566000000E+00 0. -1.
        994    1    1    2    0    0 -0.38764707470E+01 -0.61125717868E+01  0.13802137626E+01  0.17135850008E+03  0.17120000000E+03 0.  0.
        998    1    1    2    0    0 -0.47549771019E+01  0.14907225150E+02  0.14302168368E+04  0.14303373851E+04  0.10000000000E+02 0. -1.
</event>
<event>
 5    1  0.1572996E-008  0.3746608E+03  0.7957747E-01  0.3474741E+00
         13   -1    0    0    0    0  0.00000000000E+00  0.00000000000E+00  0.14999999963E+04  0.15000000000E+04  0.10566000000E+00 0. -1.
        994   -1    0    0    0    0 -0.00000000000E+00 -0.00000000000E+00  0.11368683772E-12  0.17120000000E+03  0.17120000000E+03 0.  0.
         13    1    1    2    0    0 -0.21067518194E+02  0.15180912801E+02  0.46086367843E+02  0.52898628540E+02  0.10566000000E+00 0. -1.
        994    1    1    2    0    0  0.19194344091E+02 -0.79128732730E+01  0.83212427907E+01  0.17265491447E+03  0.17120000000E+03 0.  0.
        998    1    1    2    0    0  0.18731741030E+01 -0.72680395282E+01  0.14455923856E+04  0.14456464570E+04  0.10000000000E+02 0. -1.
</event>
<event>
 5    1  0.1572996E-008  0.3855160E+03  0.7957747E-01  0.3427487E+00
         13   -1    0    0    0    0  0.00000000000E+00  0.00000000000E+00  0.14999999963E+04  0.15000000000E+04  0.10566000000E+00 0. -1.
        994   -1    0    0    0    0 -0.00000000000E+00 -0.00000000000E+00  0.11368683772E-12  0.17120000000E+03  0.17120000000E+03 0.  0.
         13    1    1    2    0    0 -0.72596567497E+00 -0.16783167417E+02  0.99196316028E+02  0.10060875714E+03  0.10566000000E+00 0. -1.
        994    1    1    2    0    0  0.45578934421E+01  0.15280543409E+02  0.22094442664E+01  0.17195520069E+03  0.17120000000E+03 0.  0.
        998    1    1    2    0    0 -0.38319277671E+01  0.15026240084E+01  0.13985942360E+04  0.13986360422E+04  0.10000000000E+02 0. -1.
</event>
<event>
 5    1  0.1572996E-008  0.3857908E+03  0.7957747E-01  0.3426325E+00
         13   -1    0    0    0    0  0.00000000000E+00  0.00000000000E+00  0.14999999963E+04  0.15000000000E+04  0.10566000000E+00 0. -1.
        994   -1    0    0    0    0 -0.00000000000E+00 -0.00000000000E+00  0.11368683772E-12  0.17120000000E+03  0.17120000000E+03 0.  0.
         13    1    1    2    0    0  0.10523351006E+02  0.26453002540E+01  0.52918416247E+02  0.54019519360E+02  0.10566000000E+00 0. -1.
        994    1    1    2    0    0  0.65261749708E+01  0.49247327615E+01  0.14573449096E+01  0.17140130632E+03  0.17120000000E+03 0.  0.
        998    1    1    2    0    0 -0.17049525977E+02 -0.75700330155E+01  0.14456242351E+04  0.14457791743E+04  0.10000000000E+02 0. -1.
</event>
<event>
 5    1  0.1572996E-008  0.4534619E+03  0.7957747E-01  0.3182777E+00
         13   -1    0    0    0    0  0.00000000000E+00  0.00000000000E+00  0.14999999963E+04  0.15000000000E+04  0.10566000000E+00 0.  1.
        994   -1    0    0    0    0 -0.00000000000E+00 -0.00000000000E+00  0.11368683772E-12  0.17120000000E+03  0.17120000000E+03 0.  0.
         13    1    1    2    0    0 -0.65896569569E+02 -0.40788355647E+02  0.26182110725E+02  0.81801967724E+02  0.10566000000E+00 0.  1.
        994    1    1    2    0    0  0.26006738420E+02  0.82028739527E+02  0.10337367599E+03  0.21771683775E+03  0.17120000000E+03 0.  0.
        998    1    1    2    0    0  0.39889831149E+02 -0.41240383880E+02  0.13704442096E+04  0.13716811945E+04  0.10000000000E+02 0.  1.
</event>
<event>
 5    1  0.1572996E-008  0.3855420E+03  0.7957747E-01  0.3427377E+00
         13   -1    0    0    0    0  0.00000000000E+00  0.00000000000E+00  0.14999999963E+04  0.15000000000E+04  0.10566000000E+00 0.  1.
        994   -1    0    0    0    0 -0.00000000000E+00 -0.00000000000E+00  0.11368683772E-12  0.17120000000E+03  0.17120000000E+03 0.  0.
         13    1    1    2    0    0  0.13632128406E+02 -0.33765349067E+01  0.71275001766E+02  0.72645529481E+02  0.10566000000E+00 0.  1.
        994    1    1    2    0    0 -0.10594090918E+02  0.85306919370E+01  0.19688729946E+01  0.17175076107E+03  0.17120000000E+03 0.  0.
        998    1    1    2    0    0 -0.30380374882E+01 -0.51541570303E+01  0.14267561215E+04  0.14268037094E+04  0.10000000000E+02 0.  1.
</event>
<event>
 5    1  0.1572996E-008  0.3791663E+03  0.7957747E-01  0.3454797E+00
         13   -1    0    0    0    0  0.00000000000E+00  0.00000000000E+00  0.14999999963E+04  0.15000000000E+04  0.10566000000E+00 0.  1.
        994   -1    0    0    0    0 -0.00000000000E+00 -0.00000000000E+00  0.11368683772E-12  0.17120000000E+03  0.17120000000E+03 0.  0.
         13    1    1    2    0    0  0.91388552835E+01 -0.56604593286E+02  0.26720471464E+03  0.27328733843E+03  0.10566000000E+00 0.  1.
        994    1    1    2    0    0 -0.30841842156E+02  0.66438362270E+02  0.22755174846E+02  0.18759667692E+03  0.17120000000E+03 0.  0.
        998    1    1    2    0    0  0.21702986873E+02 -0.98337689846E+01  0.12100401068E+04  0.12103159847E+04  0.10000000000E+02 0.  1.
</event>
<event>
 5    1  0.1572996E-008  0.3800047E+03  0.7957747E-01  0.3451138E+00
         13   -1    0    0    0    0  0.00000000000E+00  0.00000000000E+00  0.14999999963E+04  0.15000000000E+04  0.10566000000E+00 0. -1.
        994   -1    0    0    0    0 -0.00000000000E+00 -0.00000000000E+00  0.11368683772E-12  0.17120000000E+03  0.17120000000E+03 0.  0.
         13    1    1    2    0    0 -0.33262156155E+01  0.39982183252E+02  0.22268679045E+03  0.22627208510E+03  0.10566000000E+00 0. -1.
        994    1    1    2    0    0  0.30990321543E+01 -0.53991276442E+01  0.42603312115E+01  0.17136611392E+03  0.17120000000E+03 0.  0.
        998    1    1    2    0    0  0.22718346125E+00 -0.34583055607E+02  0.12730528746E+04  0.12735618010E+04  0.10000000000E+02 0. -1.
</event>
<event>
 5    1  0.1572996E-008  0.3684253E+03  0.7957747E-01  0.3503159E+00
         13   -1    0    0    0    0  0.00000000000E+00  0.00000000000E+00  0.14999999963E+04  0.15000000000E+04  0.10566000000E+00 0. -1.
        994   -1    0    0    0    0 -0.00000000000E+00 -0.00000000000E+00  0.11368683772E-12  0.17120000000E+03  0.17120000000E+03 0.  0.
         13    1    1    2    0    0 -0.12985773874E+02 -0.36138563229E+02  0.67641359283E+02  0.77781686309E+02  0.10566000000E+00 0. -1.
        994    1    1    2    0    0  0.84383513390E+01  0.31514055226E+02  0.13818086143E+02  0.17482768933E+03  0.17120000000E+03 0.  0.
        998    1    1    2    0    0  0.45474225354E+01  0.46245080032E+01  0.14185405509E+04  0.14185906244E+04  0.10000000000E+02 0. -1.
</event>
<event>
 5    1  0.1572996E-008  0.3796654E+03  0.7957747E-01  0.3452617E+00
         13   -1    0    0    0    0  0.00000000000E+00  0.00000000000E+00  0.14999999963E+04  0.15000000000E+04  0.10566000000E+00 0. -1.
        994   -1    0    0    0    0 -0.00000000000E+00 -0.00000000000E+00  0.11368683772E-12  0.17120000000E+03  0.17120000000E+03 0.  0.
         13    1    1    2    0    0  0.28360128810E+02  0.42781223851E+02  0.71205586978E+02  0.87776858005E+02  0.10566000000E+00 0. -1.
        994    1    1    2    0    0  0.85901970555E+01 -0.73289262896E+02  0.36124755077E+02  0.18989351087E+03  0.17120000000E+03 0.  0.
        998    1    1    2    0    0 -0.36950325865E+02  0.30508039045E+02  0.13926696542E+04  0.13935296311E+04  0.10000000000E+02 0. -1.
</event>
<event>
 5    1  0.1572996E-008  0.3820681E+03  0.7957747E-01  0.3442203E+00
         13   -1    0    0    0    0  0.00000000000E+00  0.00000000000E+00  0.14999999963E+04  0.15000000000E+04  0.10566000000E+00 0. -1.
        994   -1    0    0    0    0 -0.00000000000E+00 -0.00000000000E+00  0.11368683772E-12  0.17120000000E+03  0.17120000000E+03 0.  0.
         13    1    1    2    0    0  0.11215519851E+02  0.95966000673E+01  0.34002536419E+02  0.37068399821E+02  0.10566000000E+00 0. -1.
        994    1    1    2    0    0 -0.44745383049E+01 -0.11518339182E+02  0.35999674555E+01  0.17168311914E+03  0.17120000000E+03 0.  0.
        998    1    1    2    0    0 -0.67409815457E+01  0.19217391149E+01  0.14623974924E+04  0.14624484810E+04  0.10000000000E+02 0. -1.
</event>
<event>
 5    1  0.1572996E-008  0.3743968E+03  0.7957747E-01  0.3475925E+00
         13   -1    0    0    0    0  0.00000000000E+00  0.00000000000E+00  0.14999999963E+04  0.15000000000E+04  0.10566000000E+00 0. -1.
        994   -1    0    0    0    0 -0.00000000000E+00 -0.00000000000E+00  0.11368683772E-12  0.17120000000E+03  0.17120000000E+03 0.  0.
         13    1    1    2    0    0  0.92321816714E+01 -0.32831202326E+02  0.75077223098E+02  0.82460424549E+02  0.10566000000E+00 0. -1.
        994    1    1    2    0    0  0.23193373420E+01  0.43282801211E+02  0.13415247125E+02  0.17711066897E+03  0.17120000000E+03 0.  0.
        998    1    1    2    0    0 -0.11551519013E+02 -0.10451598884E+02  0.14115075261E+04  0.14116289065E+04  0.10000000000E+02 0. -1.
</event>
<event>
 5    1  0.1572996E-008  0.3861519E+03  0.7957747E-01  0.3424802E+00
         13   -1    0    0    0    0  0.00000000000E+00  0.00000000000E+00  0.14999999963E+04  0.15000000000E+04  0.10566000000E+00 0.  1.
        994   -1    0    0    0    0 -0.00000000000E+00 -0.00000000000E+00  0.11368683772E-12  0.17120000000E+03  0.17120000000E+03 0.  0.
         13    1    1    2    0    0  0.47058155523E+00 -0.14095174899E+02  0.83630902142E+02  0.84811758380E+02  0.10566000000E+00 0.  1.
        994    1    1    2    0    0  0.82757879272E+00  0.24185366586E+02  0.29803957304E+01  0.17292755594E+03  0.17120000000E+03 0.  0.
        998    1    1    2    0    0 -0.12981603480E+01 -0.10090191687E+02  0.14133886984E+04  0.14134606857E+04  0.10000000000E+02 0.  1.
</event>
<event>
 5    1  0.1572996E-008  0.3805857E+03  0.7957747E-01  0.3448612E+00
         13   -1    0    0    0    0  0.00000000000E+00  0.00000000000E+00  0.14999999963E+04  0.15000000000E+04  0.10566000000E+00 0. -1.
        994   -1    0    0    0    0 -0.00000000000E+00 -0.00000000000E+00  0.11368683772E-12  0.17120000000E+03  0.17120000000E+03 0.  0.
         13    1    1    2    0    0  0.99555825955E+01 -0.17005748589E+02  0.46627147978E+02  0.50620264741E+02  0.10566000000E+00 0. -1.
        994    1    1    2    0    0 -0.24200502318E+02  0.17302329755E+02  0.67962720641E+01  0.17389843082E+03  0.17120000000E+03 0.  0.
        998    1    1    2    0    0  0.14244919723E+02 -0.29658116533E+00  0.14465765762E+04  0.14466813044E+04  0.10000000000E+02 0. -1.
</event>
<event>
 5    1  0.1572996E-008  0.3739514E+03  0.7957747E-01  0.3477926E+00
         13   -1    0    0    0    0  0.00000000000E+00  0.00000000000E+00  0.14999999963E+04  0.15000000000E+04  0.10566000000E+00 0. -1.
        994   -1    0    0    0    0 -0.00000000000E+00 -0.00000000000E+00  0.11368683772E-12  0.17120000000E+03  0.17120000000E+03 0.  0.
         13    1    1    2    0    0 -0.16757153689E+02  0.45136109671E+01  0.17804312255E+02  0.24863217463E+02  0.10566000000E+00 0. -1.
        994    1    1    2    0    0  0.12286694943E+02  0.41053505025E+01  0.77908760978E+01  0.17186609475E+03  0.17120000000E+03 0.  0.
        998    1    1    2    0    0  0.44704587457E+01 -0.86189614696E+01  0.14744048079E+04  0.14744706878E+04  0.10000000000E+02 0. -1.
</event>
<event>
 5    1  0.1572996E-008  0.3716014E+03  0.7957747E-01  0.3488563E+00
         13   -1    0    0    0    0  0.00000000000E+00  0.00000000000E+00  0.14999999963E+04  0.15000000000E+04  0.10566000000E+00 0. -1.
        994   -1    0    0    0    0 -0.00000000000E+00 -0.00000000000E+00  0.11368683772E-12  0.17120000000E+03  0.17120000000E+03 0.  0.
         13    1    1    2    0    0  0.42524452686E+02 -0.20364976389E+02  0.11668464741E+03  0.12585062354E+03  0.10566000000E+00 0. -1.
        994    1    1    2    0    0 -0.45506404444E+02  0.27175193505E+02  0.18157386528E+02  0.18013454603E+03  0.17120000000E+03 0.  0.
        998    1    1    2    0    0  0.29819517572E+01 -0.68102171159E+01  0.13651579623E+04  0.13652148304E+04  0.10000000000E+02 0. -1.
</event>
<event>
 5    1  0.2405446E-008  0.3859105E+03  0.7957747E-01  0.3425820E+00
         13   -1    0    0    0    0  0.00000000000E+00  0.00000000000E+00  0.14999999963E+04  0.15000000000E+04  0.10566000000E+00 0.  1.
        994   -1    0    0    0    0 -0.00000000000E+00 -0.00000000000E+00  0.11368683772E-12  0.17120000000E+03  0.17120000000E+03 0.  0.
         13    1    1    2    0    0  0.75860518913E+01  0.87461084354E+01  0.58099042430E+02  0.59241476107E+02  0.10566000000E+00 0.  1.
        994    1    1    2    0    0 -0.29242596596E+01 -0.56017952325E+01  0.13097001160E+01  0.17132158860E+03  0.17120000000E+03 0.  0.
        998    1    1    2    0    0 -0.46617922317E+01 -0.31443132028E+01  0.14405912537E+04  0.14406369353E+04  0.10000000000E+02 0.  1.
</event>
<event>
 5    1  0.1572996E-008  0.3810144E+03  0.7957747E-01  0.3446753E+00
         13   -1    0    0    0    0  0.00000000000E+00  0.00000000000E+00  0.14999999963E+04  0.15000000000E+04  0.10566000000E+00 0. -1.
        994   -1    0    0    0    0 -0.00000000000E+00 -0.00000000000E+00  0.11368683772E-12  0.17120000000E+03  0.17120000000E+03 0.  0.
         13    1    1    2    0    0  0.95004783465E+02 -0.10015761821E+03  0.39256400278E+03  0.41612974516E+03  0.10566000000E+00 0. -1.
        994    1    1    2    0    0 -0.93739414376E+02  0.10226721178E+03  0.90710932426E+02  0.23829304160E+03  0.17120000000E+03 0.  0.
        998    1    1    2    0    0 -0.12653690890E+01 -0.21095935679E+01  0.10167250611E+04  0.10167772132E+04  0.10000000000E+02 0.  0.
</event>
<event>
 5    1  0.1572996E-008  0.3690561E+03  0.7957747E-01  0.3500240E+00
         13   -1    0    0    0    0  0.00000000000E+00  0.00000000000E+00  0.14999999963E+04  0.15000000000E+04  0.10566000000E+00 0.  1.
        994   -1    0    0    0    0 -0.00000000000E+00 -0.00000000000E+00  0.11368683772E-12  0.17120000000E+03  0.17120000000E+03 0.  0.
         13    1    1    2    0    0  0.90423288268E+00  0.18131404853E+02  0.11075813626E+02  0.21266177150E+02  0.10566000000E+00 0.  1.
        994    1    1    2    0    0 -0.41209327026E+01 -0.16715246836E+02  0.11473947203E+02  0.17244556540E+03  0.17120000000E+03 0.  0.
        998    1    1    2    0    0  0.32166998199E+01 -0.14161580174E+01  0.14774502354E+04  0.14774882574E+04  0.10000000000E+02 0.  1.
</event>
<event>
 5    1  0.1572996E-008  0.3828121E+03  0.7957747E-01  0.3439005E+00
         13   -1    0    0    0    0  0.00000000000E+00  0.00000000000E+00  0.14999999963E+04  0.15000000000E+04  0.10566000000E+00 0.  1.
        994   -1    0    0    0    0 -0.00000000000E+00 -0.00000000000E+00  0.11368683772E-12  0.17120000000E+03  0.17120000000E+03 0.  0.
         13    1    1    2    0    0  0.45304409990E+01  0.11578064529E+02  0.27036412781E+02  0.29758280428E+02  0.10566000000E+00 0.  1.
        994    1    1    2    0    0 -0.26911319011E+01 -0.12898425662E+02  0.32955460346E+01  0.17173791719E+03  0.17120000000E+03 0.  0.
        998    1    1    2    0    0 -0.18393090979E+01  0.13203611328E+01  0.14696680375E+04  0.14697038024E+04  0.10000000000E+02 0.  1.
</event>
<event>
 5    1  0.1572996E-008  0.3820530E+03  0.7957747E-01  0.3442268E+00
         13   -1    0    0    0    0  0.00000000000E+00  0.00000000000E+00  0.14999999963E+04  0.15000000000E+04  0.10566000000E+00 0. -1.
        994   -1    0    0    0    0 -0.00000000000E+00 -0.00000000000E+00  0.11368683772E-12  0.17120000000E+03  0.17120000000E+03 0.  0.
         13    1    1    2    0    0  0.15578642119E+02 -0.19518755844E+02  0.97214070942E+02  0.10037062655E+03  0.10566000000E+00 0. -1.
        994    1    1    2    0    0 -0.11157470181E+02  0.16139349575E+02  0.43796799549E+01  0.17237630157E+03  0.17120000000E+03 0.  0.
        998    1    1    2    0    0 -0.44211719376E+01  0.33794062688E+01  0.13984062454E+04  0.13984530719E+04  0.10000000000E+02 0. -1.
</event>
<event>
 5    1  0.1572996E-008  0.3761276E+03  0.7957747E-01  0.3468195E+00
         13   -1    0    0    0    0  0.00000000000E+00  0.00000000000E+00  0.14999999963E+04  0.15000000000E+04  0.10566000000E+00 0. -1.
        994   -1    0    0    0    0 -0.00000000000E+00 -0.00000000000E+00  0.11368683772E-12  0.17120000000E+03  0.17120000000E+03 0.  0.
         13    1    1    2    0    0 -0.11726552800E+01  0.13616378899E+02  0.13187653852E+02  0.18992268767E+02  0.10566000000E+00 0. -1.
        994    1    1    2    0    0 -0.19687209738E+02  0.86132506268E+01  0.76660916375E+01  0.17271358741E+03  0.17120000000E+03 0.  0.
        998    1    1    2    0    0  0.20859865018E+02 -0.22229629526E+02  0.14791462508E+04  0.14794941438E+04  0.10000000000E+02 0. -1.
</event>
<event>
 5    1  0.1572996E-008  0.3701319E+03  0.7957747E-01  0.3495285E+00
         13   -1    0    0    0    0  0.00000000000E+00  0.00000000000E+00  0.14999999963E+04  0.15000000000E+04  0.10566000000E+00 0.  1.
        994   -1    0    0    0    0 -0.00000000000E+00 -0.00000000000E+00  0.11368683772E-12  0.17120000000E+03  0.17120000000E+03 0.  0.
         13    1    1    2    0    0  0.15616699790E+02  0.12797077454E+02  0.13459536822E+02  0.24265547577E+02  0.10566000000E+00 0.  1.
        994    1    1    2    0    0 -0.18695756741E+02 -0.13233943635E+02  0.12845763036E+02  0.17320254678E+03  0.17120000000E+03 0.  0.
        998    1    1    2    0    0  0.30790569513E+01  0.43686618047E+00  0.14736946964E+04  0.14737319056E+04  0.10000000000E+02 0.  1.
</event>
<event>
 5    1  0.1572996E-008  0.3780343E+03  0.7957747E-01  0.3459763E+00
         13   -1    0    0    0    0  0.00000000000E+00  0.00000000000E+00  0.14999999963E+04  0.15000000000E+04  0.10566000000E+00 0. -1.
        994   -1    0    0    0    0 -0.00000000000E+00 -0.00000000000E+00  0.11368683772E-12  0.17120000000E+03  0.17120000000E+03 0.  0.
         13    1    1    2    0    0 -0.37068245412E+02  0.55688935555E+02  0.40089551773E+03  0.40643885107E+03  0.10566000000E+00 0. -1.
        994    1    1    2    0    0  0.14394718698E+01 -0.56883883889E+02  0.16101837940E+02  0.18112580576E+03  0.17120000000E+03 0.  0.
        998    1    1    2    0    0  0.35628773542E+02  0.11949483335E+01  0.10830026406E+04  0.10836353432E+04  0.10000000000E+02 0. -1.
</event>
<event>
 5    1  0.1572996E-008  0.3784692E+03  0.7957747E-01  0.3457851E+00
         13   -1    0    0    0    0  0.00000000000E+00  0.00000000000E+00  0.14999999963E+04  0.15000000000E+04  0.10566000000E+00 0. -1.
        994   -1    0    0    0    0 -0.00000000000E+00 -0.00000000000E+00  0.11368683772E-12  0.17120000000E+03  0.17120000000E+03 0.  0.
         13    1    1    2    0    0 -0.21418238650E+02 -0.16237025336E+03  0.88175501176E+03  0.89683596719E+03  0.10566000000E+00 0. -1.
        994    1    1    2    0    0  0.16282475989E+02  0.16708924635E+03  0.10631754575E+03  0.26229143296E+03  0.17120000000E+03 0.  0.
        998    1    1    2    0    0  0.51357626609E+01 -0.47189929859E+01  0.51192743877E+03  0.51207259985E+03  0.10000000000E+02 0. -1.
</event>
<event>
 5    1  0.1572996E-008  0.3725589E+03  0.7957747E-01  0.3484213E+00
         13   -1    0    0    0    0  0.00000000000E+00  0.00000000000E+00  0.14999999963E+04  0.15000000000E+04  0.10566000000E+00 0. -1.
        994   -1    0    0    0    0 -0.00000000000E+00 -0.00000000000E+00  0.11368683772E-12  0.17120000000E+03  0.17120000000E+03 0.  0.
         13    1    1    2    0    0 -0.16039404788E+02  0.47528690689E+02  0.10717112200E+03  0.11832962224E+03  0.10566000000E+00 0. -1.
        994    1    1    2    0    0  0.14625654905E+02 -0.23020596836E+01  0.13071978565E+02  0.17233550384E+03  0.17120000000E+03 0.  0.
        998    1    1    2    0    0  0.14137498828E+01 -0.45226631005E+02  0.13797568957E+04  0.13805348739E+04  0.10000000000E+02 0. -1.
</event>
<event>
 5    1  0.1572996E-008  0.3771198E+03  0.7957747E-01  0.3463796E+00
         13   -1    0    0    0    0  0.00000000000E+00  0.00000000000E+00  0.14999999963E+04  0.15000000000E+04  0.10566000000E+00 0.  1.
        994   -1    0    0    0    0 -0.00000000000E+00 -0.00000000000E+00  0.11368683772E-12  0.17120000000E+03  0.17120000000E+03 0.  0.
         13    1    1    2    0    0 -0.43291853660E+02  0.46827768249E+02  0.33456598004E+03  0.34058982756E+03  0.10566000000E+00 0.  1.
        994    1    1    2    0    0  0.32591594468E+02 -0.31567018736E+02  0.12574156202E+02  0.17755629560E+03  0.17120000000E+03 0.  0.
        998    1    1    2    0    0  0.10700259192E+02 -0.15260749514E+02  0.11528598600E+04  0.11530538768E+04  0.10000000000E+02 0. -1.
</event>
<event>
 5    1  0.1572996E-008  0.3918065E+03  0.7957747E-01  0.3401308E+00
         13   -1    0    0    0    0  0.00000000000E+00  0.00000000000E+00  0.14999999963E+04  0.15000000000E+04  0.10566000000E+00 0. -1.
        994   -1    0    0    0    0 -0.00000000000E+00 -0.00000000000E+00  0.11368683772E-12  0.17120000000E+03  0.17120000000E+03 0.  0.
         13    1    1    2    0    0  0.48134087386E+02  0.10565138952E+02  0.44928273959E+02  0.66686381627E+02  0.10566000000E+00 0. -1.
        994    1    1    2    0    0 -0.38225871722E+02  0.21209004002E+02  0.30244898417E+02  0.17926302742E+03  0.17120000000E+03 0.  0.
        998    1    1    2    0    0 -0.99082156635E+01 -0.31774142954E+02  0.14248268239E+04  0.14252505910E+04  0.10000000000E+02 0. -1.
</event>
<event>
 5    1  0.1572996E-008  0.3776516E+03  0.7957747E-01  0.3461448E+00
         13   -1    0    0    0    0  0.00000000000E+00  0.00000000000E+00  0.14999999963E+04  0.15000000000E+04  0.10566000000E+00 0.  1.
        994   -1    0    0    0    0 -0.00000000000E+00 -0.00000000000E+00  0.11368683772E-12  0.17120000000E+03  0.17120000000E+03 0.  0.
         13    1    1    2    0    0  0.13856704362E+02 -0.55083017379E+01  0.19406833677E+02  0.24474190512E+02  0.10566000000E+00 0.  1.
        994    1    1    2    0    0  0.36048108275E+01 -0.82010296482E+01  0.55937606855E+01  0.17152545498E+03  0.17120000000E+03 0.  0.
        998    1    1    2    0    0 -0.17461515190E+02  0.13709331386E+02  0.14749994019E+04  0.14752003545E+04  0.10000000000E+02 0.  1.
</event>
<event>
 5    1  0.1572996E-008  0.3745115E+03  0.7957747E-01  0.3475410E+00
         13   -1    0    0    0    0  0.00000000000E+00  0.00000000000E+00  0.14999999963E+04  0.15000000000E+04  0.10566000000E+00 0. -1.
        994   -1    0    0    0    0 -0.00000000000E+00 -0.00000000000E+00  0.11368683772E-12  0.17120000000E+03  0.17120000000E+03 0.  0.
         13    1    1    2    0    0  0.36944834937E+02 -0.13434890907E+02  0.12300169300E+03  0.12913111464E+03  0.10566000000E+00 0. -1.
        994    1    1    2    0    0 -0.42009591113E+01 -0.17099648036E+02  0.79861474370E+01  0.17228831815E+03  0.17120000000E+03 0.  0.
        998    1    1    2    0    0 -0.32743875826E+02  0.30534538943E+02  0.13690121558E+04  0.13697805672E+04  0.10000000000E+02 0. -1.
</event>
<event>
 5    1  0.1572996E-008  0.3763703E+03  0.7957747E-01  0.3467117E+00
         13   -1    0    0    0    0  0.00000000000E+00  0.00000000000E+00  0.14999999963E+04  0.15000000000E+04  0.10566000000E+00 0. -1.
        994   -1    0    0    0    0 -0.00000000000E+00 -0.00000000000E+00  0.11368683772E-12  0.17120000000E+03  0.17120000000E+03 0.  0.
         13    1    1    2    0    0 -0.94103686045E+01 -0.36808066559E+02  0.10821479789E+03  0.11469020206E+03  0.10566000000E+00 0. -1.
        994    1    1    2    0    0  0.67425874115E+02  0.29069284233E+02  0.24441986424E+02  0.18787794572E+03  0.17120000000E+03 0.  0.
        998    1    1    2    0    0 -0.58015505511E+02  0.77387823257E+01  0.13673432120E+04  0.13686318522E+04  0.10000000000E+02 0. -1.
</event>
<event>
 5    1  0.1572996E-008  0.3709809E+03  0.7957747E-01  0.3491395E+00
         13   -1    0    0    0    0  0.00000000000E+00  0.00000000000E+00  0.14999999963E+04  0.15000000000E+04  0.10566000000E+00 0.  1.
        994   -1    0    0    0    0 -0.00000000000E+00 -0.00000000000E+00  0.11368683772E-12  0.17120000000E+03  0.17120000000E+03 0.  0.
         13    1    1    2    0    0  0.10093443128E+03  0.99140745622E+02  0.60821264638E+03  0.62445118404E+03  0.10566000000E+00 0.  1.
        994    1    1    2    0    0 -0.10666318058E+03 -0.97794726877E+02  0.84786285907E+02  0.23966434231E+03  0.17120000000E+03 0.  0.
        998    1    1    2    0    0  0.57287493049E+01 -0.13460187446E+01  0.80700106399E+03  0.80708447365E+03  0.10000000000E+02 0.  1.
</event>
<event>
 5    1  0.1572996E-008  0.3701248E+03  0.7957747E-01  0.3495318E+00
         13   -1    0    0    0    0  0.00000000000E+00  0.00000000000E+00  0.14999999963E+04  0.15000000000E+04  0.10566000000E+00 0.  1.
        994   -1    0    0    0    0 -0.00000000000E+00 -0.00000000000E+00  0.11368683772E-12  0.17120000000E+03  0.17120000000E+03 0.  0.
         13    1    1    2    0    0 -0.17473155932E+03  0.15436442077E+02  0.75970757655E+03  0.77969546272E+03  0.10566000000E+00 0.  1.
        994    1    1    2    0    0  0.17052400300E+03 -0.10301761473E+02  0.11801702933E+03  0.26911339822E+03  0.17120000000E+03 0.  0.
        998    1    1    2    0    0  0.42075563233E+01 -0.51346806043E+01  0.62227539040E+03  0.62239113906E+03  0.10000000000E+02 0.  0.
</event>
<event>
 5    1  0.1572996E-008  0.3861959E+03  0.7957747E-01  0.3424616E+00
         13   -1    0    0    0    0  0.00000000000E+00  0.00000000000E+00  0.14999999963E+04  0.15000000000E+04  0.10566000000E+00 0.  1.
        994   -1    0    0    0    0 -0.00000000000E+00 -0.00000000000E+00  0.11368683772E-12  0.17120000000E+03  0.17120000000E+03 0.  0.
         13    1    1    2    0    0  0.21825482636E+01 -0.11761717032E+02  0.67518609560E+02  0.68570221711E+02  0.10566000000E+00 0.  1.
        994    1    1    2    0    0  0.44486081255E+01  0.13591951269E+02  0.17078874363E+01  0.17180479660E+03  0.17120000000E+03 0.  0.
        998    1    1    2    0    0 -0.66311563890E+01 -0.18302342369E+01  0.14307734993E+04  0.14308249817E+04  0.10000000000E+02 0.  1.
</event>
<event>
 5    1  0.1765021E-008  0.3862374E+03  0.7957747E-01  0.3424441E+00
         13   -1    0    0    0    0  0.00000000000E+00  0.00000000000E+00  0.14999999963E+04  0.15000000000E+04  0.10566000000E+00 0. -1.
        994   -1    0    0    0    0 -0.00000000000E+00 -0.00000000000E+00  0.11368683772E-12  0.17120000000E+03  0.17120000000E+03 0.  0.
         13    1    1    2    0    0  0.23402901790E+01  0.11421907410E+02  0.65774519957E+02  0.66799966816E+02  0.10566000000E+00 0. -1.
        994    1    1    2    0    0 -0.17376885250E+01 -0.11637015262E+02  0.14706300512E+01  0.17161014666E+03  0.17120000000E+03 0.  0.
        998    1    1    2    0    0 -0.60260165399E+00  0.21510785232E+00  0.14327548463E+04  0.14327898865E+04  0.10000000000E+02 0.  0.
</event>
<event>
 5    1  0.1572996E-008  0.3778105E+03  0.7957747E-01  0.3460748E+00
         13   -1    0    0    0    0  0.00000000000E+00  0.00000000000E+00  0.14999999963E+04  0.15000000000E+04  0.10566000000E+00 0. -1.
        994   -1    0    0    0    0 -0.00000000000E+00 -0.00000000000E+00  0.11368683772E-12  0.17120000000E+03  0.17120000000E+03 0.  0.
         13    1    1    2    0    0 -0.58988359543E+01 -0.13350906878E+02  0.17982559439E+02  0.23160884873E+02  0.10566000000E+00 0. -1.
        994    1    1    2    0    0  0.10083108911E+02  0.89161757655E+01  0.58527866240E+01  0.17182800234E+03  0.17120000000E+03 0.  0.
        998    1    1    2    0    0 -0.41842729566E+01  0.44347311128E+01  0.14761646502E+04  0.14762111128E+04  0.10000000000E+02 0. -1.
</event>
