<event>
 4    1  0.2489082E+000  0.5245383E+02  0.7957747E-01  0.1432538E+00
         13   -1    0    0    0    0  0.00000000000E+00  0.00000000000E+00  0.99999944181E+02  0.10000000000E+03  0.10566000000E+00 0. -1.
         22   -1    0    0    0    0 -0.00000000000E+00 -0.00000000000E+00 -0.11994349758E+02  0.11994349758E+02  0.00000000000E+00 0. -1.
         13    1    1    2    0    0  0.98016627244E+01 -0.12463202104E+02  0.28945161156E+02  0.33003598550E+02  0.10566000000E+00 0.  1.
        996    1    1    2    0    0 -0.98016627244E+01  0.12463202104E+02  0.59060433267E+02  0.78990751209E+02  0.50000000000E+02 0.  0.
<mgrwt>
<rscale>  0 0.52453827E+02</rscale>
<asrwt>0</asrwt>
<pdfrwt beam="1">  1       13 0.10000000E+01 0.52453827E+02</pdfrwt>
<pdfrwt beam="2">  1       22 0.11994374E+00 0.52453827E+02</pdfrwt>
<totfact> 0.10768022E+00</totfact>
</mgrwt>
</event>
<event>
 4    1  0.2489082E+000  0.5118238E+02  0.7957747E-01  0.1439067E+00
         13   -1    0    0    0    0  0.00000000000E+00  0.00000000000E+00  0.99999944180E+02  0.10000000000E+03  0.10566000000E+00 0. -1.
         22   -1    0    0    0    0 -0.00000000000E+00 -0.00000000000E+00 -0.11938768786E+02  0.11938768786E+02  0.00000000000E+00 0.  1.
         13    1    1    2    0    0 -0.10671357692E+02 -0.23995486425E+01  0.10477006433E+01  0.10988382472E+02  0.10566000000E+00 0.  1.
        996    1    1    2    0    0  0.10671357692E+02  0.23995486425E+01  0.87013474751E+02  0.10095038631E+03  0.50000000000E+02 0.  0.
<mgrwt>
<rscale>  0 0.51182377E+02</rscale>
<asrwt>0</asrwt>
<pdfrwt beam="1">  1       13 0.10000000E+01 0.51182377E+02</pdfrwt>
<pdfrwt beam="2">  1       22 0.11938793E+00 0.51182377E+02</pdfrwt>
<totfact> 0.10813906E+00</totfact>
</mgrwt>
</event>
<event>
 4    1  0.2489082E+000  0.5103801E+02  0.7957747E-01  0.1439822E+00
         13   -1    0    0    0    0  0.00000000000E+00  0.00000000000E+00  0.99999944178E+02  0.99999999998E+02  0.10566000000E+00 0. -1.
         22   -1    0    0    0    0 -0.00000000000E+00 -0.00000000000E+00 -0.24603616678E+02  0.24603616678E+02  0.00000000000E+00 0.  1.
         13    1    1    2    0    0 -0.67203400556E+01  0.77275702632E+01 -0.16537957514E+02  0.19452339587E+02  0.10566000000E+00 0.  1.
        996    1    1    2    0    0  0.67203400556E+01 -0.77275702632E+01  0.91934285014E+02  0.10515127709E+03  0.50000000000E+02 0.  0.
<mgrwt>
<rscale>  0 0.51038009E+02</rscale>
<asrwt>0</asrwt>
<pdfrwt beam="1">  1       13 0.10000000E+01 0.51038009E+02</pdfrwt>
<pdfrwt beam="2">  1       22 0.24603638E+00 0.51038009E+02</pdfrwt>
<totfact> 0.30373457E-01</totfact>
</mgrwt>
</event>
<event>
 4    1  0.2489082E+000  0.5469238E+02  0.7957747E-01  0.1421559E+00
         13   -1    0    0    0    0  0.00000000000E+00  0.00000000000E+00  0.99999944187E+02  0.10000000001E+03  0.10566000000E+00 0. -1.
         22   -1    0    0    0    0 -0.00000000000E+00 -0.00000000000E+00 -0.17716324117E+02  0.17716324117E+02  0.00000000000E+00 0.  1.
         13    1    1    2    0    0  0.13146669451E+02  0.17844369499E+02  0.44797999579E+01  0.22612744463E+02  0.10566000000E+00 0.  1.
        996    1    1    2    0    0 -0.13146669451E+02 -0.17844369499E+02  0.77803820112E+02  0.95103579661E+02  0.50000000000E+02 0.  0.
<mgrwt>
<rscale>  0 0.54692380E+02</rscale>
<asrwt>0</asrwt>
<pdfrwt beam="1">  1       13 0.10000000E+01 0.54692380E+02</pdfrwt>
<pdfrwt beam="2">  1       22 0.17716347E+00 0.54692380E+02</pdfrwt>
<totfact> 0.56804920E-01</totfact>
</mgrwt>
</event>
<event>
 4    1  0.2489082E+000  0.5116002E+02  0.7957747E-01  0.1439183E+00
         13   -1    0    0    0    0  0.00000000000E+00  0.00000000000E+00  0.99999944182E+02  0.10000000000E+03  0.10566000000E+00 0.  1.
         22   -1    0    0    0    0 -0.00000000000E+00 -0.00000000000E+00 -0.15604435310E+02  0.15604435310E+02  0.00000000000E+00 0. -1.
         13    1    1    2    0    0  0.10387689597E+02 -0.30731072895E+01 -0.55160188686E+01  0.12156714678E+02  0.10566000000E+00 0. -1.
        996    1    1    2    0    0 -0.10387689597E+02  0.30731072895E+01  0.89911527741E+02  0.10344772063E+03  0.50000000000E+02 0.  0.
<mgrwt>
<rscale>  0 0.51160024E+02</rscale>
<asrwt>0</asrwt>
<pdfrwt beam="1">  1       13 0.10000000E+01 0.51160024E+02</pdfrwt>
<pdfrwt beam="2">  1       22 0.15604459E+00 0.51160024E+02</pdfrwt>
<totfact> 0.70342142E-01</totfact>
</mgrwt>
</event>
<event>
 4    1  0.2489082E+000  0.5113462E+02  0.7957747E-01  0.1439316E+00
         13   -1    0    0    0    0  0.00000000000E+00  0.00000000000E+00  0.99999944186E+02  0.10000000001E+03  0.10566000000E+00 0. -1.
         22   -1    0    0    0    0 -0.00000000000E+00 -0.00000000000E+00 -0.95712973283E+01  0.95712973283E+01  0.00000000000E+00 0. -1.
         13    1    1    2    0    0 -0.71349409923E+01  0.79900934885E+01  0.16934799365E+02  0.20038651913E+02  0.10566000000E+00 0.  1.
        996    1    1    2    0    0  0.71349409923E+01 -0.79900934885E+01  0.73493847493E+02  0.89532645422E+02  0.50000000000E+02 0.  0.
<mgrwt>
<rscale>  0 0.51134616E+02</rscale>
<asrwt>0</asrwt>
<pdfrwt beam="1">  1       13 0.10000000E+01 0.51134616E+02</pdfrwt>
<pdfrwt beam="2">  1       22 0.95713226E-01 0.51134616E+02</pdfrwt>
<totfact> 0.14984398E+00</totfact>
</mgrwt>
</event>
<event>
 4    1  0.2489082E+000  0.5246358E+02  0.7957747E-01  0.1432489E+00
         13   -1    0    0    0    0  0.00000000000E+00  0.00000000000E+00  0.99999944172E+02  0.99999999992E+02  0.10566000000E+00 0.  1.
         22   -1    0    0    0    0 -0.00000000000E+00 -0.00000000000E+00 -0.20049455849E+02  0.20049455849E+02  0.00000000000E+00 0. -1.
         13    1    1    2    0    0 -0.11187773068E+02  0.11280999267E+02 -0.78860434759E+01  0.17737757931E+02  0.10566000000E+00 0. -1.
        996    1    1    2    0    0  0.11187773068E+02 -0.11280999267E+02  0.87836531799E+02  0.10231169791E+03  0.50000000000E+02 0.  0.
<mgrwt>
<rscale>  0 0.52463580E+02</rscale>
<asrwt>0</asrwt>
<pdfrwt beam="1">  1       13 0.10000000E+01 0.52463580E+02</pdfrwt>
<pdfrwt beam="2">  1       22 0.20049478E+00 0.52463580E+02</pdfrwt>
<totfact> 0.45136873E-01</totfact>
</mgrwt>
</event>
<event>
 4    1  0.2489082E+000  0.5773277E+02  0.7957747E-01  0.1407600E+00
         13   -1    0    0    0    0  0.00000000000E+00  0.00000000000E+00  0.99999944186E+02  0.10000000001E+03  0.10566000000E+00 0.  1.
         22   -1    0    0    0    0 -0.00000000000E+00 -0.00000000000E+00 -0.82175709542E+02  0.82175709542E+02  0.00000000000E+00 0. -1.
         13    1    1    2    0    0  0.27672061441E+02 -0.82054899392E+01 -0.70770636462E+02  0.76430145878E+02  0.10566000000E+00 0. -1.
        996    1    1    2    0    0 -0.27672061441E+02  0.82054899392E+01  0.88594871107E+02  0.10574556367E+03  0.50000000000E+02 0.  0.
<mgrwt>
<rscale>  0 0.57732773E+02</rscale>
<asrwt>0</asrwt>
<pdfrwt beam="1">  1       13 0.10000000E+01 0.57732773E+02</pdfrwt>
<pdfrwt beam="2">  1       22 0.82175715E+00 0.57732773E+02</pdfrwt>
<totfact> 0.25180428E-02</totfact>
</mgrwt>
</event>
<event>
 4    1  0.2489082E+000  0.5562911E+02  0.7957747E-01  0.1417147E+00
         13   -1    0    0    0    0  0.00000000000E+00  0.00000000000E+00  0.99999944186E+02  0.10000000001E+03  0.10566000000E+00 0.  1.
         22   -1    0    0    0    0 -0.00000000000E+00 -0.00000000000E+00 -0.22420384425E+02  0.22420384425E+02  0.00000000000E+00 0. -1.
         13    1    1    2    0    0 -0.13874464118E+02  0.20052358056E+02 -0.29314464236E+01  0.24560178345E+02  0.10566000000E+00 0. -1.
        996    1    1    2    0    0  0.13874464118E+02 -0.20052358056E+02  0.80511006185E+02  0.97860206086E+02  0.50000000000E+02 0.  0.
<mgrwt>
<rscale>  0 0.55629109E+02</rscale>
<asrwt>0</asrwt>
<pdfrwt beam="1">  1       13 0.10000000E+01 0.55629109E+02</pdfrwt>
<pdfrwt beam="2">  1       22 0.22420406E+00 0.55629109E+02</pdfrwt>
<totfact> 0.36682041E-01</totfact>
</mgrwt>
</event>
<event>
 4    1  0.2489082E+000  0.5099138E+02  0.7957747E-01  0.1440067E+00
         13   -1    0    0    0    0  0.00000000000E+00  0.00000000000E+00  0.99999944179E+02  0.99999999999E+02  0.10566000000E+00 0. -1.
         22   -1    0    0    0    0 -0.00000000000E+00 -0.00000000000E+00 -0.11024697957E+02  0.11024697957E+02  0.00000000000E+00 0. -1.
         13    1    1    2    0    0  0.68634840476E+00  0.99824506976E+01  0.20007362222E+01  0.10204631572E+02  0.10566000000E+00 0.  1.
        996    1    1    2    0    0 -0.68634840476E+00 -0.99824506976E+01  0.86974509999E+02  0.10082006638E+03  0.50000000000E+02 0.  0.
<mgrwt>
<rscale>  0 0.50991376E+02</rscale>
<asrwt>0</asrwt>
<pdfrwt beam="1">  1       13 0.10000000E+01 0.50991376E+02</pdfrwt>
<pdfrwt beam="2">  1       22 0.11024723E+00 0.50991376E+02</pdfrwt>
<totfact> 0.12187686E+00</totfact>
</mgrwt>
</event>
<event>
 4    1  0.2489082E+000  0.5113202E+02  0.7957747E-01  0.1439330E+00
         13   -1    0    0    0    0  0.00000000000E+00  0.00000000000E+00  0.99999944179E+02  0.99999999999E+02  0.10566000000E+00 0. -1.
         22   -1    0    0    0    0 -0.00000000000E+00 -0.00000000000E+00 -0.96702700145E+01  0.96702700145E+01  0.00000000000E+00 0. -1.
         13    1    1    2    0    0  0.84774610080E+00  0.10666073336E+02  0.11485849927E+02  0.15697761192E+02  0.10566000000E+00 0.  1.
        996    1    1    2    0    0 -0.84774610080E+00 -0.10666073336E+02  0.78843824237E+02  0.93972508822E+02  0.50000000000E+02 0.  0.
<mgrwt>
<rscale>  0 0.51132023E+02</rscale>
<asrwt>0</asrwt>
<pdfrwt beam="1">  1       13 0.10000000E+01 0.51132023E+02</pdfrwt>
<pdfrwt beam="2">  1       22 0.96702952E-01 0.51132023E+02</pdfrwt>
<totfact> 0.14764970E+00</totfact>
</mgrwt>
</event>
<event>
 4    1  0.2489082E+000  0.5843797E+02  0.7957747E-01  0.1404506E+00
         13   -1    0    0    0    0  0.00000000000E+00  0.00000000000E+00  0.99999944172E+02  0.99999999992E+02  0.10566000000E+00 0.  1.
         22   -1    0    0    0    0 -0.00000000000E+00 -0.00000000000E+00 -0.21082685194E+02  0.21082685194E+02  0.00000000000E+00 0. -1.
         13    1    1    2    0    0 -0.30110482412E+02 -0.28904809179E+01  0.12811694176E+02  0.32850368380E+02  0.10566000000E+00 0. -1.
        996    1    1    2    0    0  0.30110482412E+02  0.28904809179E+01  0.66105564803E+02  0.88232316806E+02  0.50000000000E+02 0.  0.
<mgrwt>
<rscale>  0 0.58437967E+02</rscale>
<asrwt>0</asrwt>
<pdfrwt beam="1">  1       13 0.10000000E+01 0.58437967E+02</pdfrwt>
<pdfrwt beam="2">  1       22 0.21082707E+00 0.58437967E+02</pdfrwt>
<totfact> 0.41462935E-01</totfact>
</mgrwt>
</event>
<event>
 4    1  0.2489082E+000  0.5255665E+02  0.7957747E-01  0.1432020E+00
         13   -1    0    0    0    0  0.00000000000E+00  0.00000000000E+00  0.99999944166E+02  0.99999999987E+02  0.10566000000E+00 0.  1.
         22   -1    0    0    0    0 -0.00000000000E+00 -0.00000000000E+00 -0.20927675377E+02  0.20927675377E+02  0.00000000000E+00 0. -1.
         13    1    1    2    0    0 -0.50809709844E+01 -0.15374839077E+02 -0.88806517618E+01  0.18468326468E+02  0.10566000000E+00 0. -1.
        996    1    1    2    0    0  0.50809709844E+01  0.15374839077E+02  0.87952920551E+02  0.10245934890E+03  0.50000000000E+02 0.  0.
<mgrwt>
<rscale>  0 0.52556655E+02</rscale>
<asrwt>0</asrwt>
<pdfrwt beam="1">  1       13 0.10000000E+01 0.52556655E+02</pdfrwt>
<pdfrwt beam="2">  1       22 0.20927697E+00 0.52556655E+02</pdfrwt>
<totfact> 0.41646316E-01</totfact>
</mgrwt>
</event>
<event>
 4    1  0.2489082E+000  0.5664945E+02  0.7957747E-01  0.1412456E+00
         13   -1    0    0    0    0  0.00000000000E+00  0.00000000000E+00  0.99999944179E+02  0.99999999999E+02  0.10566000000E+00 0.  1.
         22   -1    0    0    0    0 -0.00000000000E+00 -0.00000000000E+00 -0.24754834375E+02  0.24754834375E+02  0.00000000000E+00 0. -1.
         13    1    1    2    0    0 -0.18720744323E+02  0.18939211310E+02 -0.44271945649E+01  0.26995762793E+02  0.10566000000E+00 0. -1.
        996    1    1    2    0    0  0.18720744323E+02 -0.18939211310E+02  0.79672304368E+02  0.97759071581E+02  0.50000000000E+02 0.  0.
<mgrwt>
<rscale>  0 0.56649448E+02</rscale>
<asrwt>0</asrwt>
<pdfrwt beam="1">  1       13 0.10000000E+01 0.56649448E+02</pdfrwt>
<pdfrwt beam="2">  1       22 0.24754855E+00 0.56649448E+02</pdfrwt>
<totfact> 0.30267984E-01</totfact>
</mgrwt>
</event>
<event>
 4    1  0.2489082E+000  0.5109612E+02  0.7957747E-01  0.1439518E+00
         13   -1    0    0    0    0  0.00000000000E+00  0.00000000000E+00  0.99999944182E+02  0.10000000000E+03  0.10566000000E+00 0.  1.
         22   -1    0    0    0    0 -0.00000000000E+00 -0.00000000000E+00 -0.15093533514E+02  0.15093533514E+02  0.00000000000E+00 0.  1.
         13    1    1    2    0    0 -0.68697933059E+01 -0.79761475793E+01 -0.50211600451E+01  0.11663455856E+02  0.10566000000E+00 0. -1.
        996    1    1    2    0    0  0.68697933059E+01  0.79761475793E+01  0.89927570714E+02  0.10343007766E+03  0.50000000000E+02 0.  0.
<mgrwt>
<rscale>  0 0.51096115E+02</rscale>
<asrwt>0</asrwt>
<pdfrwt beam="1">  1       13 0.10000000E+01 0.51096115E+02</pdfrwt>
<pdfrwt beam="2">  1       22 0.15093557E+00 0.51096115E+02</pdfrwt>
<totfact> 0.74377780E-01</totfact>
</mgrwt>
</event>
<event>
 4    1  0.2489082E+000  0.5463489E+02  0.7957747E-01  0.1421833E+00
         13   -1    0    0    0    0  0.00000000000E+00  0.00000000000E+00  0.99999944181E+02  0.10000000000E+03  0.10566000000E+00 0. -1.
         22   -1    0    0    0    0 -0.00000000000E+00 -0.00000000000E+00 -0.15392332875E+02  0.15392332875E+02  0.00000000000E+00 0.  1.
         13    1    1    2    0    0 -0.22019696972E+02 -0.32226223827E+00  0.13923430633E+02  0.26054634757E+02  0.10566000000E+00 0.  1.
        996    1    1    2    0    0  0.22019696972E+02  0.32226223827E+00  0.70684180674E+02  0.89337698119E+02  0.50000000000E+02 0.  0.
<mgrwt>
<rscale>  0 0.54634887E+02</rscale>
<asrwt>0</asrwt>
<pdfrwt beam="1">  1       13 0.10000000E+01 0.54634887E+02</pdfrwt>
<pdfrwt beam="2">  1       22 0.15392356E+00 0.54634887E+02</pdfrwt>
<totfact> 0.72482948E-01</totfact>
</mgrwt>
</event>
<event>
 4    1  0.2489082E+000  0.5120846E+02  0.7957747E-01  0.1438930E+00
         13   -1    0    0    0    0  0.00000000000E+00  0.00000000000E+00  0.99999944174E+02  0.99999999994E+02  0.10566000000E+00 0.  1.
         22   -1    0    0    0    0 -0.00000000000E+00 -0.00000000000E+00 -0.11798851108E+02  0.11798851108E+02  0.00000000000E+00 0.  1.
         13    1    1    2    0    0  0.10198019737E+02 -0.42786640110E+01  0.15783573319E+01  0.11171792523E+02  0.10566000000E+00 0. -1.
        996    1    1    2    0    0 -0.10198019737E+02  0.42786640110E+01  0.86622735734E+02  0.10062705858E+03  0.50000000000E+02 0.  0.
<mgrwt>
<rscale>  0 0.51208462E+02</rscale>
<asrwt>0</asrwt>
<pdfrwt beam="1">  1       13 0.10000000E+01 0.51208462E+02</pdfrwt>
<pdfrwt beam="2">  1       22 0.11798876E+00 0.51208462E+02</pdfrwt>
<totfact> 0.11010717E+00</totfact>
</mgrwt>
</event>
<event>
 4    1  0.2489082E+000  0.5121249E+02  0.7957747E-01  0.1438909E+00
         13   -1    0    0    0    0  0.00000000000E+00  0.00000000000E+00  0.99999944183E+02  0.10000000000E+03  0.10566000000E+00 0. -1.
         22   -1    0    0    0    0 -0.00000000000E+00 -0.00000000000E+00 -0.11007715197E+02  0.11007715197E+02  0.00000000000E+00 0. -1.
         13    1    1    2    0    0 -0.64627731637E+01  0.89973259424E+01  0.39994088642E+01  0.11778189436E+02  0.10566000000E+00 0.  1.
        996    1    1    2    0    0  0.64627731637E+01 -0.89973259424E+01  0.84992820123E+02  0.99229525765E+02  0.50000000000E+02 0.  0.
<mgrwt>
<rscale>  0 0.51212492E+02</rscale>
<asrwt>0</asrwt>
<pdfrwt beam="1">  1       13 0.10000000E+01 0.51212492E+02</pdfrwt>
<pdfrwt beam="2">  1       22 0.11007740E+00 0.51212492E+02</pdfrwt>
<totfact> 0.12222030E+00</totfact>
</mgrwt>
</event>
<event>
 4    1  0.2489082E+000  0.5296465E+02  0.7957747E-01  0.1429977E+00
         13   -1    0    0    0    0  0.00000000000E+00  0.00000000000E+00  0.99999944180E+02  0.10000000000E+03  0.10566000000E+00 0.  1.
         22   -1    0    0    0    0 -0.00000000000E+00 -0.00000000000E+00 -0.12792531670E+02  0.12792531670E+02  0.00000000000E+00 0.  1.
         13    1    1    2    0    0 -0.10267057109E+02 -0.14136548080E+02  0.13758774745E+02  0.22238918585E+02  0.10566000000E+00 0. -1.
        996    1    1    2    0    0  0.10267057109E+02  0.14136548080E+02  0.73448637764E+02  0.90553613085E+02  0.50000000000E+02 0.  0.
<mgrwt>
<rscale>  0 0.52964653E+02</rscale>
<asrwt>0</asrwt>
<pdfrwt beam="1">  1       13 0.10000000E+01 0.52964653E+02</pdfrwt>
<pdfrwt beam="2">  1       22 0.12792556E+00 0.52964653E+02</pdfrwt>
<totfact> 0.97558974E-01</totfact>
</mgrwt>
</event>
<event>
 4    1  0.2489082E+000  0.5132629E+02  0.7957747E-01  0.1438316E+00
         13   -1    0    0    0    0  0.00000000000E+00  0.00000000000E+00  0.99999944182E+02  0.10000000000E+03  0.10566000000E+00 0. -1.
         22   -1    0    0    0    0 -0.00000000000E+00 -0.00000000000E+00 -0.10200899049E+02  0.10200899049E+02  0.00000000000E+00 0.  1.
         13    1    1    2    0    0 -0.30798584072E+01 -0.11175978522E+02  0.24835773586E+02  0.27408298696E+02  0.10566000000E+00 0.  1.
        996    1    1    2    0    0  0.30798584072E+01  0.11175978522E+02  0.64963271547E+02  0.82792600356E+02  0.50000000000E+02 0.  0.
<mgrwt>
<rscale>  0 0.51326290E+02</rscale>
<asrwt>0</asrwt>
<pdfrwt beam="1">  1       13 0.10000000E+01 0.51326290E+02</pdfrwt>
<pdfrwt beam="2">  1       22 0.10200924E+00 0.51326290E+02</pdfrwt>
<totfact> 0.13674255E+00</totfact>
</mgrwt>
</event>
<event>
 4    1  0.2489082E+000  0.5122819E+02  0.7957747E-01  0.1438827E+00
         13   -1    0    0    0    0  0.00000000000E+00  0.00000000000E+00  0.99999944176E+02  0.99999999996E+02  0.10566000000E+00 0. -1.
         22   -1    0    0    0    0 -0.00000000000E+00 -0.00000000000E+00 -0.98252722328E+01  0.98252722328E+01  0.00000000000E+00 0. -1.
         13    1    1    2    0    0  0.51257062789E+01  0.99022401895E+01  0.12200880506E+02  0.16528759022E+02  0.10566000000E+00 0.  1.
        996    1    1    2    0    0 -0.51257062789E+01 -0.99022401895E+01  0.77973791437E+02  0.93296513207E+02  0.50000000000E+02 0.  0.
<mgrwt>
<rscale>  0 0.51228188E+02</rscale>
<asrwt>0</asrwt>
<pdfrwt beam="1">  1       13 0.10000000E+01 0.51228188E+02</pdfrwt>
<pdfrwt beam="2">  1       22 0.98252974E-01 0.51228188E+02</pdfrwt>
<totfact> 0.14434523E+00</totfact>
</mgrwt>
</event>
<event>
 4    1  0.2489082E+000  0.5758311E+02  0.7957747E-01  0.1408264E+00
         13   -1    0    0    0    0  0.00000000000E+00  0.00000000000E+00  0.99999944178E+02  0.99999999998E+02  0.10566000000E+00 0.  1.
         22   -1    0    0    0    0 -0.00000000000E+00 -0.00000000000E+00 -0.63613335455E+02  0.63613335455E+02  0.00000000000E+00 0. -1.
         13    1    1    2    0    0  0.25706739838E+00  0.28561311665E+02 -0.51296625054E+02  0.58712600978E+02  0.10566000000E+00 0. -1.
        996    1    1    2    0    0 -0.25706739838E+00 -0.28561311665E+02  0.87683233777E+02  0.10490073447E+03  0.50000000000E+02 0.  0.
<mgrwt>
<rscale>  0 0.57583110E+02</rscale>
<asrwt>0</asrwt>
<pdfrwt beam="1">  1       13 0.10000000E+01 0.57583110E+02</pdfrwt>
<pdfrwt beam="2">  1       22 0.63613346E+00 0.57583110E+02</pdfrwt>
<totfact> 0.81770201E-02</totfact>
</mgrwt>
</event>
<event>
 4    1  0.2489082E+000  0.5127396E+02  0.7957747E-01  0.1438589E+00
         13   -1    0    0    0    0  0.00000000000E+00  0.00000000000E+00  0.99999944181E+02  0.10000000000E+03  0.10566000000E+00 0.  1.
         22   -1    0    0    0    0 -0.00000000000E+00 -0.00000000000E+00 -0.23384683773E+02  0.23384683773E+02  0.00000000000E+00 0. -1.
         13    1    1    2    0    0  0.36669627570E+01 -0.10750465881E+02 -0.14748959156E+02  0.18616178253E+02  0.10566000000E+00 0. -1.
        996    1    1    2    0    0 -0.36669627570E+01  0.10750465881E+02  0.91364219564E+02  0.10476850552E+03  0.50000000000E+02 0.  0.
<mgrwt>
<rscale>  0 0.51273962E+02</rscale>
<asrwt>0</asrwt>
<pdfrwt beam="1">  1       13 0.10000000E+01 0.51273962E+02</pdfrwt>
<pdfrwt beam="2">  1       22 0.23384705E+00 0.51273962E+02</pdfrwt>
<totfact> 0.33562722E-01</totfact>
</mgrwt>
</event>
<event>
 4    1  0.2489082E+000  0.5264606E+02  0.7957747E-01  0.1431570E+00
         13   -1    0    0    0    0  0.00000000000E+00  0.00000000000E+00  0.99999944177E+02  0.99999999998E+02  0.10566000000E+00 0. -1.
         22   -1    0    0    0    0 -0.00000000000E+00 -0.00000000000E+00 -0.12542685288E+02  0.12542685288E+02  0.00000000000E+00 0.  1.
         13    1    1    2    0    0 -0.29549041858E+00 -0.16477888833E+02  0.11388596422E+02  0.20032958530E+02  0.10566000000E+00 0.  1.
        996    1    1    2    0    0  0.29549041858E+00  0.16477888833E+02  0.76068662467E+02  0.92509726756E+02  0.50000000000E+02 0.  0.
<mgrwt>
<rscale>  0 0.52646065E+02</rscale>
<asrwt>0</asrwt>
<pdfrwt beam="1">  1       13 0.10000000E+01 0.52646065E+02</pdfrwt>
<pdfrwt beam="2">  1       22 0.12542710E+00 0.52646065E+02</pdfrwt>
<totfact> 0.10054165E+00</totfact>
</mgrwt>
</event>
<event>
 4    1  0.2489082E+000  0.5661974E+02  0.7957747E-01  0.1412591E+00
         13   -1    0    0    0    0  0.00000000000E+00  0.00000000000E+00  0.99999944177E+02  0.99999999997E+02  0.10566000000E+00 0.  1.
         22   -1    0    0    0    0 -0.00000000000E+00 -0.00000000000E+00 -0.22373343418E+02  0.22373343418E+02  0.00000000000E+00 0. -1.
         13    1    1    2    0    0 -0.11549005003E+02  0.23925207642E+02  0.34379915124E+00  0.26569238589E+02  0.10566000000E+00 0. -1.
        996    1    1    2    0    0  0.11549005003E+02 -0.23925207642E+02  0.77282801608E+02  0.95804104827E+02  0.50000000000E+02 0.  0.
<mgrwt>
<rscale>  0 0.56619741E+02</rscale>
<asrwt>0</asrwt>
<pdfrwt beam="1">  1       13 0.10000000E+01 0.56619741E+02</pdfrwt>
<pdfrwt beam="2">  1       22 0.22373365E+00 0.56619741E+02</pdfrwt>
<totfact> 0.36888232E-01</totfact>
</mgrwt>
</event>
<event>
 4    1  0.2489082E+000  0.5523725E+02  0.7957747E-01  0.1418980E+00
         13   -1    0    0    0    0  0.00000000000E+00  0.00000000000E+00  0.99999944178E+02  0.99999999998E+02  0.10566000000E+00 0. -1.
         22   -1    0    0    0    0 -0.00000000000E+00 -0.00000000000E+00 -0.38621452420E+02  0.38621452420E+02  0.00000000000E+00 0.  1.
         13    1    1    2    0    0 -0.14897234619E+02 -0.18144579209E+02 -0.26136408011E+02  0.35132269237E+02  0.10566000000E+00 0.  1.
        996    1    1    2    0    0  0.14897234619E+02  0.18144579209E+02  0.87514899769E+02  0.10348918318E+03  0.50000000000E+02 0.  0.
<mgrwt>
<rscale>  0 0.55237246E+02</rscale>
<asrwt>0</asrwt>
<pdfrwt beam="1">  1       13 0.10000000E+01 0.55237246E+02</pdfrwt>
<pdfrwt beam="2">  1       22 0.38621470E+00 0.55237246E+02</pdfrwt>
<totfact> 0.13236171E-01</totfact>
</mgrwt>
</event>
<event>
 4    1  0.2489082E+000  0.5526660E+02  0.7957747E-01  0.1418842E+00
         13   -1    0    0    0    0  0.00000000000E+00  0.00000000000E+00  0.99999944181E+02  0.10000000000E+03  0.10566000000E+00 0. -1.
         22   -1    0    0    0    0 -0.00000000000E+00 -0.00000000000E+00 -0.21202365721E+02  0.21202365721E+02  0.00000000000E+00 0.  1.
         13    1    1    2    0    0  0.89544987739E+01 -0.21776456422E+02 -0.16460213194E+01  0.23603339866E+02  0.10566000000E+00 0.  1.
        996    1    1    2    0    0 -0.89544987739E+01  0.21776456422E+02  0.80443599780E+02  0.97599025856E+02  0.50000000000E+02 0.  0.
<mgrwt>
<rscale>  0 0.55266600E+02</rscale>
<asrwt>0</asrwt>
<pdfrwt beam="1">  1       13 0.10000000E+01 0.55266600E+02</pdfrwt>
<pdfrwt beam="2">  1       22 0.21202388E+00 0.55266600E+02</pdfrwt>
<totfact> 0.40812797E-01</totfact>
</mgrwt>
</event>
<event>
 4    1  0.2489082E+000  0.5099520E+02  0.7957747E-01  0.1440046E+00
         13   -1    0    0    0    0  0.00000000000E+00  0.00000000000E+00  0.99999944170E+02  0.99999999990E+02  0.10566000000E+00 0.  1.
         22   -1    0    0    0    0 -0.00000000000E+00 -0.00000000000E+00 -0.10436099405E+02  0.10436099405E+02  0.00000000000E+00 0. -1.
         13    1    1    2    0    0 -0.50073068676E+01  0.86854421850E+01  0.39308722719E+01  0.10769073724E+02  0.10566000000E+00 0. -1.
        996    1    1    2    0    0  0.50073068676E+01 -0.86854421850E+01  0.85632972494E+02  0.99667025671E+02  0.50000000000E+02 0.  0.
<mgrwt>
<rscale>  0 0.50995196E+02</rscale>
<asrwt>0</asrwt>
<pdfrwt beam="1">  1       13 0.10000000E+01 0.50995196E+02</pdfrwt>
<pdfrwt beam="2">  1       22 0.10436124E+00 0.50995196E+02</pdfrwt>
<totfact> 0.13216038E+00</totfact>
</mgrwt>
</event>
<event>
 4    1  0.2489082E+000  0.5150514E+02  0.7957747E-01  0.1437388E+00
         13   -1    0    0    0    0  0.00000000000E+00  0.00000000000E+00  0.99999944180E+02  0.10000000000E+03  0.10566000000E+00 0.  1.
         22   -1    0    0    0    0 -0.00000000000E+00 -0.00000000000E+00 -0.10257526281E+02  0.10257526281E+02  0.00000000000E+00 0.  1.
         13    1    1    2    0    0 -0.11865968123E+02 -0.34609787609E+01  0.20879154176E+02  0.24263755204E+02  0.10566000000E+00 0. -1.
        996    1    1    2    0    0  0.11865968123E+02  0.34609787609E+01  0.68863263724E+02  0.85993771078E+02  0.50000000000E+02 0.  0.
<mgrwt>
<rscale>  0 0.51505141E+02</rscale>
<asrwt>0</asrwt>
<pdfrwt beam="1">  1       13 0.10000000E+01 0.51505141E+02</pdfrwt>
<pdfrwt beam="2">  1       22 0.10257551E+00 0.51505141E+02</pdfrwt>
<totfact> 0.13570236E+00</totfact>
</mgrwt>
</event>
<event>
 4    1  0.2489082E+000  0.5656729E+02  0.7957747E-01  0.1412829E+00
         13   -1    0    0    0    0  0.00000000000E+00  0.00000000000E+00  0.99999944186E+02  0.10000000001E+03  0.10566000000E+00 0. -1.
         22   -1    0    0    0    0 -0.00000000000E+00 -0.00000000000E+00 -0.52445800980E+02  0.52445800980E+02  0.00000000000E+00 0.  1.
         13    1    1    2    0    0 -0.24335735667E+02 -0.10374487059E+02 -0.40149714315E+02  0.48081896133E+02  0.10566000000E+00 0.  1.
        996    1    1    2    0    0  0.24335735667E+02  0.10374487059E+02  0.87703857521E+02  0.10436390485E+03  0.50000000000E+02 0.  0.
<mgrwt>
<rscale>  0 0.56567287E+02</rscale>
<asrwt>0</asrwt>
<pdfrwt beam="1">  1       13 0.10000000E+01 0.56567287E+02</pdfrwt>
<pdfrwt beam="2">  1       22 0.52445814E+00 0.56567287E+02</pdfrwt>
<totfact> 0.64960007E-02</totfact>
</mgrwt>
</event>
<event>
 4    1  0.2489082E+000  0.5162837E+02  0.7957747E-01  0.1436751E+00
         13   -1    0    0    0    0  0.00000000000E+00  0.00000000000E+00  0.99999944181E+02  0.10000000000E+03  0.10566000000E+00 0.  1.
         22   -1    0    0    0    0 -0.00000000000E+00 -0.00000000000E+00 -0.14575574624E+02  0.14575574624E+02  0.00000000000E+00 0.  1.
         13    1    1    2    0    0  0.20942136838E+01 -0.12692627678E+02 -0.20251486979E+01  0.13023091784E+02  0.10566000000E+00 0. -1.
        996    1    1    2    0    0 -0.20942136838E+01  0.12692627678E+02  0.87449518255E+02  0.10155248284E+03  0.50000000000E+02 0.  0.
<mgrwt>
<rscale>  0 0.51628369E+02</rscale>
<asrwt>0</asrwt>
<pdfrwt beam="1">  1       13 0.10000000E+01 0.51628369E+02</pdfrwt>
<pdfrwt beam="2">  1       22 0.14575598E+00 0.51628369E+02</pdfrwt>
<totfact> 0.78895931E-01</totfact>
</mgrwt>
</event>
<event>
 4    1  0.2489082E+000  0.5221846E+02  0.7957747E-01  0.1433730E+00
         13   -1    0    0    0    0  0.00000000000E+00  0.00000000000E+00  0.99999944182E+02  0.10000000000E+03  0.10566000000E+00 0. -1.
         22   -1    0    0    0    0 -0.00000000000E+00 -0.00000000000E+00 -0.21172907710E+02  0.21172907710E+02  0.00000000000E+00 0.  1.
         13    1    1    2    0    0  0.41175432627E+01 -0.14484921812E+02 -0.10040268756E+02  0.18099317201E+02  0.10566000000E+00 0.  1.
        996    1    1    2    0    0 -0.41175432627E+01  0.14484921812E+02  0.88867305227E+02  0.10307359051E+03  0.50000000000E+02 0.  0.
<mgrwt>
<rscale>  0 0.52218456E+02</rscale>
<asrwt>0</asrwt>
<pdfrwt beam="1">  1       13 0.10000000E+01 0.52218456E+02</pdfrwt>
<pdfrwt beam="2">  1       22 0.21172930E+00 0.52218456E+02</pdfrwt>
<totfact> 0.40711652E-01</totfact>
</mgrwt>
</event>
<event>
 4    1  0.2489082E+000  0.5565851E+02  0.7957747E-01  0.1417010E+00
         13   -1    0    0    0    0  0.00000000000E+00  0.00000000000E+00  0.99999944177E+02  0.99999999997E+02  0.10566000000E+00 0. -1.
         22   -1    0    0    0    0 -0.00000000000E+00 -0.00000000000E+00 -0.22435548921E+02  0.22435548921E+02  0.00000000000E+00 0. -1.
         13    1    1    2    0    0 -0.18841051267E+02 -0.15584740598E+02 -0.28723274804E+01  0.24619723426E+02  0.10566000000E+00 0.  1.
        996    1    1    2    0    0  0.18841051267E+02  0.15584740598E+02  0.80436722736E+02  0.97815825493E+02  0.50000000000E+02 0.  0.
<mgrwt>
<rscale>  0 0.55658507E+02</rscale>
<asrwt>0</asrwt>
<pdfrwt beam="1">  1       13 0.10000000E+01 0.55658507E+02</pdfrwt>
<pdfrwt beam="2">  1       22 0.22435571E+00 0.55658507E+02</pdfrwt>
<totfact> 0.36635748E-01</totfact>
</mgrwt>
</event>
<event>
 4    1  0.2489082E+000  0.5323856E+02  0.7957747E-01  0.1428617E+00
         13   -1    0    0    0    0  0.00000000000E+00  0.00000000000E+00  0.99999944183E+02  0.10000000000E+03  0.10566000000E+00 0.  1.
         22   -1    0    0    0    0 -0.00000000000E+00 -0.00000000000E+00 -0.14058659707E+02  0.14058659707E+02  0.00000000000E+00 0. -1.
         13    1    1    2    0    0  0.55882852226E+01 -0.17410206735E+02  0.87056382546E+01  0.20252000685E+02  0.10566000000E+00 0. -1.
        996    1    1    2    0    0 -0.55882852226E+01  0.17410206735E+02  0.77235646221E+02  0.93806659025E+02  0.50000000000E+02 0.  0.
<mgrwt>
<rscale>  0 0.53238560E+02</rscale>
<asrwt>0</asrwt>
<pdfrwt beam="1">  1       13 0.10000000E+01 0.53238560E+02</pdfrwt>
<pdfrwt beam="2">  1       22 0.14058684E+00 0.53238560E+02</pdfrwt>
<totfact> 0.83972886E-01</totfact>
</mgrwt>
</event>
<event>
 4    1  0.2489082E+000  0.5129964E+02  0.7957747E-01  0.1438455E+00
         13   -1    0    0    0    0  0.00000000000E+00  0.00000000000E+00  0.99999944168E+02  0.99999999989E+02  0.10566000000E+00 0. -1.
         22   -1    0    0    0    0 -0.00000000000E+00 -0.00000000000E+00 -0.68038834422E+02  0.68038834422E+02  0.00000000000E+00 0.  1.
         13    1    1    2    0    0 -0.96516067068E+01 -0.62047756185E+01 -0.60888403528E+02  0.61960161400E+02  0.10566000000E+00 0.  1.
        996    1    1    2    0    0  0.96516067068E+01  0.62047756185E+01  0.92849513274E+02  0.10607867301E+03  0.50000000000E+02 0.  0.
<mgrwt>
<rscale>  0 0.51299637E+02</rscale>
<asrwt>0</asrwt>
<pdfrwt beam="1">  1       13 0.10000000E+01 0.51299637E+02</pdfrwt>
<pdfrwt beam="2">  1       22 0.68038843E+00 0.51299637E+02</pdfrwt>
<totfact> 0.83338665E-02</totfact>
</mgrwt>
</event>
<event>
 4    1  0.2489082E+000  0.7063402E+02  0.7957747E-01  0.1357950E+00
         13   -1    0    0    0    0  0.00000000000E+00  0.00000000000E+00  0.99999944182E+02  0.10000000000E+03  0.10566000000E+00 0.  1.
         22   -1    0    0    0    0 -0.00000000000E+00 -0.00000000000E+00 -0.72159225165E+02  0.72159225165E+02  0.00000000000E+00 0. -1.
         13    1    1    2    0    0  0.64183100611E+01 -0.49476958867E+02 -0.47499162590E+02  0.68886470177E+02  0.10566000000E+00 0. -1.
        996    1    1    2    0    0 -0.64183100611E+01  0.49476958867E+02  0.75339881606E+02  0.10327275499E+03  0.50000000000E+02 0.  0.
<mgrwt>
<rscale>  0 0.70634016E+02</rscale>
<asrwt>0</asrwt>
<pdfrwt beam="1">  1       13 0.10000000E+01 0.70634016E+02</pdfrwt>
<pdfrwt beam="2">  1       22 0.72159233E+00 0.70634016E+02</pdfrwt>
<totfact> 0.63172668E-02</totfact>
</mgrwt>
</event>
<event>
 4    1  0.2489082E+000  0.5396989E+02  0.7957747E-01  0.1425034E+00
         13   -1    0    0    0    0  0.00000000000E+00  0.00000000000E+00  0.99999944177E+02  0.99999999998E+02  0.10566000000E+00 0. -1.
         22   -1    0    0    0    0 -0.00000000000E+00 -0.00000000000E+00 -0.25481303035E+02  0.25481303035E+02  0.00000000000E+00 0.  1.
         13    1    1    2    0    0 -0.12622617893E+01 -0.20276962698E+02 -0.11936476456E+02  0.23563513221E+02  0.10566000000E+00 0.  1.
        996    1    1    2    0    0  0.12622617893E+01  0.20276962698E+02  0.86455117599E+02  0.10191778981E+03  0.50000000000E+02 0.  0.
<mgrwt>
<rscale>  0 0.53969885E+02</rscale>
<asrwt>0</asrwt>
<pdfrwt beam="1">  1       13 0.10000000E+01 0.53969885E+02</pdfrwt>
<pdfrwt beam="2">  1       22 0.25481324E+00 0.53969885E+02</pdfrwt>
<totfact> 0.28478615E-01</totfact>
</mgrwt>
</event>
<event>
 4    1  0.2489082E+000  0.6168270E+02  0.7957747E-01  0.1390903E+00
         13   -1    0    0    0    0  0.00000000000E+00  0.00000000000E+00  0.99999944183E+02  0.10000000000E+03  0.10566000000E+00 0.  1.
         22   -1    0    0    0    0 -0.00000000000E+00 -0.00000000000E+00 -0.48351359710E+02  0.48351359710E+02  0.00000000000E+00 0.  1.
         13    1    1    2    0    0 -0.25636069965E+02 -0.25446948124E+02 -0.29348456056E+02  0.46541361056E+02  0.10566000000E+00 0. -1.
        996    1    1    2    0    0  0.25636069965E+02  0.25446948124E+02  0.80997040529E+02  0.10180999866E+03  0.50000000000E+02 0.  0.
<mgrwt>
<rscale>  0 0.61682698E+02</rscale>
<asrwt>0</asrwt>
<pdfrwt beam="1">  1       13 0.10000000E+01 0.61682698E+02</pdfrwt>
<pdfrwt beam="2">  1       22 0.48351374E+00 0.61682698E+02</pdfrwt>
<totfact> 0.81030818E-02</totfact>
</mgrwt>
</event>
<event>
 4    1  0.2489082E+000  0.5113989E+02  0.7957747E-01  0.1439289E+00
         13   -1    0    0    0    0  0.00000000000E+00  0.00000000000E+00  0.99999944183E+02  0.10000000000E+03  0.10566000000E+00 0.  1.
         22   -1    0    0    0    0 -0.00000000000E+00 -0.00000000000E+00 -0.13976514959E+02  0.13976514959E+02  0.00000000000E+00 0. -1.
         13    1    1    2    0    0  0.13882681290E+01  0.10647123223E+02 -0.31407794051E+01  0.11187679859E+02  0.10566000000E+00 0. -1.
        996    1    1    2    0    0 -0.13882681290E+01 -0.10647123223E+02  0.89164208629E+02  0.10278883510E+03  0.50000000000E+02 0.  0.
<mgrwt>
<rscale>  0 0.51139892E+02</rscale>
<asrwt>0</asrwt>
<pdfrwt beam="1">  1       13 0.10000000E+01 0.51139892E+02</pdfrwt>
<pdfrwt beam="2">  1       22 0.13976539E+00 0.51139892E+02</pdfrwt>
<totfact> 0.84403076E-01</totfact>
</mgrwt>
</event>
<event>
 4    1  0.2489082E+000  0.6394809E+02  0.7957747E-01  0.1381973E+00
         13   -1    0    0    0    0  0.00000000000E+00  0.00000000000E+00  0.99999944182E+02  0.10000000000E+03  0.10566000000E+00 0. -1.
         22   -1    0    0    0    0 -0.00000000000E+00 -0.00000000000E+00 -0.58499729052E+02  0.58499729052E+02  0.00000000000E+00 0.  1.
         13    1    1    2    0    0 -0.38298635289E+02  0.11071239427E+02 -0.38946206595E+02  0.55733077966E+02  0.10566000000E+00 0.  1.
        996    1    1    2    0    0  0.38298635289E+02 -0.11071239427E+02  0.80446421725E+02  0.10276665109E+03  0.50000000000E+02 0.  0.
<mgrwt>
<rscale>  0 0.63948087E+02</rscale>
<asrwt>0</asrwt>
<pdfrwt beam="1">  1       13 0.10000000E+01 0.63948087E+02</pdfrwt>
<pdfrwt beam="2">  1       22 0.58499741E+00 0.63948087E+02</pdfrwt>
<totfact> 0.59323517E-02</totfact>
</mgrwt>
</event>
<event>
 4    1  0.2489082E+000  0.5563310E+02  0.7957747E-01  0.1417128E+00
         13   -1    0    0    0    0  0.00000000000E+00  0.00000000000E+00  0.99999944175E+02  0.99999999995E+02  0.10566000000E+00 0. -1.
         22   -1    0    0    0    0 -0.00000000000E+00 -0.00000000000E+00 -0.30071041815E+02  0.30071041815E+02  0.00000000000E+00 0.  1.
         13    1    1    2    0    0 -0.64460891565E+00 -0.24384967987E+02 -0.14931099337E+02  0.28600543278E+02  0.10566000000E+00 0.  1.
        996    1    1    2    0    0  0.64460891565E+00  0.24384967987E+02  0.84860001696E+02  0.10147049853E+03  0.50000000000E+02 0.  0.
<mgrwt>
<rscale>  0 0.55633103E+02</rscale>
<asrwt>0</asrwt>
<pdfrwt beam="1">  1       13 0.10000000E+01 0.55633103E+02</pdfrwt>
<pdfrwt beam="2">  1       22 0.30071061E+00 0.55633103E+02</pdfrwt>
<totfact> 0.20706983E-01</totfact>
</mgrwt>
</event>
<event>
 4    1  0.2489082E+000  0.5427845E+02  0.7957747E-01  0.1423542E+00
         13   -1    0    0    0    0  0.00000000000E+00  0.00000000000E+00  0.99999944179E+02  0.99999999999E+02  0.10566000000E+00 0. -1.
         22   -1    0    0    0    0 -0.00000000000E+00 -0.00000000000E+00 -0.19958138604E+02  0.19958138604E+02  0.00000000000E+00 0. -1.
         13    1    1    2    0    0  0.22147317295E+01  0.21005831995E+02 -0.23937457494E+01  0.21257732644E+02  0.10566000000E+00 0.  1.
        996    1    1    2    0    0 -0.22147317295E+01 -0.21005831995E+02  0.82435551324E+02  0.98700405960E+02  0.50000000000E+02 0.  0.
<mgrwt>
<rscale>  0 0.54278449E+02</rscale>
<asrwt>0</asrwt>
<pdfrwt beam="1">  1       13 0.10000000E+01 0.54278449E+02</pdfrwt>
<pdfrwt beam="2">  1       22 0.19958161E+00 0.54278449E+02</pdfrwt>
<totfact> 0.45667661E-01</totfact>
</mgrwt>
</event>
<event>
 4    1  0.2489082E+000  0.5346256E+02  0.7957747E-01  0.1427513E+00
         13   -1    0    0    0    0  0.00000000000E+00  0.00000000000E+00  0.99999944173E+02  0.99999999994E+02  0.10566000000E+00 0.  1.
         22   -1    0    0    0    0 -0.00000000000E+00 -0.00000000000E+00 -0.17373744480E+02  0.17373744480E+02  0.00000000000E+00 0. -1.
         13    1    1    2    0    0 -0.15294786348E+02 -0.11149638724E+02 -0.38062251977E-01  0.18927692566E+02  0.10566000000E+00 0. -1.
        996    1    1    2    0    0  0.15294786348E+02  0.11149638724E+02  0.82664261946E+02  0.98446051907E+02  0.50000000000E+02 0.  0.
<mgrwt>
<rscale>  0 0.53462556E+02</rscale>
<asrwt>0</asrwt>
<pdfrwt beam="1">  1       13 0.10000000E+01 0.53462556E+02</pdfrwt>
<pdfrwt beam="2">  1       22 0.17373768E+00 0.53462556E+02</pdfrwt>
<totfact> 0.58677560E-01</totfact>
</mgrwt>
</event>
<event>
 4    1  0.2489082E+000  0.5147687E+02  0.7957747E-01  0.1437535E+00
         13   -1    0    0    0    0  0.00000000000E+00  0.00000000000E+00  0.99999944181E+02  0.10000000000E+03  0.10566000000E+00 0. -1.
         22   -1    0    0    0    0 -0.00000000000E+00 -0.00000000000E+00 -0.12206818060E+02  0.12206818060E+02  0.00000000000E+00 0. -1.
         13    1    1    2    0    0  0.19632586244E+01 -0.12083595919E+02  0.23662696952E+01  0.12469084612E+02  0.10566000000E+00 0.  1.
        996    1    1    2    0    0 -0.19632586244E+01  0.12083595919E+02  0.85426856426E+02  0.99737733449E+02  0.50000000000E+02 0.  0.
<mgrwt>
<rscale>  0 0.51476865E+02</rscale>
<asrwt>0</asrwt>
<pdfrwt beam="1">  1       13 0.10000000E+01 0.51476865E+02</pdfrwt>
<pdfrwt beam="2">  1       22 0.12206843E+00 0.51476865E+02</pdfrwt>
<totfact> 0.10458651E+00</totfact>
</mgrwt>
</event>
<event>
 4    1  0.2489082E+000  0.5178861E+02  0.7957747E-01  0.1435926E+00
         13   -1    0    0    0    0  0.00000000000E+00  0.00000000000E+00  0.99999944183E+02  0.10000000000E+03  0.10566000000E+00 0.  1.
         22   -1    0    0    0    0 -0.00000000000E+00 -0.00000000000E+00 -0.12193802173E+02  0.12193802173E+02  0.00000000000E+00 0. -1.
         13    1    1    2    0    0 -0.12376427104E+02 -0.53743904413E+01  0.47319191323E+01  0.14299029449E+02  0.10566000000E+00 0. -1.
        996    1    1    2    0    0  0.12376427104E+02  0.53743904413E+01  0.83074222878E+02  0.97894772727E+02  0.50000000000E+02 0.  0.
<mgrwt>
<rscale>  0 0.51788609E+02</rscale>
<asrwt>0</asrwt>
<pdfrwt beam="1">  1       13 0.10000000E+01 0.51788609E+02</pdfrwt>
<pdfrwt beam="2">  1       22 0.12193827E+00 0.51788609E+02</pdfrwt>
<totfact> 0.10483155E+00</totfact>
</mgrwt>
</event>
<event>
 4    1  0.2489082E+000  0.5179488E+02  0.7957747E-01  0.1435894E+00
         13   -1    0    0    0    0  0.00000000000E+00  0.00000000000E+00  0.99999944185E+02  0.10000000000E+03  0.10566000000E+00 0.  1.
         22   -1    0    0    0    0 -0.00000000000E+00 -0.00000000000E+00 -0.27344961195E+02  0.27344961195E+02  0.00000000000E+00 0. -1.
         13    1    1    2    0    0  0.12197985273E+02  0.58240239562E+01 -0.18255332609E+02  0.22715158649E+02  0.10566000000E+00 0. -1.
        996    1    1    2    0    0 -0.12197985273E+02 -0.58240239562E+01  0.90910315598E+02  0.10462980255E+03  0.50000000000E+02 0.  0.
<mgrwt>
<rscale>  0 0.51794885E+02</rscale>
<asrwt>0</asrwt>
<pdfrwt beam="1">  1       13 0.10000000E+01 0.51794885E+02</pdfrwt>
<pdfrwt beam="2">  1       22 0.27344981E+00 0.51794885E+02</pdfrwt>
<totfact> 0.24714626E-01</totfact>
</mgrwt>
</event>
<event>
 4    1  0.2489082E+000  0.5353532E+02  0.7957747E-01  0.1427155E+00
         13   -1    0    0    0    0  0.00000000000E+00  0.00000000000E+00  0.99999944176E+02  0.99999999996E+02  0.10566000000E+00 0.  1.
         22   -1    0    0    0    0 -0.00000000000E+00 -0.00000000000E+00 -0.21956955423E+02  0.21956955423E+02  0.00000000000E+00 0.  1.
         13    1    1    2    0    0  0.15343730162E+02  0.11428043403E+02 -0.79037412940E+01  0.20700495690E+02  0.10566000000E+00 0. -1.
        996    1    1    2    0    0 -0.15343730162E+02 -0.11428043403E+02  0.85946730046E+02  0.10125645973E+03  0.50000000000E+02 0.  0.
<mgrwt>
<rscale>  0 0.53535318E+02</rscale>
<asrwt>0</asrwt>
<pdfrwt beam="1">  1       13 0.10000000E+01 0.53535318E+02</pdfrwt>
<pdfrwt beam="2">  1       22 0.21956977E+00 0.53535318E+02</pdfrwt>
<totfact> 0.38061817E-01</totfact>
</mgrwt>
</event>
<event>
 4    1  0.2489082E+000  0.6107980E+02  0.7957747E-01  0.1393355E+00
         13   -1    0    0    0    0  0.00000000000E+00  0.00000000000E+00  0.99999944181E+02  0.10000000000E+03  0.10566000000E+00 0.  1.
         22   -1    0    0    0    0 -0.00000000000E+00 -0.00000000000E+00 -0.32638176592E+02  0.32638176592E+02  0.00000000000E+00 0. -1.
         13    1    1    2    0    0  0.33483715000E+02  0.10468166945E+02 -0.76474587593E+01  0.35905939326E+02  0.10566000000E+00 0. -1.
        996    1    1    2    0    0 -0.33483715000E+02 -0.10468166945E+02  0.75009226347E+02  0.96732237267E+02  0.50000000000E+02 0.  0.
<mgrwt>
<rscale>  0 0.61079798E+02</rscale>
<asrwt>0</asrwt>
<pdfrwt beam="1">  1       13 0.10000000E+01 0.61079798E+02</pdfrwt>
<pdfrwt beam="2">  1       22 0.32638195E+00 0.61079798E+02</pdfrwt>
<totfact> 0.17935899E-01</totfact>
</mgrwt>
</event>
<event>
 4    1  0.2489082E+000  0.5323342E+02  0.7957747E-01  0.1428643E+00
         13   -1    0    0    0    0  0.00000000000E+00  0.00000000000E+00  0.99999944186E+02  0.10000000001E+03  0.10566000000E+00 0. -1.
         22   -1    0    0    0    0 -0.00000000000E+00 -0.00000000000E+00 -0.17809478381E+02  0.17809478381E+02  0.00000000000E+00 0.  1.
         13    1    1    2    0    0 -0.12059811006E+02  0.13724354400E+02 -0.18118801214E+01  0.18360038638E+02  0.10566000000E+00 0.  1.
        996    1    1    2    0    0  0.12059811006E+02 -0.13724354400E+02  0.84002345926E+02  0.99449439749E+02  0.50000000000E+02 0.  0.
<mgrwt>
<rscale>  0 0.53233419E+02</rscale>
<asrwt>0</asrwt>
<pdfrwt beam="1">  1       13 0.10000000E+01 0.53233419E+02</pdfrwt>
<pdfrwt beam="2">  1       22 0.17809501E+00 0.53233419E+02</pdfrwt>
<totfact> 0.56125950E-01</totfact>
</mgrwt>
</event>
<event>
 4    1  0.2489082E+000  0.5122075E+02  0.7957747E-01  0.1438866E+00
         13   -1    0    0    0    0  0.00000000000E+00  0.00000000000E+00  0.99999944180E+02  0.10000000000E+03  0.10566000000E+00 0.  1.
         22   -1    0    0    0    0 -0.00000000000E+00 -0.00000000000E+00 -0.97216569961E+01  0.97216569961E+01  0.00000000000E+00 0.  1.
         13    1    1    2    0    0 -0.79320421523E+01  0.77876706360E+01  0.15004084816E+02  0.18673479371E+02  0.10566000000E+00 0. -1.
        996    1    1    2    0    0  0.79320421523E+01 -0.77876706360E+01  0.75274202368E+02  0.91048177625E+02  0.50000000000E+02 0.  0.
<mgrwt>
<rscale>  0 0.51220749E+02</rscale>
<asrwt>0</asrwt>
<pdfrwt beam="1">  1       13 0.10000000E+01 0.51220749E+02</pdfrwt>
<pdfrwt beam="2">  1       22 0.97216822E-01 0.51220749E+02</pdfrwt>
<totfact> 0.14656207E+00</totfact>
</mgrwt>
</event>
<event>
 4    1  0.2489082E+000  0.5103468E+02  0.7957747E-01  0.1439839E+00
         13   -1    0    0    0    0  0.00000000000E+00  0.00000000000E+00  0.99999944181E+02  0.10000000000E+03  0.10566000000E+00 0. -1.
         22   -1    0    0    0    0 -0.00000000000E+00 -0.00000000000E+00 -0.35861986056E+02  0.35861986056E+02  0.00000000000E+00 0.  1.
         13    1    1    2    0    0  0.81641025004E+01  0.61551815608E+01 -0.28399733528E+02  0.30184347901E+02  0.10566000000E+00 0.  1.
        996    1    1    2    0    0 -0.81641025004E+01 -0.61551815608E+01  0.92537691654E+02  0.10567763816E+03  0.50000000000E+02 0.  0.
<mgrwt>
<rscale>  0 0.51034683E+02</rscale>
<asrwt>0</asrwt>
<pdfrwt beam="1">  1       13 0.10000000E+01 0.51034683E+02</pdfrwt>
<pdfrwt beam="2">  1       22 0.35862004E+00 0.51034683E+02</pdfrwt>
<totfact> 0.15046761E-01</totfact>
</mgrwt>
</event>
<event>
 4    1  0.2489082E+000  0.5118381E+02  0.7957747E-01  0.1439059E+00
         13   -1    0    0    0    0  0.00000000000E+00  0.00000000000E+00  0.99999944175E+02  0.99999999995E+02  0.10566000000E+00 0.  1.
         22   -1    0    0    0    0 -0.00000000000E+00 -0.00000000000E+00 -0.10414984074E+02  0.10414984074E+02  0.00000000000E+00 0.  1.
         13    1    1    2    0    0  0.10226199570E+02  0.38996350469E+01  0.62138318433E+01  0.12585912019E+02  0.10566000000E+00 0. -1.
        996    1    1    2    0    0 -0.10226199570E+02 -0.38996350469E+01  0.83371128258E+02  0.97829072050E+02  0.50000000000E+02 0.  0.
<mgrwt>
<rscale>  0 0.51183809E+02</rscale>
<asrwt>0</asrwt>
<pdfrwt beam="1">  1       13 0.10000000E+01 0.51183809E+02</pdfrwt>
<pdfrwt beam="2">  1       22 0.10415009E+00 0.51183809E+02</pdfrwt>
<totfact> 0.13261302E+00</totfact>
</mgrwt>
</event>
<event>
 4    1  0.2489082E+000  0.5184244E+02  0.7957747E-01  0.1435650E+00
         13   -1    0    0    0    0  0.00000000000E+00  0.00000000000E+00  0.99999944181E+02  0.10000000000E+03  0.10566000000E+00 0. -1.
         22   -1    0    0    0    0 -0.00000000000E+00 -0.00000000000E+00 -0.16895855592E+02  0.16895855592E+02  0.00000000000E+00 0.  1.
         13    1    1    2    0    0  0.12000419490E+02 -0.66052272074E+01 -0.50730966435E+01  0.14607757117E+02  0.10566000000E+00 0.  1.
        996    1    1    2    0    0 -0.12000419490E+02  0.66052272074E+01  0.88177185232E+02  0.10228809848E+03  0.50000000000E+02 0.  0.
<mgrwt>
<rscale>  0 0.51842445E+02</rscale>
<asrwt>0</asrwt>
<pdfrwt beam="1">  1       13 0.10000000E+01 0.51842445E+02</pdfrwt>
<pdfrwt beam="2">  1       22 0.16895879E+00 0.51842445E+02</pdfrwt>
<totfact> 0.61436951E-01</totfact>
</mgrwt>
</event>
<event>
 4    1  0.2489082E+000  0.5485493E+02  0.7957747E-01  0.1420786E+00
         13   -1    0    0    0    0  0.00000000000E+00  0.00000000000E+00  0.99999944181E+02  0.10000000000E+03  0.10566000000E+00 0. -1.
         22   -1    0    0    0    0 -0.00000000000E+00 -0.00000000000E+00 -0.26876140948E+02  0.26876140948E+02  0.00000000000E+00 0.  1.
         13    1    1    2    0    0  0.21011330750E+01 -0.22464372782E+02 -0.12040615102E+02  0.25574408708E+02  0.10566000000E+00 0.  1.
        996    1    1    2    0    0 -0.21011330750E+01  0.22464372782E+02  0.85164418335E+02  0.10130173224E+03  0.50000000000E+02 0.  0.
<mgrwt>
<rscale>  0 0.54854925E+02</rscale>
<asrwt>0</asrwt>
<pdfrwt beam="1">  1       13 0.10000000E+01 0.54854925E+02</pdfrwt>
<pdfrwt beam="2">  1       22 0.26876161E+00 0.54854925E+02</pdfrwt>
<totfact> 0.25676655E-01</totfact>
</mgrwt>
</event>
<event>
 4    1  0.2489082E+000  0.5900075E+02  0.7957747E-01  0.1402074E+00
         13   -1    0    0    0    0  0.00000000000E+00  0.00000000000E+00  0.99999944180E+02  0.10000000000E+03  0.10566000000E+00 0.  1.
         22   -1    0    0    0    0 -0.00000000000E+00 -0.00000000000E+00 -0.21074162886E+02  0.21074162886E+02  0.00000000000E+00 0. -1.
         13    1    1    2    0    0 -0.30568749894E+02  0.68293366721E+01  0.17402749223E+02  0.35832319964E+02  0.10566000000E+00 0. -1.
        996    1    1    2    0    0  0.30568749894E+02 -0.68293366721E+01  0.61523032072E+02  0.85241842923E+02  0.50000000000E+02 0.  0.
<mgrwt>
<rscale>  0 0.59000748E+02</rscale>
<asrwt>0</asrwt>
<pdfrwt beam="1">  1       13 0.10000000E+01 0.59000748E+02</pdfrwt>
<pdfrwt beam="2">  1       22 0.21074185E+00 0.59000748E+02</pdfrwt>
<totfact> 0.41530642E-01</totfact>
</mgrwt>
</event>
<event>
 4    1  0.2489082E+000  0.6305260E+02  0.7957747E-01  0.1385450E+00
         13   -1    0    0    0    0  0.00000000000E+00  0.00000000000E+00  0.99999944181E+02  0.10000000000E+03  0.10566000000E+00 0.  1.
         22   -1    0    0    0    0 -0.00000000000E+00 -0.00000000000E+00 -0.26121482937E+02  0.26121482937E+02  0.00000000000E+00 0. -1.
         13    1    1    2    0    0 -0.30762380123E+02  0.23006653632E+02  0.20692254622E+02  0.43632679353E+02  0.10566000000E+00 0. -1.
        996    1    1    2    0    0  0.30762380123E+02 -0.23006653632E+02  0.53186206622E+02  0.82488803586E+02  0.50000000000E+02 0.  0.
<mgrwt>
<rscale>  0 0.63052598E+02</rscale>
<asrwt>0</asrwt>
<pdfrwt beam="1">  1       13 0.10000000E+01 0.63052598E+02</pdfrwt>
<pdfrwt beam="2">  1       22 0.26121504E+00 0.63052598E+02</pdfrwt>
<totfact> 0.27452235E-01</totfact>
</mgrwt>
</event>
<event>
 4    1  0.2489082E+000  0.6786189E+02  0.7957747E-01  0.1367518E+00
         13   -1    0    0    0    0  0.00000000000E+00  0.00000000000E+00  0.99999944179E+02  0.99999999999E+02  0.10566000000E+00 0. -1.
         22   -1    0    0    0    0 -0.00000000000E+00 -0.00000000000E+00 -0.40620224096E+02  0.40620224096E+02  0.00000000000E+00 0.  1.
         13    1    1    2    0    0 -0.45855470735E+02 -0.15850473381E+01 -0.61383820033E+01  0.46291764592E+02  0.10566000000E+00 0.  1.
        996    1    1    2    0    0  0.45855470735E+02  0.15850473381E+01  0.65518102086E+02  0.94328459503E+02  0.50000000000E+02 0.  0.
<mgrwt>
<rscale>  0 0.67861893E+02</rscale>
<asrwt>0</asrwt>
<pdfrwt beam="1">  1       13 0.10000000E+01 0.67861893E+02</pdfrwt>
<pdfrwt beam="2">  1       22 0.40620241E+00 0.67861893E+02</pdfrwt>
<totfact> 0.12134470E-01</totfact>
</mgrwt>
</event>
<event>
 4    1  0.2489082E+000  0.5108330E+02  0.7957747E-01  0.1439585E+00
         13   -1    0    0    0    0  0.00000000000E+00  0.00000000000E+00  0.99999944183E+02  0.10000000000E+03  0.10566000000E+00 0.  1.
         22   -1    0    0    0    0 -0.00000000000E+00 -0.00000000000E+00 -0.11273823347E+02  0.11273823347E+02  0.00000000000E+00 0.  1.
         13    1    1    2    0    0  0.63981656154E+01 -0.82805087168E+01  0.37489211960E+02  0.38922429591E+02  0.10566000000E+00 0. -1.
        996    1    1    2    0    0 -0.63981656154E+01  0.82805087168E+01  0.51236908876E+02  0.72351393760E+02  0.50000000000E+02 0.  0.
<mgrwt>
<rscale>  0 0.51083298E+02</rscale>
<asrwt>0</asrwt>
<pdfrwt beam="1">  1       13 0.10000000E+01 0.51083298E+02</pdfrwt>
<pdfrwt beam="2">  1       22 0.11273848E+00 0.51083298E+02</pdfrwt>
<totfact> 0.11790292E+00</totfact>
</mgrwt>
</event>
<event>
 4    1  0.2489082E+000  0.5257263E+02  0.7957747E-01  0.1431940E+00
         13   -1    0    0    0    0  0.00000000000E+00  0.00000000000E+00  0.99999944176E+02  0.99999999996E+02  0.10566000000E+00 0. -1.
         22   -1    0    0    0    0 -0.00000000000E+00 -0.00000000000E+00 -0.14078799009E+02  0.14078799009E+02  0.00000000000E+00 0.  1.
         13    1    1    2    0    0  0.73036051582E+01  0.14509949015E+02  0.39843593433E+01  0.16726253380E+02  0.10566000000E+00 0.  1.
        996    1    1    2    0    0 -0.73036051582E+01 -0.14509949015E+02  0.81936785824E+02  0.97352545626E+02  0.50000000000E+02 0.  0.
<mgrwt>
<rscale>  0 0.52572629E+02</rscale>
<asrwt>0</asrwt>
<pdfrwt beam="1">  1       13 0.10000000E+01 0.52572629E+02</pdfrwt>
<pdfrwt beam="2">  1       22 0.14078823E+00 0.52572629E+02</pdfrwt>
<totfact> 0.83663035E-01</totfact>
</mgrwt>
</event>
<event>
 4    1  0.2489082E+000  0.5622917E+02  0.7957747E-01  0.1414374E+00
         13   -1    0    0    0    0  0.00000000000E+00  0.00000000000E+00  0.99999944180E+02  0.10000000000E+03  0.10566000000E+00 0.  1.
         22   -1    0    0    0    0 -0.00000000000E+00 -0.00000000000E+00 -0.42333684252E+02  0.42333684252E+02  0.00000000000E+00 0. -1.
         13    1    1    2    0    0  0.16191052676E+02  0.19989236679E+02 -0.29163433248E+02  0.38887488638E+02  0.10566000000E+00 0. -1.
        996    1    1    2    0    0 -0.16191052676E+02 -0.19989236679E+02  0.86829693176E+02  0.10344619561E+03  0.50000000000E+02 0.  0.
<mgrwt>
<rscale>  0 0.56229172E+02</rscale>
<asrwt>0</asrwt>
<pdfrwt beam="1">  1       13 0.10000000E+01 0.56229172E+02</pdfrwt>
<pdfrwt beam="2">  1       22 0.42333700E+00 0.56229172E+02</pdfrwt>
<totfact> 0.11084573E-01</totfact>
</mgrwt>
</event>
<event>
 4    1  0.2489082E+000  0.5323600E+02  0.7957747E-01  0.1428630E+00
         13   -1    0    0    0    0  0.00000000000E+00  0.00000000000E+00  0.99999944190E+02  0.10000000001E+03  0.10566000000E+00 0.  1.
         22   -1    0    0    0    0 -0.00000000000E+00 -0.00000000000E+00 -0.54079037030E+02  0.54079037030E+02  0.00000000000E+00 0. -1.
         13    1    1    2    0    0  0.18000189914E+02 -0.31724437086E+01 -0.45083185264E+02  0.48647466466E+02  0.10566000000E+00 0. -1.
        996    1    1    2    0    0 -0.18000189914E+02  0.31724437086E+01  0.91004092423E+02  0.10543157057E+03  0.50000000000E+02 0.  0.
<mgrwt>
<rscale>  0 0.53235996E+02</rscale>
<asrwt>0</asrwt>
<pdfrwt beam="1">  1       13 0.10000000E+01 0.53235996E+02</pdfrwt>
<pdfrwt beam="2">  1       22 0.54079050E+00 0.53235996E+02</pdfrwt>
<totfact> 0.60466760E-02</totfact>
</mgrwt>
</event>
<event>
 4    1  0.2489082E+000  0.5161119E+02  0.7957747E-01  0.1436840E+00
         13   -1    0    0    0    0  0.00000000000E+00  0.00000000000E+00  0.99999944180E+02  0.10000000000E+03  0.10566000000E+00 0. -1.
         22   -1    0    0    0    0 -0.00000000000E+00 -0.00000000000E+00 -0.45132557932E+02  0.45132557932E+02  0.00000000000E+00 0.  1.
         13    1    1    2    0    0 -0.22305065303E+01  0.12599196860E+02 -0.37335669825E+02  0.39467433742E+02  0.10566000000E+00 0.  1.
        996    1    1    2    0    0  0.22305065303E+01 -0.12599196860E+02  0.92203056073E+02  0.10566512419E+03  0.50000000000E+02 0.  0.
<mgrwt>
<rscale>  0 0.51611190E+02</rscale>
<asrwt>0</asrwt>
<pdfrwt beam="1">  1       13 0.10000000E+01 0.51611190E+02</pdfrwt>
<pdfrwt beam="2">  1       22 0.45132573E+00 0.51611190E+02</pdfrwt>
<totfact> 0.95933237E-02</totfact>
</mgrwt>
</event>
<event>
 4    1  0.2489082E+000  0.5207722E+02  0.7957747E-01  0.1434449E+00
         13   -1    0    0    0    0  0.00000000000E+00  0.00000000000E+00  0.99999944170E+02  0.99999999991E+02  0.10566000000E+00 0.  1.
         22   -1    0    0    0    0 -0.00000000000E+00 -0.00000000000E+00 -0.11703912373E+02  0.11703912373E+02  0.00000000000E+00 0.  1.
         13    1    1    2    0    0  0.13292642709E+02 -0.59449425830E+01  0.99793867056E+01  0.17653215445E+02  0.10566000000E+00 0. -1.
        996    1    1    2    0    0 -0.13292642709E+02  0.59449425830E+01  0.78316645092E+02  0.94050696919E+02  0.50000000000E+02 0.  0.
<mgrwt>
<rscale>  0 0.52077219E+02</rscale>
<asrwt>0</asrwt>
<pdfrwt beam="1">  1       13 0.10000000E+01 0.52077219E+02</pdfrwt>
<pdfrwt beam="2">  1       22 0.11703937E+00 0.52077219E+02</pdfrwt>
<totfact> 0.11168649E+00</totfact>
</mgrwt>
</event>
<event>
 4    1  0.2489082E+000  0.5115398E+02  0.7957747E-01  0.1439215E+00
         13   -1    0    0    0    0  0.00000000000E+00  0.00000000000E+00  0.99999944175E+02  0.99999999995E+02  0.10566000000E+00 0.  1.
         22   -1    0    0    0    0 -0.00000000000E+00 -0.00000000000E+00 -0.10101861703E+02  0.10101861703E+02  0.00000000000E+00 0.  1.
         13    1    1    2    0    0 -0.37255153732E+01 -0.10141498587E+02  0.76310853497E+01  0.13227777063E+02  0.10566000000E+00 0. -1.
        996    1    1    2    0    0  0.37255153732E+01  0.10141498587E+02  0.82266997122E+02  0.96874084635E+02  0.50000000000E+02 0.  0.
<mgrwt>
<rscale>  0 0.51153978E+02</rscale>
<asrwt>0</asrwt>
<pdfrwt beam="1">  1       13 0.10000000E+01 0.51153978E+02</pdfrwt>
<pdfrwt beam="2">  1       22 0.10101887E+00 0.51153978E+02</pdfrwt>
<totfact> 0.13863810E+00</totfact>
</mgrwt>
</event>
<event>
 4    1  0.2489082E+000  0.5112561E+02  0.7957747E-01  0.1439363E+00
         13   -1    0    0    0    0  0.00000000000E+00  0.00000000000E+00  0.99999944177E+02  0.99999999997E+02  0.10566000000E+00 0. -1.
         22   -1    0    0    0    0 -0.00000000000E+00 -0.00000000000E+00 -0.96161625976E+01  0.96161625976E+01  0.00000000000E+00 0. -1.
         13    1    1    2    0    0 -0.10521129603E+02 -0.17703195564E+01  0.12286010393E+02  0.16272228332E+02  0.10566000000E+00 0.  1.
        996    1    1    2    0    0  0.10521129603E+02  0.17703195564E+01  0.78097771186E+02  0.93343934263E+02  0.50000000000E+02 0.  0.
<mgrwt>
<rscale>  0 0.51125612E+02</rscale>
<asrwt>0</asrwt>
<pdfrwt beam="1">  1       13 0.10000000E+01 0.51125612E+02</pdfrwt>
<pdfrwt beam="2">  1       22 0.96161878E-01 0.51125612E+02</pdfrwt>
<totfact> 0.14884032E+00</totfact>
</mgrwt>
</event>
<event>
 4    1  0.2489082E+000  0.5591058E+02  0.7957747E-01  0.1415841E+00
         13   -1    0    0    0    0  0.00000000000E+00  0.00000000000E+00  0.99999944177E+02  0.99999999998E+02  0.10566000000E+00 0. -1.
         22   -1    0    0    0    0 -0.00000000000E+00 -0.00000000000E+00 -0.16942909113E+02  0.16942909113E+02  0.00000000000E+00 0.  1.
         13    1    1    2    0    0  0.47129467450E+01  0.24571958392E+02  0.16281275137E+02  0.29851031646E+02  0.10566000000E+00 0.  1.
        996    1    1    2    0    0 -0.47129467450E+01 -0.24571958392E+02  0.66775759928E+02  0.87091877464E+02  0.50000000000E+02 0.  0.
<mgrwt>
<rscale>  0 0.55910580E+02</rscale>
<asrwt>0</asrwt>
<pdfrwt beam="1">  1       13 0.10000000E+01 0.55910580E+02</pdfrwt>
<pdfrwt beam="2">  1       22 0.16942932E+00 0.55910580E+02</pdfrwt>
<totfact> 0.61605306E-01</totfact>
</mgrwt>
</event>
<event>
 4    1  0.2489082E+000  0.5293426E+02  0.7957747E-01  0.1430128E+00
         13   -1    0    0    0    0  0.00000000000E+00  0.00000000000E+00  0.99999944183E+02  0.10000000000E+03  0.10566000000E+00 0.  1.
         22   -1    0    0    0    0 -0.00000000000E+00 -0.00000000000E+00 -0.23070170228E+02  0.23070170228E+02  0.00000000000E+00 0.  1.
         13    1    1    2    0    0  0.16228562400E+02 -0.62184685027E+01 -0.10905271213E+02  0.20517594702E+02  0.10566000000E+00 0. -1.
        996    1    1    2    0    0 -0.16228562400E+02  0.62184685027E+01  0.87835045167E+02  0.10255257553E+03  0.50000000000E+02 0.  0.
<mgrwt>
<rscale>  0 0.52934257E+02</rscale>
<asrwt>0</asrwt>
<pdfrwt beam="1">  1       13 0.10000000E+01 0.52934257E+02</pdfrwt>
<pdfrwt beam="2">  1       22 0.23070192E+00 0.52934257E+02</pdfrwt>
<totfact> 0.34554152E-01</totfact>
</mgrwt>
</event>
<event>
 4    1  0.2489082E+000  0.5244368E+02  0.7957747E-01  0.1432590E+00
         13   -1    0    0    0    0  0.00000000000E+00  0.00000000000E+00  0.99999944178E+02  0.99999999998E+02  0.10566000000E+00 0.  1.
         22   -1    0    0    0    0 -0.00000000000E+00 -0.00000000000E+00 -0.44896269884E+02  0.44896269884E+02  0.00000000000E+00 0. -1.
         13    1    1    2    0    0 -0.14060302415E+02 -0.72558640208E+01 -0.36253835924E+02  0.39556180932E+02  0.10566000000E+00 0. -1.
        996    1    1    2    0    0  0.14060302415E+02  0.72558640208E+01  0.91357510218E+02  0.10534008895E+03  0.50000000000E+02 0.  0.
<mgrwt>
<rscale>  0 0.52443681E+02</rscale>
<asrwt>0</asrwt>
<pdfrwt beam="1">  1       13 0.10000000E+01 0.52443681E+02</pdfrwt>
<pdfrwt beam="2">  1       22 0.44896285E+00 0.52443681E+02</pdfrwt>
<totfact> 0.97168108E-02</totfact>
</mgrwt>
</event>
<event>
 4    1  0.2489082E+000  0.5129254E+02  0.7957747E-01  0.1438492E+00
         13   -1    0    0    0    0  0.00000000000E+00  0.00000000000E+00  0.99999944171E+02  0.99999999991E+02  0.10566000000E+00 0.  1.
         22   -1    0    0    0    0 -0.00000000000E+00 -0.00000000000E+00 -0.19220561865E+02  0.19220561865E+02  0.00000000000E+00 0. -1.
         13    1    1    2    0    0  0.46901082887E+01 -0.10436817146E+02 -0.98400377110E+01  0.15091778361E+02  0.10566000000E+00 0. -1.
        996    1    1    2    0    0 -0.46901082887E+01  0.10436817146E+02  0.90619420018E+02  0.10412878350E+03  0.50000000000E+02 0.  0.
<mgrwt>
<rscale>  0 0.51292536E+02</rscale>
<asrwt>0</asrwt>
<pdfrwt beam="1">  1       13 0.10000000E+01 0.51292536E+02</pdfrwt>
<pdfrwt beam="2">  1       22 0.19220584E+00 0.51292536E+02</pdfrwt>
<totfact> 0.48705975E-01</totfact>
</mgrwt>
</event>
<event>
 4    1  0.2489082E+000  0.5237306E+02  0.7957747E-01  0.1432947E+00
         13   -1    0    0    0    0  0.00000000000E+00  0.00000000000E+00  0.99999944171E+02  0.99999999992E+02  0.10566000000E+00 0.  1.
         22   -1    0    0    0    0 -0.00000000000E+00 -0.00000000000E+00 -0.31164294715E+02  0.31164294715E+02  0.00000000000E+00 0.  1.
         13    1    1    2    0    0 -0.55231436890E+01 -0.14575055052E+02 -0.21612826716E+02  0.26647003371E+02  0.10566000000E+00 0. -1.
        996    1    1    2    0    0  0.55231436890E+01  0.14575055052E+02  0.90448476173E+02  0.10451729133E+03  0.50000000000E+02 0.  0.
<mgrwt>
<rscale>  0 0.52373059E+02</rscale>
<asrwt>0</asrwt>
<pdfrwt beam="1">  1       13 0.10000000E+01 0.52373059E+02</pdfrwt>
<pdfrwt beam="2">  1       22 0.31164314E+00 0.52373059E+02</pdfrwt>
<totfact> 0.19308183E-01</totfact>
</mgrwt>
</event>
<event>
 4    1  0.2489082E+000  0.5217040E+02  0.7957747E-01  0.1433975E+00
         13   -1    0    0    0    0  0.00000000000E+00  0.00000000000E+00  0.99999944174E+02  0.99999999995E+02  0.10566000000E+00 0. -1.
         22   -1    0    0    0    0 -0.00000000000E+00 -0.00000000000E+00 -0.17198126201E+02  0.17198126201E+02  0.00000000000E+00 0.  1.
         13    1    1    2    0    0 -0.89447240161E+01  0.11905568638E+02 -0.44468567242E+01  0.15541439801E+02  0.10566000000E+00 0.  1.
        996    1    1    2    0    0  0.89447240161E+01 -0.11905568638E+02  0.87248674698E+02  0.10165668639E+03  0.50000000000E+02 0.  0.
<mgrwt>
<rscale>  0 0.52170400E+02</rscale>
<asrwt>0</asrwt>
<pdfrwt beam="1">  1       13 0.10000000E+01 0.52170400E+02</pdfrwt>
<pdfrwt beam="2">  1       22 0.17198149E+00 0.52170400E+02</pdfrwt>
<totfact> 0.59593231E-01</totfact>
</mgrwt>
</event>
<event>
 4    1  0.2489082E+000  0.5152347E+02  0.7957747E-01  0.1437293E+00
         13   -1    0    0    0    0  0.00000000000E+00  0.00000000000E+00  0.99999944179E+02  0.99999999999E+02  0.10566000000E+00 0.  1.
         22   -1    0    0    0    0 -0.00000000000E+00 -0.00000000000E+00 -0.14713866625E+02  0.14713866625E+02  0.00000000000E+00 0. -1.
         13    1    1    2    0    0  0.11474520860E+02  0.47961759573E+01 -0.27235260331E+01  0.12731719870E+02  0.10566000000E+00 0. -1.
        996    1    1    2    0    0 -0.11474520860E+02 -0.47961759573E+01  0.88009603587E+02  0.10198214675E+03  0.50000000000E+02 0.  0.
<mgrwt>
<rscale>  0 0.51523470E+02</rscale>
<asrwt>0</asrwt>
<pdfrwt beam="1">  1       13 0.10000000E+01 0.51523470E+02</pdfrwt>
<pdfrwt beam="2">  1       22 0.14713890E+00 0.51523470E+02</pdfrwt>
<totfact> 0.77659974E-01</totfact>
</mgrwt>
</event>
<event>
 4    1  0.2489082E+000  0.5451792E+02  0.7957747E-01  0.1422393E+00
         13   -1    0    0    0    0  0.00000000000E+00  0.00000000000E+00  0.99999944171E+02  0.99999999991E+02  0.10566000000E+00 0. -1.
         22   -1    0    0    0    0 -0.00000000000E+00 -0.00000000000E+00 -0.73014416270E+02  0.73014416270E+02  0.00000000000E+00 0.  1.
         13    1    1    2    0    0 -0.10230358853E+02  0.19171434551E+02 -0.63643642361E+02  0.67251234353E+02  0.10566000000E+00 0.  1.
        996    1    1    2    0    0  0.10230358853E+02 -0.19171434551E+02  0.90629170262E+02  0.10576318191E+03  0.50000000000E+02 0.  0.
<mgrwt>
<rscale>  0 0.54517925E+02</rscale>
<asrwt>0</asrwt>
<pdfrwt beam="1">  1       13 0.10000000E+01 0.54517925E+02</pdfrwt>
<pdfrwt beam="2">  1       22 0.73014424E+00 0.54517925E+02</pdfrwt>
<totfact> 0.58696613E-02</totfact>
</mgrwt>
</event>
<event>
 4    1  0.2489082E+000  0.5161996E+02  0.7957747E-01  0.1436795E+00
         13   -1    0    0    0    0  0.00000000000E+00  0.00000000000E+00  0.99999944183E+02  0.10000000000E+03  0.10566000000E+00 0.  1.
         22   -1    0    0    0    0 -0.00000000000E+00 -0.00000000000E+00 -0.77681881200E+02  0.77681881200E+02  0.00000000000E+00 0. -1.
         13    1    1    2    0    0  0.12744905651E+02 -0.14790445801E+01 -0.70401666289E+02  0.71561344127E+02  0.10566000000E+00 0. -1.
        996    1    1    2    0    0 -0.12744905651E+02  0.14790445801E+01  0.92719729272E+02  0.10612053708E+03  0.50000000000E+02 0.  0.
<mgrwt>
<rscale>  0 0.51619959E+02</rscale>
<asrwt>0</asrwt>
<pdfrwt beam="1">  1       13 0.10000000E+01 0.51619959E+02</pdfrwt>
<pdfrwt beam="2">  1       22 0.77681887E+00 0.51619959E+02</pdfrwt>
<totfact> 0.38221901E-02</totfact>
</mgrwt>
</event>
<event>
 4    1  0.2489082E+000  0.5206127E+02  0.7957747E-01  0.1434530E+00
         13   -1    0    0    0    0  0.00000000000E+00  0.00000000000E+00  0.99999944177E+02  0.99999999997E+02  0.10566000000E+00 0. -1.
         22   -1    0    0    0    0 -0.00000000000E+00 -0.00000000000E+00 -0.11410100864E+02  0.11410100864E+02  0.00000000000E+00 0. -1.
         13    1    1    2    0    0  0.13392820122E+02  0.55684986487E+01  0.12127097357E+02  0.18906439706E+02  0.10566000000E+00 0.  1.
        996    1    1    2    0    0 -0.13392820122E+02 -0.55684986487E+01  0.76462745956E+02  0.92503661155E+02  0.50000000000E+02 0.  0.
<mgrwt>
<rscale>  0 0.52061270E+02</rscale>
<asrwt>0</asrwt>
<pdfrwt beam="1">  1       13 0.10000000E+01 0.52061270E+02</pdfrwt>
<pdfrwt beam="2">  1       22 0.11410126E+00 0.52061270E+02</pdfrwt>
<totfact> 0.11605604E+00</totfact>
</mgrwt>
</event>
<event>
 4    1  0.2489082E+000  0.5162095E+02  0.7957747E-01  0.1436790E+00
         13   -1    0    0    0    0  0.00000000000E+00  0.00000000000E+00  0.99999944174E+02  0.99999999994E+02  0.10566000000E+00 0. -1.
         22   -1    0    0    0    0 -0.00000000000E+00 -0.00000000000E+00 -0.60719136065E+02  0.60719136065E+02  0.00000000000E+00 0.  1.
         13    1    1    2    0    0 -0.92693422170E+01 -0.88770635976E+01 -0.53243592339E+02  0.54768734260E+02  0.10566000000E+00 0.  1.
        996    1    1    2    0    0  0.92693422170E+01  0.88770635976E+01  0.92524400448E+02  0.10595040180E+03  0.50000000000E+02 0.  0.
<mgrwt>
<rscale>  0 0.51620955E+02</rscale>
<asrwt>0</asrwt>
<pdfrwt beam="1">  1       13 0.10000000E+01 0.51620955E+02</pdfrwt>
<pdfrwt beam="2">  1       22 0.60719147E+00 0.51620955E+02</pdfrwt>
<totfact> 0.66374990E-02</totfact>
</mgrwt>
</event>
<event>
 4    1  0.2489082E+000  0.5134604E+02  0.7957747E-01  0.1438214E+00
         13   -1    0    0    0    0  0.00000000000E+00  0.00000000000E+00  0.99999944181E+02  0.10000000000E+03  0.10566000000E+00 0. -1.
         22   -1    0    0    0    0 -0.00000000000E+00 -0.00000000000E+00 -0.10221914847E+02  0.10221914847E+02  0.00000000000E+00 0. -1.
         13    1    1    2    0    0 -0.98154010538E+01 -0.63304186096E+01  0.10147264859E+02  0.15472376863E+02  0.10566000000E+00 0.  1.
        996    1    1    2    0    0  0.98154010538E+01  0.63304186096E+01  0.79630764475E+02  0.94749537986E+02  0.50000000000E+02 0.  0.
<mgrwt>
<rscale>  0 0.51346045E+02</rscale>
<asrwt>0</asrwt>
<pdfrwt beam="1">  1       13 0.10000000E+01 0.51346045E+02</pdfrwt>
<pdfrwt beam="2">  1       22 0.10221940E+00 0.51346045E+02</pdfrwt>
<totfact> 0.13633983E+00</totfact>
</mgrwt>
</event>
<event>
 4    1  0.2489082E+000  0.5193803E+02  0.7957747E-01  0.1435160E+00
         13   -1    0    0    0    0  0.00000000000E+00  0.00000000000E+00  0.99999944183E+02  0.10000000000E+03  0.10566000000E+00 0.  1.
         22   -1    0    0    0    0 -0.00000000000E+00 -0.00000000000E+00 -0.11123705132E+02  0.11123705132E+02  0.00000000000E+00 0.  1.
         13    1    1    2    0    0 -0.97944276048E-01 -0.14055232320E+02  0.26127286673E+02  0.29668256127E+02  0.10566000000E+00 0. -1.
        996    1    1    2    0    0  0.97944276048E-01  0.14055232320E+02  0.62748952378E+02  0.81455449009E+02  0.50000000000E+02 0.  0.
<mgrwt>
<rscale>  0 0.51938032E+02</rscale>
<asrwt>0</asrwt>
<pdfrwt beam="1">  1       13 0.10000000E+01 0.51938032E+02</pdfrwt>
<pdfrwt beam="2">  1       22 0.11123730E+00 0.51938032E+02</pdfrwt>
<totfact> 0.12052913E+00</totfact>
</mgrwt>
</event>
<event>
 4    1  0.2489082E+000  0.5766516E+02  0.7957747E-01  0.1407900E+00
         13   -1    0    0    0    0  0.00000000000E+00  0.00000000000E+00  0.99999944191E+02  0.10000000001E+03  0.10566000000E+00 0.  1.
         22   -1    0    0    0    0 -0.00000000000E+00 -0.00000000000E+00 -0.27074086315E+02  0.27074086315E+02  0.00000000000E+00 0. -1.
         13    1    1    2    0    0 -0.64859470711E+01  0.27985775593E+02 -0.59792725933E+01  0.29343381021E+02  0.10566000000E+00 0. -1.
        996    1    1    2    0    0  0.64859470711E+01 -0.27985775593E+02  0.78905130470E+02  0.97730705305E+02  0.50000000000E+02 0.  0.
<mgrwt>
<rscale>  0 0.57665164E+02</rscale>
<asrwt>0</asrwt>
<pdfrwt beam="1">  1       13 0.10000000E+01 0.57665164E+02</pdfrwt>
<pdfrwt beam="2">  1       22 0.27074107E+00 0.57665164E+02</pdfrwt>
<totfact> 0.25406513E-01</totfact>
</mgrwt>
</event>
<event>
 4    1  0.2489082E+000  0.5141038E+02  0.7957747E-01  0.1437879E+00
         13   -1    0    0    0    0  0.00000000000E+00  0.00000000000E+00  0.99999944173E+02  0.99999999994E+02  0.10566000000E+00 0.  1.
         22   -1    0    0    0    0 -0.00000000000E+00 -0.00000000000E+00 -0.10364399464E+02  0.10364399464E+02  0.00000000000E+00 0.  1.
         13    1    1    2    0    0 -0.11334341903E+02 -0.38157429969E+01  0.10069559044E+02  0.15634397474E+02  0.10566000000E+00 0. -1.
        996    1    1    2    0    0  0.11334341903E+02  0.38157429969E+01  0.79565985665E+02  0.94730001984E+02  0.50000000000E+02 0.  0.
<mgrwt>
<rscale>  0 0.51410380E+02</rscale>
<asrwt>0</asrwt>
<pdfrwt beam="1">  1       13 0.10000000E+01 0.51410380E+02</pdfrwt>
<pdfrwt beam="2">  1       22 0.10364424E+00 0.51410380E+02</pdfrwt>
<totfact> 0.13363360E+00</totfact>
</mgrwt>
</event>
<event>
 4    1  0.2489082E+000  0.5100149E+02  0.7957747E-01  0.1440013E+00
         13   -1    0    0    0    0  0.00000000000E+00  0.00000000000E+00  0.99999944175E+02  0.99999999995E+02  0.10566000000E+00 0.  1.
         22   -1    0    0    0    0 -0.00000000000E+00 -0.00000000000E+00 -0.10961181932E+02  0.10961181932E+02  0.00000000000E+00 0. -1.
         13    1    1    2    0    0 -0.95799230604E+01 -0.30622288881E+01  0.22661814297E+01  0.10310136464E+02  0.10566000000E+00 0. -1.
        996    1    1    2    0    0  0.95799230604E+01  0.30622288881E+01  0.86772580814E+02  0.10065104546E+03  0.50000000000E+02 0.  0.
<mgrwt>
<rscale>  0 0.51001492E+02</rscale>
<asrwt>0</asrwt>
<pdfrwt beam="1">  1       13 0.10000000E+01 0.51001492E+02</pdfrwt>
<pdfrwt beam="2">  1       22 0.10961207E+00 0.51001492E+02</pdfrwt>
<totfact> 0.12293130E+00</totfact>
</mgrwt>
</event>
<event>
 4    1  0.2489082E+000  0.5615889E+02  0.7957747E-01  0.1414697E+00
         13   -1    0    0    0    0  0.00000000000E+00  0.00000000000E+00  0.99999944180E+02  0.10000000000E+03  0.10566000000E+00 0. -1.
         22   -1    0    0    0    0 -0.00000000000E+00 -0.00000000000E+00 -0.17059010427E+02  0.17059010427E+02  0.00000000000E+00 0. -1.
         13    1    1    2    0    0 -0.23571917957E+02  0.99088440389E+01  0.18379208899E+02  0.31490109402E+02  0.10566000000E+00 0.  1.
        996    1    1    2    0    0  0.23571917957E+02 -0.99088440389E+01  0.64561724855E+02  0.85568901025E+02  0.50000000000E+02 0.  0.
<mgrwt>
<rscale>  0 0.56158886E+02</rscale>
<asrwt>0</asrwt>
<pdfrwt beam="1">  1       13 0.10000000E+01 0.56158886E+02</pdfrwt>
<pdfrwt beam="2">  1       22 0.17059034E+00 0.56158886E+02</pdfrwt>
<totfact> 0.60898147E-01</totfact>
</mgrwt>
</event>
<event>
 4    1  0.2489082E+000  0.5262507E+02  0.7957747E-01  0.1431676E+00
         13   -1    0    0    0    0  0.00000000000E+00  0.00000000000E+00  0.99999944181E+02  0.10000000000E+03  0.10566000000E+00 0.  1.
         22   -1    0    0    0    0 -0.00000000000E+00 -0.00000000000E+00 -0.23368987311E+02  0.23368987311E+02  0.00000000000E+00 0. -1.
         13    1    1    2    0    0 -0.76669089960E+01 -0.14512614342E+02 -0.11972164510E+02  0.20316036909E+02  0.10566000000E+00 0. -1.
        996    1    1    2    0    0  0.76669089960E+01  0.14512614342E+02  0.88603121380E+02  0.10305295040E+03  0.50000000000E+02 0.  0.
<mgrwt>
<rscale>  0 0.52625065E+02</rscale>
<asrwt>0</asrwt>
<pdfrwt beam="1">  1       13 0.10000000E+01 0.52625065E+02</pdfrwt>
<pdfrwt beam="2">  1       22 0.23369009E+00 0.52625065E+02</pdfrwt>
<totfact> 0.33681522E-01</totfact>
</mgrwt>
</event>
<event>
 4    1  0.2489082E+000  0.5598019E+02  0.7957747E-01  0.1415520E+00
         13   -1    0    0    0    0  0.00000000000E+00  0.00000000000E+00  0.99999944173E+02  0.99999999993E+02  0.10566000000E+00 0. -1.
         22   -1    0    0    0    0 -0.00000000000E+00 -0.00000000000E+00 -0.23130926398E+02  0.23130926398E+02  0.00000000000E+00 0. -1.
         13    1    1    2    0    0 -0.17047184508E+02  0.18524983860E+02 -0.32585980826E+01  0.25385254621E+02  0.10566000000E+00 0.  1.
        996    1    1    2    0    0  0.17047184508E+02 -0.18524983860E+02  0.80127615858E+02  0.97745671770E+02  0.50000000000E+02 0.  0.
<mgrwt>
<rscale>  0 0.55980189E+02</rscale>
<asrwt>0</asrwt>
<pdfrwt beam="1">  1       13 0.10000000E+01 0.55980189E+02</pdfrwt>
<pdfrwt beam="2">  1       22 0.23130948E+00 0.55980189E+02</pdfrwt>
<totfact> 0.34543074E-01</totfact>
</mgrwt>
</event>
<event>
 4    1  0.2489082E+000  0.5293562E+02  0.7957747E-01  0.1430122E+00
         13   -1    0    0    0    0  0.00000000000E+00  0.00000000000E+00  0.99999944179E+02  0.99999999999E+02  0.10566000000E+00 0. -1.
         22   -1    0    0    0    0 -0.00000000000E+00 -0.00000000000E+00 -0.12585768931E+02  0.12585768931E+02  0.00000000000E+00 0.  1.
         13    1    1    2    0    0  0.15543360429E+02  0.77835499399E+01  0.15506340567E+02  0.23294580162E+02  0.10566000000E+00 0.  1.
        996    1    1    2    0    0 -0.15543360429E+02 -0.77835499399E+01  0.71907834681E+02  0.89291188768E+02  0.50000000000E+02 0.  0.
<mgrwt>
<rscale>  0 0.52935618E+02</rscale>
<asrwt>0</asrwt>
<pdfrwt beam="1">  1       13 0.10000000E+01 0.52935618E+02</pdfrwt>
<pdfrwt beam="2">  1       22 0.12585793E+00 0.52935618E+02</pdfrwt>
<totfact> 0.10006880E+00</totfact>
</mgrwt>
</event>
<event>
 4    1  0.2489082E+000  0.5153022E+02  0.7957747E-01  0.1437258E+00
         13   -1    0    0    0    0  0.00000000000E+00  0.00000000000E+00  0.99999944172E+02  0.99999999992E+02  0.10566000000E+00 0.  1.
         22   -1    0    0    0    0 -0.00000000000E+00 -0.00000000000E+00 -0.10245182844E+02  0.10245182844E+02  0.00000000000E+00 0.  1.
         13    1    1    2    0    0  0.10616682025E+02 -0.65306910762E+01  0.18621501294E+02  0.22408376506E+02  0.10566000000E+00 0. -1.
        996    1    1    2    0    0 -0.10616682025E+02  0.65306910762E+01  0.71133260034E+02  0.87836806330E+02  0.50000000000E+02 0.  0.
<mgrwt>
<rscale>  0 0.51530223E+02</rscale>
<asrwt>0</asrwt>
<pdfrwt beam="1">  1       13 0.10000000E+01 0.51530223E+02</pdfrwt>
<pdfrwt beam="2">  1       22 0.10245208E+00 0.51530223E+02</pdfrwt>
<totfact> 0.13594897E+00</totfact>
</mgrwt>
</event>
<event>
 4    1  0.2489082E+000  0.5115396E+02  0.7957747E-01  0.1439215E+00
         13   -1    0    0    0    0  0.00000000000E+00  0.00000000000E+00  0.99999944178E+02  0.99999999998E+02  0.10566000000E+00 0. -1.
         22   -1    0    0    0    0 -0.00000000000E+00 -0.00000000000E+00 -0.25321188837E+02  0.25321188837E+02  0.00000000000E+00 0.  1.
         13    1    1    2    0    0 -0.96907594872E+01  0.47767016631E+01 -0.17112818225E+02  0.20238265979E+02  0.10566000000E+00 0.  1.
        996    1    1    2    0    0  0.96907594872E+01 -0.47767016631E+01  0.91791573566E+02  0.10508292286E+03  0.50000000000E+02 0.  0.
<mgrwt>
<rscale>  0 0.51153961E+02</rscale>
<asrwt>0</asrwt>
<pdfrwt beam="1">  1       13 0.10000000E+01 0.51153961E+02</pdfrwt>
<pdfrwt beam="2">  1       22 0.25321210E+00 0.51153961E+02</pdfrwt>
<totfact> 0.28709938E-01</totfact>
</mgrwt>
</event>
<event>
 4    1  0.2489082E+000  0.5380805E+02  0.7957747E-01  0.1425821E+00
         13   -1    0    0    0    0  0.00000000000E+00  0.00000000000E+00  0.99999944183E+02  0.10000000000E+03  0.10566000000E+00 0.  1.
         22   -1    0    0    0    0 -0.00000000000E+00 -0.00000000000E+00 -0.16873736605E+02  0.16873736605E+02  0.00000000000E+00 0. -1.
         13    1    1    2    0    0 -0.43861120202E+01 -0.19392486333E+02  0.26390776617E+01  0.20056978829E+02  0.10566000000E+00 0. -1.
        996    1    1    2    0    0  0.43861120202E+01  0.19392486333E+02  0.80487129916E+02  0.96816757779E+02  0.50000000000E+02 0.  0.
<mgrwt>
<rscale>  0 0.53808052E+02</rscale>
<asrwt>0</asrwt>
<pdfrwt beam="1">  1       13 0.10000000E+01 0.53808052E+02</pdfrwt>
<pdfrwt beam="2">  1       22 0.16873760E+00 0.53808052E+02</pdfrwt>
<totfact> 0.61809555E-01</totfact>
</mgrwt>
</event>
<event>
 4    1  0.2489082E+000  0.5199633E+02  0.7957747E-01  0.1434862E+00
         13   -1    0    0    0    0  0.00000000000E+00  0.00000000000E+00  0.99999944179E+02  0.99999999999E+02  0.10566000000E+00 0.  1.
         22   -1    0    0    0    0 -0.00000000000E+00 -0.00000000000E+00 -0.12114992220E+02  0.12114992220E+02  0.00000000000E+00 0.  1.
         13    1    1    2    0    0  0.14261324725E+02  0.48318268625E+00  0.35705679353E+02  0.38451600104E+02  0.10566000000E+00 0. -1.
        996    1    1    2    0    0 -0.14261324725E+02 -0.48318268625E+00  0.52179272605E+02  0.73663392116E+02  0.50000000000E+02 0.  0.
<mgrwt>
<rscale>  0 0.51996335E+02</rscale>
<asrwt>0</asrwt>
<pdfrwt beam="1">  1       13 0.10000000E+01 0.51996335E+02</pdfrwt>
<pdfrwt beam="2">  1       22 0.12115017E+00 0.51996335E+02</pdfrwt>
<totfact> 0.10593158E+00</totfact>
</mgrwt>
</event>
<event>
 4    1  0.2489082E+000  0.5283393E+02  0.7957747E-01  0.1430629E+00
         13   -1    0    0    0    0  0.00000000000E+00  0.00000000000E+00  0.99999944182E+02  0.10000000000E+03  0.10566000000E+00 0. -1.
         22   -1    0    0    0    0 -0.00000000000E+00 -0.00000000000E+00 -0.16748260015E+02  0.16748260015E+02  0.00000000000E+00 0. -1.
         13    1    1    2    0    0  0.18537994572E+01 -0.16970197060E+02 -0.12194212527E+01  0.17114973354E+02  0.10566000000E+00 0.  1.
        996    1    1    2    0    0 -0.18537994572E+01  0.16970197060E+02  0.84471105419E+02  0.99633286664E+02  0.50000000000E+02 0.  0.
<mgrwt>
<rscale>  0 0.52833930E+02</rscale>
<asrwt>0</asrwt>
<pdfrwt beam="1">  1       13 0.10000000E+01 0.52833930E+02</pdfrwt>
<pdfrwt beam="2">  1       22 0.16748283E+00 0.52833930E+02</pdfrwt>
<totfact> 0.62504556E-01</totfact>
</mgrwt>
</event>
<event>
 4    1  0.2489082E+000  0.5224022E+02  0.7957747E-01  0.1433620E+00
         13   -1    0    0    0    0  0.00000000000E+00  0.00000000000E+00  0.99999944187E+02  0.10000000001E+03  0.10566000000E+00 0.  1.
         22   -1    0    0    0    0 -0.00000000000E+00 -0.00000000000E+00 -0.95460890176E+02  0.95460890176E+02  0.00000000000E+00 0. -1.
         13    1    1    2    0    0 -0.15134043993E+02 -0.33462290012E-01 -0.87947577890E+02  0.89240282541E+02  0.10566000000E+00 0. -1.
        996    1    1    2    0    0  0.15134043993E+02  0.33462290012E-01  0.92486631901E+02  0.10622060764E+03  0.50000000000E+02 0.  0.
<mgrwt>
<rscale>  0 0.52240218E+02</rscale>
<asrwt>0</asrwt>
<pdfrwt beam="1">  1       13 0.10000000E+01 0.52240218E+02</pdfrwt>
<pdfrwt beam="2">  1       22 0.95460891E+00 0.52240218E+02</pdfrwt>
<totfact> 0.37615559E-03</totfact>
</mgrwt>
</event>
<event>
 4    1  0.2489082E+000  0.5557801E+02  0.7957747E-01  0.1417385E+00
         13   -1    0    0    0    0  0.00000000000E+00  0.00000000000E+00  0.99999944186E+02  0.10000000001E+03  0.10566000000E+00 0. -1.
         22   -1    0    0    0    0 -0.00000000000E+00 -0.00000000000E+00 -0.20280548612E+02  0.20280548612E+02  0.00000000000E+00 0.  1.
         13    1    1    2    0    0  0.10581168789E+02  0.21839268349E+02  0.14836275334E+01  0.24313105306E+02  0.10566000000E+00 0.  1.
        996    1    1    2    0    0 -0.10581168789E+02 -0.21839268349E+02  0.78235768041E+02  0.95967443312E+02  0.50000000000E+02 0.  0.
<mgrwt>
<rscale>  0 0.55578006E+02</rscale>
<asrwt>0</asrwt>
<pdfrwt beam="1">  1       13 0.10000000E+01 0.55578006E+02</pdfrwt>
<pdfrwt beam="2">  1       22 0.20280571E+00 0.55578006E+02</pdfrwt>
<totfact> 0.44415388E-01</totfact>
</mgrwt>
</event>
<event>
 4    1  0.2489082E+000  0.5392295E+02  0.7957747E-01  0.1425262E+00
         13   -1    0    0    0    0  0.00000000000E+00  0.00000000000E+00  0.99999944177E+02  0.99999999997E+02  0.10566000000E+00 0.  1.
         22   -1    0    0    0    0 -0.00000000000E+00 -0.00000000000E+00 -0.18916348852E+02  0.18916348852E+02  0.00000000000E+00 0. -1.
         13    1    1    2    0    0  0.84576447588E+01 -0.18334455280E+02 -0.15438001874E+01  0.20250394770E+02  0.10566000000E+00 0. -1.
        996    1    1    2    0    0 -0.84576447588E+01  0.18334455280E+02  0.82627395512E+02  0.98665954079E+02  0.50000000000E+02 0.  0.
<mgrwt>
<rscale>  0 0.53922945E+02</rscale>
<asrwt>0</asrwt>
<pdfrwt beam="1">  1       13 0.10000000E+01 0.53922945E+02</pdfrwt>
<pdfrwt beam="2">  1       22 0.18916371E+00 0.53922945E+02</pdfrwt>
<totfact> 0.50392120E-01</totfact>
</mgrwt>
</event>
<event>
 4    1  0.2489082E+000  0.5138341E+02  0.7957747E-01  0.1438020E+00
         13   -1    0    0    0    0  0.00000000000E+00  0.00000000000E+00  0.99999944175E+02  0.99999999995E+02  0.10566000000E+00 0.  1.
         22   -1    0    0    0    0 -0.00000000000E+00 -0.00000000000E+00 -0.67309152801E+02  0.67309152801E+02  0.00000000000E+00 0. -1.
         13    1    1    2    0    0  0.67273236228E+01 -0.97466746385E+01 -0.60092185345E+02  0.61248154693E+02  0.10566000000E+00 0. -1.
        996    1    1    2    0    0 -0.67273236228E+01  0.97466746385E+01  0.92782976720E+02  0.10606099810E+03  0.50000000000E+02 0.  0.
<mgrwt>
<rscale>  0 0.51383407E+02</rscale>
<asrwt>0</asrwt>
<pdfrwt beam="1">  1       13 0.10000000E+01 0.51383407E+02</pdfrwt>
<pdfrwt beam="2">  1       22 0.67309162E+00 0.51383407E+02</pdfrwt>
<totfact> 0.85565850E-02</totfact>
</mgrwt>
</event>
<event>
 4    1  0.2489082E+000  0.5686992E+02  0.7957747E-01  0.1411457E+00
         13   -1    0    0    0    0  0.00000000000E+00  0.00000000000E+00  0.99999944191E+02  0.10000000001E+03  0.10566000000E+00 0. -1.
         22   -1    0    0    0    0 -0.00000000000E+00 -0.00000000000E+00 -0.17667478807E+02  0.17667478807E+02  0.00000000000E+00 0.  1.
         13    1    1    2    0    0 -0.24094897404E+02 -0.12394509405E+02  0.23928318150E+02  0.36149184193E+02  0.10566000000E+00 0.  1.
        996    1    1    2    0    0  0.24094897404E+02  0.12394509405E+02  0.58404147235E+02  0.81518294625E+02  0.50000000000E+02 0.  0.
<mgrwt>
<rscale>  0 0.56869921E+02</rscale>
<asrwt>0</asrwt>
<pdfrwt beam="1">  1       13 0.10000000E+01 0.56869921E+02</pdfrwt>
<pdfrwt beam="2">  1       22 0.17667502E+00 0.56869921E+02</pdfrwt>
<totfact> 0.57304968E-01</totfact>
</mgrwt>
</event>
<event>
 4    1  0.2489082E+000  0.5115786E+02  0.7957747E-01  0.1439195E+00
         13   -1    0    0    0    0  0.00000000000E+00  0.00000000000E+00  0.99999944177E+02  0.99999999997E+02  0.10566000000E+00 0.  1.
         22   -1    0    0    0    0 -0.00000000000E+00 -0.00000000000E+00 -0.12606454373E+02  0.12606454373E+02  0.00000000000E+00 0. -1.
         13    1    1    2    0    0 -0.12386874566E+01  0.10751382857E+02 -0.58131162020E+00  0.10838619247E+02  0.10566000000E+00 0. -1.
        996    1    1    2    0    0  0.12386874566E+01 -0.10751382857E+02  0.87974801424E+02  0.10176783512E+03  0.50000000000E+02 0.  0.
<mgrwt>
<rscale>  0 0.51157859E+02</rscale>
<asrwt>0</asrwt>
<pdfrwt beam="1">  1       13 0.10000000E+01 0.51157859E+02</pdfrwt>
<pdfrwt beam="2">  1       22 0.12606479E+00 0.51157859E+02</pdfrwt>
<totfact> 0.99425159E-01</totfact>
</mgrwt>
</event>
<event>
 4    1  0.2489082E+000  0.5149733E+02  0.7957747E-01  0.1437429E+00
         13   -1    0    0    0    0  0.00000000000E+00  0.00000000000E+00  0.99999944176E+02  0.99999999996E+02  0.10566000000E+00 0.  1.
         22   -1    0    0    0    0 -0.00000000000E+00 -0.00000000000E+00 -0.11511670038E+02  0.11511670038E+02  0.00000000000E+00 0.  1.
         13    1    1    2    0    0 -0.17135833719E+01 -0.12208138429E+02  0.47622739169E+01  0.13216104901E+02  0.10566000000E+00 0. -1.
        996    1    1    2    0    0  0.17135833719E+01  0.12208138429E+02  0.83726000221E+02  0.98295565133E+02  0.50000000000E+02 0.  0.
<mgrwt>
<rscale>  0 0.51497330E+02</rscale>
<asrwt>0</asrwt>
<pdfrwt beam="1">  1       13 0.10000000E+01 0.51497330E+02</pdfrwt>
<pdfrwt beam="2">  1       22 0.11511695E+00 0.51497330E+02</pdfrwt>
<totfact> 0.11436924E+00</totfact>
</mgrwt>
</event>
<event>
 4    1  0.2489082E+000  0.5495212E+02  0.7957747E-01  0.1420325E+00
         13   -1    0    0    0    0  0.00000000000E+00  0.00000000000E+00  0.99999944175E+02  0.99999999995E+02  0.10566000000E+00 0. -1.
         22   -1    0    0    0    0 -0.00000000000E+00 -0.00000000000E+00 -0.40510852059E+02  0.40510852059E+02  0.00000000000E+00 0.  1.
         13    1    1    2    0    0 -0.20454128872E+02 -0.10067989189E+02 -0.28668779995E+02  0.36628484881E+02  0.10566000000E+00 0.  1.
        996    1    1    2    0    0  0.20454128872E+02  0.10067989189E+02  0.88157872111E+02  0.10388236717E+03  0.50000000000E+02 0.  0.
<mgrwt>
<rscale>  0 0.54952123E+02</rscale>
<asrwt>0</asrwt>
<pdfrwt beam="1">  1       13 0.10000000E+01 0.54952123E+02</pdfrwt>
<pdfrwt beam="2">  1       22 0.40510869E+00 0.54952123E+02</pdfrwt>
<totfact> 0.12097334E-01</totfact>
</mgrwt>
</event>
<event>
 4    1  0.2489082E+000  0.5110139E+02  0.7957747E-01  0.1439490E+00
         13   -1    0    0    0    0  0.00000000000E+00  0.00000000000E+00  0.99999944186E+02  0.10000000001E+03  0.10566000000E+00 0.  1.
         22   -1    0    0    0    0 -0.00000000000E+00 -0.00000000000E+00 -0.10080352101E+02  0.10080352101E+02  0.00000000000E+00 0.  1.
         13    1    1    2    0    0 -0.87465982576E+01  0.59032684590E+01  0.69479199184E+01  0.12634726543E+02  0.10566000000E+00 0. -1.
        996    1    1    2    0    0  0.87465982576E+01 -0.59032684590E+01  0.82971672166E+02  0.97445625564E+02  0.50000000000E+02 0.  0.
<mgrwt>
<rscale>  0 0.51101385E+02</rscale>
<asrwt>0</asrwt>
<pdfrwt beam="1">  1       13 0.10000000E+01 0.51101385E+02</pdfrwt>
<pdfrwt beam="2">  1       22 0.10080377E+00 0.51101385E+02</pdfrwt>
<totfact> 0.13904990E+00</totfact>
</mgrwt>
</event>
<event>
 4    1  0.2489082E+000  0.5491181E+02  0.7957747E-01  0.1420516E+00
         13   -1    0    0    0    0  0.00000000000E+00  0.00000000000E+00  0.99999944179E+02  0.99999999999E+02  0.10566000000E+00 0. -1.
         22   -1    0    0    0    0 -0.00000000000E+00 -0.00000000000E+00 -0.32667030375E+02  0.32667030375E+02  0.00000000000E+00 0.  1.
         13    1    1    2    0    0 -0.15495168687E+02 -0.16589345120E+02 -0.19501462596E+02  0.29926991689E+02  0.10566000000E+00 0.  1.
        996    1    1    2    0    0  0.15495168687E+02  0.16589345120E+02  0.86834376400E+02  0.10274003868E+03  0.50000000000E+02 0.  0.
<mgrwt>
<rscale>  0 0.54911808E+02</rscale>
<asrwt>0</asrwt>
<pdfrwt beam="1">  1       13 0.10000000E+01 0.54911808E+02</pdfrwt>
<pdfrwt beam="2">  1       22 0.32667049E+00 0.54911808E+02</pdfrwt>
<totfact> 0.17792769E-01</totfact>
</mgrwt>
</event>
<event>
 4    1  0.2489082E+000  0.5206585E+02  0.7957747E-01  0.1434507E+00
         13   -1    0    0    0    0  0.00000000000E+00  0.00000000000E+00  0.99999944179E+02  0.99999999999E+02  0.10566000000E+00 0.  1.
         22   -1    0    0    0    0 -0.00000000000E+00 -0.00000000000E+00 -0.12993084523E+02  0.12993084523E+02  0.00000000000E+00 0.  1.
         13    1    1    2    0    0  0.14399636768E+02 -0.18716189588E+01  0.40925657842E+01  0.15086840468E+02  0.10566000000E+00 0. -1.
        996    1    1    2    0    0 -0.14399636768E+02  0.18716189588E+01  0.82914293871E+02  0.97906244054E+02  0.50000000000E+02 0.  0.
<mgrwt>
<rscale>  0 0.52065848E+02</rscale>
<asrwt>0</asrwt>
<pdfrwt beam="1">  1       13 0.10000000E+01 0.52065848E+02</pdfrwt>
<pdfrwt beam="2">  1       22 0.12993109E+00 0.52065848E+02</pdfrwt>
<totfact> 0.95019611E-01</totfact>
</mgrwt>
</event>
<event>
 4    1  0.2489082E+000  0.5181329E+02  0.7957747E-01  0.1435800E+00
         13   -1    0    0    0    0  0.00000000000E+00  0.00000000000E+00  0.99999944181E+02  0.10000000000E+03  0.10566000000E+00 0. -1.
         22   -1    0    0    0    0 -0.00000000000E+00 -0.00000000000E+00 -0.14626212207E+02  0.14626212207E+02  0.00000000000E+00 0.  1.
         13    1    1    2    0    0 -0.39989696902E+01  0.12985577650E+02 -0.12962337826E+01  0.13649482465E+02  0.10566000000E+00 0.  1.
        996    1    1    2    0    0  0.39989696902E+01 -0.12985577650E+02  0.86669965756E+02  0.10097672974E+03  0.50000000000E+02 0.  0.
<mgrwt>
<rscale>  0 0.51813290E+02</rscale>
<asrwt>0</asrwt>
<pdfrwt beam="1">  1       13 0.10000000E+01 0.51813290E+02</pdfrwt>
<pdfrwt beam="2">  1       22 0.14626236E+00 0.51813290E+02</pdfrwt>
<totfact> 0.78476664E-01</totfact>
</mgrwt>
</event>
<event>
 4    1  0.2489082E+000  0.5131507E+02  0.7957747E-01  0.1438375E+00
         13   -1    0    0    0    0  0.00000000000E+00  0.00000000000E+00  0.99999944175E+02  0.99999999996E+02  0.10566000000E+00 0. -1.
         22   -1    0    0    0    0 -0.00000000000E+00 -0.00000000000E+00 -0.11802794707E+02  0.11802794707E+02  0.00000000000E+00 0.  1.
         13    1    1    2    0    0  0.45591282172E+01  0.10604284749E+02  0.23380598408E+01  0.11777698968E+02  0.10566000000E+00 0.  1.
        996    1    1    2    0    0 -0.45591282172E+01 -0.10604284749E+02  0.85859089627E+02  0.10002509573E+03  0.50000000000E+02 0.  0.
<mgrwt>
<rscale>  0 0.51315071E+02</rscale>
<asrwt>0</asrwt>
<pdfrwt beam="1">  1       13 0.10000000E+01 0.51315071E+02</pdfrwt>
<pdfrwt beam="2">  1       22 0.11802819E+00 0.51315071E+02</pdfrwt>
<totfact> 0.11007802E+00</totfact>
</mgrwt>
</event>
<event>
 4    1  0.2489082E+000  0.5613747E+02  0.7957747E-01  0.1414795E+00
         13   -1    0    0    0    0  0.00000000000E+00  0.00000000000E+00  0.99999944173E+02  0.99999999993E+02  0.10566000000E+00 0.  1.
         22   -1    0    0    0    0 -0.00000000000E+00 -0.00000000000E+00 -0.19636447764E+02  0.19636447764E+02  0.00000000000E+00 0. -1.
         13    1    1    2    0    0 -0.22641957183E+02  0.11779537426E+02  0.55778729957E+01  0.26125458048E+02  0.10566000000E+00 0. -1.
        996    1    1    2    0    0  0.22641957183E+02 -0.11779537426E+02  0.74785623413E+02  0.93510989709E+02  0.50000000000E+02 0.  0.
<mgrwt>
<rscale>  0 0.56137472E+02</rscale>
<asrwt>0</asrwt>
<pdfrwt beam="1">  1       13 0.10000000E+01 0.56137472E+02</pdfrwt>
<pdfrwt beam="2">  1       22 0.19636470E+00 0.56137472E+02</pdfrwt>
<totfact> 0.47218347E-01</totfact>
</mgrwt>
</event>
<event>
 4    1  0.2489082E+000  0.5124374E+02  0.7957747E-01  0.1438746E+00
         13   -1    0    0    0    0  0.00000000000E+00  0.00000000000E+00  0.99999944178E+02  0.99999999998E+02  0.10566000000E+00 0. -1.
         22   -1    0    0    0    0 -0.00000000000E+00 -0.00000000000E+00 -0.12241830782E+02  0.12241830782E+02  0.00000000000E+00 0. -1.
         13    1    1    2    0    0  0.82692416260E+01  0.75855209668E+01  0.72741334130E+00  0.11245478185E+02  0.10566000000E+00 0.  1.
        996    1    1    2    0    0 -0.82692416260E+01 -0.75855209668E+01  0.87030700054E+02  0.10099635259E+03  0.50000000000E+02 0.  0.
<mgrwt>
<rscale>  0 0.51243736E+02</rscale>
<asrwt>0</asrwt>
<pdfrwt beam="1">  1       13 0.10000000E+01 0.51243736E+02</pdfrwt>
<pdfrwt beam="2">  1       22 0.12241855E+00 0.51243736E+02</pdfrwt>
<totfact> 0.10407137E+00</totfact>
</mgrwt>
</event>
<event>
 4    1  0.2489082E+000  0.5305317E+02  0.7957747E-01  0.1429536E+00
         13   -1    0    0    0    0  0.00000000000E+00  0.00000000000E+00  0.99999944178E+02  0.99999999998E+02  0.10566000000E+00 0. -1.
         22   -1    0    0    0    0 -0.00000000000E+00 -0.00000000000E+00 -0.37879632159E+02  0.37879632159E+02  0.00000000000E+00 0.  1.
         13    1    1    2    0    0  0.16483944060E+02  0.65512134179E+01 -0.28091933050E+02  0.33223586133E+02  0.10566000000E+00 0.  1.
        996    1    1    2    0    0 -0.16483944060E+02 -0.65512134179E+01  0.90212245069E+02  0.10465604602E+03  0.50000000000E+02 0.  0.
<mgrwt>
<rscale>  0 0.53053170E+02</rscale>
<asrwt>0</asrwt>
<pdfrwt beam="1">  1       13 0.10000000E+01 0.53053170E+02</pdfrwt>
<pdfrwt beam="2">  1       22 0.37879650E+00 0.53053170E+02</pdfrwt>
<totfact> 0.13684971E-01</totfact>
</mgrwt>
</event>
<event>
 4    1  0.2489082E+000  0.5252442E+02  0.7957747E-01  0.1432182E+00
         13   -1    0    0    0    0  0.00000000000E+00  0.00000000000E+00  0.99999944179E+02  0.99999999999E+02  0.10566000000E+00 0. -1.
         22   -1    0    0    0    0 -0.00000000000E+00 -0.00000000000E+00 -0.14736685286E+02  0.14736685286E+02  0.00000000000E+00 0.  1.
         13    1    1    2    0    0 -0.12043674870E+02  0.10666057812E+02  0.18912684157E+01  0.16198856560E+02  0.10566000000E+00 0.  1.
        996    1    1    2    0    0  0.12043674870E+02 -0.10666057812E+02  0.83371990477E+02  0.98537828725E+02  0.50000000000E+02 0.  0.
<mgrwt>
<rscale>  0 0.52524422E+02</rscale>
<asrwt>0</asrwt>
<pdfrwt beam="1">  1       13 0.10000000E+01 0.52524422E+02</pdfrwt>
<pdfrwt beam="2">  1       22 0.14736709E+00 0.52524422E+02</pdfrwt>
<totfact> 0.77621078E-01</totfact>
</mgrwt>
</event>
<event>
 4    1  0.2489082E+000  0.5421259E+02  0.7957747E-01  0.1423860E+00
         13   -1    0    0    0    0  0.00000000000E+00  0.00000000000E+00  0.99999944179E+02  0.10000000000E+03  0.10566000000E+00 0. -1.
         22   -1    0    0    0    0 -0.00000000000E+00 -0.00000000000E+00 -0.16480087033E+02  0.16480087033E+02  0.00000000000E+00 0.  1.
         13    1    1    2    0    0  0.38127686319E+01 -0.20602607454E+02  0.58364787143E+01  0.21750408878E+02  0.10566000000E+00 0.  1.
        996    1    1    2    0    0 -0.38127686319E+01  0.20602607454E+02  0.77683378432E+02  0.94729678154E+02  0.50000000000E+02 0.  0.
<mgrwt>
<rscale>  0 0.54212587E+02</rscale>
<asrwt>0</asrwt>
<pdfrwt beam="1">  1       13 0.10000000E+01 0.54212587E+02</pdfrwt>
<pdfrwt beam="2">  1       22 0.16480110E+00 0.54212587E+02</pdfrwt>
<totfact> 0.64450388E-01</totfact>
</mgrwt>
</event>
<event>
 4    1  0.2489082E+000  0.5224328E+02  0.7957747E-01  0.1433604E+00
         13   -1    0    0    0    0  0.00000000000E+00  0.00000000000E+00  0.99999944170E+02  0.99999999990E+02  0.10566000000E+00 0. -1.
         22   -1    0    0    0    0 -0.00000000000E+00 -0.00000000000E+00 -0.17098253583E+02  0.17098253583E+02  0.00000000000E+00 0. -1.
         13    1    1    2    0    0 -0.10888791594E+02  0.10525887658E+02 -0.40335491181E+01  0.15672931312E+02  0.10566000000E+00 0.  1.
        996    1    1    2    0    0  0.10888791594E+02 -0.10525887658E+02  0.86935239705E+02  0.10142532226E+03  0.50000000000E+02 0.  0.
<mgrwt>
<rscale>  0 0.52243278E+02</rscale>
<asrwt>0</asrwt>
<pdfrwt beam="1">  1       13 0.10000000E+01 0.52243278E+02</pdfrwt>
<pdfrwt beam="2">  1       22 0.17098277E+00 0.52243278E+02</pdfrwt>
<totfact> 0.60215149E-01</totfact>
</mgrwt>
</event>
<event>
 4    1  0.2489082E+000  0.5128265E+02  0.7957747E-01  0.1438544E+00
         13   -1    0    0    0    0  0.00000000000E+00  0.00000000000E+00  0.99999944183E+02  0.10000000000E+03  0.10566000000E+00 0. -1.
         22   -1    0    0    0    0 -0.00000000000E+00 -0.00000000000E+00 -0.98222916556E+01  0.98222916556E+01  0.00000000000E+00 0. -1.
         13    1    1    2    0    0 -0.10858365845E+02 -0.34649312136E+01  0.16509427138E+02  0.20061959166E+02  0.10566000000E+00 0.  1.
        996    1    1    2    0    0  0.10858365845E+02  0.34649312136E+01  0.73668225390E+02  0.89760332493E+02  0.50000000000E+02 0.  0.
<mgrwt>
<rscale>  0 0.51282647E+02</rscale>
<asrwt>0</asrwt>
<pdfrwt beam="1">  1       13 0.10000000E+01 0.51282647E+02</pdfrwt>
<pdfrwt beam="2">  1       22 0.98223168E-01 0.51282647E+02</pdfrwt>
<totfact> 0.14442762E+00</totfact>
</mgrwt>
</event>
<event>
 4    1  0.2489082E+000  0.5676891E+02  0.7957747E-01  0.1411914E+00
         13   -1    0    0    0    0  0.00000000000E+00  0.00000000000E+00  0.99999944180E+02  0.10000000000E+03  0.10566000000E+00 0.  1.
         22   -1    0    0    0    0 -0.00000000000E+00 -0.00000000000E+00 -0.61177871864E+02  0.61177871864E+02  0.00000000000E+00 0. -1.
         13    1    1    2    0    0 -0.25927027388E+02 -0.71061873852E+01 -0.49416211008E+02  0.56255503933E+02  0.10566000000E+00 0. -1.
        996    1    1    2    0    0  0.25927027388E+02  0.71061873852E+01  0.88238283324E+02  0.10492236793E+03  0.50000000000E+02 0.  0.
<mgrwt>
<rscale>  0 0.56768906E+02</rscale>
<asrwt>0</asrwt>
<pdfrwt beam="1">  1       13 0.10000000E+01 0.56768906E+02</pdfrwt>
<pdfrwt beam="2">  1       22 0.61177883E+00 0.56768906E+02</pdfrwt>
<totfact> 0.68448433E-02</totfact>
</mgrwt>
</event>
<event>
 4    1  0.2489082E+000  0.5438000E+02  0.7957747E-01  0.1423054E+00
         13   -1    0    0    0    0  0.00000000000E+00  0.00000000000E+00  0.99999944182E+02  0.10000000000E+03  0.10566000000E+00 0. -1.
         22   -1    0    0    0    0 -0.00000000000E+00 -0.00000000000E+00 -0.26290881741E+02  0.26290881741E+02  0.00000000000E+00 0.  1.
         13    1    1    2    0    0 -0.96850021144E+01 -0.19062669675E+02 -0.12199504833E+02  0.24617549092E+02  0.10566000000E+00 0.  1.
        996    1    1    2    0    0  0.96850021144E+01  0.19062669675E+02  0.85908567275E+02  0.10167333265E+03  0.50000000000E+02 0.  0.
<mgrwt>
<rscale>  0 0.54380002E+02</rscale>
<asrwt>0</asrwt>
<pdfrwt beam="1">  1       13 0.10000000E+01 0.54380002E+02</pdfrwt>
<pdfrwt beam="2">  1       22 0.26290902E+00 0.54380002E+02</pdfrwt>
<totfact> 0.26793362E-01</totfact>
</mgrwt>
</event>
<event>
 4    1  0.2489082E+000  0.5101454E+02  0.7957747E-01  0.1439945E+00
         13   -1    0    0    0    0  0.00000000000E+00  0.00000000000E+00  0.99999944172E+02  0.99999999992E+02  0.10566000000E+00 0.  1.
         22   -1    0    0    0    0 -0.00000000000E+00 -0.00000000000E+00 -0.19249150865E+02  0.19249150865E+02  0.00000000000E+00 0. -1.
         13    1    1    2    0    0 -0.32936891683E+01  0.95726247793E+01 -0.10575661963E+02  0.14640332082E+02  0.10566000000E+00 0. -1.
        996    1    1    2    0    0  0.32936891683E+01 -0.95726247793E+01  0.91326455269E+02  0.10460881878E+03  0.50000000000E+02 0.  0.
<mgrwt>
<rscale>  0 0.51014542E+02</rscale>
<asrwt>0</asrwt>
<pdfrwt beam="1">  1       13 0.10000000E+01 0.51014542E+02</pdfrwt>
<pdfrwt beam="2">  1       22 0.19249173E+00 0.51014542E+02</pdfrwt>
<totfact> 0.48547929E-01</totfact>
</mgrwt>
</event>
<event>
 4    1  0.2489082E+000  0.5287294E+02  0.7957747E-01  0.1430434E+00
         13   -1    0    0    0    0  0.00000000000E+00  0.00000000000E+00  0.99999944183E+02  0.10000000000E+03  0.10566000000E+00 0. -1.
         22   -1    0    0    0    0 -0.00000000000E+00 -0.00000000000E+00 -0.54374447910E+02  0.54374447910E+02  0.00000000000E+00 0.  1.
         13    1    1    2    0    0 -0.16694717313E+02 -0.41028954858E+01 -0.45711649284E+02  0.48837622606E+02  0.10566000000E+00 0.  1.
        996    1    1    2    0    0  0.16694717313E+02  0.41028954858E+01  0.91337145556E+02  0.10553682531E+03  0.50000000000E+02 0.  0.
<mgrwt>
<rscale>  0 0.52872936E+02</rscale>
<asrwt>0</asrwt>
<pdfrwt beam="1">  1       13 0.10000000E+01 0.52872936E+02</pdfrwt>
<pdfrwt beam="2">  1       22 0.54374461E+00 0.52872936E+02</pdfrwt>
<totfact> 0.59990308E-02</totfact>
</mgrwt>
</event>
<event>
 4    1  0.2489082E+000  0.5559601E+02  0.7957747E-01  0.1417301E+00
         13   -1    0    0    0    0  0.00000000000E+00  0.00000000000E+00  0.99999944178E+02  0.99999999998E+02  0.10566000000E+00 0.  1.
         22   -1    0    0    0    0 -0.00000000000E+00 -0.00000000000E+00 -0.55809967097E+02  0.55809967097E+02  0.00000000000E+00 0. -1.
         13    1    1    2    0    0 -0.94913902888E+01  0.22379220314E+02 -0.44748190984E+02  0.50924726331E+02  0.10566000000E+00 0. -1.
        996    1    1    2    0    0  0.94913902888E+01 -0.22379220314E+02  0.88938168065E+02  0.10488524076E+03  0.50000000000E+02 0.  0.
<mgrwt>
<rscale>  0 0.55596007E+02</rscale>
<asrwt>0</asrwt>
<pdfrwt beam="1">  1       13 0.10000000E+01 0.55596007E+02</pdfrwt>
<pdfrwt beam="2">  1       22 0.55809979E+00 0.55596007E+02</pdfrwt>
<totfact> 0.58661691E-02</totfact>
</mgrwt>
</event>
<event>
 4    1  0.2489082E+000  0.5137762E+02  0.7957747E-01  0.1438050E+00
         13   -1    0    0    0    0  0.00000000000E+00  0.00000000000E+00  0.99999944178E+02  0.99999999998E+02  0.10566000000E+00 0.  1.
         22   -1    0    0    0    0 -0.00000000000E+00 -0.00000000000E+00 -0.15423541383E+02  0.15423541383E+02  0.00000000000E+00 0.  1.
         13    1    1    2    0    0  0.11751833660E+02 -0.12465822416E+01 -0.44560175309E+01  0.12630392628E+02  0.10566000000E+00 0. -1.
        996    1    1    2    0    0 -0.11751833660E+02  0.12465822416E+01  0.89032420325E+02  0.10279314875E+03  0.50000000000E+02 0.  0.
<mgrwt>
<rscale>  0 0.51377617E+02</rscale>
<asrwt>0</asrwt>
<pdfrwt beam="1">  1       13 0.10000000E+01 0.51377617E+02</pdfrwt>
<pdfrwt beam="2">  1       22 0.15423565E+00 0.51377617E+02</pdfrwt>
<totfact> 0.71771793E-01</totfact>
</mgrwt>
</event>
<event>
 4    1  0.2489082E+000  0.5764880E+02  0.7957747E-01  0.1407972E+00
         13   -1    0    0    0    0  0.00000000000E+00  0.00000000000E+00  0.99999944177E+02  0.99999999997E+02  0.10566000000E+00 0. -1.
         22   -1    0    0    0    0 -0.00000000000E+00 -0.00000000000E+00 -0.28053059057E+02  0.28053059057E+02  0.00000000000E+00 0.  1.
         13    1    1    2    0    0  0.26970017760E+02  0.97980463630E+01 -0.77206571712E+01  0.29715371135E+02  0.10566000000E+00 0.  1.
        996    1    1    2    0    0 -0.26970017760E+02 -0.97980463630E+01  0.79667542291E+02  0.98337687919E+02  0.50000000000E+02 0.  0.
<mgrwt>
<rscale>  0 0.57648795E+02</rscale>
<asrwt>0</asrwt>
<pdfrwt beam="1">  1       13 0.10000000E+01 0.57648795E+02</pdfrwt>
<pdfrwt beam="2">  1       22 0.28053079E+00 0.57648795E+02</pdfrwt>
<totfact> 0.23703875E-01</totfact>
</mgrwt>
</event>
<event>
 4    1  0.2489082E+000  0.5206351E+02  0.7957747E-01  0.1434519E+00
         13   -1    0    0    0    0  0.00000000000E+00  0.00000000000E+00  0.99999944175E+02  0.99999999995E+02  0.10566000000E+00 0.  1.
         22   -1    0    0    0    0 -0.00000000000E+00 -0.00000000000E+00 -0.20798963103E+02  0.20798963103E+02  0.00000000000E+00 0. -1.
         13    1    1    2    0    0 -0.11732151145E+01  0.14464893525E+02 -0.99239601826E+01  0.17581402906E+02  0.10566000000E+00 0. -1.
        996    1    1    2    0    0  0.11732151145E+01 -0.14464893525E+02  0.89124941254E+02  0.10321756019E+03  0.50000000000E+02 0.  0.
<mgrwt>
<rscale>  0 0.52063515E+02</rscale>
<asrwt>0</asrwt>
<pdfrwt beam="1">  1       13 0.10000000E+01 0.52063515E+02</pdfrwt>
<pdfrwt beam="2">  1       22 0.20798985E+00 0.52063515E+02</pdfrwt>
<totfact> 0.42099158E-01</totfact>
</mgrwt>
</event>
<event>
 4    1  0.2489082E+000  0.5882540E+02  0.7957747E-01  0.1402828E+00
         13   -1    0    0    0    0  0.00000000000E+00  0.00000000000E+00  0.99999944179E+02  0.99999999999E+02  0.10566000000E+00 0.  1.
         22   -1    0    0    0    0 -0.00000000000E+00 -0.00000000000E+00 -0.21599714003E+02  0.21599714003E+02  0.00000000000E+00 0.  1.
         13    1    1    2    0    0  0.22473108113E+02  0.21339800411E+02  0.12919363411E+02  0.33576015023E+02  0.10566000000E+00 0. -1.
        996    1    1    2    0    0 -0.22473108113E+02 -0.21339800411E+02  0.65480866765E+02  0.88023698980E+02  0.50000000000E+02 0.  0.
<mgrwt>
<rscale>  0 0.58825400E+02</rscale>
<asrwt>0</asrwt>
<pdfrwt beam="1">  1       13 0.10000000E+01 0.58825400E+02</pdfrwt>
<pdfrwt beam="2">  1       22 0.21599736E+00 0.58825400E+02</pdfrwt>
<totfact> 0.39609824E-01</totfact>
</mgrwt>
</event>
<event>
 4    1  0.2489082E+000  0.5309471E+02  0.7957747E-01  0.1429330E+00
         13   -1    0    0    0    0  0.00000000000E+00  0.00000000000E+00  0.99999944183E+02  0.10000000000E+03  0.10566000000E+00 0.  1.
         22   -1    0    0    0    0 -0.00000000000E+00 -0.00000000000E+00 -0.23148201104E+02  0.23148201104E+02  0.00000000000E+00 0. -1.
         13    1    1    2    0    0  0.93592956847E+01 -0.15213533986E+02 -0.10651180066E+02  0.20796798621E+02  0.10566000000E+00 0. -1.
        996    1    1    2    0    0 -0.93592956847E+01  0.15213533986E+02  0.87502923144E+02  0.10235140249E+03  0.50000000000E+02 0.  0.
<mgrwt>
<rscale>  0 0.53094708E+02</rscale>
<asrwt>0</asrwt>
<pdfrwt beam="1">  1       13 0.10000000E+01 0.53094708E+02</pdfrwt>
<pdfrwt beam="2">  1       22 0.23148223E+00 0.53094708E+02</pdfrwt>
<totfact> 0.34336686E-01</totfact>
</mgrwt>
</event>
<event>
 4    1  0.2489082E+000  0.5420592E+02  0.7957747E-01  0.1423892E+00
         13   -1    0    0    0    0  0.00000000000E+00  0.00000000000E+00  0.99999944177E+02  0.99999999997E+02  0.10566000000E+00 0. -1.
         22   -1    0    0    0    0 -0.00000000000E+00 -0.00000000000E+00 -0.14299635333E+02  0.14299635333E+02  0.00000000000E+00 0. -1.
         13    1    1    2    0    0  0.17481006553E+02 -0.11519369022E+02  0.29944964828E+02  0.36537563347E+02  0.10566000000E+00 0.  1.
        996    1    1    2    0    0 -0.17481006553E+02  0.11519369022E+02  0.55755344016E+02  0.77762071983E+02  0.50000000000E+02 0.  0.
<mgrwt>
<rscale>  0 0.54205917E+02</rscale>
<asrwt>0</asrwt>
<pdfrwt beam="1">  1       13 0.10000000E+01 0.54205917E+02</pdfrwt>
<pdfrwt beam="2">  1       22 0.14299659E+00 0.54205917E+02</pdfrwt>
<totfact> 0.81838118E-01</totfact>
</mgrwt>
</event>
<event>
 4    1  0.2489082E+000  0.5134584E+02  0.7957747E-01  0.1438215E+00
         13   -1    0    0    0    0  0.00000000000E+00  0.00000000000E+00  0.99999944180E+02  0.10000000000E+03  0.10566000000E+00 0. -1.
         22   -1    0    0    0    0 -0.00000000000E+00 -0.00000000000E+00 -0.11112136352E+02  0.11112136352E+02  0.00000000000E+00 0. -1.
         13    1    1    2    0    0 -0.81227094094E+01 -0.83914947506E+01  0.34008358815E+02  0.35957964703E+02  0.10566000000E+00 0.  1.
        996    1    1    2    0    0  0.81227094094E+01  0.83914947506E+01  0.54879449013E+02  0.75154171649E+02  0.50000000000E+02 0.  0.
<mgrwt>
<rscale>  0 0.51345843E+02</rscale>
<asrwt>0</asrwt>
<pdfrwt beam="1">  1       13 0.10000000E+01 0.51345843E+02</pdfrwt>
<pdfrwt beam="2">  1       22 0.11112161E+00 0.51345843E+02</pdfrwt>
<totfact> 0.12055086E+00</totfact>
</mgrwt>
</event>
<event>
 4    1  0.2489082E+000  0.5492003E+02  0.7957747E-01  0.1420477E+00
         13   -1    0    0    0    0  0.00000000000E+00  0.00000000000E+00  0.99999944182E+02  0.10000000000E+03  0.10566000000E+00 0. -1.
         22   -1    0    0    0    0 -0.00000000000E+00 -0.00000000000E+00 -0.35680372033E+02  0.35680372033E+02  0.00000000000E+00 0.  1.
         13    1    1    2    0    0  0.20594581703E+02  0.95954752079E+01 -0.23125506529E+02  0.32419286794E+02  0.10566000000E+00 0.  1.
        996    1    1    2    0    0 -0.20594581703E+02 -0.95954752079E+01  0.87445078678E+02  0.10326108524E+03  0.50000000000E+02 0.  0.
<mgrwt>
<rscale>  0 0.54920032E+02</rscale>
<asrwt>0</asrwt>
<pdfrwt beam="1">  1       13 0.10000000E+01 0.54920032E+02</pdfrwt>
<pdfrwt beam="2">  1       22 0.35680390E+00 0.54920032E+02</pdfrwt>
<totfact> 0.15238813E-01</totfact>
</mgrwt>
</event>
<event>
 4    1  0.2489082E+000  0.5105265E+02  0.7957747E-01  0.1439745E+00
         13   -1    0    0    0    0  0.00000000000E+00  0.00000000000E+00  0.99999944183E+02  0.10000000000E+03  0.10566000000E+00 0. -1.
         22   -1    0    0    0    0 -0.00000000000E+00 -0.00000000000E+00 -0.12926323609E+02  0.12926323609E+02  0.00000000000E+00 0. -1.
         13    1    1    2    0    0 -0.38998122787E+01 -0.95480344034E+01 -0.17640991724E+01  0.10464067407E+02  0.10566000000E+00 0.  1.
        996    1    1    2    0    0  0.38998122787E+01  0.95480344034E+01  0.88837719747E+02  0.10246225620E+03  0.50000000000E+02 0.  0.
<mgrwt>
<rscale>  0 0.51052654E+02</rscale>
<asrwt>0</asrwt>
<pdfrwt beam="1">  1       13 0.10000000E+01 0.51052654E+02</pdfrwt>
<pdfrwt beam="2">  1       22 0.12926348E+00 0.51052654E+02</pdfrwt>
<totfact> 0.95580775E-01</totfact>
</mgrwt>
</event>
<event>
 4    1  0.2489082E+000  0.5317802E+02  0.7957747E-01  0.1428917E+00
         13   -1    0    0    0    0  0.00000000000E+00  0.00000000000E+00  0.99999944180E+02  0.10000000000E+03  0.10566000000E+00 0.  1.
         22   -1    0    0    0    0 -0.00000000000E+00 -0.00000000000E+00 -0.12856100449E+02  0.12856100449E+02  0.00000000000E+00 0.  1.
         13    1    1    2    0    0 -0.36169660172E+01 -0.17743148330E+02  0.17041998638E+02  0.24866496284E+02  0.10566000000E+00 0. -1.
        996    1    1    2    0    0  0.36169660172E+01  0.17743148330E+02  0.70101845092E+02  0.87989604165E+02  0.50000000000E+02 0.  0.
<mgrwt>
<rscale>  0 0.53178019E+02</rscale>
<asrwt>0</asrwt>
<pdfrwt beam="1">  1       13 0.10000000E+01 0.53178019E+02</pdfrwt>
<pdfrwt beam="2">  1       22 0.12856125E+00 0.53178019E+02</pdfrwt>
<totfact> 0.96847307E-01</totfact>
</mgrwt>
</event>
<event>
 4    1  0.2489082E+000  0.5212449E+02  0.7957747E-01  0.1434208E+00
         13   -1    0    0    0    0  0.00000000000E+00  0.00000000000E+00  0.99999944180E+02  0.10000000000E+03  0.10566000000E+00 0. -1.
         22   -1    0    0    0    0 -0.00000000000E+00 -0.00000000000E+00 -0.23086123040E+02  0.23086123040E+02  0.00000000000E+00 0.  1.
         13    1    1    2    0    0 -0.12374980316E+02  0.79889163235E+01 -0.12677903727E+02  0.19434591038E+02  0.10566000000E+00 0.  1.
        996    1    1    2    0    0  0.12374980316E+02 -0.79889163235E+01  0.89591724867E+02  0.10365153200E+03  0.50000000000E+02 0.  0.
<mgrwt>
<rscale>  0 0.52124494E+02</rscale>
<asrwt>0</asrwt>
<pdfrwt beam="1">  1       13 0.10000000E+01 0.52124494E+02</pdfrwt>
<pdfrwt beam="2">  1       22 0.23086145E+00 0.52124494E+02</pdfrwt>
<totfact> 0.34461901E-01</totfact>
</mgrwt>
</event>
<event>
 4    1  0.2489082E+000  0.5146915E+02  0.7957747E-01  0.1437575E+00
         13   -1    0    0    0    0  0.00000000000E+00  0.00000000000E+00  0.99999944176E+02  0.99999999996E+02  0.10566000000E+00 0.  1.
         22   -1    0    0    0    0 -0.00000000000E+00 -0.00000000000E+00 -0.19871278118E+02  0.19871278118E+02  0.00000000000E+00 0. -1.
         13    1    1    2    0    0  0.68750085374E+01 -0.10089957563E+02 -0.10198828681E+02  0.15909124945E+02  0.10566000000E+00 0. -1.
        996    1    1    2    0    0 -0.68750085374E+01  0.10089957563E+02  0.90327494738E+02  0.10396215317E+03  0.50000000000E+02 0.  0.
<mgrwt>
<rscale>  0 0.51469146E+02</rscale>
<asrwt>0</asrwt>
<pdfrwt beam="1">  1       13 0.10000000E+01 0.51469146E+02</pdfrwt>
<pdfrwt beam="2">  1       22 0.19871300E+00 0.51469146E+02</pdfrwt>
<totfact> 0.45812202E-01</totfact>
</mgrwt>
</event>
<event>
 4    1  0.2489082E+000  0.5114462E+02  0.7957747E-01  0.1439264E+00
         13   -1    0    0    0    0  0.00000000000E+00  0.00000000000E+00  0.99999944176E+02  0.99999999997E+02  0.10566000000E+00 0.  1.
         22   -1    0    0    0    0 -0.00000000000E+00 -0.00000000000E+00 -0.10305235503E+02  0.10305235503E+02  0.00000000000E+00 0. -1.
         13    1    1    2    0    0  0.49687191083E+01 -0.95437966207E+01  0.62779709315E+01  0.12457780965E+02  0.10566000000E+00 0. -1.
        996    1    1    2    0    0 -0.49687191083E+01  0.95437966207E+01  0.83416737742E+02  0.97847454535E+02  0.50000000000E+02 0.  0.
<mgrwt>
<rscale>  0 0.51144621E+02</rscale>
<asrwt>0</asrwt>
<pdfrwt beam="1">  1       13 0.10000000E+01 0.51144621E+02</pdfrwt>
<pdfrwt beam="2">  1       22 0.10305261E+00 0.51144621E+02</pdfrwt>
<totfact> 0.13467001E+00</totfact>
</mgrwt>
</event>
<event>
 4    1  0.2489082E+000  0.5114972E+02  0.7957747E-01  0.1439237E+00
         13   -1    0    0    0    0  0.00000000000E+00  0.00000000000E+00  0.99999944180E+02  0.10000000000E+03  0.10566000000E+00 0. -1.
         22   -1    0    0    0    0 -0.00000000000E+00 -0.00000000000E+00 -0.96397807589E+01  0.96397807589E+01  0.00000000000E+00 0.  1.
         13    1    1    2    0    0  0.32225172020E+00 -0.10779152976E+02  0.12881689436E+02  0.16800091422E+02  0.10566000000E+00 0.  1.
        996    1    1    2    0    0 -0.32225172020E+00  0.10779152976E+02  0.77478473985E+02  0.92839689336E+02  0.50000000000E+02 0.  0.
<mgrwt>
<rscale>  0 0.51149721E+02</rscale>
<asrwt>0</asrwt>
<pdfrwt beam="1">  1       13 0.10000000E+01 0.51149721E+02</pdfrwt>
<pdfrwt beam="2">  1       22 0.96398060E-01 0.51149721E+02</pdfrwt>
<totfact> 0.14832663E+00</totfact>
</mgrwt>
</event>
<event>
 4    1  0.2489082E+000  0.5229557E+02  0.7957747E-01  0.1433339E+00
         13   -1    0    0    0    0  0.00000000000E+00  0.00000000000E+00  0.99999944177E+02  0.99999999997E+02  0.10566000000E+00 0. -1.
         22   -1    0    0    0    0 -0.00000000000E+00 -0.00000000000E+00 -0.26566347575E+02  0.26566347575E+02  0.00000000000E+00 0.  1.
         13    1    1    2    0    0  0.13323703272E+02  0.75700575646E+01 -0.16509182868E+02  0.22525344024E+02  0.10566000000E+00 0.  1.
        996    1    1    2    0    0 -0.13323703272E+02 -0.75700575646E+01  0.89942779470E+02  0.10404100355E+03  0.50000000000E+02 0.  0.
<mgrwt>
<rscale>  0 0.52295572E+02</rscale>
<asrwt>0</asrwt>
<pdfrwt beam="1">  1       13 0.10000000E+01 0.52295572E+02</pdfrwt>
<pdfrwt beam="2">  1       22 0.26566368E+00 0.52295572E+02</pdfrwt>
<totfact> 0.26170325E-01</totfact>
</mgrwt>
</event>
<event>
 4    1  0.2489082E+000  0.5936783E+02  0.7957747E-01  0.1400504E+00
         13   -1    0    0    0    0  0.00000000000E+00  0.00000000000E+00  0.99999944179E+02  0.10000000000E+03  0.10566000000E+00 0.  1.
         22   -1    0    0    0    0 -0.00000000000E+00 -0.00000000000E+00 -0.38525782310E+02  0.38525782310E+02  0.00000000000E+00 0. -1.
         13    1    1    2    0    0 -0.14195631141E+02  0.28688384198E+02 -0.19979781177E+02  0.37732507885E+02  0.10566000000E+00 0. -1.
        996    1    1    2    0    0  0.14195631141E+02 -0.28688384198E+02  0.81453943046E+02  0.10079327442E+03  0.50000000000E+02 0.  0.
<mgrwt>
<rscale>  0 0.59367831E+02</rscale>
<asrwt>0</asrwt>
<pdfrwt beam="1">  1       13 0.10000000E+01 0.59367831E+02</pdfrwt>
<pdfrwt beam="2">  1       22 0.38525799E+00 0.59367831E+02</pdfrwt>
<totfact> 0.13338889E-01</totfact>
</mgrwt>
</event>
<event>
 4    1  0.2489082E+000  0.5616201E+02  0.7957747E-01  0.1414682E+00
         13   -1    0    0    0    0  0.00000000000E+00  0.00000000000E+00  0.99999944178E+02  0.99999999998E+02  0.10566000000E+00 0.  1.
         22   -1    0    0    0    0 -0.00000000000E+00 -0.00000000000E+00 -0.18628996294E+02  0.18628996294E+02  0.00000000000E+00 0.  1.
         13    1    1    2    0    0  0.11359963959E+02  0.22915551083E+02  0.92016214757E+01  0.27181837031E+02  0.10566000000E+00 0. -1.
        996    1    1    2    0    0 -0.11359963959E+02 -0.22915551083E+02  0.72169326409E+02  0.91447159261E+02  0.50000000000E+02 0.  0.
<mgrwt>
<rscale>  0 0.56162009E+02</rscale>
<asrwt>0</asrwt>
<pdfrwt beam="1">  1       13 0.10000000E+01 0.56162009E+02</pdfrwt>
<pdfrwt beam="2">  1       22 0.18629019E+00 0.56162009E+02</pdfrwt>
<totfact> 0.52022149E-01</totfact>
</mgrwt>
</event>
<event>
 4    1  0.2489082E+000  0.5111955E+02  0.7957747E-01  0.1439395E+00
         13   -1    0    0    0    0  0.00000000000E+00  0.00000000000E+00  0.99999944174E+02  0.99999999994E+02  0.10566000000E+00 0. -1.
         22   -1    0    0    0    0 -0.00000000000E+00 -0.00000000000E+00 -0.17319530068E+02  0.17319530068E+02  0.00000000000E+00 0.  1.
         13    1    1    2    0    0  0.92625116656E+01 -0.52358612230E+01 -0.79390267398E+01  0.13275830472E+02  0.10566000000E+00 0.  1.
        996    1    1    2    0    0 -0.92625116656E+01  0.52358612230E+01  0.90619440846E+02  0.10404369959E+03  0.50000000000E+02 0.  0.
<mgrwt>
<rscale>  0 0.51119550E+02</rscale>
<asrwt>0</asrwt>
<pdfrwt beam="1">  1       13 0.10000000E+01 0.51119550E+02</pdfrwt>
<pdfrwt beam="2">  1       22 0.17319553E+00 0.51119550E+02</pdfrwt>
<totfact> 0.58739126E-01</totfact>
</mgrwt>
</event>
<event>
 4    1  0.2489082E+000  0.5592783E+02  0.7957747E-01  0.1415761E+00
         13   -1    0    0    0    0  0.00000000000E+00  0.00000000000E+00  0.99999944173E+02  0.99999999993E+02  0.10566000000E+00 0. -1.
         22   -1    0    0    0    0 -0.00000000000E+00 -0.00000000000E+00 -0.16712929032E+02  0.16712929032E+02  0.00000000000E+00 0. -1.
         13    1    1    2    0    0  0.22913224635E+02 -0.10144247729E+02  0.33500388112E+02  0.41835496804E+02  0.10566000000E+00 0.  1.
        996    1    1    2    0    0 -0.22913224635E+02  0.10144247729E+02  0.49786627029E+02  0.74877432221E+02  0.50000000000E+02 0.  0.
<mgrwt>
<rscale>  0 0.55927825E+02</rscale>
<asrwt>0</asrwt>
<pdfrwt beam="1">  1       13 0.10000000E+01 0.55927825E+02</pdfrwt>
<pdfrwt beam="2">  1       22 0.16712952E+00 0.55927825E+02</pdfrwt>
<totfact> 0.63096841E-01</totfact>
</mgrwt>
</event>
<event>
 4    1  0.2489082E+000  0.6270137E+02  0.7957747E-01  0.1386833E+00
         13   -1    0    0    0    0  0.00000000000E+00  0.00000000000E+00  0.99999944181E+02  0.10000000000E+03  0.10566000000E+00 0.  1.
         22   -1    0    0    0    0 -0.00000000000E+00 -0.00000000000E+00 -0.77136467598E+02  0.77136467598E+02  0.00000000000E+00 0. -1.
         13    1    1    2    0    0  0.21572234974E+02  0.31082159891E+02 -0.61389810712E+02  0.72112287500E+02  0.10566000000E+00 0. -1.
        996    1    1    2    0    0 -0.21572234974E+02 -0.31082159891E+02  0.84253287295E+02  0.10502418010E+03  0.50000000000E+02 0.  0.
<mgrwt>
<rscale>  0 0.62701371E+02</rscale>
<asrwt>0</asrwt>
<pdfrwt beam="1">  1       13 0.10000000E+01 0.62701371E+02</pdfrwt>
<pdfrwt beam="2">  1       22 0.77136474E+00 0.62701371E+02</pdfrwt>
<totfact> 0.40195676E-02</totfact>
</mgrwt>
</event>
<event>
 4    1  0.2489082E+000  0.5498995E+02  0.7957747E-01  0.1420146E+00
         13   -1    0    0    0    0  0.00000000000E+00  0.00000000000E+00  0.99999944178E+02  0.99999999998E+02  0.10566000000E+00 0. -1.
         22   -1    0    0    0    0 -0.00000000000E+00 -0.00000000000E+00 -0.22132645216E+02  0.22132645216E+02  0.00000000000E+00 0. -1.
         13    1    1    2    0    0 -0.22777133333E+02 -0.22576884126E+01 -0.42732298272E+01  0.23284471585E+02  0.10566000000E+00 0.  1.
        996    1    1    2    0    0  0.22777133333E+02  0.22576884126E+01  0.82140528789E+02  0.98848173628E+02  0.50000000000E+02 0.  0.
<mgrwt>
<rscale>  0 0.54989953E+02</rscale>
<asrwt>0</asrwt>
<pdfrwt beam="1">  1       13 0.10000000E+01 0.54989953E+02</pdfrwt>
<pdfrwt beam="2">  1       22 0.22132667E+00 0.54989953E+02</pdfrwt>
<totfact> 0.37570959E-01</totfact>
</mgrwt>
</event>
<event>
 4    1  0.2489082E+000  0.5133288E+02  0.7957747E-01  0.1438282E+00
         13   -1    0    0    0    0  0.00000000000E+00  0.00000000000E+00  0.99999944177E+02  0.99999999997E+02  0.10566000000E+00 0.  1.
         22   -1    0    0    0    0 -0.00000000000E+00 -0.00000000000E+00 -0.99704911451E+01  0.99704911451E+01  0.00000000000E+00 0.  1.
         13    1    1    2    0    0  0.62224384461E+01  0.98156111871E+01  0.20173031529E+02  0.23281480372E+02  0.10566000000E+00 0. -1.
        996    1    1    2    0    0 -0.62224384461E+01 -0.98156111871E+01  0.69856421503E+02  0.86689010770E+02  0.50000000000E+02 0.  0.
<mgrwt>
<rscale>  0 0.51332884E+02</rscale>
<asrwt>0</asrwt>
<pdfrwt beam="1">  1       13 0.10000000E+01 0.51332884E+02</pdfrwt>
<pdfrwt beam="2">  1       22 0.99705163E-01 0.51332884E+02</pdfrwt>
<totfact> 0.14135497E+00</totfact>
</mgrwt>
</event>
<event>
 4    1  0.2489082E+000  0.6777302E+02  0.7957747E-01  0.1367834E+00
         13   -1    0    0    0    0  0.00000000000E+00  0.00000000000E+00  0.99999944176E+02  0.99999999996E+02  0.10566000000E+00 0. -1.
         22   -1    0    0    0    0 -0.00000000000E+00 -0.00000000000E+00 -0.43410870499E+02  0.43410870499E+02  0.00000000000E+00 0.  1.
         13    1    1    2    0    0 -0.45007179051E+02  0.82180123339E+01 -0.11674923360E+02  0.47217548563E+02  0.10566000000E+00 0.  1.
        996    1    1    2    0    0  0.45007179051E+02 -0.82180123339E+01  0.68263997036E+02  0.96193321931E+02  0.50000000000E+02 0.  0.
<mgrwt>
<rscale>  0 0.67773017E+02</rscale>
<asrwt>0</asrwt>
<pdfrwt beam="1">  1       13 0.10000000E+01 0.67773017E+02</pdfrwt>
<pdfrwt beam="2">  1       22 0.43410886E+00 0.67773017E+02</pdfrwt>
<totfact> 0.10572493E-01</totfact>
</mgrwt>
</event>
<event>
 4    1  0.2489082E+000  0.5516772E+02  0.7957747E-01  0.1419307E+00
         13   -1    0    0    0    0  0.00000000000E+00  0.00000000000E+00  0.99999944175E+02  0.99999999995E+02  0.10566000000E+00 0. -1.
         22   -1    0    0    0    0 -0.00000000000E+00 -0.00000000000E+00 -0.22451481769E+02  0.22451481769E+02  0.00000000000E+00 0. -1.
         13    1    1    2    0    0 -0.14576507750E+02 -0.18193488544E+02 -0.43400748242E+01  0.23713393201E+02  0.10566000000E+00 0.  1.
        996    1    1    2    0    0  0.14576507750E+02  0.18193488544E+02  0.81888537230E+02  0.98738088564E+02  0.50000000000E+02 0.  0.
<mgrwt>
<rscale>  0 0.55167722E+02</rscale>
<asrwt>0</asrwt>
<pdfrwt beam="1">  1       13 0.10000000E+01 0.55167722E+02</pdfrwt>
<pdfrwt beam="2">  1       22 0.22451503E+00 0.55167722E+02</pdfrwt>
<totfact> 0.36557177E-01</totfact>
</mgrwt>
</event>
<event>
 4    1  0.2489082E+000  0.5272335E+02  0.7957747E-01  0.1431183E+00
         13   -1    0    0    0    0  0.00000000000E+00  0.00000000000E+00  0.99999944180E+02  0.10000000000E+03  0.10566000000E+00 0. -1.
         22   -1    0    0    0    0 -0.00000000000E+00 -0.00000000000E+00 -0.13882749045E+02  0.13882749045E+02  0.00000000000E+00 0. -1.
         13    1    1    2    0    0  0.14281738358E+01 -0.16664704000E+02  0.55985076063E+01  0.17638211115E+02  0.10566000000E+00 0.  1.
        996    1    1    2    0    0 -0.14281738358E+01  0.16664704000E+02  0.80518687529E+02  0.96244537929E+02  0.50000000000E+02 0.  0.
<mgrwt>
<rscale>  0 0.52723354E+02</rscale>
<asrwt>0</asrwt>
<pdfrwt beam="1">  1       13 0.10000000E+01 0.52723354E+02</pdfrwt>
<pdfrwt beam="2">  1       22 0.13882773E+00 0.52723354E+02</pdfrwt>
<totfact> 0.85612538E-01</totfact>
</mgrwt>
</event>
<event>
 4    1  0.2489082E+000  0.5712622E+02  0.7957747E-01  0.1410303E+00
         13   -1    0    0    0    0  0.00000000000E+00  0.00000000000E+00  0.99999944180E+02  0.10000000000E+03  0.10566000000E+00 0.  1.
         22   -1    0    0    0    0 -0.00000000000E+00 -0.00000000000E+00 -0.24909197677E+02  0.24909197677E+02  0.00000000000E+00 0. -1.
         13    1    1    2    0    0  0.10249484085E+01  0.27610766694E+02 -0.33919122492E+01  0.27837406299E+02  0.10566000000E+00 0. -1.
        996    1    1    2    0    0 -0.10249484085E+01 -0.27610766694E+02  0.78482658752E+02  0.97071791378E+02  0.50000000000E+02 0.  0.
<mgrwt>
<rscale>  0 0.57126220E+02</rscale>
<asrwt>0</asrwt>
<pdfrwt beam="1">  1       13 0.10000000E+01 0.57126220E+02</pdfrwt>
<pdfrwt beam="2">  1       22 0.24909219E+00 0.57126220E+02</pdfrwt>
<totfact> 0.29919679E-01</totfact>
</mgrwt>
</event>
<event>
 4    1  0.2489082E+000  0.5116645E+02  0.7957747E-01  0.1439150E+00
         13   -1    0    0    0    0  0.00000000000E+00  0.00000000000E+00  0.99999944184E+02  0.10000000000E+03  0.10566000000E+00 0.  1.
         22   -1    0    0    0    0 -0.00000000000E+00 -0.00000000000E+00 -0.14109392669E+02  0.14109392669E+02  0.00000000000E+00 0. -1.
         13    1    1    2    0    0 -0.10825483114E+02  0.90242363091E+00 -0.32401057803E+01  0.11336441353E+02  0.10566000000E+00 0. -1.
        996    1    1    2    0    0  0.10825483114E+02 -0.90242363091E+00  0.89130657295E+02  0.10277295132E+03  0.50000000000E+02 0.  0.
<mgrwt>
<rscale>  0 0.51166449E+02</rscale>
<asrwt>0</asrwt>
<pdfrwt beam="1">  1       13 0.10000000E+01 0.51166449E+02</pdfrwt>
<pdfrwt beam="2">  1       22 0.14109417E+00 0.51166449E+02</pdfrwt>
<totfact> 0.83122427E-01</totfact>
</mgrwt>
</event>
<event>
 4    1  0.2489082E+000  0.5620820E+02  0.7957747E-01  0.1414470E+00
         13   -1    0    0    0    0  0.00000000000E+00  0.00000000000E+00  0.99999944176E+02  0.99999999996E+02  0.10566000000E+00 0.  1.
         22   -1    0    0    0    0 -0.00000000000E+00 -0.00000000000E+00 -0.19163000143E+02  0.19163000143E+02  0.00000000000E+00 0. -1.
         13    1    1    2    0    0 -0.21924726623E+02  0.13366696958E+02  0.74759606014E+01  0.26744408313E+02  0.10566000000E+00 0. -1.
        996    1    1    2    0    0  0.21924726623E+02 -0.13366696958E+02  0.73360983431E+02  0.92418591826E+02  0.50000000000E+02 0.  0.
<mgrwt>
<rscale>  0 0.56208204E+02</rscale>
<asrwt>0</asrwt>
<pdfrwt beam="1">  1       13 0.10000000E+01 0.56208204E+02</pdfrwt>
<pdfrwt beam="2">  1       22 0.19163023E+00 0.56208204E+02</pdfrwt>
<totfact> 0.49403237E-01</totfact>
</mgrwt>
</event>
<event>
 4    1  0.2489082E+000  0.5341039E+02  0.7957747E-01  0.1427769E+00
         13   -1    0    0    0    0  0.00000000000E+00  0.00000000000E+00  0.99999944176E+02  0.99999999996E+02  0.10566000000E+00 0.  1.
         22   -1    0    0    0    0 -0.00000000000E+00 -0.00000000000E+00 -0.13232742801E+02  0.13232742801E+02  0.00000000000E+00 0. -1.
         13    1    1    2    0    0  0.13099191868E+02  0.13456635280E+02  0.29078383421E+02  0.34615508187E+02  0.10566000000E+00 0. -1.
        996    1    1    2    0    0 -0.13099191868E+02 -0.13456635280E+02  0.57688817955E+02  0.78617234610E+02  0.50000000000E+02 0.  0.
<mgrwt>
<rscale>  0 0.53410391E+02</rscale>
<asrwt>0</asrwt>
<pdfrwt beam="1">  1       13 0.10000000E+01 0.53410391E+02</pdfrwt>
<pdfrwt beam="2">  1       22 0.13232767E+00 0.53410391E+02</pdfrwt>
<totfact> 0.92577326E-01</totfact>
</mgrwt>
</event>
<event>
 4    1  0.2489082E+000  0.5211261E+02  0.7957747E-01  0.1434269E+00
         13   -1    0    0    0    0  0.00000000000E+00  0.00000000000E+00  0.99999944179E+02  0.99999999999E+02  0.10566000000E+00 0.  1.
         22   -1    0    0    0    0 -0.00000000000E+00 -0.00000000000E+00 -0.90458187247E+02  0.90458187247E+02  0.00000000000E+00 0. -1.
         13    1    1    2    0    0  0.74602794624E+01  0.12651820841E+02 -0.82979879952E+02  0.84269780949E+02  0.10566000000E+00 0. -1.
        996    1    1    2    0    0 -0.74602794624E+01 -0.12651820841E+02  0.92521636884E+02  0.10618840630E+03  0.50000000000E+02 0.  0.
<mgrwt>
<rscale>  0 0.52112612E+02</rscale>
<asrwt>0</asrwt>
<pdfrwt beam="1">  1       13 0.10000000E+01 0.52112612E+02</pdfrwt>
<pdfrwt beam="2">  1       22 0.90458190E+00 0.52112612E+02</pdfrwt>
<totfact> 0.97414160E-03</totfact>
</mgrwt>
</event>
<event>
 4    1  0.2489082E+000  0.5115112E+02  0.7957747E-01  0.1439230E+00
         13   -1    0    0    0    0  0.00000000000E+00  0.00000000000E+00  0.99999944187E+02  0.10000000001E+03  0.10566000000E+00 0. -1.
         22   -1    0    0    0    0 -0.00000000000E+00 -0.00000000000E+00 -0.22724692469E+02  0.22724692469E+02  0.00000000000E+00 0.  1.
         13    1    1    2    0    0  0.53625561613E+01  0.93637834007E+01 -0.14250500628E+02  0.17875272874E+02  0.10566000000E+00 0.  1.
        996    1    1    2    0    0 -0.53625561613E+01 -0.93637834007E+01  0.91525752347E+02  0.10484941960E+03  0.50000000000E+02 0.  0.
<mgrwt>
<rscale>  0 0.51151124E+02</rscale>
<asrwt>0</asrwt>
<pdfrwt beam="1">  1       13 0.10000000E+01 0.51151124E+02</pdfrwt>
<pdfrwt beam="2">  1       22 0.22724714E+00 0.51151124E+02</pdfrwt>
<totfact> 0.35476107E-01</totfact>
</mgrwt>
</event>
<event>
 4    1  0.2489082E+000  0.5402203E+02  0.7957747E-01  0.1424781E+00
         13   -1    0    0    0    0  0.00000000000E+00  0.00000000000E+00  0.99999944186E+02  0.10000000001E+03  0.10566000000E+00 0. -1.
         22   -1    0    0    0    0 -0.00000000000E+00 -0.00000000000E+00 -0.15193506577E+02  0.15193506577E+02  0.00000000000E+00 0. -1.
         13    1    1    2    0    0  0.16025961286E+02  0.12710145780E+02  0.95995985644E+01  0.22595191911E+02  0.10566000000E+00 0.  1.
        996    1    1    2    0    0 -0.16025961286E+02 -0.12710145780E+02  0.75206839045E+02  0.92598314672E+02  0.50000000000E+02 0.  0.
<mgrwt>
<rscale>  0 0.54022026E+02</rscale>
<asrwt>0</asrwt>
<pdfrwt beam="1">  1       13 0.10000000E+01 0.54022026E+02</pdfrwt>
<pdfrwt beam="2">  1       22 0.15193530E+00 0.54022026E+02</pdfrwt>
<totfact> 0.73995805E-01</totfact>
</mgrwt>
</event>
<event>
 4    1  0.2489082E+000  0.8867736E+02  0.7957747E-01  0.1306087E+00
         13   -1    0    0    0    0  0.00000000000E+00  0.00000000000E+00  0.99999944180E+02  0.10000000000E+03  0.10566000000E+00 0.  1.
         22   -1    0    0    0    0 -0.00000000000E+00 -0.00000000000E+00 -0.66168888508E+02  0.66168888508E+02  0.00000000000E+00 0. -1.
         13    1    1    2    0    0 -0.39975807581E+02 -0.61364558637E+02  0.23376037050E+02  0.76877334245E+02  0.10566000000E+00 0. -1.
        996    1    1    2    0    0  0.39975807581E+02  0.61364558637E+02  0.10455018622E+02  0.89291554264E+02  0.50000000000E+02 0.  0.
<mgrwt>
<rscale>  0 0.88677360E+02</rscale>
<asrwt>0</asrwt>
<pdfrwt beam="1">  1       13 0.10000000E+01 0.88677360E+02</pdfrwt>
<pdfrwt beam="2">  1       22 0.66168898E+00 0.88677360E+02</pdfrwt>
<totfact> 0.87233565E-02</totfact>
</mgrwt>
</event>
<event>
 4    1  0.2489082E+000  0.5578266E+02  0.7957747E-01  0.1416433E+00
         13   -1    0    0    0    0  0.00000000000E+00  0.00000000000E+00  0.99999944176E+02  0.99999999996E+02  0.10566000000E+00 0.  1.
         22   -1    0    0    0    0 -0.00000000000E+00 -0.00000000000E+00 -0.16670239259E+02  0.16670239259E+02  0.00000000000E+00 0. -1.
         13    1    1    2    0    0  0.21611069399E+02 -0.12027736460E+02  0.35039282948E+02  0.42889011162E+02  0.10566000000E+00 0. -1.
        996    1    1    2    0    0 -0.21611069399E+02  0.12027736460E+02  0.48290421969E+02  0.73781228093E+02  0.50000000000E+02 0.  0.
<mgrwt>
<rscale>  0 0.55782656E+02</rscale>
<asrwt>0</asrwt>
<pdfrwt beam="1">  1       13 0.10000000E+01 0.55782656E+02</pdfrwt>
<pdfrwt beam="2">  1       22 0.16670263E+00 0.55782656E+02</pdfrwt>
<totfact> 0.63362027E-01</totfact>
</mgrwt>
</event>
<event>
 4    1  0.2489082E+000  0.6772571E+02  0.7957747E-01  0.1368002E+00
         13   -1    0    0    0    0  0.00000000000E+00  0.00000000000E+00  0.99999944177E+02  0.99999999998E+02  0.10566000000E+00 0. -1.
         22   -1    0    0    0    0 -0.00000000000E+00 -0.00000000000E+00 -0.32152874462E+02  0.32152874462E+02  0.00000000000E+00 0.  1.
         13    1    1    2    0    0 -0.42589815570E+02 -0.16519044685E+02  0.27371217702E+02  0.53253788129E+02  0.10566000000E+00 0.  1.
        996    1    1    2    0    0  0.42589815570E+02  0.16519044685E+02  0.40475852013E+02  0.78899086330E+02  0.50000000000E+02 0.  0.
<mgrwt>
<rscale>  0 0.67725706E+02</rscale>
<asrwt>0</asrwt>
<pdfrwt beam="1">  1       13 0.10000000E+01 0.67725706E+02</pdfrwt>
<pdfrwt beam="2">  1       22 0.32152893E+00 0.67725706E+02</pdfrwt>
<totfact> 0.18542421E-01</totfact>
</mgrwt>
</event>
<event>
 4    1  0.2489082E+000  0.5158527E+02  0.7957747E-01  0.1436974E+00
         13   -1    0    0    0    0  0.00000000000E+00  0.00000000000E+00  0.99999944187E+02  0.10000000001E+03  0.10566000000E+00 0.  1.
         22   -1    0    0    0    0 -0.00000000000E+00 -0.00000000000E+00 -0.26275991046E+02  0.26275991046E+02  0.00000000000E+00 0.  1.
         13    1    1    2    0    0  0.53602252208E+01 -0.11502513307E+02 -0.17416482851E+02  0.21549590848E+02  0.10566000000E+00 0. -1.
        996    1    1    2    0    0 -0.53602252208E+01  0.11502513307E+02  0.91140435993E+02  0.10472640020E+03  0.50000000000E+02 0.  0.
<mgrwt>
<rscale>  0 0.51585268E+02</rscale>
<asrwt>0</asrwt>
<pdfrwt beam="1">  1       13 0.10000000E+01 0.51585268E+02</pdfrwt>
<pdfrwt beam="2">  1       22 0.26276012E+00 0.51585268E+02</pdfrwt>
<totfact> 0.26712498E-01</totfact>
</mgrwt>
</event>
<event>
 4    1  0.2489082E+000  0.5446756E+02  0.7957747E-01  0.1422634E+00
         13   -1    0    0    0    0  0.00000000000E+00  0.00000000000E+00  0.99999944182E+02  0.10000000000E+03  0.10566000000E+00 0. -1.
         22   -1    0    0    0    0 -0.00000000000E+00 -0.00000000000E+00 -0.17907729448E+02  0.17907729448E+02  0.00000000000E+00 0. -1.
         13    1    1    2    0    0  0.29643026534E+01 -0.21399263360E+02  0.29073166999E+01  0.21798605850E+02  0.10566000000E+00 0.  1.
        996    1    1    2    0    0 -0.29643026534E+01  0.21399263360E+02  0.79184898034E+02  0.96109123601E+02  0.50000000000E+02 0.  0.
<mgrwt>
<rscale>  0 0.54467564E+02</rscale>
<asrwt>0</asrwt>
<pdfrwt beam="1">  1       13 0.10000000E+01 0.54467564E+02</pdfrwt>
<pdfrwt beam="2">  1       22 0.17907752E+00 0.54467564E+02</pdfrwt>
<totfact> 0.55701612E-01</totfact>
</mgrwt>
</event>
<event>
 4    1  0.2489082E+000  0.5583219E+02  0.7957747E-01  0.1416204E+00
         13   -1    0    0    0    0  0.00000000000E+00  0.00000000000E+00  0.99999944181E+02  0.10000000000E+03  0.10566000000E+00 0.  1.
         22   -1    0    0    0    0 -0.00000000000E+00 -0.00000000000E+00 -0.30985915368E+02  0.30985915368E+02  0.00000000000E+00 0. -1.
         13    1    1    2    0    0 -0.43483043325E+01  0.24460694262E+02 -0.15801187181E+02  0.29443539100E+02  0.10566000000E+00 0. -1.
        996    1    1    2    0    0  0.43483043325E+01 -0.24460694262E+02  0.84815215994E+02  0.10154237627E+03  0.50000000000E+02 0.  0.
<mgrwt>
<rscale>  0 0.55832189E+02</rscale>
<asrwt>0</asrwt>
<pdfrwt beam="1">  1       13 0.10000000E+01 0.55832189E+02</pdfrwt>
<pdfrwt beam="2">  1       22 0.30985935E+00 0.55832189E+02</pdfrwt>
<totfact> 0.19593562E-01</totfact>
</mgrwt>
</event>
<event>
 4    1  0.2489082E+000  0.5559718E+02  0.7957747E-01  0.1417296E+00
         13   -1    0    0    0    0  0.00000000000E+00  0.00000000000E+00  0.99999944183E+02  0.10000000000E+03  0.10566000000E+00 0. -1.
         22   -1    0    0    0    0 -0.00000000000E+00 -0.00000000000E+00 -0.50243138615E+02  0.50243138615E+02  0.00000000000E+00 0.  1.
         13    1    1    2    0    0  0.20456549913E+02  0.13136838275E+02 -0.38736791741E+02  0.45733982470E+02  0.10566000000E+00 0.  1.
        996    1    1    2    0    0 -0.20456549913E+02 -0.13136838275E+02  0.88493597308E+02  0.10450915615E+03  0.50000000000E+02 0.  0.
<mgrwt>
<rscale>  0 0.55597185E+02</rscale>
<asrwt>0</asrwt>
<pdfrwt beam="1">  1       13 0.10000000E+01 0.55597185E+02</pdfrwt>
<pdfrwt beam="2">  1       22 0.50243153E+00 0.55597185E+02</pdfrwt>
<totfact> 0.72750525E-02</totfact>
</mgrwt>
</event>
<event>
 4    1  0.2489082E+000  0.5134231E+02  0.7957747E-01  0.1438233E+00
         13   -1    0    0    0    0  0.00000000000E+00  0.00000000000E+00  0.99999944184E+02  0.10000000000E+03  0.10566000000E+00 0.  1.
         22   -1    0    0    0    0 -0.00000000000E+00 -0.00000000000E+00 -0.10004481316E+02  0.10004481316E+02  0.00000000000E+00 0.  1.
         13    1    1    2    0    0 -0.11645839212E+02 -0.63824365856E+00  0.13054305974E+02  0.17505970251E+02  0.10566000000E+00 0. -1.
        996    1    1    2    0    0  0.11645839212E+02  0.63824365856E+00  0.76941156893E+02  0.92498511069E+02  0.50000000000E+02 0.  0.
<mgrwt>
<rscale>  0 0.51342311E+02</rscale>
<asrwt>0</asrwt>
<pdfrwt beam="1">  1       13 0.10000000E+01 0.51342311E+02</pdfrwt>
<pdfrwt beam="2">  1       22 0.10004506E+00 0.51342311E+02</pdfrwt>
<totfact> 0.14066346E+00</totfact>
</mgrwt>
</event>
<event>
 4    1  0.2489082E+000  0.5203855E+02  0.7957747E-01  0.1434646E+00
         13   -1    0    0    0    0  0.00000000000E+00  0.00000000000E+00  0.99999944184E+02  0.10000000000E+03  0.10566000000E+00 0.  1.
         22   -1    0    0    0    0 -0.00000000000E+00 -0.00000000000E+00 -0.12317790852E+02  0.12317790852E+02  0.00000000000E+00 0.  1.
         13    1    1    2    0    0 -0.14422551954E+02  0.13772591853E-01  0.63419390145E+01  0.15755683072E+02  0.10566000000E+00 0. -1.
        996    1    1    2    0    0  0.14422551954E+02 -0.13772591853E-01  0.81340214317E+02  0.96562107784E+02  0.50000000000E+02 0.  0.
<mgrwt>
<rscale>  0 0.52038545E+02</rscale>
<asrwt>0</asrwt>
<pdfrwt beam="1">  1       13 0.10000000E+01 0.52038545E+02</pdfrwt>
<pdfrwt beam="2">  1       22 0.12317815E+00 0.52038545E+02</pdfrwt>
<totfact> 0.10326527E+00</totfact>
</mgrwt>
</event>
<event>
 4    1  0.2489082E+000  0.5365161E+02  0.7957747E-01  0.1426585E+00
         13   -1    0    0    0    0  0.00000000000E+00  0.00000000000E+00  0.99999944178E+02  0.99999999998E+02  0.10566000000E+00 0. -1.
         22   -1    0    0    0    0 -0.00000000000E+00 -0.00000000000E+00 -0.65205756951E+02  0.65205756951E+02  0.00000000000E+00 0.  1.
         13    1    1    2    0    0 -0.15943915194E+02 -0.11148386704E+02 -0.56255368401E+02  0.59524554562E+02  0.10566000000E+00 0.  1.
        996    1    1    2    0    0  0.15943915194E+02  0.11148386704E+02  0.91049555628E+02  0.10568120239E+03  0.50000000000E+02 0.  0.
<mgrwt>
<rscale>  0 0.53651607E+02</rscale>
<asrwt>0</asrwt>
<pdfrwt beam="1">  1       13 0.10000000E+01 0.53651607E+02</pdfrwt>
<pdfrwt beam="2">  1       22 0.65205767E+00 0.53651607E+02</pdfrwt>
<totfact> 0.86745438E-02</totfact>
</mgrwt>
</event>
<event>
 4    1  0.2489082E+000  0.5393818E+02  0.7957747E-01  0.1425188E+00
         13   -1    0    0    0    0  0.00000000000E+00  0.00000000000E+00  0.99999944182E+02  0.10000000000E+03  0.10566000000E+00 0.  1.
         22   -1    0    0    0    0 -0.00000000000E+00 -0.00000000000E+00 -0.66113232525E+02  0.66113232525E+02  0.00000000000E+00 0. -1.
         13    1    1    2    0    0 -0.10415057424E+01  0.20205024426E+02 -0.56967886758E+02  0.60453941410E+02  0.10566000000E+00 0. -1.
        996    1    1    2    0    0  0.10415057424E+01 -0.20205024426E+02  0.90854598415E+02  0.10565929112E+03  0.50000000000E+02 0.  0.
<mgrwt>
<rscale>  0 0.53938184E+02</rscale>
<asrwt>0</asrwt>
<pdfrwt beam="1">  1       13 0.10000000E+01 0.53938184E+02</pdfrwt>
<pdfrwt beam="2">  1       22 0.66113242E+00 0.53938184E+02</pdfrwt>
<totfact> 0.87245132E-02</totfact>
</mgrwt>
</event>
<event>
 4    1  0.2489082E+000  0.5525300E+02  0.7957747E-01  0.1418906E+00
         13   -1    0    0    0    0  0.00000000000E+00  0.00000000000E+00  0.99999944169E+02  0.99999999989E+02  0.10566000000E+00 0.  1.
         22   -1    0    0    0    0 -0.00000000000E+00 -0.00000000000E+00 -0.39768179586E+02  0.39768179586E+02  0.00000000000E+00 0. -1.
         13    1    1    2    0    0  0.16785201005E+02  0.16466674563E+02 -0.27440771156E+02  0.36137258192E+02  0.10566000000E+00 0. -1.
        996    1    1    2    0    0 -0.16785201005E+02 -0.16466674563E+02  0.87672535739E+02  0.10363092138E+03  0.50000000000E+02 0.  0.
<mgrwt>
<rscale>  0 0.55253003E+02</rscale>
<asrwt>0</asrwt>
<pdfrwt beam="1">  1       13 0.10000000E+01 0.55253003E+02</pdfrwt>
<pdfrwt beam="2">  1       22 0.39768196E+00 0.55253003E+02</pdfrwt>
<totfact> 0.12535870E-01</totfact>
</mgrwt>
</event>
<event>
 4    1  0.2489082E+000  0.5403392E+02  0.7957747E-01  0.1424724E+00
         13   -1    0    0    0    0  0.00000000000E+00  0.00000000000E+00  0.99999944176E+02  0.99999999997E+02  0.10566000000E+00 0. -1.
         22   -1    0    0    0    0 -0.00000000000E+00 -0.00000000000E+00 -0.18123795173E+02  0.18123795173E+02  0.00000000000E+00 0.  1.
         13    1    1    2    0    0  0.17498550547E+02  0.10651997010E+02  0.56211226157E+00  0.20493692830E+02  0.10566000000E+00 0.  1.
        996    1    1    2    0    0 -0.17498550547E+02 -0.10651997010E+02  0.81314036742E+02  0.97630102340E+02  0.50000000000E+02 0.  0.
<mgrwt>
<rscale>  0 0.54033918E+02</rscale>
<asrwt>0</asrwt>
<pdfrwt beam="1">  1       13 0.10000000E+01 0.54033918E+02</pdfrwt>
<pdfrwt beam="2">  1       22 0.18123818E+00 0.54033918E+02</pdfrwt>
<totfact> 0.54472436E-01</totfact>
</mgrwt>
</event>
<event>
 4    1  0.2489082E+000  0.5290057E+02  0.7957747E-01  0.1430296E+00
         13   -1    0    0    0    0  0.00000000000E+00  0.00000000000E+00  0.99999944181E+02  0.10000000000E+03  0.10566000000E+00 0.  1.
         22   -1    0    0    0    0 -0.00000000000E+00 -0.00000000000E+00 -0.27455223911E+02  0.27455223911E+02  0.00000000000E+00 0. -1.
         13    1    1    2    0    0 -0.15250891686E+02  0.81166733001E+01 -0.16494790358E+02  0.23886384315E+02  0.10566000000E+00 0. -1.
        996    1    1    2    0    0  0.15250891686E+02 -0.81166733001E+01  0.89039510628E+02  0.10356883960E+03  0.50000000000E+02 0.  0.
<mgrwt>
<rscale>  0 0.52900568E+02</rscale>
<asrwt>0</asrwt>
<pdfrwt beam="1">  1       13 0.10000000E+01 0.52900568E+02</pdfrwt>
<pdfrwt beam="2">  1       22 0.27455244E+00 0.52900568E+02</pdfrwt>
<totfact> 0.24560766E-01</totfact>
</mgrwt>
</event>
<event>
 4    1  0.2489082E+000  0.5399508E+02  0.7957747E-01  0.1424912E+00
         13   -1    0    0    0    0  0.00000000000E+00  0.00000000000E+00  0.99999944176E+02  0.99999999996E+02  0.10566000000E+00 0. -1.
         22   -1    0    0    0    0 -0.00000000000E+00 -0.00000000000E+00 -0.14250813211E+02  0.14250813211E+02  0.00000000000E+00 0. -1.
         13    1    1    2    0    0  0.20303645501E+02 -0.17975026555E+01  0.15284738084E+02  0.25477508095E+02  0.10566000000E+00 0.  1.
        996    1    1    2    0    0 -0.20303645501E+02  0.17975026555E+01  0.70464392881E+02  0.88773305112E+02  0.50000000000E+02 0.  0.
<mgrwt>
<rscale>  0 0.53995083E+02</rscale>
<asrwt>0</asrwt>
<pdfrwt beam="1">  1       13 0.10000000E+01 0.53995083E+02</pdfrwt>
<pdfrwt beam="2">  1       22 0.14250837E+00 0.53995083E+02</pdfrwt>
<totfact> 0.82262277E-01</totfact>
</mgrwt>
</event>
<event>
 4    1  0.2489082E+000  0.5217725E+02  0.7957747E-01  0.1433940E+00
         13   -1    0    0    0    0  0.00000000000E+00  0.00000000000E+00  0.99999944177E+02  0.99999999997E+02  0.10566000000E+00 0.  1.
         22   -1    0    0    0    0 -0.00000000000E+00 -0.00000000000E+00 -0.22423851347E+02  0.22423851347E+02  0.00000000000E+00 0. -1.
         13    1    1    2    0    0  0.59201337440E+01  0.13690047043E+02 -0.11741478242E+02  0.18982593261E+02  0.10566000000E+00 0. -1.
        996    1    1    2    0    0 -0.59201337440E+01 -0.13690047043E+02  0.89317571072E+02  0.10344125808E+03  0.50000000000E+02 0.  0.
<mgrwt>
<rscale>  0 0.52177250E+02</rscale>
<asrwt>0</asrwt>
<pdfrwt beam="1">  1       13 0.10000000E+01 0.52177250E+02</pdfrwt>
<pdfrwt beam="2">  1       22 0.22423873E+00 0.52177250E+02</pdfrwt>
<totfact> 0.36466100E-01</totfact>
</mgrwt>
</event>
<event>
 4    1  0.2489082E+000  0.5153499E+02  0.7957747E-01  0.1437234E+00
         13   -1    0    0    0    0  0.00000000000E+00  0.00000000000E+00  0.99999944178E+02  0.99999999999E+02  0.10566000000E+00 0.  1.
         22   -1    0    0    0    0 -0.00000000000E+00 -0.00000000000E+00 -0.29736159559E+02  0.29736159559E+02  0.00000000000E+00 0. -1.
         13    1    1    2    0    0  0.12434902066E+02  0.11085450166E+01 -0.21286498134E+02  0.24677557178E+02  0.10566000000E+00 0. -1.
        996    1    1    2    0    0 -0.12434902066E+02 -0.11085450166E+01  0.91550282754E+02  0.10505860238E+03  0.50000000000E+02 0.  0.
<mgrwt>
<rscale>  0 0.51534995E+02</rscale>
<asrwt>0</asrwt>
<pdfrwt beam="1">  1       13 0.10000000E+01 0.51534995E+02</pdfrwt>
<pdfrwt beam="2">  1       22 0.29736179E+00 0.51534995E+02</pdfrwt>
<totfact> 0.21035788E-01</totfact>
</mgrwt>
</event>
<event>
 4    1  0.2489082E+000  0.5391037E+02  0.7957747E-01  0.1425323E+00
         13   -1    0    0    0    0  0.00000000000E+00  0.00000000000E+00  0.99999944176E+02  0.99999999996E+02  0.10566000000E+00 0.  1.
         22   -1    0    0    0    0 -0.00000000000E+00 -0.00000000000E+00 -0.21354256950E+02  0.21354256950E+02  0.00000000000E+00 0. -1.
         13    1    1    2    0    0 -0.15812677231E+02  0.12501496641E+02 -0.59706761868E+01  0.21023518204E+02  0.10566000000E+00 0. -1.
        996    1    1    2    0    0  0.15812677231E+02 -0.12501496641E+02  0.84616363412E+02  0.10033073874E+03  0.50000000000E+02 0.  0.
<mgrwt>
<rscale>  0 0.53910372E+02</rscale>
<asrwt>0</asrwt>
<pdfrwt beam="1">  1       13 0.10000000E+01 0.53910372E+02</pdfrwt>
<pdfrwt beam="2">  1       22 0.21354279E+00 0.53910372E+02</pdfrwt>
<totfact> 0.40171193E-01</totfact>
</mgrwt>
</event>
<event>
 4    1  0.2489082E+000  0.5194089E+02  0.7957747E-01  0.1435145E+00
         13   -1    0    0    0    0  0.00000000000E+00  0.00000000000E+00  0.99999944182E+02  0.10000000000E+03  0.10566000000E+00 0. -1.
         22   -1    0    0    0    0 -0.00000000000E+00 -0.00000000000E+00 -0.41660242386E+02  0.41660242386E+02  0.00000000000E+00 0.  1.
         13    1    1    2    0    0  0.39828490171E+00  0.14060505378E+02 -0.33397713947E+02  0.36239134969E+02  0.10566000000E+00 0.  1.
        996    1    1    2    0    0 -0.39828490171E+00 -0.14060505378E+02  0.91737415743E+02  0.10542110742E+03  0.50000000000E+02 0.  0.
<mgrwt>
<rscale>  0 0.51940894E+02</rscale>
<asrwt>0</asrwt>
<pdfrwt beam="1">  1       13 0.10000000E+01 0.51940894E+02</pdfrwt>
<pdfrwt beam="2">  1       22 0.41660259E+00 0.51940894E+02</pdfrwt>
<totfact> 0.11421974E-01</totfact>
</mgrwt>
</event>
<event>
 4    1  0.2489082E+000  0.5112144E+02  0.7957747E-01  0.1439385E+00
         13   -1    0    0    0    0  0.00000000000E+00  0.00000000000E+00  0.99999944175E+02  0.99999999995E+02  0.10566000000E+00 0. -1.
         22   -1    0    0    0    0 -0.00000000000E+00 -0.00000000000E+00 -0.23334296452E+02  0.23334296452E+02  0.00000000000E+00 0.  1.
         13    1    1    2    0    0 -0.78786884812E+01  0.71643559376E+01 -0.14988863867E+02  0.18386922859E+02  0.10566000000E+00 0.  1.
        996    1    1    2    0    0  0.78786884812E+01 -0.71643559376E+01  0.91654511590E+02  0.10494737359E+03  0.50000000000E+02 0.  0.
<mgrwt>
<rscale>  0 0.51121441E+02</rscale>
<asrwt>0</asrwt>
<pdfrwt beam="1">  1       13 0.10000000E+01 0.51121441E+02</pdfrwt>
<pdfrwt beam="2">  1       22 0.23334318E+00 0.51121441E+02</pdfrwt>
<totfact> 0.33695538E-01</totfact>
</mgrwt>
</event>
<event>
 4    1  0.2489082E+000  0.5294704E+02  0.7957747E-01  0.1430065E+00
         13   -1    0    0    0    0  0.00000000000E+00  0.00000000000E+00  0.99999944178E+02  0.99999999999E+02  0.10566000000E+00 0. -1.
         22   -1    0    0    0    0 -0.00000000000E+00 -0.00000000000E+00 -0.13306054340E+02  0.13306054340E+02  0.00000000000E+00 0.  1.
         13    1    1    2    0    0 -0.14869023497E+02 -0.90719897565E+01  0.99202485226E+01  0.20045232667E+02  0.10566000000E+00 0.  1.
        996    1    1    2    0    0  0.14869023497E+02  0.90719897565E+01  0.76773641316E+02  0.93260821671E+02  0.50000000000E+02 0.  0.
<mgrwt>
<rscale>  0 0.52947038E+02</rscale>
<asrwt>0</asrwt>
<pdfrwt beam="1">  1       13 0.10000000E+01 0.52947038E+02</pdfrwt>
<pdfrwt beam="2">  1       22 0.13306079E+00 0.52947038E+02</pdfrwt>
<totfact> 0.91679383E-01</totfact>
</mgrwt>
</event>
<event>
 4    1  0.2489082E+000  0.5172790E+02  0.7957747E-01  0.1436238E+00
         13   -1    0    0    0    0  0.00000000000E+00  0.00000000000E+00  0.99999944177E+02  0.99999999997E+02  0.10566000000E+00 0.  1.
         22   -1    0    0    0    0 -0.00000000000E+00 -0.00000000000E+00 -0.10877224278E+02  0.10877224278E+02  0.00000000000E+00 0. -1.
         13    1    1    2    0    0  0.13207818952E+02  0.11527208028E+01  0.11242383083E+02  0.17383255970E+02  0.10566000000E+00 0. -1.
        996    1    1    2    0    0 -0.13207818952E+02 -0.11527208028E+01  0.77880336816E+02  0.93493968304E+02  0.50000000000E+02 0.  0.
<mgrwt>
<rscale>  0 0.51727896E+02</rscale>
<asrwt>0</asrwt>
<pdfrwt beam="1">  1       13 0.10000000E+01 0.51727896E+02</pdfrwt>
<pdfrwt beam="2">  1       22 0.10877249E+00 0.51727896E+02</pdfrwt>
<totfact> 0.12455439E+00</totfact>
</mgrwt>
</event>
<event>
 4    1  0.2489082E+000  0.5209258E+02  0.7957747E-01  0.1434371E+00
         13   -1    0    0    0    0  0.00000000000E+00  0.00000000000E+00  0.99999944177E+02  0.99999999997E+02  0.10566000000E+00 0.  1.
         22   -1    0    0    0    0 -0.00000000000E+00 -0.00000000000E+00 -0.14521671218E+02  0.14521671218E+02  0.00000000000E+00 0.  1.
         13    1    1    2    0    0 -0.97524806015E+01 -0.10886941373E+02  0.23155405533E+00  0.14618520844E+02  0.10566000000E+00 0. -1.
        996    1    1    2    0    0  0.97524806015E+01  0.10886941373E+02  0.85246718904E+02  0.99903150372E+02  0.50000000000E+02 0.  0.
<mgrwt>
<rscale>  0 0.52092575E+02</rscale>
<asrwt>0</asrwt>
<pdfrwt beam="1">  1       13 0.10000000E+01 0.52092575E+02</pdfrwt>
<pdfrwt beam="2">  1       22 0.14521695E+00 0.52092575E+02</pdfrwt>
<totfact> 0.79454754E-01</totfact>
</mgrwt>
</event>
<event>
 4    1  0.2489082E+000  0.5118209E+02  0.7957747E-01  0.1439068E+00
         13   -1    0    0    0    0  0.00000000000E+00  0.00000000000E+00  0.99999944183E+02  0.10000000000E+03  0.10566000000E+00 0. -1.
         22   -1    0    0    0    0 -0.00000000000E+00 -0.00000000000E+00 -0.21684796061E+02  0.21684796061E+02  0.00000000000E+00 0.  1.
         13    1    1    2    0    0  0.80694895303E+00 -0.10906656594E+02 -0.13009333413E+02  0.16995889048E+02  0.10566000000E+00 0.  1.
        996    1    1    2    0    0 -0.80694895303E+00  0.10906656594E+02  0.91324481535E+02  0.10468890702E+03  0.50000000000E+02 0.  0.
<mgrwt>
<rscale>  0 0.51182090E+02</rscale>
<asrwt>0</asrwt>
<pdfrwt beam="1">  1       13 0.10000000E+01 0.51182090E+02</pdfrwt>
<pdfrwt beam="2">  1       22 0.21684818E+00 0.51182090E+02</pdfrwt>
<totfact> 0.38827771E-01</totfact>
</mgrwt>
</event>
<event>
 4    1  0.2489082E+000  0.5152596E+02  0.7957747E-01  0.1437281E+00
         13   -1    0    0    0    0  0.00000000000E+00  0.00000000000E+00  0.99999944176E+02  0.99999999996E+02  0.10566000000E+00 0. -1.
         22   -1    0    0    0    0 -0.00000000000E+00 -0.00000000000E+00 -0.13041770625E+02  0.13041770625E+02  0.00000000000E+00 0.  1.
         13    1    1    2    0    0  0.46868938616E+01  0.11530740945E+02  0.57749199358E+00  0.12460723167E+02  0.10566000000E+00 0.  1.
        996    1    1    2    0    0 -0.46868938616E+01 -0.11530740945E+02  0.86380681557E+02  0.10058104745E+03  0.50000000000E+02 0.  0.
<mgrwt>
<rscale>  0 0.51525964E+02</rscale>
<asrwt>0</asrwt>
<pdfrwt beam="1">  1       13 0.10000000E+01 0.51525964E+02</pdfrwt>
<pdfrwt beam="2">  1       22 0.13041795E+00 0.51525964E+02</pdfrwt>
<totfact> 0.94350377E-01</totfact>
</mgrwt>
</event>
<event>
 4    1  0.2489082E+000  0.5426867E+02  0.7957747E-01  0.1423589E+00
         13   -1    0    0    0    0  0.00000000000E+00  0.00000000000E+00  0.99999944175E+02  0.99999999995E+02  0.10566000000E+00 0.  1.
         22   -1    0    0    0    0 -0.00000000000E+00 -0.00000000000E+00 -0.65336806447E+02  0.65336806447E+02  0.00000000000E+00 0. -1.
         13    1    1    2    0    0  0.20879574530E+02 -0.30218281410E+01 -0.55905478023E+02  0.59753842679E+02  0.10566000000E+00 0. -1.
        996    1    1    2    0    0 -0.20879574530E+02  0.30218281410E+01  0.90568615751E+02  0.10558296376E+03  0.50000000000E+02 0.  0.
<mgrwt>
<rscale>  0 0.54268666E+02</rscale>
<asrwt>0</asrwt>
<pdfrwt beam="1">  1       13 0.10000000E+01 0.54268666E+02</pdfrwt>
<pdfrwt beam="2">  1       22 0.65336816E+00 0.54268666E+02</pdfrwt>
<totfact> 0.86914777E-02</totfact>
</mgrwt>
</event>
<event>
 4    1  0.2489082E+000  0.5203383E+02  0.7957747E-01  0.1434670E+00
         13   -1    0    0    0    0  0.00000000000E+00  0.00000000000E+00  0.99999944178E+02  0.99999999998E+02  0.10566000000E+00 0.  1.
         22   -1    0    0    0    0 -0.00000000000E+00 -0.00000000000E+00 -0.11344907020E+02  0.11344907020E+02  0.00000000000E+00 0.  1.
         13    1    1    2    0    0 -0.86867451222E+01 -0.11491713687E+02  0.27532441395E+02  0.31073550127E+02  0.10566000000E+00 0. -1.
        996    1    1    2    0    0  0.86867451222E+01  0.11491713687E+02  0.61122595763E+02  0.80271356891E+02  0.50000000000E+02 0.  0.
<mgrwt>
<rscale>  0 0.52033826E+02</rscale>
<asrwt>0</asrwt>
<pdfrwt beam="1">  1       13 0.10000000E+01 0.52033826E+02</pdfrwt>
<pdfrwt beam="2">  1       22 0.11344932E+00 0.52033826E+02</pdfrwt>
<totfact> 0.11705282E+00</totfact>
</mgrwt>
</event>
<event>
 4    1  0.2489082E+000  0.5409918E+02  0.7957747E-01  0.1424408E+00
         13   -1    0    0    0    0  0.00000000000E+00  0.00000000000E+00  0.99999944177E+02  0.99999999997E+02  0.10566000000E+00 0. -1.
         22   -1    0    0    0    0 -0.00000000000E+00 -0.00000000000E+00 -0.22608180487E+02  0.22608180487E+02  0.00000000000E+00 0.  1.
         13    1    1    2    0    0  0.15773500433E+02 -0.13338583527E+02 -0.74720152061E+01  0.21967323499E+02  0.10566000000E+00 0.  1.
        996    1    1    2    0    0 -0.15773500433E+02  0.13338583527E+02  0.84863778896E+02  0.10064085699E+03  0.50000000000E+02 0.  0.
<mgrwt>
<rscale>  0 0.54099179E+02</rscale>
<asrwt>0</asrwt>
<pdfrwt beam="1">  1       13 0.10000000E+01 0.54099179E+02</pdfrwt>
<pdfrwt beam="2">  1       22 0.22608202E+00 0.54099179E+02</pdfrwt>
<totfact> 0.36006543E-01</totfact>
</mgrwt>
</event>
<event>
 4    1  0.2489082E+000  0.5148562E+02  0.7957747E-01  0.1437489E+00
         13   -1    0    0    0    0  0.00000000000E+00  0.00000000000E+00  0.99999944171E+02  0.99999999991E+02  0.10566000000E+00 0. -1.
         22   -1    0    0    0    0 -0.00000000000E+00 -0.00000000000E+00 -0.17256828812E+02  0.17256828812E+02  0.00000000000E+00 0.  1.
         13    1    1    2    0    0  0.90687751988E+01  0.82780430695E+01 -0.67487883194E+01  0.14011637609E+02  0.10566000000E+00 0.  1.
        996    1    1    2    0    0 -0.90687751988E+01 -0.82780430695E+01  0.89491903679E+02  0.10324519119E+03  0.50000000000E+02 0.  0.
<mgrwt>
<rscale>  0 0.51485616E+02</rscale>
<asrwt>0</asrwt>
<pdfrwt beam="1">  1       13 0.10000000E+01 0.51485616E+02</pdfrwt>
<pdfrwt beam="2">  1       22 0.17256852E+00 0.51485616E+02</pdfrwt>
<totfact> 0.59158248E-01</totfact>
</mgrwt>
</event>
<event>
 4    1  0.2489082E+000  0.5313451E+02  0.7957747E-01  0.1429133E+00
         13   -1    0    0    0    0  0.00000000000E+00  0.00000000000E+00  0.99999944183E+02  0.10000000000E+03  0.10566000000E+00 0. -1.
         22   -1    0    0    0    0 -0.00000000000E+00 -0.00000000000E+00 -0.16317607820E+02  0.16317607820E+02  0.00000000000E+00 0.  1.
         13    1    1    2    0    0 -0.70884486162E+01  0.16523613593E+02  0.96676754759E+00  0.18006157654E+02  0.10566000000E+00 0.  1.
        996    1    1    2    0    0  0.70884486162E+01 -0.16523613593E+02  0.82715568815E+02  0.98311450169E+02  0.50000000000E+02 0.  0.
<mgrwt>
<rscale>  0 0.53134508E+02</rscale>
<asrwt>0</asrwt>
<pdfrwt beam="1">  1       13 0.10000000E+01 0.53134508E+02</pdfrwt>
<pdfrwt beam="2">  1       22 0.16317631E+00 0.53134508E+02</pdfrwt>
<totfact> 0.65429181E-01</totfact>
</mgrwt>
</event>
<event>
 4    1  0.2489082E+000  0.5342387E+02  0.7957747E-01  0.1427703E+00
         13   -1    0    0    0    0  0.00000000000E+00  0.00000000000E+00  0.99999944179E+02  0.99999999999E+02  0.10566000000E+00 0. -1.
         22   -1    0    0    0    0 -0.00000000000E+00 -0.00000000000E+00 -0.13126642822E+02  0.13126642822E+02  0.00000000000E+00 0. -1.
         13    1    1    2    0    0  0.31718725129E+01  0.18548555766E+02  0.26620599036E+02  0.32600263087E+02  0.10566000000E+00 0.  1.
        996    1    1    2    0    0 -0.31718725129E+01 -0.18548555766E+02  0.60252702321E+02  0.80526379735E+02  0.50000000000E+02 0.  0.
<mgrwt>
<rscale>  0 0.53423868E+02</rscale>
<asrwt>0</asrwt>
<pdfrwt beam="1">  1       13 0.10000000E+01 0.53423868E+02</pdfrwt>
<pdfrwt beam="2">  1       22 0.13126667E+00 0.53423868E+02</pdfrwt>
<totfact> 0.93768493E-01</totfact>
</mgrwt>
</event>
<event>
 4    1  0.2489082E+000  0.5731385E+02  0.7957747E-01  0.1409463E+00
         13   -1    0    0    0    0  0.00000000000E+00  0.00000000000E+00  0.99999944187E+02  0.10000000001E+03  0.10566000000E+00 0.  1.
         22   -1    0    0    0    0 -0.00000000000E+00 -0.00000000000E+00 -0.19383225138E+02  0.19383225138E+02  0.00000000000E+00 0. -1.
         13    1    1    2    0    0 -0.27981896666E+02  0.13751599271E+01  0.13420487190E+02  0.31064420908E+02  0.10566000000E+00 0. -1.
        996    1    1    2    0    0  0.27981896666E+02 -0.13751599271E+01  0.67196231860E+02  0.88318804238E+02  0.50000000000E+02 0.  0.
<mgrwt>
<rscale>  0 0.57313852E+02</rscale>
<asrwt>0</asrwt>
<pdfrwt beam="1">  1       13 0.10000000E+01 0.57313852E+02</pdfrwt>
<pdfrwt beam="2">  1       22 0.19383248E+00 0.57313852E+02</pdfrwt>
<totfact> 0.48461855E-01</totfact>
</mgrwt>
</event>
<event>
 4    1  0.2489082E+000  0.5282042E+02  0.7957747E-01  0.1430697E+00
         13   -1    0    0    0    0  0.00000000000E+00  0.00000000000E+00  0.99999944183E+02  0.10000000000E+03  0.10566000000E+00 0. -1.
         22   -1    0    0    0    0 -0.00000000000E+00 -0.00000000000E+00 -0.41801846014E+02  0.41801846014E+02  0.00000000000E+00 0.  1.
         13    1    1    2    0    0  0.16386287144E+02 -0.46353038802E+01 -0.32587217987E+02  0.36768660413E+02  0.10566000000E+00 0.  1.
        996    1    1    2    0    0 -0.16386287144E+02  0.46353038802E+01  0.90785316156E+02  0.10503318560E+03  0.50000000000E+02 0.  0.
<mgrwt>
<rscale>  0 0.52820417E+02</rscale>
<asrwt>0</asrwt>
<pdfrwt beam="1">  1       13 0.10000000E+01 0.52820417E+02</pdfrwt>
<pdfrwt beam="2">  1       22 0.41801862E+00 0.52820417E+02</pdfrwt>
<totfact> 0.11350799E-01</totfact>
</mgrwt>
</event>
<event>
 4    1  0.2489082E+000  0.5237424E+02  0.7957747E-01  0.1432941E+00
         13   -1    0    0    0    0  0.00000000000E+00  0.00000000000E+00  0.99999944179E+02  0.99999999999E+02  0.10566000000E+00 0. -1.
         22   -1    0    0    0    0 -0.00000000000E+00 -0.00000000000E+00 -0.14511025104E+02  0.14511025104E+02  0.00000000000E+00 0.  1.
         13    1    1    2    0    0 -0.53715978203E+01 -0.14635821033E+02  0.16774699922E+01  0.15680764971E+02  0.10566000000E+00 0.  1.
        996    1    1    2    0    0  0.53715978203E+01  0.14635821033E+02  0.83811449083E+02  0.98830260132E+02  0.50000000000E+02 0.  0.
<mgrwt>
<rscale>  0 0.52374243E+02</rscale>
<asrwt>0</asrwt>
<pdfrwt beam="1">  1       13 0.10000000E+01 0.52374243E+02</pdfrwt>
<pdfrwt beam="2">  1       22 0.14511049E+00 0.52374243E+02</pdfrwt>
<totfact> 0.79596818E-01</totfact>
</mgrwt>
</event>
<event>
 4    1  0.2489082E+000  0.5105408E+02  0.7957747E-01  0.1439738E+00
         13   -1    0    0    0    0  0.00000000000E+00  0.00000000000E+00  0.99999944185E+02  0.10000000000E+03  0.10566000000E+00 0. -1.
         22   -1    0    0    0    0 -0.00000000000E+00 -0.00000000000E+00 -0.99451626579E+01  0.99451626579E+01  0.00000000000E+00 0. -1.
         13    1    1    2    0    0 -0.10275819806E+02  0.96279066501E+00  0.70610988759E+01  0.12505587548E+02  0.10566000000E+00 0.  1.
        996    1    1    2    0    0  0.10275819806E+02 -0.96279066501E+00  0.82993682651E+02  0.97439575115E+02  0.50000000000E+02 0.  0.
<mgrwt>
<rscale>  0 0.51054083E+02</rscale>
<asrwt>0</asrwt>
<pdfrwt beam="1">  1       13 0.10000000E+01 0.51054083E+02</pdfrwt>
<pdfrwt beam="2">  1       22 0.99451878E-01 0.51054083E+02</pdfrwt>
<totfact> 0.14177954E+00</totfact>
</mgrwt>
</event>
<event>
 4    1  0.2489082E+000  0.7349659E+02  0.7957747E-01  0.1348591E+00
         13   -1    0    0    0    0  0.00000000000E+00  0.00000000000E+00  0.99999944174E+02  0.99999999994E+02  0.10566000000E+00 0. -1.
         22   -1    0    0    0    0 -0.00000000000E+00 -0.00000000000E+00 -0.40597134749E+02  0.40597134749E+02  0.00000000000E+00 0.  1.
         13    1    1    2    0    0  0.32634141662E+02  0.42857457427E+02  0.27384474445E+02  0.60429044869E+02  0.10566000000E+00 0.  1.
        996    1    1    2    0    0 -0.32634141662E+02 -0.42857457427E+02  0.32018334979E+02  0.80168089874E+02  0.50000000000E+02 0.  0.
<mgrwt>
<rscale>  0 0.73496591E+02</rscale>
<asrwt>0</asrwt>
<pdfrwt beam="1">  1       13 0.10000000E+01 0.73496591E+02</pdfrwt>
<pdfrwt beam="2">  1       22 0.40597151E+00 0.73496591E+02</pdfrwt>
<totfact> 0.12186020E-01</totfact>
</mgrwt>
</event>
<event>
 4    1  0.2489082E+000  0.6592148E+02  0.7957747E-01  0.1374538E+00
         13   -1    0    0    0    0  0.00000000000E+00  0.00000000000E+00  0.99999944182E+02  0.10000000000E+03  0.10566000000E+00 0. -1.
         22   -1    0    0    0    0 -0.00000000000E+00 -0.00000000000E+00 -0.40910378687E+02  0.40910378687E+02  0.00000000000E+00 0.  1.
         13    1    1    2    0    0 -0.26008094784E+02  0.34193865327E+02 -0.11350589822E+02  0.44435216593E+02  0.10566000000E+00 0.  1.
        996    1    1    2    0    0  0.26008094784E+02 -0.34193865327E+02  0.70440155317E+02  0.96475162096E+02  0.50000000000E+02 0.  0.
<mgrwt>
<rscale>  0 0.65921479E+02</rscale>
<asrwt>0</asrwt>
<pdfrwt beam="1">  1       13 0.10000000E+01 0.65921479E+02</pdfrwt>
<pdfrwt beam="2">  1       22 0.40910395E+00 0.65921479E+02</pdfrwt>
<totfact> 0.11951923E-01</totfact>
</mgrwt>
</event>
<event>
 4    1  0.2489082E+000  0.5163832E+02  0.7957747E-01  0.1436700E+00
         13   -1    0    0    0    0  0.00000000000E+00  0.00000000000E+00  0.99999944177E+02  0.99999999998E+02  0.10566000000E+00 0. -1.
         22   -1    0    0    0    0 -0.00000000000E+00 -0.00000000000E+00 -0.10642874197E+02  0.10642874197E+02  0.00000000000E+00 0. -1.
         13    1    1    2    0    0  0.11362422890E+02 -0.61165116664E+01  0.11919102035E+02  0.17566801822E+02  0.10566000000E+00 0.  1.
        996    1    1    2    0    0 -0.11362422890E+02  0.61165116664E+01  0.77437967945E+02  0.93076072373E+02  0.50000000000E+02 0.  0.
<mgrwt>
<rscale>  0 0.51638323E+02</rscale>
<asrwt>0</asrwt>
<pdfrwt beam="1">  1       13 0.10000000E+01 0.51638323E+02</pdfrwt>
<pdfrwt beam="2">  1       22 0.10642899E+00 0.51638323E+02</pdfrwt>
<totfact> 0.12860244E+00</totfact>
</mgrwt>
</event>
<event>
 4    1  0.2489082E+000  0.5724430E+02  0.7957747E-01  0.1409774E+00
         13   -1    0    0    0    0  0.00000000000E+00  0.00000000000E+00  0.99999944178E+02  0.99999999998E+02  0.10566000000E+00 0. -1.
         22   -1    0    0    0    0 -0.00000000000E+00 -0.00000000000E+00 -0.64102710548E+02  0.64102710548E+02  0.00000000000E+00 0.  1.
         13    1    1    2    0    0 -0.13720896436E+02 -0.24262056602E+02 -0.52121519586E+02  0.59106466292E+02  0.10566000000E+00 0.  1.
        996    1    1    2    0    0  0.13720896436E+02  0.24262056602E+02  0.88018753216E+02  0.10499624425E+03  0.50000000000E+02 0.  0.
<mgrwt>
<rscale>  0 0.57244304E+02</rscale>
<asrwt>0</asrwt>
<pdfrwt beam="1">  1       13 0.10000000E+01 0.57244304E+02</pdfrwt>
<pdfrwt beam="2">  1       22 0.64102721E+00 0.57244304E+02</pdfrwt>
<totfact> 0.83755783E-02</totfact>
</mgrwt>
</event>
<event>
 4    1  0.2489082E+000  0.6326308E+02  0.7957747E-01  0.1384627E+00
         13   -1    0    0    0    0  0.00000000000E+00  0.00000000000E+00  0.99999944182E+02  0.10000000000E+03  0.10566000000E+00 0.  1.
         22   -1    0    0    0    0 -0.00000000000E+00 -0.00000000000E+00 -0.38095711833E+02  0.38095711833E+02  0.00000000000E+00 0. -1.
         13    1    1    2    0    0 -0.38041742050E+02  0.74191305629E+01 -0.12225423430E+02  0.40640986437E+02  0.10566000000E+00 0. -1.
        996    1    1    2    0    0  0.38041742050E+02 -0.74191305629E+01  0.74129655779E+02  0.97454725398E+02  0.50000000000E+02 0.  0.
<mgrwt>
<rscale>  0 0.63263083E+02</rscale>
<asrwt>0</asrwt>
<pdfrwt beam="1">  1       13 0.10000000E+01 0.63263083E+02</pdfrwt>
<pdfrwt beam="2">  1       22 0.38095729E+00 0.63263083E+02</pdfrwt>
<totfact> 0.13654102E-01</totfact>
</mgrwt>
</event>
<event>
 4    1  0.2489082E+000  0.7555068E+02  0.7957747E-01  0.1342174E+00
         13   -1    0    0    0    0  0.00000000000E+00  0.00000000000E+00  0.99999944179E+02  0.99999999999E+02  0.10566000000E+00 0.  1.
         22   -1    0    0    0    0 -0.00000000000E+00 -0.00000000000E+00 -0.45845743622E+02  0.45845743622E+02  0.00000000000E+00 0. -1.
         13    1    1    2    0    0  0.35406796663E+02  0.44207055861E+02  0.77093418956E+01  0.57160739624E+02  0.10566000000E+00 0. -1.
        996    1    1    2    0    0 -0.35406796663E+02 -0.44207055861E+02  0.46444858662E+02  0.88685003997E+02  0.50000000000E+02 0.  0.
<mgrwt>
<rscale>  0 0.75550679E+02</rscale>
<asrwt>0</asrwt>
<pdfrwt beam="1">  1       13 0.10000000E+01 0.75550679E+02</pdfrwt>
<pdfrwt beam="2">  1       22 0.45845759E+00 0.75550679E+02</pdfrwt>
<totfact> 0.93443023E-02</totfact>
</mgrwt>
</event>
<event>
 4    1  0.2489082E+000  0.5114827E+02  0.7957747E-01  0.1439245E+00
         13   -1    0    0    0    0  0.00000000000E+00  0.00000000000E+00  0.99999944174E+02  0.99999999995E+02  0.10566000000E+00 0. -1.
         22   -1    0    0    0    0 -0.00000000000E+00 -0.00000000000E+00 -0.19552776145E+02  0.19552776145E+02  0.00000000000E+00 0.  1.
         13    1    1    2    0    0 -0.81984145607E+01  0.69951113181E+01 -0.10603490576E+02  0.15119218237E+02  0.10566000000E+00 0.  1.
        996    1    1    2    0    0  0.81984145607E+01 -0.69951113181E+01  0.91050658606E+02  0.10443355790E+03  0.50000000000E+02 0.  0.
<mgrwt>
<rscale>  0 0.51148271E+02</rscale>
<asrwt>0</asrwt>
<pdfrwt beam="1">  1       13 0.10000000E+01 0.51148271E+02</pdfrwt>
<pdfrwt beam="2">  1       22 0.19552799E+00 0.51148271E+02</pdfrwt>
<totfact> 0.47178463E-01</totfact>
</mgrwt>
</event>
<event>
 4    1  0.2489082E+000  0.5151906E+02  0.7957747E-01  0.1437316E+00
         13   -1    0    0    0    0  0.00000000000E+00  0.00000000000E+00  0.99999944176E+02  0.99999999996E+02  0.10566000000E+00 0. -1.
         22   -1    0    0    0    0 -0.00000000000E+00 -0.00000000000E+00 -0.22173917684E+02  0.22173917684E+02  0.00000000000E+00 0.  1.
         13    1    1    2    0    0  0.84646052806E+01 -0.90864943222E+01 -0.12858718498E+02  0.17876569220E+02  0.10566000000E+00 0.  1.
        996    1    1    2    0    0 -0.84646052806E+01  0.90864943222E+01  0.90684744991E+02  0.10429734846E+03  0.50000000000E+02 0.  0.
<mgrwt>
<rscale>  0 0.51519064E+02</rscale>
<asrwt>0</asrwt>
<pdfrwt beam="1">  1       13 0.10000000E+01 0.51519064E+02</pdfrwt>
<pdfrwt beam="2">  1       22 0.22173939E+00 0.51519064E+02</pdfrwt>
<totfact> 0.37221622E-01</totfact>
</mgrwt>
</event>
<event>
 4    1  0.2489082E+000  0.5251456E+02  0.7957747E-01  0.1432232E+00
         13   -1    0    0    0    0  0.00000000000E+00  0.00000000000E+00  0.99999944183E+02  0.10000000000E+03  0.10566000000E+00 0. -1.
         22   -1    0    0    0    0 -0.00000000000E+00 -0.00000000000E+00 -0.19499360402E+02  0.19499360402E+02  0.00000000000E+00 0.  1.
         13    1    1    2    0    0 -0.12315743982E+02 -0.10300561520E+02 -0.69476645580E+01  0.17494579855E+02  0.10566000000E+00 0.  1.
        996    1    1    2    0    0  0.12315743982E+02  0.10300561520E+02  0.87448248339E+02  0.10200478055E+03  0.50000000000E+02 0.  0.
<mgrwt>
<rscale>  0 0.52514561E+02</rscale>
<asrwt>0</asrwt>
<pdfrwt beam="1">  1       13 0.10000000E+01 0.52514561E+02</pdfrwt>
<pdfrwt beam="2">  1       22 0.19499383E+00 0.52514561E+02</pdfrwt>
<totfact> 0.47536029E-01</totfact>
</mgrwt>
</event>
<event>
 4    1  0.2489082E+000  0.5234054E+02  0.7957747E-01  0.1433111E+00
         13   -1    0    0    0    0  0.00000000000E+00  0.00000000000E+00  0.99999944178E+02  0.99999999998E+02  0.10566000000E+00 0. -1.
         22   -1    0    0    0    0 -0.00000000000E+00 -0.00000000000E+00 -0.14705599383E+02  0.14705599383E+02  0.00000000000E+00 0. -1.
         13    1    1    2    0    0 -0.68181188118E+01  0.13894073720E+02  0.48010383407E+02  0.50443434732E+02  0.10566000000E+00 0.  1.
        996    1    1    2    0    0  0.68181188118E+01 -0.13894073720E+02  0.37283961388E+02  0.64262164650E+02  0.50000000000E+02 0.  0.
<mgrwt>
<rscale>  0 0.52340539E+02</rscale>
<asrwt>0</asrwt>
<pdfrwt beam="1">  1       13 0.10000000E+01 0.52340539E+02</pdfrwt>
<pdfrwt beam="2">  1       22 0.14705623E+00 0.52340539E+02</pdfrwt>
<totfact> 0.77863267E-01</totfact>
</mgrwt>
</event>
<event>
 4    1  0.2489082E+000  0.5137219E+02  0.7957747E-01  0.1438078E+00
         13   -1    0    0    0    0  0.00000000000E+00  0.00000000000E+00  0.99999944188E+02  0.10000000001E+03  0.10566000000E+00 0.  1.
         22   -1    0    0    0    0 -0.00000000000E+00 -0.00000000000E+00 -0.99904737433E+01  0.99904737433E+01  0.00000000000E+00 0.  1.
         13    1    1    2    0    0  0.18878298268E+01  0.11642096627E+02  0.18532571775E+02  0.21967469038E+02  0.10566000000E+00 0. -1.
        996    1    1    2    0    0 -0.18878298268E+01 -0.11642096627E+02  0.71476898670E+02  0.88023004713E+02  0.50000000000E+02 0.  0.
<mgrwt>
<rscale>  0 0.51372194E+02</rscale>
<asrwt>0</asrwt>
<pdfrwt beam="1">  1       13 0.10000000E+01 0.51372194E+02</pdfrwt>
<pdfrwt beam="2">  1       22 0.99904989E-01 0.51372194E+02</pdfrwt>
<totfact> 0.14095937E+00</totfact>
</mgrwt>
</event>
<event>
 4    1  0.2489082E+000  0.5285931E+02  0.7957747E-01  0.1430502E+00
         13   -1    0    0    0    0  0.00000000000E+00  0.00000000000E+00  0.99999944184E+02  0.10000000000E+03  0.10566000000E+00 0.  1.
         22   -1    0    0    0    0 -0.00000000000E+00 -0.00000000000E+00 -0.15548795945E+02  0.15548795945E+02  0.00000000000E+00 0. -1.
         13    1    1    2    0    0  0.57911802447E+01  0.16142136297E+02  0.15372228877E+01  0.17218610603E+02  0.10566000000E+00 0. -1.
        996    1    1    2    0    0 -0.57911802447E+01 -0.16142136297E+02  0.82913925352E+02  0.98330185346E+02  0.50000000000E+02 0.  0.
<mgrwt>
<rscale>  0 0.52859307E+02</rscale>
<asrwt>0</asrwt>
<pdfrwt beam="1">  1       13 0.10000000E+01 0.52859307E+02</pdfrwt>
<pdfrwt beam="2">  1       22 0.15548820E+00 0.52859307E+02</pdfrwt>
<totfact> 0.71010619E-01</totfact>
</mgrwt>
</event>
<event>
 4    1  0.2489082E+000  0.5179007E+02  0.7957747E-01  0.1435919E+00
         13   -1    0    0    0    0  0.00000000000E+00  0.00000000000E+00  0.99999944179E+02  0.99999999999E+02  0.10566000000E+00 0. -1.
         22   -1    0    0    0    0 -0.00000000000E+00 -0.00000000000E+00 -0.14692289661E+02  0.14692289661E+02  0.00000000000E+00 0. -1.
         13    1    1    2    0    0  0.13426714845E+02 -0.13911120824E+01 -0.15279983624E+01  0.13585205460E+02  0.10566000000E+00 0.  1.
        996    1    1    2    0    0 -0.13426714845E+02  0.13911120824E+01  0.86835652881E+02  0.10110708420E+03  0.50000000000E+02 0.  0.
<mgrwt>
<rscale>  0 0.51790075E+02</rscale>
<asrwt>0</asrwt>
<pdfrwt beam="1">  1       13 0.10000000E+01 0.51790075E+02</pdfrwt>
<pdfrwt beam="2">  1       22 0.14692313E+00 0.51790075E+02</pdfrwt>
<totfact> 0.77891484E-01</totfact>
</mgrwt>
</event>
<event>
 4    1  0.2489082E+000  0.5119487E+02  0.7957747E-01  0.1439001E+00
         13   -1    0    0    0    0  0.00000000000E+00  0.00000000000E+00  0.99999944181E+02  0.10000000000E+03  0.10566000000E+00 0. -1.
         22   -1    0    0    0    0 -0.00000000000E+00 -0.00000000000E+00 -0.27234697525E+02  0.27234697525E+02  0.00000000000E+00 0.  1.
         13    1    1    2    0    0 -0.10358422867E+02 -0.36902616299E+01 -0.19116137021E+02  0.22053408213E+02  0.10566000000E+00 0.  1.
        996    1    1    2    0    0  0.10358422867E+02  0.36902616299E+01  0.91881383677E+02  0.10518128931E+03  0.50000000000E+02 0.  0.
<mgrwt>
<rscale>  0 0.51194872E+02</rscale>
<asrwt>0</asrwt>
<pdfrwt beam="1">  1       13 0.10000000E+01 0.51194872E+02</pdfrwt>
<pdfrwt beam="2">  1       22 0.27234718E+00 0.51194872E+02</pdfrwt>
<totfact> 0.24888063E-01</totfact>
</mgrwt>
</event>
<event>
 4    1  0.2489082E+000  0.5204164E+02  0.7957747E-01  0.1434631E+00
         13   -1    0    0    0    0  0.00000000000E+00  0.00000000000E+00  0.99999944178E+02  0.99999999999E+02  0.10566000000E+00 0.  1.
         22   -1    0    0    0    0 -0.00000000000E+00 -0.00000000000E+00 -0.11248687688E+02  0.11248687688E+02  0.00000000000E+00 0.  1.
         13    1    1    2    0    0 -0.13552711980E+02 -0.49655272215E+01  0.25879044191E+02  0.29632221565E+02  0.10566000000E+00 0. -1.
        996    1    1    2    0    0  0.13552711980E+02  0.49655272215E+01  0.62872212299E+02  0.81616466121E+02  0.50000000000E+02 0.  0.
<mgrwt>
<rscale>  0 0.52041642E+02</rscale>
<asrwt>0</asrwt>
<pdfrwt beam="1">  1       13 0.10000000E+01 0.52041642E+02</pdfrwt>
<pdfrwt beam="2">  1       22 0.11248712E+00 0.52041642E+02</pdfrwt>
<totfact> 0.11856011E+00</totfact>
</mgrwt>
</event>
<event>
 4    1  0.2489082E+000  0.5638424E+02  0.7957747E-01  0.1413664E+00
         13   -1    0    0    0    0  0.00000000000E+00  0.00000000000E+00  0.99999944176E+02  0.99999999996E+02  0.10566000000E+00 0. -1.
         22   -1    0    0    0    0 -0.00000000000E+00 -0.00000000000E+00 -0.26569573531E+02  0.26569573531E+02  0.00000000000E+00 0.  1.
         13    1    1    2    0    0  0.76600240575E+00  0.26049869031E+02 -0.82340478273E+01  0.27331175311E+02  0.10566000000E+00 0.  1.
        996    1    1    2    0    0 -0.76600240575E+00 -0.26049869031E+02  0.81664418472E+02  0.99238398217E+02  0.50000000000E+02 0.  0.
<mgrwt>
<rscale>  0 0.56384239E+02</rscale>
<asrwt>0</asrwt>
<pdfrwt beam="1">  1       13 0.10000000E+01 0.56384239E+02</pdfrwt>
<pdfrwt beam="2">  1       22 0.26569594E+00 0.56384239E+02</pdfrwt>
<totfact> 0.26317258E-01</totfact>
</mgrwt>
</event>
<event>
 4    1  0.2489082E+000  0.5281760E+02  0.7957747E-01  0.1430711E+00
         13   -1    0    0    0    0  0.00000000000E+00  0.00000000000E+00  0.99999944178E+02  0.99999999998E+02  0.10566000000E+00 0.  1.
         22   -1    0    0    0    0 -0.00000000000E+00 -0.00000000000E+00 -0.35752008133E+02  0.35752008133E+02  0.00000000000E+00 0. -1.
         13    1    1    2    0    0  0.92630442865E+01 -0.14279161462E+02 -0.26063827577E+02  0.31129290283E+02  0.10566000000E+00 0. -1.
        996    1    1    2    0    0 -0.92630442865E+01  0.14279161462E+02  0.90311763622E+02  0.10462271785E+03  0.50000000000E+02 0.  0.
<mgrwt>
<rscale>  0 0.52817596E+02</rscale>
<asrwt>0</asrwt>
<pdfrwt beam="1">  1       13 0.10000000E+01 0.52817596E+02</pdfrwt>
<pdfrwt beam="2">  1       22 0.35752026E+00 0.52817596E+02</pdfrwt>
<totfact> 0.15154679E-01</totfact>
</mgrwt>
</event>
<event>
 4    1  0.2489082E+000  0.5321025E+02  0.7957747E-01  0.1428757E+00
         13   -1    0    0    0    0  0.00000000000E+00  0.00000000000E+00  0.99999944178E+02  0.99999999998E+02  0.10566000000E+00 0.  1.
         22   -1    0    0    0    0 -0.00000000000E+00 -0.00000000000E+00 -0.12756933383E+02  0.12756933383E+02  0.00000000000E+00 0.  1.
         13    1    1    2    0    0 -0.18195567361E+02 -0.50248862936E+00  0.21067109382E+02  0.27841792834E+02  0.10566000000E+00 0. -1.
        996    1    1    2    0    0  0.18195567361E+02  0.50248862936E+00  0.66175901412E+02  0.84915140547E+02  0.50000000000E+02 0.  0.
<mgrwt>
<rscale>  0 0.53210254E+02</rscale>
<asrwt>0</asrwt>
<pdfrwt beam="1">  1       13 0.10000000E+01 0.53210254E+02</pdfrwt>
<pdfrwt beam="2">  1       22 0.12756958E+00 0.53210254E+02</pdfrwt>
<totfact> 0.98037100E-01</totfact>
</mgrwt>
</event>
<event>
 4    1  0.2489082E+000  0.5383753E+02  0.7957747E-01  0.1425678E+00
         13   -1    0    0    0    0  0.00000000000E+00  0.00000000000E+00  0.99999944190E+02  0.10000000001E+03  0.10566000000E+00 0.  1.
         22   -1    0    0    0    0 -0.00000000000E+00 -0.00000000000E+00 -0.18585773453E+02  0.18585773453E+02  0.00000000000E+00 0. -1.
         13    1    1    2    0    0  0.40286704730E+01 -0.19551209001E+02 -0.11769001384E+01  0.19996905189E+02  0.10566000000E+00 0. -1.
        996    1    1    2    0    0 -0.40286704730E+01  0.19551209001E+02  0.82591070876E+02  0.98588868274E+02  0.50000000000E+02 0.  0.
<mgrwt>
<rscale>  0 0.53837533E+02</rscale>
<asrwt>0</asrwt>
<pdfrwt beam="1">  1       13 0.10000000E+01 0.53837533E+02</pdfrwt>
<pdfrwt beam="2">  1       22 0.18585796E+00 0.53837533E+02</pdfrwt>
<totfact> 0.52030311E-01</totfact>
</mgrwt>
</event>
<event>
 4    1  0.2489082E+000  0.5908891E+02  0.7957747E-01  0.1401695E+00
         13   -1    0    0    0    0  0.00000000000E+00  0.00000000000E+00  0.99999944175E+02  0.99999999995E+02  0.10566000000E+00 0.  1.
         22   -1    0    0    0    0 -0.00000000000E+00 -0.00000000000E+00 -0.50461753262E+02  0.50461753262E+02  0.00000000000E+00 0. -1.
         13    1    1    2    0    0  0.25539668398E+02  0.18418060101E+02 -0.35153606126E+02  0.47194139334E+02  0.10566000000E+00 0. -1.
        996    1    1    2    0    0 -0.25539668398E+02 -0.18418060101E+02  0.84691797039E+02  0.10326761392E+03  0.50000000000E+02 0.  0.
<mgrwt>
<rscale>  0 0.59088913E+02</rscale>
<asrwt>0</asrwt>
<pdfrwt beam="1">  1       13 0.10000000E+01 0.59088913E+02</pdfrwt>
<pdfrwt beam="2">  1       22 0.50461767E+00 0.59088913E+02</pdfrwt>
<totfact> 0.71990118E-02</totfact>
</mgrwt>
</event>
<event>
 4    1  0.2489082E+000  0.6928912E+02  0.7957747E-01  0.1362527E+00
         13   -1    0    0    0    0  0.00000000000E+00  0.00000000000E+00  0.99999944177E+02  0.99999999997E+02  0.10566000000E+00 0.  1.
         22   -1    0    0    0    0 -0.00000000000E+00 -0.00000000000E+00 -0.36368968221E+02  0.36368968221E+02  0.00000000000E+00 0. -1.
         13    1    1    2    0    0  0.45867522130E+02  0.14041101787E+02  0.10627981718E+02  0.49131937527E+02  0.10566000000E+00 0. -1.
        996    1    1    2    0    0 -0.45867522130E+02 -0.14041101787E+02  0.53002994237E+02  0.87237030691E+02  0.50000000000E+02 0.  0.
<mgrwt>
<rscale>  0 0.69289120E+02</rscale>
<asrwt>0</asrwt>
<pdfrwt beam="1">  1       13 0.10000000E+01 0.69289120E+02</pdfrwt>
<pdfrwt beam="2">  1       22 0.36368986E+00 0.69289120E+02</pdfrwt>
<totfact> 0.14907028E-01</totfact>
</mgrwt>
</event>
<event>
 4    1  0.2489082E+000  0.5193972E+02  0.7957747E-01  0.1435151E+00
         13   -1    0    0    0    0  0.00000000000E+00  0.00000000000E+00  0.99999944178E+02  0.99999999998E+02  0.10566000000E+00 0.  1.
         22   -1    0    0    0    0 -0.00000000000E+00 -0.00000000000E+00 -0.20259516090E+02  0.20259516090E+02  0.00000000000E+00 0.  1.
         13    1    1    2    0    0 -0.72193570478E+01 -0.12067123208E+02 -0.95239438246E+01  0.16983852587E+02  0.10566000000E+00 0. -1.
        996    1    1    2    0    0  0.72193570478E+01  0.12067123208E+02  0.89264371912E+02  0.10327566350E+03  0.50000000000E+02 0.  0.
<mgrwt>
<rscale>  0 0.51939721E+02</rscale>
<asrwt>0</asrwt>
<pdfrwt beam="1">  1       13 0.10000000E+01 0.51939721E+02</pdfrwt>
<pdfrwt beam="2">  1       22 0.20259538E+00 0.51939721E+02</pdfrwt>
<totfact> 0.44224071E-01</totfact>
</mgrwt>
</event>
<event>
 4    1  0.2489082E+000  0.5100151E+02  0.7957747E-01  0.1440013E+00
         13   -1    0    0    0    0  0.00000000000E+00  0.00000000000E+00  0.99999944172E+02  0.99999999993E+02  0.10566000000E+00 0. -1.
         22   -1    0    0    0    0 -0.00000000000E+00 -0.00000000000E+00 -0.20899096112E+02  0.20899096112E+02  0.00000000000E+00 0. -1.
         13    1    1    2    0    0  0.47385339432E+01  0.88713288192E+01 -0.12507750215E+02  0.16050207426E+02  0.10566000000E+00 0.  1.
        996    1    1    2    0    0 -0.47385339432E+01 -0.88713288192E+01  0.91608598276E+02  0.10484888868E+03  0.50000000000E+02 0.  0.
<mgrwt>
<rscale>  0 0.51001512E+02</rscale>
<asrwt>0</asrwt>
<pdfrwt beam="1">  1       13 0.10000000E+01 0.51001512E+02</pdfrwt>
<pdfrwt beam="2">  1       22 0.20899118E+00 0.51001512E+02</pdfrwt>
<totfact> 0.41639931E-01</totfact>
</mgrwt>
</event>
<event>
 4    1  0.2489082E+000  0.5191599E+02  0.7957747E-01  0.1435273E+00
         13   -1    0    0    0    0  0.00000000000E+00  0.00000000000E+00  0.99999944175E+02  0.99999999995E+02  0.10566000000E+00 0.  1.
         22   -1    0    0    0    0 -0.00000000000E+00 -0.00000000000E+00 -0.16330485526E+02  0.16330485526E+02  0.00000000000E+00 0. -1.
         13    1    1    2    0    0 -0.45514278083E+01  0.13211914049E+02 -0.39177088482E+01  0.14513089767E+02  0.10566000000E+00 0. -1.
        996    1    1    2    0    0  0.45514278083E+01 -0.13211914049E+02  0.87587167497E+02  0.10181739575E+03  0.50000000000E+02 0.  0.
<mgrwt>
<rscale>  0 0.51915991E+02</rscale>
<asrwt>0</asrwt>
<pdfrwt beam="1">  1       13 0.10000000E+01 0.51915991E+02</pdfrwt>
<pdfrwt beam="2">  1       22 0.16330509E+00 0.51915991E+02</pdfrwt>
<totfact> 0.65185080E-01</totfact>
</mgrwt>
</event>
<event>
 4    1  0.2489082E+000  0.5314238E+02  0.7957747E-01  0.1429094E+00
         13   -1    0    0    0    0  0.00000000000E+00  0.00000000000E+00  0.99999944178E+02  0.99999999998E+02  0.10566000000E+00 0. -1.
         22   -1    0    0    0    0 -0.00000000000E+00 -0.00000000000E+00 -0.18219431154E+02  0.18219431154E+02  0.00000000000E+00 0.  1.
         13    1    1    2    0    0  0.63802311971E+01 -0.16834627411E+02 -0.29093759023E+01  0.18236986110E+02  0.10566000000E+00 0.  1.
        996    1    1    2    0    0 -0.63802311971E+01  0.16834627411E+02  0.84689888927E+02  0.99982445042E+02  0.50000000000E+02 0.  0.
<mgrwt>
<rscale>  0 0.53142375E+02</rscale>
<asrwt>0</asrwt>
<pdfrwt beam="1">  1       13 0.10000000E+01 0.53142375E+02</pdfrwt>
<pdfrwt beam="2">  1       22 0.18219454E+00 0.53142375E+02</pdfrwt>
<totfact> 0.53871077E-01</totfact>
</mgrwt>
</event>
<event>
 4    1  0.2489082E+000  0.6135095E+02  0.7957747E-01  0.1392248E+00
         13   -1    0    0    0    0  0.00000000000E+00  0.00000000000E+00  0.99999944168E+02  0.99999999988E+02  0.10566000000E+00 0.  1.
         22   -1    0    0    0    0 -0.00000000000E+00 -0.00000000000E+00 -0.30139353911E+02  0.30139353911E+02  0.00000000000E+00 0. -1.
         13    1    1    2    0    0  0.89902889095E+01  0.34396423824E+02 -0.20533087919E+01  0.35611325552E+02  0.10566000000E+00 0. -1.
        996    1    1    2    0    0 -0.89902889095E+01 -0.34396423824E+02  0.71913899050E+02  0.94528028347E+02  0.50000000000E+02 0.  0.
<mgrwt>
<rscale>  0 0.61350952E+02</rscale>
<asrwt>0</asrwt>
<pdfrwt beam="1">  1       13 0.10000000E+01 0.61350952E+02</pdfrwt>
<pdfrwt beam="2">  1       22 0.30139373E+00 0.61350952E+02</pdfrwt>
<totfact> 0.20756147E-01</totfact>
</mgrwt>
</event>
<event>
 4    1  0.2489082E+000  0.5130615E+02  0.7957747E-01  0.1438421E+00
         13   -1    0    0    0    0  0.00000000000E+00  0.00000000000E+00  0.99999944171E+02  0.99999999992E+02  0.10566000000E+00 0. -1.
         22   -1    0    0    0    0 -0.00000000000E+00 -0.00000000000E+00 -0.99630676064E+01  0.99630676064E+01  0.00000000000E+00 0. -1.
         13    1    1    2    0    0 -0.10046940002E+02 -0.56018005918E+01  0.21062655758E+02  0.23999329259E+02  0.10566000000E+00 0.  1.
        996    1    1    2    0    0  0.10046940002E+02  0.56018005918E+01  0.68974220807E+02  0.85963738339E+02  0.50000000000E+02 0.  0.
<mgrwt>
<rscale>  0 0.51306151E+02</rscale>
<asrwt>0</asrwt>
<pdfrwt beam="1">  1       13 0.10000000E+01 0.51306151E+02</pdfrwt>
<pdfrwt beam="2">  1       22 0.99630927E-01 0.51306151E+02</pdfrwt>
<totfact> 0.14149819E+00</totfact>
</mgrwt>
</event>
<event>
 4    1  0.2489082E+000  0.5133731E+02  0.7957747E-01  0.1438259E+00
         13   -1    0    0    0    0  0.00000000000E+00  0.00000000000E+00  0.99999944176E+02  0.99999999996E+02  0.10566000000E+00 0.  1.
         22   -1    0    0    0    0 -0.00000000000E+00 -0.00000000000E+00 -0.26444317761E+02  0.26444317761E+02  0.00000000000E+00 0. -1.
         13    1    1    2    0    0  0.64923429878E+01  0.96627699021E+01 -0.18024071821E+02  0.21456886277E+02  0.10566000000E+00 0. -1.
        996    1    1    2    0    0 -0.64923429878E+01 -0.96627699021E+01  0.91579698237E+02  0.10498743148E+03  0.50000000000E+02 0.  0.
<mgrwt>
<rscale>  0 0.51337312E+02</rscale>
<asrwt>0</asrwt>
<pdfrwt beam="1">  1       13 0.10000000E+01 0.51337312E+02</pdfrwt>
<pdfrwt beam="2">  1       22 0.26444338E+00 0.51337312E+02</pdfrwt>
<totfact> 0.26369754E-01</totfact>
</mgrwt>
</event>
<event>
 4    1  0.2489082E+000  0.5223597E+02  0.7957747E-01  0.1433641E+00
         13   -1    0    0    0    0  0.00000000000E+00  0.00000000000E+00  0.99999944176E+02  0.99999999996E+02  0.10566000000E+00 0. -1.
         22   -1    0    0    0    0 -0.00000000000E+00 -0.00000000000E+00 -0.11798185565E+02  0.11798185565E+02  0.00000000000E+00 0.  1.
         13    1    1    2    0    0  0.13896729833E+01  0.15055395158E+02  0.11489180131E+02  0.18989695587E+02  0.10566000000E+00 0.  1.
        996    1    1    2    0    0 -0.13896729833E+01 -0.15055395158E+02  0.76712578479E+02  0.92808489974E+02  0.50000000000E+02 0.  0.
<mgrwt>
<rscale>  0 0.52235966E+02</rscale>
<asrwt>0</asrwt>
<pdfrwt beam="1">  1       13 0.10000000E+01 0.52235966E+02</pdfrwt>
<pdfrwt beam="2">  1       22 0.11798210E+00 0.52235966E+02</pdfrwt>
<totfact> 0.11037289E+00</totfact>
</mgrwt>
</event>
<event>
 4    1  0.2489082E+000  0.5243657E+02  0.7957747E-01  0.1432626E+00
         13   -1    0    0    0    0  0.00000000000E+00  0.00000000000E+00  0.99999944178E+02  0.99999999999E+02  0.10566000000E+00 0. -1.
         22   -1    0    0    0    0 -0.00000000000E+00 -0.00000000000E+00 -0.15460319719E+02  0.15460319719E+02  0.00000000000E+00 0. -1.
         13    1    1    2    0    0 -0.10339316413E+02 -0.11945391685E+02 -0.21016944154E+00  0.15800290555E+02  0.10566000000E+00 0.  1.
        996    1    1    2    0    0  0.10339316413E+02  0.11945391685E+02  0.84749793901E+02  0.99660029162E+02  0.50000000000E+02 0.  0.
<mgrwt>
<rscale>  0 0.52436570E+02</rscale>
<asrwt>0</asrwt>
<pdfrwt beam="1">  1       13 0.10000000E+01 0.52436570E+02</pdfrwt>
<pdfrwt beam="2">  1       22 0.15460343E+00 0.52436570E+02</pdfrwt>
<totfact> 0.71637719E-01</totfact>
</mgrwt>
</event>
<event>
 4    1  0.2489082E+000  0.5958584E+02  0.7957747E-01  0.1399578E+00
         13   -1    0    0    0    0  0.00000000000E+00  0.00000000000E+00  0.99999944184E+02  0.10000000000E+03  0.10566000000E+00 0.  1.
         22   -1    0    0    0    0 -0.00000000000E+00 -0.00000000000E+00 -0.64274116221E+02  0.64274116221E+02  0.00000000000E+00 0. -1.
         13    1    1    2    0    0  0.29633603201E+02  0.13127157259E+02 -0.50173415351E+02  0.59731528261E+02  0.10566000000E+00 0. -1.
        996    1    1    2    0    0 -0.29633603201E+02 -0.13127157259E+02  0.85899243314E+02  0.10454258796E+03  0.50000000000E+02 0.  0.
<mgrwt>
<rscale>  0 0.59585843E+02</rscale>
<asrwt>0</asrwt>
<pdfrwt beam="1">  1       13 0.10000000E+01 0.59585843E+02</pdfrwt>
<pdfrwt beam="2">  1       22 0.64274126E+00 0.59585843E+02</pdfrwt>
<totfact> 0.84369335E-02</totfact>
</mgrwt>
</event>
<event>
 4    1  0.2489082E+000  0.5237680E+02  0.7957747E-01  0.1432928E+00
         13   -1    0    0    0    0  0.00000000000E+00  0.00000000000E+00  0.99999944177E+02  0.99999999998E+02  0.10566000000E+00 0.  1.
         22   -1    0    0    0    0 -0.00000000000E+00 -0.00000000000E+00 -0.11943988211E+02  0.11943988211E+02  0.00000000000E+00 0.  1.
         13    1    1    2    0    0 -0.41795716626E+01  0.15028645187E+02  0.29576122313E+02  0.33437810492E+02  0.10566000000E+00 0. -1.
        996    1    1    2    0    0  0.41795716626E+01 -0.15028645187E+02  0.58479833654E+02  0.78506177716E+02  0.50000000000E+02 0.  0.
<mgrwt>
<rscale>  0 0.52376798E+02</rscale>
<asrwt>0</asrwt>
<pdfrwt beam="1">  1       13 0.10000000E+01 0.52376798E+02</pdfrwt>
<pdfrwt beam="2">  1       22 0.11944013E+00 0.52376798E+02</pdfrwt>
<totfact> 0.10835753E+00</totfact>
</mgrwt>
</event>
<event>
 4    1  0.2489082E+000  0.6186894E+02  0.7957747E-01  0.1390152E+00
         13   -1    0    0    0    0  0.00000000000E+00  0.00000000000E+00  0.99999944173E+02  0.99999999994E+02  0.10566000000E+00 0.  1.
         22   -1    0    0    0    0 -0.00000000000E+00 -0.00000000000E+00 -0.50679765460E+02  0.50679765460E+02  0.00000000000E+00 0. -1.
         13    1    1    2    0    0 -0.31851173147E+02 -0.17699395394E+02 -0.32003239585E+02  0.48497261120E+02  0.10566000000E+00 0. -1.
        996    1    1    2    0    0  0.31851173147E+02  0.17699395394E+02  0.81323418298E+02  0.10218250433E+03  0.50000000000E+02 0.  0.
<mgrwt>
<rscale>  0 0.61868941E+02</rscale>
<asrwt>0</asrwt>
<pdfrwt beam="1">  1       13 0.10000000E+01 0.61868941E+02</pdfrwt>
<pdfrwt beam="2">  1       22 0.50679779E+00 0.61868941E+02</pdfrwt>
<totfact> 0.71225161E-02</totfact>
</mgrwt>
</event>
<event>
 4    1  0.2489082E+000  0.5156121E+02  0.7957747E-01  0.1437098E+00
         13   -1    0    0    0    0  0.00000000000E+00  0.00000000000E+00  0.99999944176E+02  0.99999999996E+02  0.10566000000E+00 0. -1.
         22   -1    0    0    0    0 -0.00000000000E+00 -0.00000000000E+00 -0.12885462934E+02  0.12885462934E+02  0.00000000000E+00 0. -1.
         13    1    1    2    0    0  0.79960269764E+00 -0.12566584279E+02  0.11517482428E+01  0.12645002688E+02  0.10566000000E+00 0.  1.
        996    1    1    2    0    0 -0.79960269764E+00  0.12566584279E+02  0.85962732999E+02  0.10024046024E+03  0.50000000000E+02 0.  0.
<mgrwt>
<rscale>  0 0.51561210E+02</rscale>
<asrwt>0</asrwt>
<pdfrwt beam="1">  1       13 0.10000000E+01 0.51561210E+02</pdfrwt>
<pdfrwt beam="2">  1       22 0.12885487E+00 0.51561210E+02</pdfrwt>
<totfact> 0.96164936E-01</totfact>
</mgrwt>
</event>
<event>
 4    1  0.2489082E+000  0.6173167E+02  0.7957747E-01  0.1390705E+00
         13   -1    0    0    0    0  0.00000000000E+00  0.00000000000E+00  0.99999944180E+02  0.10000000000E+03  0.10566000000E+00 0. -1.
         22   -1    0    0    0    0 -0.00000000000E+00 -0.00000000000E+00 -0.31892456264E+02  0.31892456264E+02  0.00000000000E+00 0.  1.
         13    1    1    2    0    0 -0.26252556229E+02  0.24931950633E+02 -0.46193166812E+01  0.36498604378E+02  0.10566000000E+00 0.  1.
        996    1    1    2    0    0  0.26252556229E+02 -0.24931950633E+02  0.72726804596E+02  0.95393851886E+02  0.50000000000E+02 0.  0.
<mgrwt>
<rscale>  0 0.61731668E+02</rscale>
<asrwt>0</asrwt>
<pdfrwt beam="1">  1       13 0.10000000E+01 0.61731668E+02</pdfrwt>
<pdfrwt beam="2">  1       22 0.31892475E+00 0.61731668E+02</pdfrwt>
<totfact> 0.18709992E-01</totfact>
</mgrwt>
</event>
<event>
 4    1  0.2489082E+000  0.5104303E+02  0.7957747E-01  0.1439796E+00
         13   -1    0    0    0    0  0.00000000000E+00  0.00000000000E+00  0.99999944178E+02  0.99999999999E+02  0.10566000000E+00 0.  1.
         22   -1    0    0    0    0 -0.00000000000E+00 -0.00000000000E+00 -0.16530806535E+02  0.16530806535E+02  0.00000000000E+00 0. -1.
         13    1    1    2    0    0  0.84778704413E+01  0.57893682650E+01 -0.71596743446E+01  0.12516516004E+02  0.10566000000E+00 0. -1.
        996    1    1    2    0    0 -0.84778704413E+01 -0.57893682650E+01  0.90628811988E+02  0.10401429053E+03  0.50000000000E+02 0.  0.
<mgrwt>
<rscale>  0 0.51043032E+02</rscale>
<asrwt>0</asrwt>
<pdfrwt beam="1">  1       13 0.10000000E+01 0.51043032E+02</pdfrwt>
<pdfrwt beam="2">  1       22 0.16530830E+00 0.51043032E+02</pdfrwt>
<totfact> 0.63715763E-01</totfact>
</mgrwt>
</event>
<event>
 4    1  0.2489082E+000  0.5147868E+02  0.7957747E-01  0.1437525E+00
         13   -1    0    0    0    0  0.00000000000E+00  0.00000000000E+00  0.99999944177E+02  0.99999999998E+02  0.10566000000E+00 0.  1.
         22   -1    0    0    0    0 -0.00000000000E+00 -0.00000000000E+00 -0.10600325090E+02  0.10600325090E+02  0.00000000000E+00 0.  1.
         13    1    1    2    0    0  0.11839811142E+02  0.31422092202E+01  0.27408086625E+02  0.30021142269E+02  0.10566000000E+00 0. -1.
        996    1    1    2    0    0 -0.11839811142E+02 -0.31422092202E+01  0.61991532462E+02  0.80579182818E+02  0.50000000000E+02 0.  0.
<mgrwt>
<rscale>  0 0.51478681E+02</rscale>
<asrwt>0</asrwt>
<pdfrwt beam="1">  1       13 0.10000000E+01 0.51478681E+02</pdfrwt>
<pdfrwt beam="2">  1       22 0.10600350E+00 0.51478681E+02</pdfrwt>
<totfact> 0.12931450E+00</totfact>
</mgrwt>
</event>
<event>
 4    1  0.2489082E+000  0.5222745E+02  0.7957747E-01  0.1433685E+00
         13   -1    0    0    0    0  0.00000000000E+00  0.00000000000E+00  0.99999944180E+02  0.10000000000E+03  0.10566000000E+00 0. -1.
         22   -1    0    0    0    0 -0.00000000000E+00 -0.00000000000E+00 -0.12287529245E+02  0.12287529245E+02  0.00000000000E+00 0.  1.
         13    1    1    2    0    0 -0.27409331021E-01 -0.15089911689E+02  0.82501596251E+01  0.17198327940E+02  0.10566000000E+00 0.  1.
        996    1    1    2    0    0  0.27409331021E-01  0.15089911689E+02  0.79462255310E+02  0.95089201306E+02  0.50000000000E+02 0.  0.
<mgrwt>
<rscale>  0 0.52227447E+02</rscale>
<asrwt>0</asrwt>
<pdfrwt beam="1">  1       13 0.10000000E+01 0.52227447E+02</pdfrwt>
<pdfrwt beam="2">  1       22 0.12287554E+00 0.52227447E+02</pdfrwt>
<totfact> 0.10370173E+00</totfact>
</mgrwt>
</event>
<event>
 4    1  0.2489082E+000  0.5219355E+02  0.7957747E-01  0.1433857E+00
         13   -1    0    0    0    0  0.00000000000E+00  0.00000000000E+00  0.99999944176E+02  0.99999999996E+02  0.10566000000E+00 0.  1.
         22   -1    0    0    0    0 -0.00000000000E+00 -0.00000000000E+00 -0.28617457557E+02  0.28617457557E+02  0.00000000000E+00 0. -1.
         13    1    1    2    0    0  0.13773914331E+02  0.58691006624E+01 -0.19034323789E+02  0.24217425642E+02  0.10566000000E+00 0. -1.
        996    1    1    2    0    0 -0.13773914331E+02 -0.58691006624E+01  0.90416810408E+02  0.10440003191E+03  0.50000000000E+02 0.  0.
<mgrwt>
<rscale>  0 0.52193554E+02</rscale>
<asrwt>0</asrwt>
<pdfrwt beam="1">  1       13 0.10000000E+01 0.52193554E+02</pdfrwt>
<pdfrwt beam="2">  1       22 0.28617477E+00 0.52193554E+02</pdfrwt>
<totfact> 0.22645184E-01</totfact>
</mgrwt>
</event>
<event>
 4    1  0.2489082E+000  0.5239815E+02  0.7957747E-01  0.1432820E+00
         13   -1    0    0    0    0  0.00000000000E+00  0.00000000000E+00  0.99999944181E+02  0.10000000000E+03  0.10566000000E+00 0.  1.
         22   -1    0    0    0    0 -0.00000000000E+00 -0.00000000000E+00 -0.44132572708E+02  0.44132572708E+02  0.00000000000E+00 0. -1.
         13    1    1    2    0    0 -0.10124874814E+02 -0.11960481322E+02 -0.35500896484E+02  0.38805811661E+02  0.10566000000E+00 0. -1.
        996    1    1    2    0    0  0.10124874814E+02  0.11960481322E+02  0.91368267957E+02  0.10532676105E+03  0.50000000000E+02 0.  0.
<mgrwt>
<rscale>  0 0.52398151E+02</rscale>
<asrwt>0</asrwt>
<pdfrwt beam="1">  1       13 0.10000000E+01 0.52398151E+02</pdfrwt>
<pdfrwt beam="2">  1       22 0.44132588E+00 0.52398151E+02</pdfrwt>
<totfact> 0.10105618E-01</totfact>
</mgrwt>
</event>
<event>
 4    1  0.2489082E+000  0.5388549E+02  0.7957747E-01  0.1425444E+00
         13   -1    0    0    0    0  0.00000000000E+00  0.00000000000E+00  0.99999944180E+02  0.10000000000E+03  0.10566000000E+00 0.  1.
         22   -1    0    0    0    0 -0.00000000000E+00 -0.00000000000E+00 -0.14279748730E+02  0.14279748730E+02  0.00000000000E+00 0. -1.
         13    1    1    2    0    0 -0.19888601861E+02 -0.28442237946E+01  0.13638708668E+02  0.24283155297E+02  0.10566000000E+00 0. -1.
        996    1    1    2    0    0  0.19888601861E+02  0.28442237946E+01  0.72081486782E+02  0.89996593434E+02  0.50000000000E+02 0.  0.
<mgrwt>
<rscale>  0 0.53885491E+02</rscale>
<asrwt>0</asrwt>
<pdfrwt beam="1">  1       13 0.10000000E+01 0.53885491E+02</pdfrwt>
<pdfrwt beam="2">  1       22 0.14279773E+00 0.53885491E+02</pdfrwt>
<totfact> 0.81972062E-01</totfact>
</mgrwt>
</event>
<event>
 4    1  0.2489082E+000  0.5707659E+02  0.7957747E-01  0.1410526E+00
         13   -1    0    0    0    0  0.00000000000E+00  0.00000000000E+00  0.99999944175E+02  0.99999999996E+02  0.10566000000E+00 0.  1.
         22   -1    0    0    0    0 -0.00000000000E+00 -0.00000000000E+00 -0.29283176102E+02  0.29283176102E+02  0.00000000000E+00 0.  1.
         13    1    1    2    0    0  0.76679634477E+01 -0.26437452461E+02 -0.10969074970E+02  0.29632217699E+02  0.10566000000E+00 0. -1.
        996    1    1    2    0    0 -0.76679634477E+01  0.26437452461E+02  0.81685843043E+02  0.99650958399E+02  0.50000000000E+02 0.  0.
<mgrwt>
<rscale>  0 0.57076585E+02</rscale>
<asrwt>0</asrwt>
<pdfrwt beam="1">  1       13 0.10000000E+01 0.57076585E+02</pdfrwt>
<pdfrwt beam="2">  1       22 0.29283196E+00 0.57076585E+02</pdfrwt>
<totfact> 0.21810381E-01</totfact>
</mgrwt>
</event>
<event>
 4    1  0.2489082E+000  0.5327214E+02  0.7957747E-01  0.1428451E+00
         13   -1    0    0    0    0  0.00000000000E+00  0.00000000000E+00  0.99999944180E+02  0.10000000000E+03  0.10566000000E+00 0. -1.
         22   -1    0    0    0    0 -0.00000000000E+00 -0.00000000000E+00 -0.16779457541E+02  0.16779457541E+02  0.00000000000E+00 0.  1.
         13    1    1    2    0    0  0.16008718911E+02 -0.90355729253E+01  0.50036999143E+00  0.18389730651E+02  0.10566000000E+00 0.  1.
        996    1    1    2    0    0 -0.16008718911E+02  0.90355729253E+01  0.82720116648E+02  0.98389726890E+02  0.50000000000E+02 0.  0.
<mgrwt>
<rscale>  0 0.53272138E+02</rscale>
<asrwt>0</asrwt>
<pdfrwt beam="1">  1       13 0.10000000E+01 0.53272138E+02</pdfrwt>
<pdfrwt beam="2">  1       22 0.16779481E+00 0.53272138E+02</pdfrwt>
<totfact> 0.62354225E-01</totfact>
</mgrwt>
</event>
<event>
 4    1  0.2489082E+000  0.5151984E+02  0.7957747E-01  0.1437312E+00
         13   -1    0    0    0    0  0.00000000000E+00  0.00000000000E+00  0.99999944177E+02  0.99999999997E+02  0.10566000000E+00 0. -1.
         22   -1    0    0    0    0 -0.00000000000E+00 -0.00000000000E+00 -0.10897618617E+02  0.10897618617E+02  0.00000000000E+00 0. -1.
         13    1    1    2    0    0 -0.96812375911E+01 -0.77825164309E+01  0.78699533493E+01  0.14705143761E+02  0.10566000000E+00 0.  1.
        996    1    1    2    0    0  0.96812375911E+01  0.77825164309E+01  0.81232372211E+02  0.96192474853E+02  0.50000000000E+02 0.  0.
<mgrwt>
<rscale>  0 0.51519840E+02</rscale>
<asrwt>0</asrwt>
<pdfrwt beam="1">  1       13 0.10000000E+01 0.51519840E+02</pdfrwt>
<pdfrwt beam="2">  1       22 0.10897643E+00 0.51519840E+02</pdfrwt>
<totfact> 0.12414846E+00</totfact>
</mgrwt>
</event>
<event>
 4    1  0.2489082E+000  0.5312484E+02  0.7957747E-01  0.1429181E+00
         13   -1    0    0    0    0  0.00000000000E+00  0.00000000000E+00  0.99999944188E+02  0.10000000001E+03  0.10566000000E+00 0.  1.
         22   -1    0    0    0    0 -0.00000000000E+00 -0.00000000000E+00 -0.25931907130E+02  0.25931907130E+02  0.00000000000E+00 0. -1.
         13    1    1    2    0    0 -0.12440975815E+02 -0.12941038797E+02 -0.14214375852E+02  0.22897773020E+02  0.10566000000E+00 0. -1.
        996    1    1    2    0    0  0.12440975815E+02  0.12941038797E+02  0.88282412909E+02  0.10303413412E+03  0.50000000000E+02 0.  0.
<mgrwt>
<rscale>  0 0.53124838E+02</rscale>
<asrwt>0</asrwt>
<pdfrwt beam="1">  1       13 0.10000000E+01 0.53124838E+02</pdfrwt>
<pdfrwt beam="2">  1       22 0.25931928E+00 0.53124838E+02</pdfrwt>
<totfact> 0.27477602E-01</totfact>
</mgrwt>
</event>
<event>
 4    1  0.2489082E+000  0.5190242E+02  0.7957747E-01  0.1435342E+00
         13   -1    0    0    0    0  0.00000000000E+00  0.00000000000E+00  0.99999944174E+02  0.99999999994E+02  0.10566000000E+00 0.  1.
         22   -1    0    0    0    0 -0.00000000000E+00 -0.00000000000E+00 -0.10990129641E+02  0.10990129641E+02  0.00000000000E+00 0.  1.
         13    1    1    2    0    0  0.12885023147E+02 -0.52761247376E+01  0.13751255685E+02  0.19569606810E+02  0.10566000000E+00 0. -1.
        996    1    1    2    0    0 -0.12885023147E+02  0.52761247376E+01  0.75258558848E+02  0.91420522825E+02  0.50000000000E+02 0.  0.
<mgrwt>
<rscale>  0 0.51902421E+02</rscale>
<asrwt>0</asrwt>
<pdfrwt beam="1">  1       13 0.10000000E+01 0.51902421E+02</pdfrwt>
<pdfrwt beam="2">  1       22 0.10990154E+00 0.51902421E+02</pdfrwt>
<totfact> 0.12270855E+00</totfact>
</mgrwt>
</event>
<event>
 4    1  0.2489082E+000  0.5105106E+02  0.7957747E-01  0.1439753E+00
         13   -1    0    0    0    0  0.00000000000E+00  0.00000000000E+00  0.99999944178E+02  0.99999999998E+02  0.10566000000E+00 0. -1.
         22   -1    0    0    0    0 -0.00000000000E+00 -0.00000000000E+00 -0.31042946014E+02  0.31042946014E+02  0.00000000000E+00 0.  1.
         13    1    1    2    0    0 -0.81712679636E+01 -0.62802263530E+01 -0.23370067352E+02  0.25541771185E+02  0.10566000000E+00 0.  1.
        996    1    1    2    0    0  0.81712679636E+01  0.62802263530E+01  0.92327065516E+02  0.10550117483E+03  0.50000000000E+02 0.  0.
<mgrwt>
<rscale>  0 0.51051061E+02</rscale>
<asrwt>0</asrwt>
<pdfrwt beam="1">  1       13 0.10000000E+01 0.51051061E+02</pdfrwt>
<pdfrwt beam="2">  1       22 0.31042965E+00 0.51051061E+02</pdfrwt>
<totfact> 0.19413520E-01</totfact>
</mgrwt>
</event>
<event>
 4    1  0.2489082E+000  0.5204003E+02  0.7957747E-01  0.1434639E+00
         13   -1    0    0    0    0  0.00000000000E+00  0.00000000000E+00  0.99999944179E+02  0.99999999999E+02  0.10566000000E+00 0. -1.
         22   -1    0    0    0    0 -0.00000000000E+00 -0.00000000000E+00 -0.37139141310E+02  0.37139141310E+02  0.00000000000E+00 0.  1.
         13    1    1    2    0    0  0.96811178423E+00 -0.14395391387E+02 -0.28529788599E+02  0.31970682432E+02  0.10566000000E+00 0.  1.
        996    1    1    2    0    0 -0.96811178423E+00  0.14395391387E+02  0.91390591468E+02  0.10516845888E+03  0.50000000000E+02 0.  0.
<mgrwt>
<rscale>  0 0.52040028E+02</rscale>
<asrwt>0</asrwt>
<pdfrwt beam="1">  1       13 0.10000000E+01 0.52040028E+02</pdfrwt>
<pdfrwt beam="2">  1       22 0.37139159E+00 0.52040028E+02</pdfrwt>
<totfact> 0.14162685E-01</totfact>
</mgrwt>
</event>
<event>
 4    1  0.2489082E+000  0.5360278E+02  0.7957747E-01  0.1426824E+00
         13   -1    0    0    0    0  0.00000000000E+00  0.00000000000E+00  0.99999944174E+02  0.99999999994E+02  0.10566000000E+00 0.  1.
         22   -1    0    0    0    0 -0.00000000000E+00 -0.00000000000E+00 -0.19892254257E+02  0.19892254257E+02  0.00000000000E+00 0. -1.
         13    1    1    2    0    0 -0.17788228010E+02 -0.75390215761E+01 -0.44031633879E+01  0.19815572511E+02  0.10566000000E+00 0. -1.
        996    1    1    2    0    0  0.17788228010E+02  0.75390215761E+01  0.84510853305E+02  0.10007668174E+03  0.50000000000E+02 0.  0.
<mgrwt>
<rscale>  0 0.53602779E+02</rscale>
<asrwt>0</asrwt>
<pdfrwt beam="1">  1       13 0.10000000E+01 0.53602779E+02</pdfrwt>
<pdfrwt beam="2">  1       22 0.19892277E+00 0.53602779E+02</pdfrwt>
<totfact> 0.45896444E-01</totfact>
</mgrwt>
</event>
<event>
 4    1  0.2489082E+000  0.5362515E+02  0.7957747E-01  0.1426715E+00
         13   -1    0    0    0    0  0.00000000000E+00  0.00000000000E+00  0.99999944177E+02  0.99999999998E+02  0.10566000000E+00 0.  1.
         22   -1    0    0    0    0 -0.00000000000E+00 -0.00000000000E+00 -0.20658895123E+02  0.20658895123E+02  0.00000000000E+00 0. -1.
         13    1    1    2    0    0 -0.19379191319E+02  0.32138887685E+00 -0.56282990323E+01  0.20182796165E+02  0.10566000000E+00 0. -1.
        996    1    1    2    0    0  0.19379191319E+02 -0.32138887685E+00  0.84969348087E+02  0.10047609896E+03  0.50000000000E+02 0.  0.
<mgrwt>
<rscale>  0 0.53625147E+02</rscale>
<asrwt>0</asrwt>
<pdfrwt beam="1">  1       13 0.10000000E+01 0.53625147E+02</pdfrwt>
<pdfrwt beam="2">  1       22 0.20658917E+00 0.53625147E+02</pdfrwt>
<totfact> 0.42755553E-01</totfact>
</mgrwt>
</event>
<event>
 4    1  0.2489082E+000  0.5101725E+02  0.7957747E-01  0.1439931E+00
         13   -1    0    0    0    0  0.00000000000E+00  0.00000000000E+00  0.99999944171E+02  0.99999999991E+02  0.10566000000E+00 0. -1.
         22   -1    0    0    0    0 -0.00000000000E+00 -0.00000000000E+00 -0.93607401028E+01  0.93607401028E+01  0.00000000000E+00 0. -1.
         13    1    1    2    0    0 -0.93317127657E+01 -0.39596162544E+01  0.13667062226E+02  0.17016438462E+02  0.10566000000E+00 0.  1.
        996    1    1    2    0    0  0.93317127657E+01  0.39596162544E+01  0.76972141842E+02  0.92344301631E+02  0.50000000000E+02 0.  0.
<mgrwt>
<rscale>  0 0.51017246E+02</rscale>
<asrwt>0</asrwt>
<pdfrwt beam="1">  1       13 0.10000000E+01 0.51017246E+02</pdfrwt>
<pdfrwt beam="2">  1       22 0.93607654E-01 0.51017246E+02</pdfrwt>
<totfact> 0.15463275E+00</totfact>
</mgrwt>
</event>
<event>
 4    1  0.2489082E+000  0.5600434E+02  0.7957747E-01  0.1415408E+00
         13   -1    0    0    0    0  0.00000000000E+00  0.00000000000E+00  0.99999944184E+02  0.10000000000E+03  0.10566000000E+00 0.  1.
         22   -1    0    0    0    0 -0.00000000000E+00 -0.00000000000E+00 -0.39449602573E+02  0.39449602573E+02  0.00000000000E+00 0.  1.
         13    1    1    2    0    0  0.14655817536E+02 -0.20535177822E+02 -0.26084521388E+02  0.36289115943E+02  0.10566000000E+00 0. -1.
        996    1    1    2    0    0 -0.14655817536E+02  0.20535177822E+02  0.86634862999E+02  0.10316048663E+03  0.50000000000E+02 0.  0.
<mgrwt>
<rscale>  0 0.56004344E+02</rscale>
<asrwt>0</asrwt>
<pdfrwt beam="1">  1       13 0.10000000E+01 0.56004344E+02</pdfrwt>
<pdfrwt beam="2">  1       22 0.39449619E+00 0.56004344E+02</pdfrwt>
<totfact> 0.12734238E-01</totfact>
</mgrwt>
</event>
<event>
 4    1  0.2489082E+000  0.5758226E+02  0.7957747E-01  0.1408267E+00
         13   -1    0    0    0    0  0.00000000000E+00  0.00000000000E+00  0.99999944180E+02  0.10000000000E+03  0.10566000000E+00 0.  1.
         22   -1    0    0    0    0 -0.00000000000E+00 -0.00000000000E+00 -0.32894489013E+02  0.32894489013E+02  0.00000000000E+00 0. -1.
         13    1    1    2    0    0 -0.28310548328E+02 -0.37722063024E+01 -0.15271448219E+02  0.32387420116E+02  0.10566000000E+00 0. -1.
        996    1    1    2    0    0  0.28310548328E+02  0.37722063024E+01  0.82376903386E+02  0.10050706890E+03  0.50000000000E+02 0.  0.
<mgrwt>
<rscale>  0 0.57582260E+02</rscale>
<asrwt>0</asrwt>
<pdfrwt beam="1">  1       13 0.10000000E+01 0.57582260E+02</pdfrwt>
<pdfrwt beam="2">  1       22 0.32894508E+00 0.57582260E+02</pdfrwt>
<totfact> 0.17625000E-01</totfact>
</mgrwt>
</event>
<event>
 4    1  0.2489082E+000  0.5161987E+02  0.7957747E-01  0.1436795E+00
         13   -1    0    0    0    0  0.00000000000E+00  0.00000000000E+00  0.99999944185E+02  0.10000000000E+03  0.10566000000E+00 0. -1.
         22   -1    0    0    0    0 -0.00000000000E+00 -0.00000000000E+00 -0.14169921707E+02  0.14169921707E+02  0.00000000000E+00 0. -1.
         13    1    1    2    0    0  0.70094617274E+01 -0.10746081898E+02 -0.13005902390E+01  0.12896260267E+02  0.10566000000E+00 0.  1.
        996    1    1    2    0    0 -0.70094617274E+01  0.10746081898E+02  0.87130612717E+02  0.10127366144E+03  0.50000000000E+02 0.  0.
<mgrwt>
<rscale>  0 0.51619869E+02</rscale>
<asrwt>0</asrwt>
<pdfrwt beam="1">  1       13 0.10000000E+01 0.51619869E+02</pdfrwt>
<pdfrwt beam="2">  1       22 0.14169946E+00 0.51619869E+02</pdfrwt>
<totfact> 0.82625093E-01</totfact>
</mgrwt>
</event>
<event>
 4    1  0.2489082E+000  0.5104333E+02  0.7957747E-01  0.1439794E+00
         13   -1    0    0    0    0  0.00000000000E+00  0.00000000000E+00  0.99999944177E+02  0.99999999997E+02  0.10566000000E+00 0.  1.
         22   -1    0    0    0    0 -0.00000000000E+00 -0.00000000000E+00 -0.10230007704E+02  0.10230007704E+02  0.00000000000E+00 0.  1.
         13    1    1    2    0    0  0.78216843339E+01 -0.66515493152E+01  0.29575895864E+02  0.31307613041E+02  0.10566000000E+00 0. -1.
        996    1    1    2    0    0 -0.78216843339E+01  0.66515493152E+01  0.60194040609E+02  0.78922394660E+02  0.50000000000E+02 0.  0.
<mgrwt>
<rscale>  0 0.51043333E+02</rscale>
<asrwt>0</asrwt>
<pdfrwt beam="1">  1       13 0.10000000E+01 0.51043333E+02</pdfrwt>
<pdfrwt beam="2">  1       22 0.10230033E+00 0.51043333E+02</pdfrwt>
<totfact> 0.13608322E+00</totfact>
</mgrwt>
</event>
<event>
 4    1  0.2489082E+000  0.5437576E+02  0.7957747E-01  0.1423074E+00
         13   -1    0    0    0    0  0.00000000000E+00  0.00000000000E+00  0.99999944175E+02  0.99999999995E+02  0.10566000000E+00 0.  1.
         22   -1    0    0    0    0 -0.00000000000E+00 -0.00000000000E+00 -0.57102817815E+02  0.57102817815E+02  0.00000000000E+00 0. -1.
         13    1    1    2    0    0 -0.21032027409E+02 -0.37917374139E+01 -0.47231596422E+02  0.51841665812E+02  0.10566000000E+00 0. -1.
        996    1    1    2    0    0  0.21032027409E+02  0.37917374139E+01  0.90128722782E+02  0.10526115200E+03  0.50000000000E+02 0.  0.
<mgrwt>
<rscale>  0 0.54375762E+02</rscale>
<asrwt>0</asrwt>
<pdfrwt beam="1">  1       13 0.10000000E+01 0.54375762E+02</pdfrwt>
<pdfrwt beam="2">  1       22 0.57102830E+00 0.54375762E+02</pdfrwt>
<totfact> 0.57834956E-02</totfact>
</mgrwt>
</event>
<event>
 4    1  0.2489082E+000  0.5528304E+02  0.7957747E-01  0.1418765E+00
         13   -1    0    0    0    0  0.00000000000E+00  0.00000000000E+00  0.99999944177E+02  0.99999999997E+02  0.10566000000E+00 0. -1.
         22   -1    0    0    0    0 -0.00000000000E+00 -0.00000000000E+00 -0.16563821365E+02  0.16563821365E+02  0.00000000000E+00 0.  1.
         13    1    1    2    0    0 -0.34010372356E+01  0.23337671447E+02  0.12697173526E+02  0.26785132862E+02  0.10566000000E+00 0.  1.
        996    1    1    2    0    0  0.34010372356E+01 -0.23337671447E+02  0.70738949286E+02  0.89778688500E+02  0.50000000000E+02 0.  0.
<mgrwt>
<rscale>  0 0.55283035E+02</rscale>
<asrwt>0</asrwt>
<pdfrwt beam="1">  1       13 0.10000000E+01 0.55283035E+02</pdfrwt>
<pdfrwt beam="2">  1       22 0.16563845E+00 0.55283035E+02</pdfrwt>
<totfact> 0.64013335E-01</totfact>
</mgrwt>
</event>
<event>
 4    1  0.2489082E+000  0.5216465E+02  0.7957747E-01  0.1434004E+00
         13   -1    0    0    0    0  0.00000000000E+00  0.00000000000E+00  0.99999944183E+02  0.10000000000E+03  0.10566000000E+00 0.  1.
         22   -1    0    0    0    0 -0.00000000000E+00 -0.00000000000E+00 -0.26220499588E+02  0.26220499588E+02  0.00000000000E+00 0. -1.
         13    1    1    2    0    0 -0.51640221704E+01 -0.13945742788E+02 -0.16338810640E+02  0.22093409968E+02  0.10566000000E+00 0. -1.
        996    1    1    2    0    0  0.51640221704E+01  0.13945742788E+02  0.90118255234E+02  0.10412708962E+03  0.50000000000E+02 0.  0.
<mgrwt>
<rscale>  0 0.52164652E+02</rscale>
<asrwt>0</asrwt>
<pdfrwt beam="1">  1       13 0.10000000E+01 0.52164652E+02</pdfrwt>
<pdfrwt beam="2">  1       22 0.26220520E+00 0.52164652E+02</pdfrwt>
<totfact> 0.26847237E-01</totfact>
</mgrwt>
</event>
<event>
 4    1  0.2489082E+000  0.5234745E+02  0.7957747E-01  0.1433076E+00
         13   -1    0    0    0    0  0.00000000000E+00  0.00000000000E+00  0.99999944184E+02  0.10000000000E+03  0.10566000000E+00 0. -1.
         22   -1    0    0    0    0 -0.00000000000E+00 -0.00000000000E+00 -0.11623458609E+02  0.11623458609E+02  0.00000000000E+00 0. -1.
         13    1    1    2    0    0 -0.10585771853E+02  0.11322412526E+02  0.25101421431E+02  0.29501662886E+02  0.10566000000E+00 0.  1.
        996    1    1    2    0    0  0.10585771853E+02 -0.11322412526E+02  0.63275064143E+02  0.82121795727E+02  0.50000000000E+02 0.  0.
<mgrwt>
<rscale>  0 0.52347451E+02</rscale>
<asrwt>0</asrwt>
<pdfrwt beam="1">  1       13 0.10000000E+01 0.52347451E+02</pdfrwt>
<pdfrwt beam="2">  1       22 0.11623483E+00 0.52347451E+02</pdfrwt>
<totfact> 0.11292883E+00</totfact>
</mgrwt>
</event>
<event>
 4    1  0.2489082E+000  0.5147169E+02  0.7957747E-01  0.1437562E+00
         13   -1    0    0    0    0  0.00000000000E+00  0.00000000000E+00  0.99999944183E+02  0.10000000000E+03  0.10566000000E+00 0.  1.
         22   -1    0    0    0    0 -0.00000000000E+00 -0.00000000000E+00 -0.10454232152E+02  0.10454232152E+02  0.00000000000E+00 0.  1.
         13    1    1    2    0    0  0.33336933888E+01 -0.11756741400E+02  0.10418114997E+02  0.16058728595E+02  0.10566000000E+00 0. -1.
        996    1    1    2    0    0 -0.33336933888E+01  0.11756741400E+02  0.79127597034E+02  0.94395503560E+02  0.50000000000E+02 0.  0.
<mgrwt>
<rscale>  0 0.51471686E+02</rscale>
<asrwt>0</asrwt>
<pdfrwt beam="1">  1       13 0.10000000E+01 0.51471686E+02</pdfrwt>
<pdfrwt beam="2">  1       22 0.10454257E+00 0.51471686E+02</pdfrwt>
<totfact> 0.13197508E+00</totfact>
</mgrwt>
</event>
<event>
 4    1  0.2489082E+000  0.5471863E+02  0.7957747E-01  0.1421434E+00
         13   -1    0    0    0    0  0.00000000000E+00  0.00000000000E+00  0.99999944186E+02  0.10000000001E+03  0.10566000000E+00 0. -1.
         22   -1    0    0    0    0 -0.00000000000E+00 -0.00000000000E+00 -0.62221578715E+02  0.62221578715E+02  0.00000000000E+00 0.  1.
         13    1    1    2    0    0  0.22222144545E+02 -0.55216665844E+00 -0.52298799270E+02  0.56826966885E+02  0.10566000000E+00 0.  1.
        996    1    1    2    0    0 -0.22222144545E+02  0.55216665844E+00  0.90077164741E+02  0.10539461184E+03  0.50000000000E+02 0.  0.
<mgrwt>
<rscale>  0 0.54718631E+02</rscale>
<asrwt>0</asrwt>
<pdfrwt beam="1">  1       13 0.10000000E+01 0.54718631E+02</pdfrwt>
<pdfrwt beam="2">  1       22 0.62221589E+00 0.54718631E+02</pdfrwt>
<totfact> 0.74231561E-02</totfact>
</mgrwt>
</event>
<event>
 4    1  0.2489082E+000  0.5135393E+02  0.7957747E-01  0.1438173E+00
         13   -1    0    0    0    0  0.00000000000E+00  0.00000000000E+00  0.99999944179E+02  0.99999999999E+02  0.10566000000E+00 0. -1.
         22   -1    0    0    0    0 -0.00000000000E+00 -0.00000000000E+00 -0.10025714108E+02  0.10025714108E+02  0.00000000000E+00 0. -1.
         13    1    1    2    0    0  0.83789751111E+01  0.81865209443E+01  0.13072794678E+02  0.17553788019E+02  0.10566000000E+00 0.  1.
        996    1    1    2    0    0 -0.83789751111E+01 -0.81865209443E+01  0.76901435393E+02  0.92471926089E+02  0.50000000000E+02 0.  0.
<mgrwt>
<rscale>  0 0.51353932E+02</rscale>
<asrwt>0</asrwt>
<pdfrwt beam="1">  1       13 0.10000000E+01 0.51353932E+02</pdfrwt>
<pdfrwt beam="2">  1       22 0.10025739E+00 0.51353932E+02</pdfrwt>
<totfact> 0.14023605E+00</totfact>
</mgrwt>
</event>
<event>
 4    1  0.2489082E+000  0.5353956E+02  0.7957747E-01  0.1427134E+00
         13   -1    0    0    0    0  0.00000000000E+00  0.00000000000E+00  0.99999944172E+02  0.99999999993E+02  0.10566000000E+00 0.  1.
         22   -1    0    0    0    0 -0.00000000000E+00 -0.00000000000E+00 -0.28787529790E+02  0.28787529790E+02  0.00000000000E+00 0. -1.
         13    1    1    2    0    0 -0.16219392416E+02  0.10169356935E+02 -0.16997463368E+02  0.25600965525E+02  0.10566000000E+00 0. -1.
        996    1    1    2    0    0  0.16219392416E+02 -0.10169356935E+02  0.88209877750E+02  0.10318656426E+03  0.50000000000E+02 0.  0.
<mgrwt>
<rscale>  0 0.53539560E+02</rscale>
<asrwt>0</asrwt>
<pdfrwt beam="1">  1       13 0.10000000E+01 0.53539560E+02</pdfrwt>
<pdfrwt beam="2">  1       22 0.28787550E+00 0.53539560E+02</pdfrwt>
<totfact> 0.22430734E-01</totfact>
</mgrwt>
</event>
<event>
 4    1  0.2489082E+000  0.5123268E+02  0.7957747E-01  0.1438804E+00
         13   -1    0    0    0    0  0.00000000000E+00  0.00000000000E+00  0.99999944171E+02  0.99999999991E+02  0.10566000000E+00 0. -1.
         22   -1    0    0    0    0 -0.00000000000E+00 -0.00000000000E+00 -0.57205587008E+02  0.57205587008E+02  0.00000000000E+00 0.  1.
         13    1    1    2    0    0 -0.11139446238E+02  0.83690470956E+00 -0.49986375172E+02  0.51219493739E+02  0.10566000000E+00 0.  1.
        996    1    1    2    0    0  0.11139446238E+02 -0.83690470956E+00  0.92780732335E+02  0.10598609326E+03  0.50000000000E+02 0.  0.
<mgrwt>
<rscale>  0 0.51232682E+02</rscale>
<asrwt>0</asrwt>
<pdfrwt beam="1">  1       13 0.10000000E+01 0.51232682E+02</pdfrwt>
<pdfrwt beam="2">  1       22 0.57205599E+00 0.51232682E+02</pdfrwt>
<totfact> 0.57786598E-02</totfact>
</mgrwt>
</event>
<event>
 4    1  0.2489082E+000  0.5101888E+02  0.7957747E-01  0.1439922E+00
         13   -1    0    0    0    0  0.00000000000E+00  0.00000000000E+00  0.99999944179E+02  0.10000000000E+03  0.10566000000E+00 0. -1.
         22   -1    0    0    0    0 -0.00000000000E+00 -0.00000000000E+00 -0.10183780988E+02  0.10183780988E+02  0.00000000000E+00 0. -1.
         13    1    1    2    0    0  0.99379744040E+01  0.20403618178E+01  0.52602383956E+01  0.11428371871E+02  0.10566000000E+00 0.  1.
        996    1    1    2    0    0 -0.99379744040E+01 -0.20403618178E+01  0.84555924796E+02  0.98755409116E+02  0.50000000000E+02 0.  0.
<mgrwt>
<rscale>  0 0.51018883E+02</rscale>
<asrwt>0</asrwt>
<pdfrwt beam="1">  1       13 0.10000000E+01 0.51018883E+02</pdfrwt>
<pdfrwt beam="2">  1       22 0.10183806E+00 0.51018883E+02</pdfrwt>
<totfact> 0.13697530E+00</totfact>
</mgrwt>
</event>
<event>
 4    1  0.2489082E+000  0.6272102E+02  0.7957747E-01  0.1386755E+00
         13   -1    0    0    0    0  0.00000000000E+00  0.00000000000E+00  0.99999944182E+02  0.10000000000E+03  0.10566000000E+00 0. -1.
         22   -1    0    0    0    0 -0.00000000000E+00 -0.00000000000E+00 -0.40191096750E+02  0.40191096750E+02  0.00000000000E+00 0.  1.
         13    1    1    2    0    0 -0.34345655127E+02  0.15946853188E+02 -0.16591823241E+02  0.41342785528E+02  0.10566000000E+00 0.  1.
        996    1    1    2    0    0  0.34345655127E+02 -0.15946853188E+02  0.76400670673E+02  0.98848311225E+02  0.50000000000E+02 0.  0.
<mgrwt>
<rscale>  0 0.62721018E+02</rscale>
<asrwt>0</asrwt>
<pdfrwt beam="1">  1       13 0.10000000E+01 0.62721018E+02</pdfrwt>
<pdfrwt beam="2">  1       22 0.40191113E+00 0.62721018E+02</pdfrwt>
<totfact> 0.12349008E-01</totfact>
</mgrwt>
</event>
<event>
 4    1  0.2489082E+000  0.6291458E+02  0.7957747E-01  0.1385992E+00
         13   -1    0    0    0    0  0.00000000000E+00  0.00000000000E+00  0.99999944170E+02  0.99999999990E+02  0.10566000000E+00 0. -1.
         22   -1    0    0    0    0 -0.00000000000E+00 -0.00000000000E+00 -0.25742765148E+02  0.25742765148E+02  0.00000000000E+00 0.  1.
         13    1    1    2    0    0 -0.27890334302E+02 -0.26083971592E+02  0.22890888461E+02  0.44522446698E+02  0.10566000000E+00 0.  1.
        996    1    1    2    0    0  0.27890334302E+02  0.26083971592E+02  0.51366290561E+02  0.81220318440E+02  0.50000000000E+02 0.  0.
<mgrwt>
<rscale>  0 0.62914580E+02</rscale>
<asrwt>0</asrwt>
<pdfrwt beam="1">  1       13 0.10000000E+01 0.62914580E+02</pdfrwt>
<pdfrwt beam="2">  1       22 0.25742786E+00 0.62914580E+02</pdfrwt>
<totfact> 0.28252382E-01</totfact>
</mgrwt>
</event>
<event>
 4    1  0.2489082E+000  0.5146802E+02  0.7957747E-01  0.1437581E+00
         13   -1    0    0    0    0  0.00000000000E+00  0.00000000000E+00  0.99999944177E+02  0.99999999997E+02  0.10566000000E+00 0. -1.
         22   -1    0    0    0    0 -0.00000000000E+00 -0.00000000000E+00 -0.11506258213E+02  0.11506258213E+02  0.00000000000E+00 0. -1.
         13    1    1    2    0    0  0.92536518740E+01  0.79578578691E+01  0.35904993804E+02  0.37922781003E+02  0.10566000000E+00 0.  1.
        996    1    1    2    0    0 -0.92536518740E+01 -0.79578578691E+01  0.52588692159E+02  0.73583477207E+02  0.50000000000E+02 0.  0.
<mgrwt>
<rscale>  0 0.51468025E+02</rscale>
<asrwt>0</asrwt>
<pdfrwt beam="1">  1       13 0.10000000E+01 0.51468025E+02</pdfrwt>
<pdfrwt beam="2">  1       22 0.11506283E+00 0.51468025E+02</pdfrwt>
<totfact> 0.11444269E+00</totfact>
</mgrwt>
</event>
<event>
 4    1  0.2489082E+000  0.5724541E+02  0.7957747E-01  0.1409769E+00
         13   -1    0    0    0    0  0.00000000000E+00  0.00000000000E+00  0.99999944176E+02  0.99999999997E+02  0.10566000000E+00 0. -1.
         22   -1    0    0    0    0 -0.00000000000E+00 -0.00000000000E+00 -0.42088680038E+02  0.42088680038E+02  0.00000000000E+00 0.  1.
         13    1    1    2    0    0  0.25420440088E+02 -0.11438437971E+02 -0.27572064834E+02  0.39207991032E+02  0.10566000000E+00 0.  1.
        996    1    1    2    0    0 -0.25420440088E+02  0.11438437971E+02  0.85483328973E+02  0.10288068900E+03  0.50000000000E+02 0.  0.
<mgrwt>
<rscale>  0 0.57245407E+02</rscale>
<asrwt>0</asrwt>
<pdfrwt beam="1">  1       13 0.10000000E+01 0.57245407E+02</pdfrwt>
<pdfrwt beam="2">  1       22 0.42088696E+00 0.57245407E+02</pdfrwt>
<totfact> 0.11225978E-01</totfact>
</mgrwt>
</event>
<event>
 4    1  0.2489082E+000  0.5513708E+02  0.7957747E-01  0.1419452E+00
         13   -1    0    0    0    0  0.00000000000E+00  0.00000000000E+00  0.99999944182E+02  0.10000000000E+03  0.10566000000E+00 0. -1.
         22   -1    0    0    0    0 -0.00000000000E+00 -0.00000000000E+00 -0.20085940075E+02  0.20085940075E+02  0.00000000000E+00 0.  1.
         13    1    1    2    0    0 -0.58188255785E+01  0.22499753402E+02  0.29855083672E+00  0.23242158482E+02  0.10566000000E+00 0.  1.
        996    1    1    2    0    0  0.58188255785E+01 -0.22499753402E+02  0.79615453269E+02  0.96843781595E+02  0.50000000000E+02 0.  0.
<mgrwt>
<rscale>  0 0.55137080E+02</rscale>
<asrwt>0</asrwt>
<pdfrwt beam="1">  1       13 0.10000000E+01 0.55137080E+02</pdfrwt>
<pdfrwt beam="2">  1       22 0.20085962E+00 0.55137080E+02</pdfrwt>
<totfact> 0.45192090E-01</totfact>
</mgrwt>
</event>
<event>
 4    1  0.2489082E+000  0.6275508E+02  0.7957747E-01  0.1386621E+00
         13   -1    0    0    0    0  0.00000000000E+00  0.00000000000E+00  0.99999944173E+02  0.99999999993E+02  0.10566000000E+00 0.  1.
         22   -1    0    0    0    0 -0.00000000000E+00 -0.00000000000E+00 -0.58181959375E+02  0.58181959375E+02  0.00000000000E+00 0. -1.
         13    1    1    2    0    0  0.37377967165E+02 -0.64100046932E+01 -0.39966118267E+02  0.55095393300E+02  0.10566000000E+00 0. -1.
        996    1    1    2    0    0 -0.37377967165E+02  0.64100046932E+01  0.81784103065E+02  0.10308656607E+03  0.50000000000E+02 0.  0.
<mgrwt>
<rscale>  0 0.62755084E+02</rscale>
<asrwt>0</asrwt>
<pdfrwt beam="1">  1       13 0.10000000E+01 0.62755084E+02</pdfrwt>
<pdfrwt beam="2">  1       22 0.58181971E+00 0.62755084E+02</pdfrwt>
<totfact> 0.58706627E-02</totfact>
</mgrwt>
</event>
<event>
 4    1  0.2489082E+000  0.5710066E+02  0.7957747E-01  0.1410418E+00
         13   -1    0    0    0    0  0.00000000000E+00  0.00000000000E+00  0.99999944176E+02  0.99999999996E+02  0.10566000000E+00 0. -1.
         22   -1    0    0    0    0 -0.00000000000E+00 -0.00000000000E+00 -0.19137393455E+02  0.19137393455E+02  0.00000000000E+00 0. -1.
         13    1    1    2    0    0  0.27382994931E+02  0.32645662279E+01  0.13117744798E+02  0.30538045070E+02  0.10566000000E+00 0.  1.
        996    1    1    2    0    0 -0.27382994931E+02 -0.32645662279E+01  0.67744805923E+02  0.88599348382E+02  0.50000000000E+02 0.  0.
<mgrwt>
<rscale>  0 0.57100664E+02</rscale>
<asrwt>0</asrwt>
<pdfrwt beam="1">  1       13 0.10000000E+01 0.57100664E+02</pdfrwt>
<pdfrwt beam="2">  1       22 0.19137416E+00 0.57100664E+02</pdfrwt>
<totfact> 0.49598861E-01</totfact>
</mgrwt>
</event>
<event>
 4    1  0.2489082E+000  0.5162825E+02  0.7957747E-01  0.1436752E+00
         13   -1    0    0    0    0  0.00000000000E+00  0.00000000000E+00  0.99999944180E+02  0.10000000000E+03  0.10566000000E+00 0. -1.
         22   -1    0    0    0    0 -0.00000000000E+00 -0.00000000000E+00 -0.11303075720E+02  0.11303075720E+02  0.00000000000E+00 0. -1.
         13    1    1    2    0    0 -0.11794500515E+02 -0.51347824881E+01  0.32692608628E+02  0.35132521352E+02  0.10566000000E+00 0.  1.
        996    1    1    2    0    0  0.11794500515E+02  0.51347824881E+01  0.56004259832E+02  0.76170554369E+02  0.50000000000E+02 0.  0.
<mgrwt>
<rscale>  0 0.51628250E+02</rscale>
<asrwt>0</asrwt>
<pdfrwt beam="1">  1       13 0.10000000E+01 0.51628250E+02</pdfrwt>
<pdfrwt beam="2">  1       22 0.11303100E+00 0.51628250E+02</pdfrwt>
<totfact> 0.11759423E+00</totfact>
</mgrwt>
</event>
<event>
 4    1  0.2489082E+000  0.5114135E+02  0.7957747E-01  0.1439281E+00
         13   -1    0    0    0    0  0.00000000000E+00  0.00000000000E+00  0.99999944188E+02  0.10000000001E+03  0.10566000000E+00 0.  1.
         22   -1    0    0    0    0 -0.00000000000E+00 -0.00000000000E+00 -0.22574376418E+02  0.22574376418E+02  0.00000000000E+00 0. -1.
         13    1    1    2    0    0  0.10420433915E+02  0.26176025573E+01 -0.14101529245E+02  0.17728552598E+02  0.10566000000E+00 0. -1.
        996    1    1    2    0    0 -0.10420433915E+02 -0.26176025573E+01  0.91527097016E+02  0.10484582383E+03  0.50000000000E+02 0.  0.
<mgrwt>
<rscale>  0 0.51141346E+02</rscale>
<asrwt>0</asrwt>
<pdfrwt beam="1">  1       13 0.10000000E+01 0.51141346E+02</pdfrwt>
<pdfrwt beam="2">  1       22 0.22574398E+00 0.51141346E+02</pdfrwt>
<totfact> 0.35934277E-01</totfact>
</mgrwt>
</event>
<event>
 4    1  0.2489082E+000  0.5202781E+02  0.7957747E-01  0.1434701E+00
         13   -1    0    0    0    0  0.00000000000E+00  0.00000000000E+00  0.99999944185E+02  0.10000000001E+03  0.10566000000E+00 0. -1.
         22   -1    0    0    0    0 -0.00000000000E+00 -0.00000000000E+00 -0.30218266185E+02  0.30218266185E+02  0.00000000000E+00 0. -1.
         13    1    1    2    0    0  0.11533431610E+02 -0.85949283974E+01 -0.21077151166E+02  0.25517646916E+02  0.10566000000E+00 0.  1.
        996    1    1    2    0    0 -0.11533431610E+02  0.85949283974E+01  0.90858829166E+02  0.10470061927E+03  0.50000000000E+02 0.  0.
<mgrwt>
<rscale>  0 0.52027808E+02</rscale>
<asrwt>0</asrwt>
<pdfrwt beam="1">  1       13 0.10000000E+01 0.52027808E+02</pdfrwt>
<pdfrwt beam="2">  1       22 0.30218286E+00 0.52027808E+02</pdfrwt>
<totfact> 0.20425714E-01</totfact>
</mgrwt>
</event>
<event>
 4    1  0.2489082E+000  0.5450644E+02  0.7957747E-01  0.1422447E+00
         13   -1    0    0    0    0  0.00000000000E+00  0.00000000000E+00  0.99999944176E+02  0.99999999996E+02  0.10566000000E+00 0.  1.
         22   -1    0    0    0    0 -0.00000000000E+00 -0.00000000000E+00 -0.14914731049E+02  0.14914731049E+02  0.00000000000E+00 0.  1.
         13    1    1    2    0    0 -0.20582617911E+02 -0.68780931665E+01  0.16244061516E+02  0.27107803752E+02  0.10566000000E+00 0. -1.
        996    1    1    2    0    0  0.20582617911E+02  0.68780931665E+01  0.68841151610E+02  0.87806927293E+02  0.50000000000E+02 0.  0.
<mgrwt>
<rscale>  0 0.54506443E+02</rscale>
<asrwt>0</asrwt>
<pdfrwt beam="1">  1       13 0.10000000E+01 0.54506443E+02</pdfrwt>
<pdfrwt beam="2">  1       22 0.14914755E+00 0.54506443E+02</pdfrwt>
<totfact> 0.76391043E-01</totfact>
</mgrwt>
</event>
<event>
 4    1  0.2489082E+000  0.5196010E+02  0.7957747E-01  0.1435047E+00
         13   -1    0    0    0    0  0.00000000000E+00  0.00000000000E+00  0.99999944180E+02  0.10000000000E+03  0.10566000000E+00 0. -1.
         22   -1    0    0    0    0 -0.00000000000E+00 -0.00000000000E+00 -0.11519244489E+02  0.11519244489E+02  0.00000000000E+00 0.  1.
         13    1    1    2    0    0 -0.95345893983E+01  0.10437612799E+02  0.96953816656E+01  0.17142454480E+02  0.10566000000E+00 0.  1.
        996    1    1    2    0    0  0.95345893983E+01 -0.10437612799E+02  0.78785318025E+02  0.94376790009E+02  0.50000000000E+02 0.  0.
<mgrwt>
<rscale>  0 0.51960102E+02</rscale>
<asrwt>0</asrwt>
<pdfrwt beam="1">  1       13 0.10000000E+01 0.51960102E+02</pdfrwt>
<pdfrwt beam="2">  1       22 0.11519269E+00 0.51960102E+02</pdfrwt>
<totfact> 0.11437656E+00</totfact>
</mgrwt>
</event>
<event>
 4    1  0.2489082E+000  0.6825530E+02  0.7957747E-01  0.1366129E+00
         13   -1    0    0    0    0  0.00000000000E+00  0.00000000000E+00  0.99999944183E+02  0.10000000000E+03  0.10566000000E+00 0. -1.
         22   -1    0    0    0    0 -0.00000000000E+00 -0.00000000000E+00 -0.33842518932E+02  0.33842518932E+02  0.00000000000E+00 0.  1.
         13    1    1    2    0    0 -0.46446570648E+02 -0.12256699683E+01  0.16003019660E+02  0.49141570936E+02  0.10566000000E+00 0.  1.
        996    1    1    2    0    0  0.46446570648E+02  0.12256699683E+01  0.50154405590E+02  0.84700947999E+02  0.50000000000E+02 0.  0.
<mgrwt>
<rscale>  0 0.68255302E+02</rscale>
<asrwt>0</asrwt>
<pdfrwt beam="1">  1       13 0.10000000E+01 0.68255302E+02</pdfrwt>
<pdfrwt beam="2">  1       22 0.33842537E+00 0.68255302E+02</pdfrwt>
<totfact> 0.16924540E-01</totfact>
</mgrwt>
</event>
<event>
 4    1  0.2489082E+000  0.5531895E+02  0.7957747E-01  0.1418597E+00
         13   -1    0    0    0    0  0.00000000000E+00  0.00000000000E+00  0.99999944198E+02  0.10000000002E+03  0.10566000000E+00 0.  1.
         22   -1    0    0    0    0 -0.00000000000E+00 -0.00000000000E+00 -0.69914265598E+02  0.69914265598E+02  0.00000000000E+00 0. -1.
         13    1    1    2    0    0  0.56523480707E+01 -0.22983399187E+02 -0.59831591378E+02  0.64342957406E+02  0.10566000000E+00 0. -1.
        996    1    1    2    0    0 -0.56523480707E+01  0.22983399187E+02  0.89917269977E+02  0.10557130821E+03  0.50000000000E+02 0.  0.
<mgrwt>
<rscale>  0 0.55318945E+02</rscale>
<asrwt>0</asrwt>
<pdfrwt beam="1">  1       13 0.10000000E+01 0.55318945E+02</pdfrwt>
<pdfrwt beam="2">  1       22 0.69914274E+00 0.55318945E+02</pdfrwt>
<totfact> 0.75080605E-02</totfact>
</mgrwt>
</event>
<event>
 4    1  0.2489082E+000  0.5104419E+02  0.7957747E-01  0.1439789E+00
         13   -1    0    0    0    0  0.00000000000E+00  0.00000000000E+00  0.99999944175E+02  0.99999999995E+02  0.10566000000E+00 0. -1.
         22   -1    0    0    0    0 -0.00000000000E+00 -0.00000000000E+00 -0.95061652379E+01  0.95061652379E+01  0.00000000000E+00 0. -1.
         13    1    1    2    0    0  0.14739240096E+01 -0.10165499062E+02  0.19854581200E+02  0.22354538282E+02  0.10566000000E+00 0.  1.
        996    1    1    2    0    0 -0.14739240096E+01  0.10165499062E+02  0.70639197737E+02  0.87151626951E+02  0.50000000000E+02 0.  0.
<mgrwt>
<rscale>  0 0.51044195E+02</rscale>
<asrwt>0</asrwt>
<pdfrwt beam="1">  1       13 0.10000000E+01 0.51044195E+02</pdfrwt>
<pdfrwt beam="2">  1       22 0.95061905E-01 0.51044195E+02</pdfrwt>
<totfact> 0.15128047E+00</totfact>
</mgrwt>
</event>
<event>
 4    1  0.2489082E+000  0.5124087E+02  0.7957747E-01  0.1438761E+00
         13   -1    0    0    0    0  0.00000000000E+00  0.00000000000E+00  0.99999944183E+02  0.10000000000E+03  0.10566000000E+00 0.  1.
         22   -1    0    0    0    0 -0.00000000000E+00 -0.00000000000E+00 -0.23185693163E+02  0.23185693163E+02  0.00000000000E+00 0. -1.
         13    1    1    2    0    0  0.89943606349E+01 -0.66879078708E+01 -0.14589959502E+02  0.18398497689E+02  0.10566000000E+00 0. -1.
        996    1    1    2    0    0 -0.89943606349E+01  0.66879078708E+01  0.91404210522E+02  0.10478719548E+03  0.50000000000E+02 0.  0.
<mgrwt>
<rscale>  0 0.51240869E+02</rscale>
<asrwt>0</asrwt>
<pdfrwt beam="1">  1       13 0.10000000E+01 0.51240869E+02</pdfrwt>
<pdfrwt beam="2">  1       22 0.23185715E+00 0.51240869E+02</pdfrwt>
<totfact> 0.34124238E-01</totfact>
</mgrwt>
</event>
<event>
 4    1  0.2489082E+000  0.5663956E+02  0.7957747E-01  0.1412501E+00
         13   -1    0    0    0    0  0.00000000000E+00  0.00000000000E+00  0.99999944179E+02  0.99999999999E+02  0.10566000000E+00 0. -1.
         22   -1    0    0    0    0 -0.00000000000E+00 -0.00000000000E+00 -0.19050131373E+02  0.19050131373E+02  0.00000000000E+00 0. -1.
         13    1    1    2    0    0  0.22032193367E+02  0.14920527438E+02  0.44011016397E+02  0.51429761928E+02  0.10566000000E+00 0.  1.
        996    1    1    2    0    0 -0.22032193367E+02 -0.14920527438E+02  0.36938796408E+02  0.67620369444E+02  0.50000000000E+02 0.  0.
<mgrwt>
<rscale>  0 0.56639559E+02</rscale>
<asrwt>0</asrwt>
<pdfrwt beam="1">  1       13 0.10000000E+01 0.56639559E+02</pdfrwt>
<pdfrwt beam="2">  1       22 0.19050154E+00 0.56639559E+02</pdfrwt>
<totfact> 0.49978895E-01</totfact>
</mgrwt>
</event>
<event>
 4    1  0.2489082E+000  0.5099159E+02  0.7957747E-01  0.1440065E+00
         13   -1    0    0    0    0  0.00000000000E+00  0.00000000000E+00  0.99999944180E+02  0.10000000000E+03  0.10566000000E+00 0.  1.
         22   -1    0    0    0    0 -0.00000000000E+00 -0.00000000000E+00 -0.98006169506E+01  0.98006169506E+01  0.00000000000E+00 0.  1.
         13    1    1    2    0    0 -0.70517688278E+01  0.71003719181E+01  0.69798724993E+01  0.12201332268E+02  0.10566000000E+00 0. -1.
        996    1    1    2    0    0  0.70517688278E+01 -0.71003719181E+01  0.83219454730E+02  0.97599284683E+02  0.50000000000E+02 0.  0.
<mgrwt>
<rscale>  0 0.50991595E+02</rscale>
<asrwt>0</asrwt>
<pdfrwt beam="1">  1       13 0.10000000E+01 0.50991595E+02</pdfrwt>
<pdfrwt beam="2">  1       22 0.98006421E-01 0.50991595E+02</pdfrwt>
<totfact> 0.14478450E+00</totfact>
</mgrwt>
</event>
<event>
 4    1  0.2489082E+000  0.5272215E+02  0.7957747E-01  0.1431189E+00
         13   -1    0    0    0    0  0.00000000000E+00  0.00000000000E+00  0.99999944183E+02  0.10000000000E+03  0.10566000000E+00 0. -1.
         22   -1    0    0    0    0 -0.00000000000E+00 -0.00000000000E+00 -0.13626892143E+02  0.13626892143E+02  0.00000000000E+00 0. -1.
         13    1    1    2    0    0  0.16660213857E+02 -0.14362051978E+01  0.65396665555E+01  0.17955606752E+02  0.10566000000E+00 0.  1.
        996    1    1    2    0    0 -0.16660213857E+02  0.14362051978E+01  0.79833385485E+02  0.95671285395E+02  0.50000000000E+02 0.  0.
<mgrwt>
<rscale>  0 0.52722153E+02</rscale>
<asrwt>0</asrwt>
<pdfrwt beam="1">  1       13 0.10000000E+01 0.52722153E+02</pdfrwt>
<pdfrwt beam="2">  1       22 0.13626916E+00 0.52722153E+02</pdfrwt>
<totfact> 0.88215322E-01</totfact>
</mgrwt>
</event>
<event>
 4    1  0.2489082E+000  0.5148310E+02  0.7957747E-01  0.1437502E+00
         13   -1    0    0    0    0  0.00000000000E+00  0.00000000000E+00  0.99999944193E+02  0.10000000001E+03  0.10566000000E+00 0. -1.
         22   -1    0    0    0    0 -0.00000000000E+00 -0.00000000000E+00 -0.22573559902E+02  0.22573559902E+02  0.00000000000E+00 0.  1.
         13    1    1    2    0    0 -0.57326057481E+01  0.10846518087E+02 -0.13401645486E+02  0.18169342009E+02  0.10566000000E+00 0.  1.
        996    1    1    2    0    0  0.57326057481E+01 -0.10846518087E+02  0.90828029777E+02  0.10440421791E+03  0.50000000000E+02 0.  0.
<mgrwt>
<rscale>  0 0.51483101E+02</rscale>
<asrwt>0</asrwt>
<pdfrwt beam="1">  1       13 0.10000000E+01 0.51483101E+02</pdfrwt>
<pdfrwt beam="2">  1       22 0.22573582E+00 0.51483101E+02</pdfrwt>
<totfact> 0.35957718E-01</totfact>
</mgrwt>
</event>
<event>
 4    1  0.2489082E+000  0.5238367E+02  0.7957747E-01  0.1432893E+00
         13   -1    0    0    0    0  0.00000000000E+00  0.00000000000E+00  0.99999944179E+02  0.99999999999E+02  0.10566000000E+00 0.  1.
         22   -1    0    0    0    0 -0.00000000000E+00 -0.00000000000E+00 -0.12121732846E+02  0.12121732846E+02  0.00000000000E+00 0.  1.
         13    1    1    2    0    0 -0.48606407380E+01  0.14846640994E+02  0.31514827340E+02  0.35174480572E+02  0.10566000000E+00 0. -1.
        996    1    1    2    0    0  0.48606407380E+01 -0.14846640994E+02  0.56363383994E+02  0.76947252273E+02  0.50000000000E+02 0.  0.
<mgrwt>
<rscale>  0 0.52383667E+02</rscale>
<asrwt>0</asrwt>
<pdfrwt beam="1">  1       13 0.10000000E+01 0.52383667E+02</pdfrwt>
<pdfrwt beam="2">  1       22 0.12121757E+00 0.52383667E+02</pdfrwt>
<totfact> 0.10593202E+00</totfact>
</mgrwt>
</event>
<event>
 4    1  0.2489082E+000  0.5216749E+02  0.7957747E-01  0.1433989E+00
         13   -1    0    0    0    0  0.00000000000E+00  0.00000000000E+00  0.99999944176E+02  0.99999999996E+02  0.10566000000E+00 0. -1.
         22   -1    0    0    0    0 -0.00000000000E+00 -0.00000000000E+00 -0.27145111889E+02  0.27145111889E+02  0.00000000000E+00 0.  1.
         13    1    1    2    0    0  0.94227729162E+01  0.11517738267E+02 -0.17401579165E+02  0.22897009973E+02  0.10566000000E+00 0.  1.
        996    1    1    2    0    0 -0.94227729162E+01 -0.11517738267E+02  0.90256411452E+02  0.10424810191E+03  0.50000000000E+02 0.  0.
<mgrwt>
<rscale>  0 0.52167489E+02</rscale>
<asrwt>0</asrwt>
<pdfrwt beam="1">  1       13 0.10000000E+01 0.52167489E+02</pdfrwt>
<pdfrwt beam="2">  1       22 0.27145132E+00 0.52167489E+02</pdfrwt>
<totfact> 0.25084558E-01</totfact>
</mgrwt>
</event>
<event>
 4    1  0.2489082E+000  0.5818715E+02  0.7957747E-01  0.1405601E+00
         13   -1    0    0    0    0  0.00000000000E+00  0.00000000000E+00  0.99999944179E+02  0.99999999999E+02  0.10566000000E+00 0. -1.
         22   -1    0    0    0    0 -0.00000000000E+00 -0.00000000000E+00 -0.20829996516E+02  0.20829996516E+02  0.00000000000E+00 0. -1.
         13    1    1    2    0    0 -0.15927360670E+02 -0.25140870032E+02  0.12339794995E+02  0.32218408844E+02  0.10566000000E+00 0.  1.
        996    1    1    2    0    0  0.15927360670E+02  0.25140870032E+02  0.66830152669E+02  0.88611587671E+02  0.50000000000E+02 0.  0.
<mgrwt>
<rscale>  0 0.58187148E+02</rscale>
<asrwt>0</asrwt>
<pdfrwt beam="1">  1       13 0.10000000E+01 0.58187148E+02</pdfrwt>
<pdfrwt beam="2">  1       22 0.20830019E+00 0.58187148E+02</pdfrwt>
<totfact> 0.42407623E-01</totfact>
</mgrwt>
</event>
<event>
 4    1  0.2489082E+000  0.5248181E+02  0.7957747E-01  0.1432397E+00
         13   -1    0    0    0    0  0.00000000000E+00  0.00000000000E+00  0.99999944181E+02  0.10000000000E+03  0.10566000000E+00 0. -1.
         22   -1    0    0    0    0 -0.00000000000E+00 -0.00000000000E+00 -0.11707545970E+02  0.11707545970E+02  0.00000000000E+00 0. -1.
         13    1    1    2    0    0  0.47130643082E+01  0.15235725289E+02  0.20978455195E+02  0.26352363208E+02  0.10566000000E+00 0.  1.
        996    1    1    2    0    0 -0.47130643082E+01 -0.15235725289E+02  0.67313943015E+02  0.85355182763E+02  0.50000000000E+02 0.  0.
<mgrwt>
<rscale>  0 0.52481809E+02</rscale>
<asrwt>0</asrwt>
<pdfrwt beam="1">  1       13 0.10000000E+01 0.52481809E+02</pdfrwt>
<pdfrwt beam="2">  1       22 0.11707571E+00 0.52481809E+02</pdfrwt>
<totfact> 0.11173530E+00</totfact>
</mgrwt>
</event>
<event>
 4    1  0.2489082E+000  0.5785155E+02  0.7957747E-01  0.1407075E+00
         13   -1    0    0    0    0  0.00000000000E+00  0.00000000000E+00  0.99999944173E+02  0.99999999993E+02  0.10566000000E+00 0. -1.
         22   -1    0    0    0    0 -0.00000000000E+00 -0.00000000000E+00 -0.21634029927E+02  0.21634029927E+02  0.00000000000E+00 0.  1.
         13    1    1    2    0    0  0.29005616480E+02 -0.23401994542E+01  0.73070465192E+01  0.30003440031E+02  0.10566000000E+00 0.  1.
        996    1    1    2    0    0 -0.29005616480E+02  0.23401994542E+01  0.71058867727E+02  0.91630589889E+02  0.50000000000E+02 0.  0.
<mgrwt>
<rscale>  0 0.57851554E+02</rscale>
<asrwt>0</asrwt>
<pdfrwt beam="1">  1       13 0.10000000E+01 0.57851554E+02</pdfrwt>
<pdfrwt beam="2">  1       22 0.21634052E+00 0.57851554E+02</pdfrwt>
<totfact> 0.39430911E-01</totfact>
</mgrwt>
</event>
<event>
 4    1  0.2489082E+000  0.5131899E+02  0.7957747E-01  0.1438354E+00
         13   -1    0    0    0    0  0.00000000000E+00  0.00000000000E+00  0.99999944183E+02  0.10000000000E+03  0.10566000000E+00 0. -1.
         22   -1    0    0    0    0 -0.00000000000E+00 -0.00000000000E+00 -0.10926770973E+02  0.10926770973E+02  0.00000000000E+00 0.  1.
         13    1    1    2    0    0  0.66795466065E+01 -0.94351696331E+01  0.53770762123E+01  0.12750014961E+02  0.10566000000E+00 0.  1.
        996    1    1    2    0    0 -0.66795466065E+01  0.94351696331E+01  0.83696096998E+02  0.98176756015E+02  0.50000000000E+02 0.  0.
<mgrwt>
<rscale>  0 0.51318990E+02</rscale>
<asrwt>0</asrwt>
<pdfrwt beam="1">  1       13 0.10000000E+01 0.51318990E+02</pdfrwt>
<pdfrwt beam="2">  1       22 0.10926796E+00 0.51318990E+02</pdfrwt>
<totfact> 0.12359904E+00</totfact>
</mgrwt>
</event>
<event>
 4    1  0.2489082E+000  0.5155323E+02  0.7957747E-01  0.1437139E+00
         13   -1    0    0    0    0  0.00000000000E+00  0.00000000000E+00  0.99999944176E+02  0.99999999996E+02  0.10566000000E+00 0.  1.
         22   -1    0    0    0    0 -0.00000000000E+00 -0.00000000000E+00 -0.10287918083E+02  0.10287918083E+02  0.00000000000E+00 0.  1.
         13    1    1    2    0    0  0.11419411559E+02 -0.52280718535E+01  0.19086388646E+02  0.22848131023E+02  0.10566000000E+00 0. -1.
        996    1    1    2    0    0 -0.11419411559E+02  0.52280718535E+01  0.70625637447E+02  0.87439787056E+02  0.50000000000E+02 0.  0.
<mgrwt>
<rscale>  0 0.51553232E+02</rscale>
<asrwt>0</asrwt>
<pdfrwt beam="1">  1       13 0.10000000E+01 0.51553232E+02</pdfrwt>
<pdfrwt beam="2">  1       22 0.10287943E+00 0.51553232E+02</pdfrwt>
<totfact> 0.13513350E+00</totfact>
</mgrwt>
</event>
<event>
 4    1  0.2489082E+000  0.5147304E+02  0.7957747E-01  0.1437555E+00
         13   -1    0    0    0    0  0.00000000000E+00  0.00000000000E+00  0.99999944176E+02  0.99999999997E+02  0.10566000000E+00 0. -1.
         22   -1    0    0    0    0 -0.00000000000E+00 -0.00000000000E+00 -0.17206364860E+02  0.17206364860E+02  0.00000000000E+00 0.  1.
         13    1    1    2    0    0 -0.10381388540E+02  0.64576245935E+01 -0.67179060244E+01  0.13950468408E+02  0.10566000000E+00 0.  1.
        996    1    1    2    0    0  0.10381388540E+02 -0.64576245935E+01  0.89511485341E+02  0.10325589645E+03  0.50000000000E+02 0.  0.
<mgrwt>
<rscale>  0 0.51473043E+02</rscale>
<asrwt>0</asrwt>
<pdfrwt beam="1">  1       13 0.10000000E+01 0.51473043E+02</pdfrwt>
<pdfrwt beam="2">  1       22 0.17206388E+00 0.51473043E+02</pdfrwt>
<totfact> 0.59462734E-01</totfact>
</mgrwt>
</event>
<event>
 4    1  0.2489082E+000  0.6179701E+02  0.7957747E-01  0.1390442E+00
         13   -1    0    0    0    0  0.00000000000E+00  0.00000000000E+00  0.99999944180E+02  0.10000000000E+03  0.10566000000E+00 0.  1.
         22   -1    0    0    0    0 -0.00000000000E+00 -0.00000000000E+00 -0.38098220884E+02  0.38098220884E+02  0.00000000000E+00 0. -1.
         13    1    1    2    0    0 -0.35619573364E+02 -0.70792873208E+01 -0.15130090685E+02  0.39342103703E+02  0.10566000000E+00 0. -1.
        996    1    1    2    0    0  0.35619573364E+02  0.70792873208E+01  0.77031813981E+02  0.98756117182E+02  0.50000000000E+02 0.  0.
<mgrwt>
<rscale>  0 0.61797009E+02</rscale>
<asrwt>0</asrwt>
<pdfrwt beam="1">  1       13 0.10000000E+01 0.61797009E+02</pdfrwt>
<pdfrwt beam="2">  1       22 0.38098238E+00 0.61797009E+02</pdfrwt>
<totfact> 0.13637988E-01</totfact>
</mgrwt>
</event>
<event>
 4    1  0.2489082E+000  0.5206951E+02  0.7957747E-01  0.1434488E+00
         13   -1    0    0    0    0  0.00000000000E+00  0.00000000000E+00  0.99999944185E+02  0.10000000000E+03  0.10566000000E+00 0.  1.
         22   -1    0    0    0    0 -0.00000000000E+00 -0.00000000000E+00 -0.13587516635E+02  0.13587516635E+02  0.00000000000E+00 0.  1.
         13    1    1    2    0    0  0.14039409992E+02 -0.37588588330E+01  0.23759571294E+01  0.14727198952E+02  0.10566000000E+00 0. -1.
        996    1    1    2    0    0 -0.14039409992E+02  0.37588588330E+01  0.84036470420E+02  0.98860317688E+02  0.50000000000E+02 0.  0.
<mgrwt>
<rscale>  0 0.52069512E+02</rscale>
<asrwt>0</asrwt>
<pdfrwt beam="1">  1       13 0.10000000E+01 0.52069512E+02</pdfrwt>
<pdfrwt beam="2">  1       22 0.13587541E+00 0.52069512E+02</pdfrwt>
<totfact> 0.88503447E-01</totfact>
</mgrwt>
</event>
<event>
 4    1  0.2489082E+000  0.5329396E+02  0.7957747E-01  0.1428343E+00
         13   -1    0    0    0    0  0.00000000000E+00  0.00000000000E+00  0.99999944182E+02  0.10000000000E+03  0.10566000000E+00 0.  1.
         22   -1    0    0    0    0 -0.00000000000E+00 -0.00000000000E+00 -0.15857970862E+02  0.15857970862E+02  0.00000000000E+00 0.  1.
         13    1    1    2    0    0 -0.25235694710E+01 -0.18272336928E+02  0.48113659318E+02  0.51528458901E+02  0.10566000000E+00 0. -1.
        996    1    1    2    0    0  0.25235694710E+01  0.18272336928E+02  0.36028314002E+02  0.64329511964E+02  0.50000000000E+02 0.  0.
<mgrwt>
<rscale>  0 0.53293965E+02</rscale>
<asrwt>0</asrwt>
<pdfrwt beam="1">  1       13 0.10000000E+01 0.53293965E+02</pdfrwt>
<pdfrwt beam="2">  1       22 0.15857994E+00 0.53293965E+02</pdfrwt>
<totfact> 0.68735087E-01</totfact>
</mgrwt>
</event>
<event>
 4    1  0.2489082E+000  0.5250288E+02  0.7957747E-01  0.1432291E+00
         13   -1    0    0    0    0  0.00000000000E+00  0.00000000000E+00  0.99999944176E+02  0.99999999996E+02  0.10566000000E+00 0. -1.
         22   -1    0    0    0    0 -0.00000000000E+00 -0.00000000000E+00 -0.12023376765E+02  0.12023376765E+02  0.00000000000E+00 0. -1.
         13    1    1    2    0    0  0.59813198097E+01 -0.14858550922E+02  0.28465779630E+02  0.32662891730E+02  0.10566000000E+00 0.  1.
        996    1    1    2    0    0 -0.59813198097E+01  0.14858550922E+02  0.59510787780E+02  0.79360485031E+02  0.50000000000E+02 0.  0.
<mgrwt>
<rscale>  0 0.52502883E+02</rscale>
<asrwt>0</asrwt>
<pdfrwt beam="1">  1       13 0.10000000E+01 0.52502883E+02</pdfrwt>
<pdfrwt beam="2">  1       22 0.12023401E+00 0.52502883E+02</pdfrwt>
<totfact> 0.10729369E+00</totfact>
</mgrwt>
</event>
<event>
 4    1  0.2489082E+000  0.5778581E+02  0.7957747E-01  0.1407366E+00
         13   -1    0    0    0    0  0.00000000000E+00  0.00000000000E+00  0.99999944181E+02  0.10000000000E+03  0.10566000000E+00 0.  1.
         22   -1    0    0    0    0 -0.00000000000E+00 -0.00000000000E+00 -0.36572748816E+02  0.36572748816E+02  0.00000000000E+00 0. -1.
         13    1    1    2    0    0  0.24492961716E+02  0.15469161298E+02 -0.19917124542E+02  0.35155414077E+02  0.10566000000E+00 0. -1.
        996    1    1    2    0    0 -0.24492961716E+02 -0.15469161298E+02  0.83344319908E+02  0.10141733474E+03  0.50000000000E+02 0.  0.
<mgrwt>
<rscale>  0 0.57785812E+02</rscale>
<asrwt>0</asrwt>
<pdfrwt beam="1">  1       13 0.10000000E+01 0.57785812E+02</pdfrwt>
<pdfrwt beam="2">  1       22 0.36572767E+00 0.57785812E+02</pdfrwt>
<totfact> 0.14627831E-01</totfact>
</mgrwt>
</event>
<event>
 4    1  0.2489082E+000  0.5231251E+02  0.7957747E-01  0.1433253E+00
         13   -1    0    0    0    0  0.00000000000E+00  0.00000000000E+00  0.99999944175E+02  0.99999999995E+02  0.10566000000E+00 0. -1.
         22   -1    0    0    0    0 -0.00000000000E+00 -0.00000000000E+00 -0.20671701711E+02  0.20671701711E+02  0.00000000000E+00 0.  1.
         13    1    1    2    0    0 -0.13959945709E+02 -0.64589867983E+01 -0.91410319909E+01  0.17893245221E+02  0.10566000000E+00 0.  1.
        996    1    1    2    0    0  0.13959945709E+02  0.64589867983E+01  0.88469274455E+02  0.10277845648E+03  0.50000000000E+02 0.  0.
<mgrwt>
<rscale>  0 0.52312509E+02</rscale>
<asrwt>0</asrwt>
<pdfrwt beam="1">  1       13 0.10000000E+01 0.52312509E+02</pdfrwt>
<pdfrwt beam="2">  1       22 0.20671724E+00 0.52312509E+02</pdfrwt>
<totfact> 0.42608628E-01</totfact>
</mgrwt>
</event>
<event>
 4    1  0.2489082E+000  0.5680218E+02  0.7957747E-01  0.1411763E+00
         13   -1    0    0    0    0  0.00000000000E+00  0.00000000000E+00  0.99999944171E+02  0.99999999991E+02  0.10566000000E+00 0. -1.
         22   -1    0    0    0    0 -0.00000000000E+00 -0.00000000000E+00 -0.51158353205E+02  0.51158353205E+02  0.00000000000E+00 0.  1.
         13    1    1    2    0    0 -0.23915711034E+02  0.12430870551E+02 -0.38484008163E+02  0.46984229537E+02  0.10566000000E+00 0.  1.
        996    1    1    2    0    0  0.23915711034E+02 -0.12430870551E+02  0.87325599129E+02  0.10417412366E+03  0.50000000000E+02 0.  0.
<mgrwt>
<rscale>  0 0.56802181E+02</rscale>
<asrwt>0</asrwt>
<pdfrwt beam="1">  1       13 0.10000000E+01 0.56802181E+02</pdfrwt>
<pdfrwt beam="2">  1       22 0.51158367E+00 0.56802181E+02</pdfrwt>
<totfact> 0.69315689E-02</totfact>
</mgrwt>
</event>
<event>
 4    1  0.2489082E+000  0.6012133E+02  0.7957747E-01  0.1397323E+00
         13   -1    0    0    0    0  0.00000000000E+00  0.00000000000E+00  0.99999944178E+02  0.99999999998E+02  0.10566000000E+00 0. -1.
         22   -1    0    0    0    0 -0.00000000000E+00 -0.00000000000E+00 -0.22104829397E+02  0.22104829397E+02  0.00000000000E+00 0.  1.
         13    1    1    2    0    0 -0.21945726140E+02 -0.25158693103E+02  0.21759767998E+02  0.39850638663E+02  0.10566000000E+00 0.  1.
        996    1    1    2    0    0  0.21945726140E+02  0.25158693103E+02  0.56135346784E+02  0.82254190732E+02  0.50000000000E+02 0.  0.
<mgrwt>
<rscale>  0 0.60121333E+02</rscale>
<asrwt>0</asrwt>
<pdfrwt beam="1">  1       13 0.10000000E+01 0.60121333E+02</pdfrwt>
<pdfrwt beam="2">  1       22 0.22104851E+00 0.60121333E+02</pdfrwt>
<totfact> 0.37958099E-01</totfact>
</mgrwt>
</event>
<event>
 4    1  0.2489082E+000  0.5351350E+02  0.7957747E-01  0.1427262E+00
         13   -1    0    0    0    0  0.00000000000E+00  0.00000000000E+00  0.99999944176E+02  0.99999999997E+02  0.10566000000E+00 0.  1.
         22   -1    0    0    0    0 -0.00000000000E+00 -0.00000000000E+00 -0.30441825400E+02  0.30441825400E+02  0.00000000000E+00 0. -1.
         13    1    1    2    0    0 -0.93016897500E+01  0.16648532503E+02 -0.19032341087E+02  0.26943203930E+02  0.10566000000E+00 0. -1.
        996    1    1    2    0    0  0.93016897500E+01 -0.16648532503E+02  0.88590459863E+02  0.10349862147E+03  0.50000000000E+02 0.  0.
<mgrwt>
<rscale>  0 0.53513504E+02</rscale>
<asrwt>0</asrwt>
<pdfrwt beam="1">  1       13 0.10000000E+01 0.53513504E+02</pdfrwt>
<pdfrwt beam="2">  1       22 0.30441845E+00 0.53513504E+02</pdfrwt>
<totfact> 0.20186822E-01</totfact>
</mgrwt>
</event>
<event>
 4    1  0.2489082E+000  0.5188844E+02  0.7957747E-01  0.1435414E+00
         13   -1    0    0    0    0  0.00000000000E+00  0.00000000000E+00  0.99999944180E+02  0.10000000000E+03  0.10566000000E+00 0. -1.
         22   -1    0    0    0    0 -0.00000000000E+00 -0.00000000000E+00 -0.16280844867E+02  0.16280844867E+02  0.00000000000E+00 0. -1.
         13    1    1    2    0    0  0.12349006802E+02 -0.63176393866E+01 -0.39358459134E+01  0.14419174161E+02  0.10566000000E+00 0.  1.
        996    1    1    2    0    0 -0.12349006802E+02  0.63176393866E+01  0.87654945226E+02  0.10186167071E+03  0.50000000000E+02 0.  0.
<mgrwt>
<rscale>  0 0.51888443E+02</rscale>
<asrwt>0</asrwt>
<pdfrwt beam="1">  1       13 0.10000000E+01 0.51888443E+02</pdfrwt>
<pdfrwt beam="2">  1       22 0.16280868E+00 0.51888443E+02</pdfrwt>
<totfact> 0.65524274E-01</totfact>
</mgrwt>
</event>
<event>
 4    1  0.2489082E+000  0.5119900E+02  0.7957747E-01  0.1438980E+00
         13   -1    0    0    0    0  0.00000000000E+00  0.00000000000E+00  0.99999944180E+02  0.10000000000E+03  0.10566000000E+00 0. -1.
         22   -1    0    0    0    0 -0.00000000000E+00 -0.00000000000E+00 -0.97372412168E+01  0.97372412168E+01  0.00000000000E+00 0. -1.
         13    1    1    2    0    0  0.95617981618E+01  0.54689479850E+01  0.19473971058E+02  0.22373736589E+02  0.10566000000E+00 0.  1.
        996    1    1    2    0    0 -0.95617981618E+01 -0.54689479850E+01  0.70788731905E+02  0.87363504628E+02  0.50000000000E+02 0.  0.
<mgrwt>
<rscale>  0 0.51198998E+02</rscale>
<asrwt>0</asrwt>
<pdfrwt beam="1">  1       13 0.10000000E+01 0.51198998E+02</pdfrwt>
<pdfrwt beam="2">  1       22 0.97372664E-01 0.51198998E+02</pdfrwt>
<totfact> 0.14621715E+00</totfact>
</mgrwt>
</event>
<event>
 4    1  0.2489082E+000  0.5367926E+02  0.7957747E-01  0.1426450E+00
         13   -1    0    0    0    0  0.00000000000E+00  0.00000000000E+00  0.99999944181E+02  0.10000000000E+03  0.10566000000E+00 0. -1.
         22   -1    0    0    0    0 -0.00000000000E+00 -0.00000000000E+00 -0.19786125115E+02  0.19786125115E+02  0.00000000000E+00 0.  1.
         13    1    1    2    0    0 -0.64010592268E+01 -0.18452354890E+02 -0.39830458107E+01  0.19933358427E+02  0.10566000000E+00 0.  1.
        996    1    1    2    0    0  0.64010592268E+01  0.18452354890E+02  0.84196864877E+02  0.99852766689E+02  0.50000000000E+02 0.  0.
<mgrwt>
<rscale>  0 0.53679260E+02</rscale>
<asrwt>0</asrwt>
<pdfrwt beam="1">  1       13 0.10000000E+01 0.53679260E+02</pdfrwt>
<pdfrwt beam="2">  1       22 0.19786148E+00 0.53679260E+02</pdfrwt>
<totfact> 0.46361957E-01</totfact>
</mgrwt>
</event>
<event>
 4    1  0.2489082E+000  0.5240223E+02  0.7957747E-01  0.1432799E+00
         13   -1    0    0    0    0  0.00000000000E+00  0.00000000000E+00  0.99999944185E+02  0.10000000001E+03  0.10566000000E+00 0. -1.
         22   -1    0    0    0    0 -0.00000000000E+00 -0.00000000000E+00 -0.11968948566E+02  0.11968948566E+02  0.00000000000E+00 0.  1.
         13    1    1    2    0    0  0.10548881556E+02  0.11606684080E+02  0.12582579370E+02  0.20107871222E+02  0.10566000000E+00 0.  1.
        996    1    1    2    0    0 -0.10548881556E+02 -0.11606684080E+02  0.75448416249E+02  0.91861077350E+02  0.50000000000E+02 0.  0.
<mgrwt>
<rscale>  0 0.52402233E+02</rscale>
<asrwt>0</asrwt>
<pdfrwt beam="1">  1       13 0.10000000E+01 0.52402233E+02</pdfrwt>
<pdfrwt beam="2">  1       22 0.11968973E+00 0.52402233E+02</pdfrwt>
<totfact> 0.10801802E+00</totfact>
</mgrwt>
</event>
<event>
 4    1  0.2489082E+000  0.5175458E+02  0.7957747E-01  0.1436101E+00
         13   -1    0    0    0    0  0.00000000000E+00  0.00000000000E+00  0.99999944175E+02  0.99999999995E+02  0.10566000000E+00 0. -1.
         22   -1    0    0    0    0 -0.00000000000E+00 -0.00000000000E+00 -0.17958101882E+02  0.17958101882E+02  0.00000000000E+00 0.  1.
         13    1    1    2    0    0 -0.12368292379E+02  0.50558524926E+01 -0.69119313645E+01  0.15044010769E+02  0.10566000000E+00 0.  1.
        996    1    1    2    0    0  0.12368292379E+02 -0.50558524926E+01  0.88953773657E+02  0.10291409111E+03  0.50000000000E+02 0.  0.
<mgrwt>
<rscale>  0 0.51754578E+02</rscale>
<asrwt>0</asrwt>
<pdfrwt beam="1">  1       13 0.10000000E+01 0.51754578E+02</pdfrwt>
<pdfrwt beam="2">  1       22 0.17958125E+00 0.51754578E+02</pdfrwt>
<totfact> 0.55144638E-01</totfact>
</mgrwt>
</event>
<event>
 4    1  0.2489082E+000  0.5214937E+02  0.7957747E-01  0.1434082E+00
         13   -1    0    0    0    0  0.00000000000E+00  0.00000000000E+00  0.99999944183E+02  0.10000000000E+03  0.10566000000E+00 0. -1.
         22   -1    0    0    0    0 -0.00000000000E+00 -0.00000000000E+00 -0.32382492292E+02  0.32382492292E+02  0.00000000000E+00 0.  1.
         13    1    1    2    0    0  0.49750820232E+01 -0.13957278093E+02 -0.23275406950E+02  0.27591897101E+02  0.10566000000E+00 0.  1.
        996    1    1    2    0    0 -0.49750820232E+01  0.13957278093E+02  0.90892858841E+02  0.10479059519E+03  0.50000000000E+02 0.  0.
<mgrwt>
<rscale>  0 0.52149373E+02</rscale>
<asrwt>0</asrwt>
<pdfrwt beam="1">  1       13 0.10000000E+01 0.52149373E+02</pdfrwt>
<pdfrwt beam="2">  1       22 0.32382511E+00 0.52149373E+02</pdfrwt>
<totfact> 0.18014961E-01</totfact>
</mgrwt>
</event>
<event>
 4    1  0.2489082E+000  0.5110415E+02  0.7957747E-01  0.1439475E+00
         13   -1    0    0    0    0  0.00000000000E+00  0.00000000000E+00  0.99999944175E+02  0.99999999995E+02  0.10566000000E+00 0.  1.
         22   -1    0    0    0    0 -0.00000000000E+00 -0.00000000000E+00 -0.26500671881E+02  0.26500671881E+02  0.00000000000E+00 0.  1.
         13    1    1    2    0    0 -0.40188945719E+01 -0.97715057118E+01 -0.18474551145E+02  0.21282716967E+02  0.10566000000E+00 0. -1.
        996    1    1    2    0    0  0.40188945719E+01  0.97715057118E+01  0.91973823438E+02  0.10521795491E+03  0.50000000000E+02 0.  0.
<mgrwt>
<rscale>  0 0.51104147E+02</rscale>
<asrwt>0</asrwt>
<pdfrwt beam="1">  1       13 0.10000000E+01 0.51104147E+02</pdfrwt>
<pdfrwt beam="2">  1       22 0.26500692E+00 0.51104147E+02</pdfrwt>
<totfact> 0.26250527E-01</totfact>
</mgrwt>
</event>
<event>
 4    1  0.2489082E+000  0.5260537E+02  0.7957747E-01  0.1431775E+00
         13   -1    0    0    0    0  0.00000000000E+00  0.00000000000E+00  0.99999944181E+02  0.10000000000E+03  0.10566000000E+00 0. -1.
         22   -1    0    0    0    0 -0.00000000000E+00 -0.00000000000E+00 -0.40290676031E+02  0.40290676031E+02  0.00000000000E+00 0.  1.
         13    1    1    2    0    0  0.16311435135E+02  0.11235142516E+01 -0.31219155465E+02  0.35241623578E+02  0.10566000000E+00 0.  1.
        996    1    1    2    0    0 -0.16311435135E+02 -0.11235142516E+01  0.90928423615E+02  0.10504905245E+03  0.50000000000E+02 0.  0.
<mgrwt>
<rscale>  0 0.52605372E+02</rscale>
<asrwt>0</asrwt>
<pdfrwt beam="1">  1       13 0.10000000E+01 0.52605372E+02</pdfrwt>
<pdfrwt beam="2">  1       22 0.40290693E+00 0.52605372E+02</pdfrwt>
<totfact> 0.12203718E-01</totfact>
</mgrwt>
</event>
<event>
 4    1  0.2489082E+000  0.5120604E+02  0.7957747E-01  0.1438943E+00
         13   -1    0    0    0    0  0.00000000000E+00  0.00000000000E+00  0.99999944183E+02  0.10000000000E+03  0.10566000000E+00 0. -1.
         22   -1    0    0    0    0 -0.00000000000E+00 -0.00000000000E+00 -0.63620474946E+02  0.63620474946E+02  0.00000000000E+00 0.  1.
         13    1    1    2    0    0 -0.11002502308E+02 -0.10017958229E+01 -0.56494976861E+02  0.57565199787E+02  0.10566000000E+00 0.  1.
        996    1    1    2    0    0  0.11002502308E+02  0.10017958229E+01  0.92874446098E+02  0.10605527516E+03  0.50000000000E+02 0.  0.
<mgrwt>
<rscale>  0 0.51206041E+02</rscale>
<asrwt>0</asrwt>
<pdfrwt beam="1">  1       13 0.10000000E+01 0.51206041E+02</pdfrwt>
<pdfrwt beam="2">  1       22 0.63620485E+00 0.51206041E+02</pdfrwt>
<totfact> 0.81784454E-02</totfact>
</mgrwt>
</event>
<event>
 4    1  0.2489082E+000  0.5585748E+02  0.7957747E-01  0.1416087E+00
         13   -1    0    0    0    0  0.00000000000E+00  0.00000000000E+00  0.99999944191E+02  0.10000000001E+03  0.10566000000E+00 0.  1.
         22   -1    0    0    0    0 -0.00000000000E+00 -0.00000000000E+00 -0.76230843510E+02  0.76230843510E+02  0.00000000000E+00 0. -1.
         13    1    1    2    0    0 -0.17887510554E+02 -0.17323265570E+02 -0.65978101170E+02  0.70520773974E+02  0.10566000000E+00 0. -1.
        996    1    1    2    0    0  0.17887510554E+02  0.17323265570E+02  0.89747201851E+02  0.10571006955E+03  0.50000000000E+02 0.  0.
<mgrwt>
<rscale>  0 0.55857484E+02</rscale>
<asrwt>0</asrwt>
<pdfrwt beam="1">  1       13 0.10000000E+01 0.55857484E+02</pdfrwt>
<pdfrwt beam="2">  1       22 0.76230850E+00 0.55857484E+02</pdfrwt>
<totfact> 0.43737571E-02</totfact>
</mgrwt>
</event>
<event>
 4    1  0.2489082E+000  0.5614874E+02  0.7957747E-01  0.1414743E+00
         13   -1    0    0    0    0  0.00000000000E+00  0.00000000000E+00  0.99999944183E+02  0.10000000000E+03  0.10566000000E+00 0. -1.
         22   -1    0    0    0    0 -0.00000000000E+00 -0.00000000000E+00 -0.48055894315E+02  0.48055894315E+02  0.00000000000E+00 0. -1.
         13    1    1    2    0    0 -0.67913891867E+01  0.24628394553E+02  0.80930045539E+02  0.84866743901E+02  0.10566000000E+00 0.  1.
        996    1    1    2    0    0  0.67913891867E+01 -0.24628394553E+02 -0.28985995671E+02  0.63189150417E+02  0.50000000000E+02 0.  0.
<mgrwt>
<rscale>  0 0.56148738E+02</rscale>
<asrwt>0</asrwt>
<pdfrwt beam="1">  1       13 0.10000000E+01 0.56148738E+02</pdfrwt>
<pdfrwt beam="2">  1       22 0.48055909E+00 0.56148738E+02</pdfrwt>
<totfact> 0.82166956E-02</totfact>
</mgrwt>
</event>
<event>
 4    1  0.2489082E+000  0.5104313E+02  0.7957747E-01  0.1439795E+00
         13   -1    0    0    0    0  0.00000000000E+00  0.00000000000E+00  0.99999944184E+02  0.10000000000E+03  0.10566000000E+00 0. -1.
         22   -1    0    0    0    0 -0.00000000000E+00 -0.00000000000E+00 -0.99386008221E+01  0.99386008221E+01  0.00000000000E+00 0. -1.
         13    1    1    2    0    0 -0.39100875222E+01 -0.94927766660E+01  0.69283567948E+01  0.12386076262E+02  0.10566000000E+00 0.  1.
        996    1    1    2    0    0  0.39100875222E+01  0.94927766660E+01  0.83132986567E+02  0.97552524564E+02  0.50000000000E+02 0.  0.
<mgrwt>
<rscale>  0 0.51043135E+02</rscale>
<asrwt>0</asrwt>
<pdfrwt beam="1">  1       13 0.10000000E+01 0.51043135E+02</pdfrwt>
<pdfrwt beam="2">  1       22 0.99386260E-01 0.51043135E+02</pdfrwt>
<totfact> 0.14191108E+00</totfact>
</mgrwt>
</event>
<event>
 4    1  0.2489082E+000  0.5104033E+02  0.7957747E-01  0.1439810E+00
         13   -1    0    0    0    0  0.00000000000E+00  0.00000000000E+00  0.99999944174E+02  0.99999999994E+02  0.10566000000E+00 0. -1.
         22   -1    0    0    0    0 -0.00000000000E+00 -0.00000000000E+00 -0.10496883601E+02  0.10496883601E+02  0.00000000000E+00 0.  1.
         13    1    1    2    0    0 -0.10172499433E+02  0.12787405922E+01  0.41791174470E+01  0.11072086926E+02  0.10566000000E+00 0.  1.
        996    1    1    2    0    0  0.10172499433E+02 -0.12787405922E+01  0.85323943126E+02  0.99424796670E+02  0.50000000000E+02 0.  0.
<mgrwt>
<rscale>  0 0.51040326E+02</rscale>
<asrwt>0</asrwt>
<pdfrwt beam="1">  1       13 0.10000000E+01 0.51040326E+02</pdfrwt>
<pdfrwt beam="2">  1       22 0.10496909E+00 0.51040326E+02</pdfrwt>
<totfact> 0.13105425E+00</totfact>
</mgrwt>
</event>
<event>
 4    1  0.2489082E+000  0.5099130E+02  0.7957747E-01  0.1440067E+00
         13   -1    0    0    0    0  0.00000000000E+00  0.00000000000E+00  0.99999944184E+02  0.10000000000E+03  0.10566000000E+00 0. -1.
         22   -1    0    0    0    0 -0.00000000000E+00 -0.00000000000E+00 -0.10192039208E+02  0.10192039208E+02  0.00000000000E+00 0.  1.
         13    1    1    2    0    0 -0.89978093011E+01 -0.43762682678E+01  0.48814003137E+01  0.11133352111E+02  0.10566000000E+00 0.  1.
        996    1    1    2    0    0  0.89978093011E+01  0.43762682678E+01  0.84926504661E+02  0.99058687101E+02  0.50000000000E+02 0.  0.
<mgrwt>
<rscale>  0 0.50991296E+02</rscale>
<asrwt>0</asrwt>
<pdfrwt beam="1">  1       13 0.10000000E+01 0.50991296E+02</pdfrwt>
<pdfrwt beam="2">  1       22 0.10192064E+00 0.50991296E+02</pdfrwt>
<totfact> 0.13680467E+00</totfact>
</mgrwt>
</event>
<event>
 4    1  0.2489082E+000  0.5200773E+02  0.7957747E-01  0.1434804E+00
         13   -1    0    0    0    0  0.00000000000E+00  0.00000000000E+00  0.99999944179E+02  0.99999999999E+02  0.10566000000E+00 0.  1.
         22   -1    0    0    0    0 -0.00000000000E+00 -0.00000000000E+00 -0.13860997981E+02  0.13860997981E+02  0.00000000000E+00 0.  1.
         13    1    1    2    0    0 -0.34414789122E+01 -0.13891012733E+02  0.13267346678E+01  0.14372731151E+02  0.10566000000E+00 0. -1.
        996    1    1    2    0    0  0.34414789122E+01  0.13891012733E+02  0.84812211530E+02  0.99488266828E+02  0.50000000000E+02 0.  0.
<mgrwt>
<rscale>  0 0.52007730E+02</rscale>
<asrwt>0</asrwt>
<pdfrwt beam="1">  1       13 0.10000000E+01 0.52007730E+02</pdfrwt>
<pdfrwt beam="2">  1       22 0.13861022E+00 0.52007730E+02</pdfrwt>
<totfact> 0.85701072E-01</totfact>
</mgrwt>
</event>
<event>
 4    1  0.2489082E+000  0.5121689E+02  0.7957747E-01  0.1438886E+00
         13   -1    0    0    0    0  0.00000000000E+00  0.00000000000E+00  0.99999944174E+02  0.99999999994E+02  0.10566000000E+00 0.  1.
         22   -1    0    0    0    0 -0.00000000000E+00 -0.00000000000E+00 -0.10929052053E+02  0.10929052053E+02  0.00000000000E+00 0.  1.
         13    1    1    2    0    0 -0.97134694737E+01 -0.53682719455E+01  0.43309836788E+01  0.11913791024E+02  0.10566000000E+00 0. -1.
        996    1    1    2    0    0  0.97134694737E+01  0.53682719455E+01  0.84739908442E+02  0.99015261024E+02  0.50000000000E+02 0.  0.
<mgrwt>
<rscale>  0 0.51216890E+02</rscale>
<asrwt>0</asrwt>
<pdfrwt beam="1">  1       13 0.10000000E+01 0.51216890E+02</pdfrwt>
<pdfrwt beam="2">  1       22 0.10929077E+00 0.51216890E+02</pdfrwt>
<totfact> 0.12353108E+00</totfact>
</mgrwt>
</event>
<event>
 4    1  0.2489082E+000  0.5104717E+02  0.7957747E-01  0.1439774E+00
         13   -1    0    0    0    0  0.00000000000E+00  0.00000000000E+00  0.99999944180E+02  0.10000000000E+03  0.10566000000E+00 0.  1.
         22   -1    0    0    0    0 -0.00000000000E+00 -0.00000000000E+00 -0.35712691020E+02  0.35712691020E+02  0.00000000000E+00 0. -1.
         13    1    1    2    0    0 -0.59080832244E+01  0.84206841017E+01 -0.28230548919E+02  0.30046437799E+02  0.10566000000E+00 0. -1.
        996    1    1    2    0    0  0.59080832244E+01 -0.84206841017E+01  0.92517802079E+02  0.10566625322E+03  0.50000000000E+02 0.  0.
<mgrwt>
<rscale>  0 0.51047168E+02</rscale>
<asrwt>0</asrwt>
<pdfrwt beam="1">  1       13 0.10000000E+01 0.51047168E+02</pdfrwt>
<pdfrwt beam="2">  1       22 0.35712709E+00 0.51047168E+02</pdfrwt>
<totfact> 0.15157001E-01</totfact>
</mgrwt>
</event>
<event>
 4    1  0.2489082E+000  0.5241252E+02  0.7957747E-01  0.1432747E+00
         13   -1    0    0    0    0  0.00000000000E+00  0.00000000000E+00  0.99999944177E+02  0.99999999997E+02  0.10566000000E+00 0.  1.
         22   -1    0    0    0    0 -0.00000000000E+00 -0.00000000000E+00 -0.12717731721E+02  0.12717731721E+02  0.00000000000E+00 0. -1.
         13    1    1    2    0    0 -0.14696036211E+02 -0.55766353642E+01  0.78970618700E+01  0.17591108337E+02  0.10566000000E+00 0. -1.
        996    1    1    2    0    0  0.14696036211E+02  0.55766353642E+01  0.79385150586E+02  0.95126623381E+02  0.50000000000E+02 0.  0.
<mgrwt>
<rscale>  0 0.52412521E+02</rscale>
<asrwt>0</asrwt>
<pdfrwt beam="1">  1       13 0.10000000E+01 0.52412521E+02</pdfrwt>
<pdfrwt beam="2">  1       22 0.12717756E+00 0.52412521E+02</pdfrwt>
<totfact> 0.98341772E-01</totfact>
</mgrwt>
</event>
<event>
 4    1  0.2489082E+000  0.5387650E+02  0.7957747E-01  0.1425488E+00
         13   -1    0    0    0    0  0.00000000000E+00  0.00000000000E+00  0.99999944173E+02  0.99999999993E+02  0.10566000000E+00 0.  1.
         22   -1    0    0    0    0 -0.00000000000E+00 -0.00000000000E+00 -0.62753975088E+02  0.62753975088E+02  0.00000000000E+00 0. -1.
         13    1    1    2    0    0  0.51145465295E+00  0.20060290410E+02 -0.53544507514E+02  0.57181310636E+02  0.10566000000E+00 0. -1.
        996    1    1    2    0    0 -0.51145465295E+00 -0.20060290410E+02  0.90790476598E+02  0.10557266445E+03  0.50000000000E+02 0.  0.
<mgrwt>
<rscale>  0 0.53876496E+02</rscale>
<asrwt>0</asrwt>
<pdfrwt beam="1">  1       13 0.10000000E+01 0.53876496E+02</pdfrwt>
<pdfrwt beam="2">  1       22 0.62753986E+00 0.53876496E+02</pdfrwt>
<totfact> 0.77334424E-02</totfact>
</mgrwt>
</event>
<event>
 4    1  0.2489082E+000  0.5290433E+02  0.7957747E-01  0.1430278E+00
         13   -1    0    0    0    0  0.00000000000E+00  0.00000000000E+00  0.99999944185E+02  0.10000000001E+03  0.10566000000E+00 0.  1.
         22   -1    0    0    0    0 -0.00000000000E+00 -0.00000000000E+00 -0.20858799963E+02  0.20858799963E+02  0.00000000000E+00 0.  1.
         13    1    1    2    0    0 -0.15967768226E+02  0.66256213718E+01 -0.78947179908E+01  0.19005425985E+02  0.10566000000E+00 0. -1.
        996    1    1    2    0    0  0.15967768226E+02 -0.66256213718E+01  0.87035862213E+02  0.10185337398E+03  0.50000000000E+02 0.  0.
<mgrwt>
<rscale>  0 0.52904333E+02</rscale>
<asrwt>0</asrwt>
<pdfrwt beam="1">  1       13 0.10000000E+01 0.52904333E+02</pdfrwt>
<pdfrwt beam="2">  1       22 0.20858822E+00 0.52904333E+02</pdfrwt>
<totfact> 0.41932346E-01</totfact>
</mgrwt>
</event>
<event>
 4    1  0.2489082E+000  0.7914575E+02  0.7957747E-01  0.1331493E+00
         13   -1    0    0    0    0  0.00000000000E+00  0.00000000000E+00  0.99999944178E+02  0.99999999998E+02  0.10566000000E+00 0. -1.
         22   -1    0    0    0    0 -0.00000000000E+00 -0.00000000000E+00 -0.49587373734E+02  0.49587373734E+02  0.00000000000E+00 0.  1.
         13    1    1    2    0    0  0.57016068964E+02 -0.22654294131E+02  0.16884969553E+02  0.63633030130E+02  0.10566000000E+00 0.  1.
        996    1    1    2    0    0 -0.57016068964E+02  0.22654294131E+02  0.33527600891E+02  0.85954343602E+02  0.50000000000E+02 0.  0.
<mgrwt>
<rscale>  0 0.79145746E+02</rscale>
<asrwt>0</asrwt>
<pdfrwt beam="1">  1       13 0.10000000E+01 0.79145746E+02</pdfrwt>
<pdfrwt beam="2">  1       22 0.49587388E+00 0.79145746E+02</pdfrwt>
<totfact> 0.76069934E-02</totfact>
</mgrwt>
</event>
<event>
 4    1  0.2489082E+000  0.5144129E+02  0.7957747E-01  0.1437719E+00
         13   -1    0    0    0    0  0.00000000000E+00  0.00000000000E+00  0.99999944185E+02  0.10000000000E+03  0.10566000000E+00 0.  1.
         22   -1    0    0    0    0 -0.00000000000E+00 -0.00000000000E+00 -0.11730879781E+02  0.11730879781E+02  0.00000000000E+00 0. -1.
         13    1    1    2    0    0  0.11643561527E+02 -0.32608998908E+01  0.35241992564E+01  0.12595123563E+02  0.10566000000E+00 0. -1.
        996    1    1    2    0    0 -0.11643561527E+02  0.32608998908E+01  0.84744865147E+02  0.99135756223E+02  0.50000000000E+02 0.  0.
<mgrwt>
<rscale>  0 0.51441287E+02</rscale>
<asrwt>0</asrwt>
<pdfrwt beam="1">  1       13 0.10000000E+01 0.51441287E+02</pdfrwt>
<pdfrwt beam="2">  1       22 0.11730904E+00 0.51441287E+02</pdfrwt>
<totfact> 0.11113682E+00</totfact>
</mgrwt>
</event>
<event>
 4    1  0.2489082E+000  0.5594493E+02  0.7957747E-01  0.1415682E+00
         13   -1    0    0    0    0  0.00000000000E+00  0.00000000000E+00  0.99999944175E+02  0.99999999996E+02  0.10566000000E+00 0. -1.
         22   -1    0    0    0    0 -0.00000000000E+00 -0.00000000000E+00 -0.74063903634E+02  0.74063903634E+02  0.00000000000E+00 0.  1.
         13    1    1    2    0    0  0.17353578204E+02 -0.18129758356E+02 -0.63664207787E+02  0.68432282819E+02  0.10566000000E+00 0.  1.
        996    1    1    2    0    0 -0.17353578204E+02  0.18129758356E+02  0.89600248329E+02  0.10563162081E+03  0.50000000000E+02 0.  0.
<mgrwt>
<rscale>  0 0.55944927E+02</rscale>
<asrwt>0</asrwt>
<pdfrwt beam="1">  1       13 0.10000000E+01 0.55944927E+02</pdfrwt>
<pdfrwt beam="2">  1       22 0.74063911E+00 0.55944927E+02</pdfrwt>
<totfact> 0.53414851E-02</totfact>
</mgrwt>
</event>
<event>
 4    1  0.2489082E+000  0.5201289E+02  0.7957747E-01  0.1434777E+00
         13   -1    0    0    0    0  0.00000000000E+00  0.00000000000E+00  0.99999944180E+02  0.10000000000E+03  0.10566000000E+00 0. -1.
         22   -1    0    0    0    0 -0.00000000000E+00 -0.00000000000E+00 -0.13603915082E+02  0.13603915082E+02  0.00000000000E+00 0. -1.
         13    1    1    2    0    0 -0.92867115580E+01 -0.10913206200E+02  0.20021317694E+01  0.14469304641E+02  0.10566000000E+00 0.  1.
        996    1    1    2    0    0  0.92867115580E+01  0.10913206200E+02  0.84393897328E+02  0.99134610442E+02  0.50000000000E+02 0.  0.
<mgrwt>
<rscale>  0 0.52012893E+02</rscale>
<asrwt>0</asrwt>
<pdfrwt beam="1">  1       13 0.10000000E+01 0.52012893E+02</pdfrwt>
<pdfrwt beam="2">  1       22 0.13603939E+00 0.52012893E+02</pdfrwt>
<totfact> 0.88321981E-01</totfact>
</mgrwt>
</event>
<event>
 4    1  0.2489082E+000  0.5145522E+02  0.7957747E-01  0.1437647E+00
         13   -1    0    0    0    0  0.00000000000E+00  0.00000000000E+00  0.99999944178E+02  0.99999999999E+02  0.10566000000E+00 0.  1.
         22   -1    0    0    0    0 -0.00000000000E+00 -0.00000000000E+00 -0.17423814101E+02  0.17423814101E+02  0.00000000000E+00 0.  1.
         13    1    1    2    0    0  0.11604777253E+02  0.36012121118E+01 -0.70712793408E+01  0.14058938058E+02  0.10566000000E+00 0. -1.
        996    1    1    2    0    0 -0.11604777253E+02 -0.36012121118E+01  0.89647409418E+02  0.10336487604E+03  0.50000000000E+02 0.  0.
<mgrwt>
<rscale>  0 0.51455219E+02</rscale>
<asrwt>0</asrwt>
<pdfrwt beam="1">  1       13 0.10000000E+01 0.51455219E+02</pdfrwt>
<pdfrwt beam="2">  1       22 0.17423837E+00 0.51455219E+02</pdfrwt>
<totfact> 0.58157339E-01</totfact>
</mgrwt>
</event>
<event>
 4    1  0.2489082E+000  0.5119690E+02  0.7957747E-01  0.1438991E+00
         13   -1    0    0    0    0  0.00000000000E+00  0.00000000000E+00  0.99999944180E+02  0.10000000000E+03  0.10566000000E+00 0. -1.
         22   -1    0    0    0    0 -0.00000000000E+00 -0.00000000000E+00 -0.11096238941E+02  0.11096238941E+02  0.00000000000E+00 0. -1.
         13    1    1    2    0    0  0.60555721315E+01 -0.91898297046E+01  0.35280490637E+02  0.36957368784E+02  0.10566000000E+00 0.  1.
        996    1    1    2    0    0 -0.60555721315E+01  0.91898297046E+01  0.53623214602E+02  0.74138870157E+02  0.50000000000E+02 0.  0.
<mgrwt>
<rscale>  0 0.51196903E+02</rscale>
<asrwt>0</asrwt>
<pdfrwt beam="1">  1       13 0.10000000E+01 0.51196903E+02</pdfrwt>
<pdfrwt beam="2">  1       22 0.11096264E+00 0.51196903E+02</pdfrwt>
<totfact> 0.12076651E+00</totfact>
</mgrwt>
</event>
<event>
 4    1  0.2489082E+000  0.5136025E+02  0.7957747E-01  0.1438140E+00
         13   -1    0    0    0    0  0.00000000000E+00  0.00000000000E+00  0.99999944181E+02  0.10000000000E+03  0.10566000000E+00 0.  1.
         22   -1    0    0    0    0 -0.00000000000E+00 -0.00000000000E+00 -0.17122597993E+02  0.17122597993E+02  0.00000000000E+00 0. -1.
         13    1    1    2    0    0  0.53571981471E+01 -0.10448704142E+02 -0.69526877639E+01  0.13646465528E+02  0.10566000000E+00 0. -1.
        996    1    1    2    0    0 -0.53571981471E+01  0.10448704142E+02  0.89830033952E+02  0.10347613247E+03  0.50000000000E+02 0.  0.
<mgrwt>
<rscale>  0 0.51360247E+02</rscale>
<asrwt>0</asrwt>
<pdfrwt beam="1">  1       13 0.10000000E+01 0.51360247E+02</pdfrwt>
<pdfrwt beam="2">  1       22 0.17122621E+00 0.51360247E+02</pdfrwt>
<totfact> 0.59962041E-01</totfact>
</mgrwt>
</event>
<event>
 4    1  0.2489082E+000  0.6059129E+02  0.7957747E-01  0.1395367E+00
         13   -1    0    0    0    0  0.00000000000E+00  0.00000000000E+00  0.99999944182E+02  0.10000000000E+03  0.10566000000E+00 0.  1.
         22   -1    0    0    0    0 -0.00000000000E+00 -0.00000000000E+00 -0.28472431038E+02  0.28472431038E+02  0.00000000000E+00 0. -1.
         13    1    1    2    0    0 -0.49687942434E+01  0.33861706333E+02 -0.65415608217E+00  0.34230734088E+02  0.10566000000E+00 0. -1.
        996    1    1    2    0    0  0.49687942434E+01 -0.33861706333E+02  0.72181669226E+02  0.94241696952E+02  0.50000000000E+02 0.  0.
<mgrwt>
<rscale>  0 0.60591287E+02</rscale>
<asrwt>0</asrwt>
<pdfrwt beam="1">  1       13 0.10000000E+01 0.60591287E+02</pdfrwt>
<pdfrwt beam="2">  1       22 0.28472451E+00 0.60591287E+02</pdfrwt>
<totfact> 0.23115468E-01</totfact>
</mgrwt>
</event>
<event>
 4    1  0.2489082E+000  0.5425846E+02  0.7957747E-01  0.1423639E+00
         13   -1    0    0    0    0  0.00000000000E+00  0.00000000000E+00  0.99999944177E+02  0.99999999997E+02  0.10566000000E+00 0.  1.
         22   -1    0    0    0    0 -0.00000000000E+00 -0.00000000000E+00 -0.14733966770E+02  0.14733966770E+02  0.00000000000E+00 0.  1.
         13    1    1    2    0    0 -0.19902800318E+02 -0.69180112882E+01  0.14575669830E+02  0.25621117378E+02  0.10566000000E+00 0. -1.
        996    1    1    2    0    0  0.19902800318E+02  0.69180112882E+01  0.70690307577E+02  0.89112849388E+02  0.50000000000E+02 0.  0.
<mgrwt>
<rscale>  0 0.54258459E+02</rscale>
<asrwt>0</asrwt>
<pdfrwt beam="1">  1       13 0.10000000E+01 0.54258459E+02</pdfrwt>
<pdfrwt beam="2">  1       22 0.14733991E+00 0.54258459E+02</pdfrwt>
<totfact> 0.77914591E-01</totfact>
</mgrwt>
</event>
<event>
 4    1  0.2489082E+000  0.6823515E+02  0.7957747E-01  0.1366199E+00
         13   -1    0    0    0    0  0.00000000000E+00  0.00000000000E+00  0.99999944180E+02  0.10000000000E+03  0.10566000000E+00 0. -1.
         22   -1    0    0    0    0 -0.00000000000E+00 -0.00000000000E+00 -0.70822819459E+02  0.70822819459E+02  0.00000000000E+00 0.  1.
         13    1    1    2    0    0  0.46416250320E+02 -0.12518505130E+01 -0.48695032995E+02  0.67284863275E+02  0.10566000000E+00 0.  1.
        996    1    1    2    0    0 -0.46416250320E+02  0.12518505130E+01  0.77872157716E+02  0.10353795618E+03  0.50000000000E+02 0.  0.
<mgrwt>
<rscale>  0 0.68235148E+02</rscale>
<asrwt>0</asrwt>
<pdfrwt beam="1">  1       13 0.10000000E+01 0.68235148E+02</pdfrwt>
<pdfrwt beam="2">  1       22 0.70822828E+00 0.68235148E+02</pdfrwt>
<totfact> 0.70332668E-02</totfact>
</mgrwt>
</event>
<event>
 4    1  0.2489082E+000  0.5439583E+02  0.7957747E-01  0.1422978E+00
         13   -1    0    0    0    0  0.00000000000E+00  0.00000000000E+00  0.99999944178E+02  0.99999999999E+02  0.10566000000E+00 0.  1.
         22   -1    0    0    0    0 -0.00000000000E+00 -0.00000000000E+00 -0.14706193450E+02  0.14706193450E+02  0.00000000000E+00 0.  1.
         13    1    1    2    0    0 -0.14649492818E+02 -0.15630052811E+02  0.16704393511E+02  0.27165310918E+02  0.10566000000E+00 0. -1.
        996    1    1    2    0    0  0.14649492818E+02  0.15630052811E+02  0.68589357217E+02  0.87540882530E+02  0.50000000000E+02 0.  0.
<mgrwt>
<rscale>  0 0.54395829E+02</rscale>
<asrwt>0</asrwt>
<pdfrwt beam="1">  1       13 0.10000000E+01 0.54395829E+02</pdfrwt>
<pdfrwt beam="2">  1       22 0.14706217E+00 0.54395829E+02</pdfrwt>
<totfact> 0.78179286E-01</totfact>
</mgrwt>
</event>
<event>
 4    1  0.2489082E+000  0.6168499E+02  0.7957747E-01  0.1390894E+00
         13   -1    0    0    0    0  0.00000000000E+00  0.00000000000E+00  0.99999944175E+02  0.99999999995E+02  0.10566000000E+00 0.  1.
         22   -1    0    0    0    0 -0.00000000000E+00 -0.00000000000E+00 -0.35816066668E+02  0.35816066668E+02  0.00000000000E+00 0. -1.
         13    1    1    2    0    0  0.33206345199E+02 -0.14225921950E+02 -0.11746598123E+02  0.37987260342E+02  0.10566000000E+00 0. -1.
        996    1    1    2    0    0 -0.33206345199E+02  0.14225921950E+02  0.75930475630E+02  0.97828806321E+02  0.50000000000E+02 0.  0.
<mgrwt>
<rscale>  0 0.61684992E+02</rscale>
<asrwt>0</asrwt>
<pdfrwt beam="1">  1       13 0.10000000E+01 0.61684992E+02</pdfrwt>
<pdfrwt beam="2">  1       22 0.35816085E+00 0.61684992E+02</pdfrwt>
<totfact> 0.15228402E-01</totfact>
</mgrwt>
</event>
<event>
 4    1  0.2489082E+000  0.5226560E+02  0.7957747E-01  0.1433491E+00
         13   -1    0    0    0    0  0.00000000000E+00  0.00000000000E+00  0.99999944182E+02  0.10000000000E+03  0.10566000000E+00 0. -1.
         22   -1    0    0    0    0 -0.00000000000E+00 -0.00000000000E+00 -0.12669828678E+02  0.12669828678E+02  0.00000000000E+00 0. -1.
         13    1    1    2    0    0  0.13250059793E+01 -0.15163670877E+02  0.68137971462E+01  0.16677276483E+02  0.10566000000E+00 0.  1.
        996    1    1    2    0    0 -0.13250059793E+01  0.15163670877E+02  0.80516318358E+02  0.95992552197E+02  0.50000000000E+02 0.  0.
<mgrwt>
<rscale>  0 0.52265596E+02</rscale>
<asrwt>0</asrwt>
<pdfrwt beam="1">  1       13 0.10000000E+01 0.52265596E+02</pdfrwt>
<pdfrwt beam="2">  1       22 0.12669853E+00 0.52265596E+02</pdfrwt>
<totfact> 0.98891744E-01</totfact>
</mgrwt>
</event>
<event>
 4    1  0.2489082E+000  0.5167050E+02  0.7957747E-01  0.1436534E+00
         13   -1    0    0    0    0  0.00000000000E+00  0.00000000000E+00  0.99999944187E+02  0.10000000001E+03  0.10566000000E+00 0. -1.
         22   -1    0    0    0    0 -0.00000000000E+00 -0.00000000000E+00 -0.28010958797E+02  0.28010958797E+02  0.00000000000E+00 0.  1.
         13    1    1    2    0    0 -0.65797645312E+01 -0.11249307402E+02 -0.19196993562E+02  0.23202929647E+02  0.10566000000E+00 0.  1.
        996    1    1    2    0    0  0.65797645312E+01  0.11249307402E+02  0.91185978953E+02  0.10480802916E+03  0.50000000000E+02 0.  0.
<mgrwt>
<rscale>  0 0.51670497E+02</rscale>
<asrwt>0</asrwt>
<pdfrwt beam="1">  1       13 0.10000000E+01 0.51670497E+02</pdfrwt>
<pdfrwt beam="2">  1       22 0.28010979E+00 0.51670497E+02</pdfrwt>
<totfact> 0.23581831E-01</totfact>
</mgrwt>
</event>
<event>
 4    1  0.2489082E+000  0.5318872E+02  0.7957747E-01  0.1428864E+00
         13   -1    0    0    0    0  0.00000000000E+00  0.00000000000E+00  0.99999944172E+02  0.99999999992E+02  0.10566000000E+00 0.  1.
         22   -1    0    0    0    0 -0.00000000000E+00 -0.00000000000E+00 -0.12855469310E+02  0.12855469310E+02  0.00000000000E+00 0.  1.
         13    1    1    2    0    0 -0.83213065196E+01 -0.16118167954E+02  0.27454235571E+02  0.32905709158E+02  0.10566000000E+00 0. -1.
        996    1    1    2    0    0  0.83213065196E+01  0.16118167954E+02  0.59690239291E+02  0.79949760144E+02  0.50000000000E+02 0.  0.
<mgrwt>
<rscale>  0 0.53188716E+02</rscale>
<asrwt>0</asrwt>
<pdfrwt beam="1">  1       13 0.10000000E+01 0.53188716E+02</pdfrwt>
<pdfrwt beam="2">  1       22 0.12855494E+00 0.53188716E+02</pdfrwt>
<totfact> 0.96856971E-01</totfact>
</mgrwt>
</event>
<event>
 4    1  0.2489082E+000  0.5246276E+02  0.7957747E-01  0.1432493E+00
         13   -1    0    0    0    0  0.00000000000E+00  0.00000000000E+00  0.99999944174E+02  0.99999999994E+02  0.10566000000E+00 0.  1.
         22   -1    0    0    0    0 -0.00000000000E+00 -0.00000000000E+00 -0.21147252944E+02  0.21147252944E+02  0.00000000000E+00 0. -1.
         13    1    1    2    0    0 -0.71939848207E+01  0.14162900380E+02 -0.94146638179E+01  0.18465866446E+02  0.10566000000E+00 0. -1.
        996    1    1    2    0    0  0.71939848207E+01 -0.14162900380E+02  0.88267355048E+02  0.10268138649E+03  0.50000000000E+02 0.  0.
<mgrwt>
<rscale>  0 0.52462760E+02</rscale>
<asrwt>0</asrwt>
<pdfrwt beam="1">  1       13 0.10000000E+01 0.52462760E+02</pdfrwt>
<pdfrwt beam="2">  1       22 0.21147275E+00 0.52462760E+02</pdfrwt>
<totfact> 0.40822865E-01</totfact>
</mgrwt>
</event>
<event>
 4    1  0.2489082E+000  0.5120612E+02  0.7957747E-01  0.1438943E+00
         13   -1    0    0    0    0  0.00000000000E+00  0.00000000000E+00  0.99999944174E+02  0.99999999994E+02  0.10566000000E+00 0.  1.
         22   -1    0    0    0    0 -0.00000000000E+00 -0.00000000000E+00 -0.39850898544E+02  0.39850898544E+02  0.00000000000E+00 0. -1.
         13    1    1    2    0    0  0.10889239513E+02 -0.18684451513E+01 -0.32316712297E+02  0.34153296798E+02  0.10566000000E+00 0. -1.
        996    1    1    2    0    0 -0.10889239513E+02  0.18684451513E+01  0.92465757927E+02  0.10569760174E+03  0.50000000000E+02 0.  0.
<mgrwt>
<rscale>  0 0.51206119E+02</rscale>
<asrwt>0</asrwt>
<pdfrwt beam="1">  1       13 0.10000000E+01 0.51206119E+02</pdfrwt>
<pdfrwt beam="2">  1       22 0.39850915E+00 0.51206119E+02</pdfrwt>
<totfact> 0.12447539E-01</totfact>
</mgrwt>
</event>
<event>
 4    1  0.2489082E+000  0.5110065E+02  0.7957747E-01  0.1439494E+00
         13   -1    0    0    0    0  0.00000000000E+00  0.00000000000E+00  0.99999944177E+02  0.99999999997E+02  0.10566000000E+00 0.  1.
         22   -1    0    0    0    0 -0.00000000000E+00 -0.00000000000E+00 -0.10704295990E+02  0.10704295990E+02  0.00000000000E+00 0.  1.
         13    1    1    2    0    0  0.10548704892E+02  0.32746455213E-01  0.40186641939E+01  0.11288802999E+02  0.10566000000E+00 0. -1.
        996    1    1    2    0    0 -0.10548704892E+02 -0.32746455213E-01  0.85276983992E+02  0.99415492988E+02  0.50000000000E+02 0.  0.
<mgrwt>
<rscale>  0 0.51100648E+02</rscale>
<asrwt>0</asrwt>
<pdfrwt beam="1">  1       13 0.10000000E+01 0.51100648E+02</pdfrwt>
<pdfrwt beam="2">  1       22 0.10704321E+00 0.51100648E+02</pdfrwt>
<totfact> 0.12735373E+00</totfact>
</mgrwt>
</event>
<event>
 4    1  0.2489082E+000  0.5103984E+02  0.7957747E-01  0.1439812E+00
         13   -1    0    0    0    0  0.00000000000E+00  0.00000000000E+00  0.99999944179E+02  0.99999999999E+02  0.10566000000E+00 0.  1.
         22   -1    0    0    0    0 -0.00000000000E+00 -0.00000000000E+00 -0.98760655401E+01  0.98760655401E+01  0.00000000000E+00 0.  1.
         13    1    1    2    0    0  0.83425441128E+01 -0.59554505691E+01  0.72846403976E+01  0.12575475479E+02  0.10566000000E+00 0. -1.
        996    1    1    2    0    0 -0.83425441128E+01  0.59554505691E+01  0.82839238241E+02  0.97300590061E+02  0.50000000000E+02 0.  0.
<mgrwt>
<rscale>  0 0.51039842E+02</rscale>
<asrwt>0</asrwt>
<pdfrwt beam="1">  1       13 0.10000000E+01 0.51039842E+02</pdfrwt>
<pdfrwt beam="2">  1       22 0.98760907E-01 0.51039842E+02</pdfrwt>
<totfact> 0.14320960E+00</totfact>
</mgrwt>
</event>
<event>
 4    1  0.2489082E+000  0.5330739E+02  0.7957747E-01  0.1428277E+00
         13   -1    0    0    0    0  0.00000000000E+00  0.00000000000E+00  0.99999944180E+02  0.10000000000E+03  0.10566000000E+00 0. -1.
         22   -1    0    0    0    0 -0.00000000000E+00 -0.00000000000E+00 -0.13649443240E+02  0.13649443240E+02  0.00000000000E+00 0. -1.
         13    1    1    2    0    0 -0.13952805670E+02 -0.12124255604E+02  0.35264237880E+02  0.39815273417E+02  0.10566000000E+00 0.  1.
        996    1    1    2    0    0  0.13952805670E+02  0.12124255604E+02  0.51086263060E+02  0.73834169823E+02  0.50000000000E+02 0.  0.
<mgrwt>
<rscale>  0 0.53307395E+02</rscale>
<asrwt>0</asrwt>
<pdfrwt beam="1">  1       13 0.10000000E+01 0.53307395E+02</pdfrwt>
<pdfrwt beam="2">  1       22 0.13649467E+00 0.53307395E+02</pdfrwt>
<totfact> 0.88088769E-01</totfact>
</mgrwt>
</event>
<event>
 4    1  0.2489082E+000  0.5140493E+02  0.7957747E-01  0.1437908E+00
         13   -1    0    0    0    0  0.00000000000E+00  0.00000000000E+00  0.99999944175E+02  0.99999999995E+02  0.10566000000E+00 0.  1.
         22   -1    0    0    0    0 -0.00000000000E+00 -0.00000000000E+00 -0.10123135035E+02  0.10123135035E+02  0.00000000000E+00 0.  1.
         13    1    1    2    0    0  0.11522833171E+02  0.31131324829E+01  0.13057585494E+02  0.17691211974E+02  0.10566000000E+00 0. -1.
        996    1    1    2    0    0 -0.11522833171E+02 -0.31131324829E+01  0.76819223646E+02  0.92431923055E+02  0.50000000000E+02 0.  0.
<mgrwt>
<rscale>  0 0.51404934E+02</rscale>
<asrwt>0</asrwt>
<pdfrwt beam="1">  1       13 0.10000000E+01 0.51404934E+02</pdfrwt>
<pdfrwt beam="2">  1       22 0.10123160E+00 0.51404934E+02</pdfrwt>
<totfact> 0.13829915E+00</totfact>
</mgrwt>
</event>
<event>
 4    1  0.2489082E+000  0.6141916E+02  0.7957747E-01  0.1391971E+00
         13   -1    0    0    0    0  0.00000000000E+00  0.00000000000E+00  0.99999944176E+02  0.99999999996E+02  0.10566000000E+00 0. -1.
         22   -1    0    0    0    0 -0.00000000000E+00 -0.00000000000E+00 -0.25298275113E+02  0.25298275113E+02  0.00000000000E+00 0.  1.
         13    1    1    2    0    0  0.66465320543E+01 -0.35044787240E+02  0.12273776422E+02  0.37722277937E+02  0.10566000000E+00 0.  1.
        996    1    1    2    0    0 -0.66465320543E+01  0.35044787240E+02  0.62427892641E+02  0.87575997172E+02  0.50000000000E+02 0.  0.
<mgrwt>
<rscale>  0 0.61419162E+02</rscale>
<asrwt>0</asrwt>
<pdfrwt beam="1">  1       13 0.10000000E+01 0.61419162E+02</pdfrwt>
<pdfrwt beam="2">  1       22 0.25298296E+00 0.61419162E+02</pdfrwt>
<totfact> 0.29187439E-01</totfact>
</mgrwt>
</event>
<event>
 4    1  0.2489082E+000  0.5943921E+02  0.7957747E-01  0.1400200E+00
         13   -1    0    0    0    0  0.00000000000E+00  0.00000000000E+00  0.99999944177E+02  0.99999999997E+02  0.10566000000E+00 0. -1.
         22   -1    0    0    0    0 -0.00000000000E+00 -0.00000000000E+00 -0.29916684079E+02  0.29916684079E+02  0.00000000000E+00 0.  1.
         13    1    1    2    0    0  0.23124375836E+02 -0.22322257433E+02 -0.66834486644E+01  0.32828335090E+02  0.10566000000E+00 0.  1.
        996    1    1    2    0    0 -0.23124375836E+02  0.22322257433E+02  0.76766708762E+02  0.97088348986E+02  0.50000000000E+02 0.  0.
<mgrwt>
<rscale>  0 0.59439212E+02</rscale>
<asrwt>0</asrwt>
<pdfrwt beam="1">  1       13 0.10000000E+01 0.59439212E+02</pdfrwt>
<pdfrwt beam="2">  1       22 0.29916704E+00 0.59439212E+02</pdfrwt>
<totfact> 0.21002670E-01</totfact>
</mgrwt>
</event>
<event>
 4    1  0.2489082E+000  0.5208439E+02  0.7957747E-01  0.1434413E+00
         13   -1    0    0    0    0  0.00000000000E+00  0.00000000000E+00  0.99999944179E+02  0.99999999999E+02  0.10566000000E+00 0.  1.
         22   -1    0    0    0    0 -0.00000000000E+00 -0.00000000000E+00 -0.11308244333E+02  0.11308244333E+02  0.00000000000E+00 0.  1.
         13    1    1    2    0    0 -0.75120415011E+01 -0.12504104933E+02  0.13762682081E+02  0.20055073916E+02  0.10566000000E+00 0. -1.
        996    1    1    2    0    0  0.75120415011E+01  0.12504104933E+02  0.74929017765E+02  0.91253170416E+02  0.50000000000E+02 0.  0.
<mgrwt>
<rscale>  0 0.52084387E+02</rscale>
<asrwt>0</asrwt>
<pdfrwt beam="1">  1       13 0.10000000E+01 0.52084387E+02</pdfrwt>
<pdfrwt beam="2">  1       22 0.11308269E+00 0.52084387E+02</pdfrwt>
<totfact> 0.11763662E+00</totfact>
</mgrwt>
</event>
<event>
 4    1  0.2489082E+000  0.5156196E+02  0.7957747E-01  0.1437094E+00
         13   -1    0    0    0    0  0.00000000000E+00  0.00000000000E+00  0.99999944171E+02  0.99999999991E+02  0.10566000000E+00 0. -1.
         22   -1    0    0    0    0 -0.00000000000E+00 -0.00000000000E+00 -0.12543446627E+02  0.12543446627E+02  0.00000000000E+00 0. -1.
         13    1    1    2    0    0  0.66356739432E+01 -0.10705293999E+02  0.20242100787E+01  0.12757118748E+02  0.10566000000E+00 0.  1.
        996    1    1    2    0    0 -0.66356739432E+01  0.10705293999E+02  0.85432287465E+02  0.99786327870E+02  0.50000000000E+02 0.  0.
<mgrwt>
<rscale>  0 0.51561958E+02</rscale>
<asrwt>0</asrwt>
<pdfrwt beam="1">  1       13 0.10000000E+01 0.51561958E+02</pdfrwt>
<pdfrwt beam="2">  1       22 0.12543471E+00 0.51561958E+02</pdfrwt>
<totfact> 0.10029354E+00</totfact>
</mgrwt>
</event>
<event>
 4    1  0.2489082E+000  0.5136066E+02  0.7957747E-01  0.1438138E+00
         13   -1    0    0    0    0  0.00000000000E+00  0.00000000000E+00  0.99999944184E+02  0.10000000000E+03  0.10566000000E+00 0. -1.
         22   -1    0    0    0    0 -0.00000000000E+00 -0.00000000000E+00 -0.18060377358E+02  0.18060377358E+02  0.00000000000E+00 0. -1.
         13    1    1    2    0    0  0.97698680318E+01 -0.65166419151E+01 -0.81941200257E+01  0.14320325074E+02  0.10566000000E+00 0.  1.
        996    1    1    2    0    0 -0.97698680318E+01  0.65166419151E+01  0.90133686852E+02  0.10374005229E+03  0.50000000000E+02 0.  0.
<mgrwt>
<rscale>  0 0.51360656E+02</rscale>
<asrwt>0</asrwt>
<pdfrwt beam="1">  1       13 0.10000000E+01 0.51360656E+02</pdfrwt>
<pdfrwt beam="2">  1       22 0.18060400E+00 0.51360656E+02</pdfrwt>
<totfact> 0.54545088E-01</totfact>
</mgrwt>
</event>
<event>
 4    1  0.2489082E+000  0.7191673E+02  0.7957747E-01  0.1353694E+00
         13   -1    0    0    0    0  0.00000000000E+00  0.00000000000E+00  0.99999944188E+02  0.10000000001E+03  0.10566000000E+00 0.  1.
         22   -1    0    0    0    0 -0.00000000000E+00 -0.00000000000E+00 -0.71389569112E+02  0.71389569112E+02  0.00000000000E+00 0. -1.
         13    1    1    2    0    0 -0.51425551241E+02 -0.52371933596E+01 -0.44959568340E+02  0.68508316751E+02  0.10566000000E+00 0. -1.
        996    1    1    2    0    0  0.51425551241E+02  0.52371933596E+01  0.73569943416E+02  0.10288125237E+03  0.50000000000E+02 0.  0.
<mgrwt>
<rscale>  0 0.71916726E+02</rscale>
<asrwt>0</asrwt>
<pdfrwt beam="1">  1       13 0.10000000E+01 0.71916726E+02</pdfrwt>
<pdfrwt beam="2">  1       22 0.71389577E+00 0.71916726E+02</pdfrwt>
<totfact> 0.67305506E-02</totfact>
</mgrwt>
</event>
<event>
 4    1  0.2489082E+000  0.5574676E+02  0.7957747E-01  0.1416600E+00
         13   -1    0    0    0    0  0.00000000000E+00  0.00000000000E+00  0.99999944178E+02  0.99999999999E+02  0.10566000000E+00 0. -1.
         22   -1    0    0    0    0 -0.00000000000E+00 -0.00000000000E+00 -0.31794431810E+02  0.31794431810E+02  0.00000000000E+00 0.  1.
         13    1    1    2    0    0 -0.24438506229E+02  0.32342174567E+01 -0.17019560456E+02  0.29956257300E+02  0.10566000000E+00 0.  1.
        996    1    1    2    0    0  0.24438506229E+02 -0.32342174567E+01  0.85225072825E+02  0.10183817451E+03  0.50000000000E+02 0.  0.
<mgrwt>
<rscale>  0 0.55746756E+02</rscale>
<asrwt>0</asrwt>
<pdfrwt beam="1">  1       13 0.10000000E+01 0.55746756E+02</pdfrwt>
<pdfrwt beam="2">  1       22 0.31794451E+00 0.55746756E+02</pdfrwt>
<totfact> 0.18694433E-01</totfact>
</mgrwt>
</event>
<event>
 4    1  0.2489082E+000  0.6428284E+02  0.7957747E-01  0.1380690E+00
         13   -1    0    0    0    0  0.00000000000E+00  0.00000000000E+00  0.99999944172E+02  0.99999999992E+02  0.10566000000E+00 0. -1.
         22   -1    0    0    0    0 -0.00000000000E+00 -0.00000000000E+00 -0.28017548463E+02  0.28017548463E+02  0.00000000000E+00 0.  1.
         13    1    1    2    0    0  0.35641371151E+02 -0.19025661952E+02  0.18682715827E+02  0.44512225118E+02  0.10566000000E+00 0.  1.
        996    1    1    2    0    0 -0.35641371151E+02  0.19025661952E+02  0.53299679881E+02  0.83505323337E+02  0.50000000000E+02 0.  0.
<mgrwt>
<rscale>  0 0.64282837E+02</rscale>
<asrwt>0</asrwt>
<pdfrwt beam="1">  1       13 0.10000000E+01 0.64282837E+02</pdfrwt>
<pdfrwt beam="2">  1       22 0.28017569E+00 0.64282837E+02</pdfrwt>
<totfact> 0.23952513E-01</totfact>
</mgrwt>
</event>
<event>
 4    1  0.2489082E+000  0.5113758E+02  0.7957747E-01  0.1439301E+00
         13   -1    0    0    0    0  0.00000000000E+00  0.00000000000E+00  0.99999944178E+02  0.99999999998E+02  0.10566000000E+00 0.  1.
         22   -1    0    0    0    0 -0.00000000000E+00 -0.00000000000E+00 -0.15787731659E+02  0.15787731659E+02  0.00000000000E+00 0. -1.
         13    1    1    2    0    0 -0.25921587501E+01  0.10408322622E+02 -0.58513559124E+01  0.12218919627E+02  0.10566000000E+00 0. -1.
        996    1    1    2    0    0  0.25921587501E+01 -0.10408322622E+02  0.90063568431E+02  0.10356881203E+03  0.50000000000E+02 0.  0.
<mgrwt>
<rscale>  0 0.51137584E+02</rscale>
<asrwt>0</asrwt>
<pdfrwt beam="1">  1       13 0.10000000E+01 0.51137584E+02</pdfrwt>
<pdfrwt beam="2">  1       22 0.15787755E+00 0.51137584E+02</pdfrwt>
<totfact> 0.68959861E-01</totfact>
</mgrwt>
</event>
<event>
 4    1  0.2489082E+000  0.5242895E+02  0.7957747E-01  0.1432664E+00
         13   -1    0    0    0    0  0.00000000000E+00  0.00000000000E+00  0.99999944173E+02  0.99999999993E+02  0.10566000000E+00 0. -1.
         22   -1    0    0    0    0 -0.00000000000E+00 -0.00000000000E+00 -0.12098194420E+02  0.12098194420E+02  0.00000000000E+00 0. -1.
         13    1    1    2    0    0 -0.15763997965E+02 -0.53992668341E+00  0.11863970618E+02  0.19737277308E+02  0.10566000000E+00 0.  1.
        996    1    1    2    0    0  0.15763997965E+02  0.53992668341E+00  0.76037779135E+02  0.92360917105E+02  0.50000000000E+02 0.  0.
<mgrwt>
<rscale>  0 0.52428953E+02</rscale>
<asrwt>0</asrwt>
<pdfrwt beam="1">  1       13 0.10000000E+01 0.52428953E+02</pdfrwt>
<pdfrwt beam="2">  1       22 0.12098219E+00 0.52428953E+02</pdfrwt>
<totfact> 0.10625959E+00</totfact>
</mgrwt>
</event>
<event>
 4    1  0.2489082E+000  0.5257839E+02  0.7957747E-01  0.1431911E+00
         13   -1    0    0    0    0  0.00000000000E+00  0.00000000000E+00  0.99999944176E+02  0.99999999997E+02  0.10566000000E+00 0.  1.
         22   -1    0    0    0    0 -0.00000000000E+00 -0.00000000000E+00 -0.15263543649E+02  0.15263543649E+02  0.00000000000E+00 0. -1.
         13    1    1    2    0    0  0.50003507272E+01 -0.15475259698E+02  0.88041759546E+00  0.16287217973E+02  0.10566000000E+00 0. -1.
        996    1    1    2    0    0 -0.50003507272E+01  0.15475259698E+02  0.83855982932E+02  0.98976325672E+02  0.50000000000E+02 0.  0.
<mgrwt>
<rscale>  0 0.52578391E+02</rscale>
<asrwt>0</asrwt>
<pdfrwt beam="1">  1       13 0.10000000E+01 0.52578391E+02</pdfrwt>
<pdfrwt beam="2">  1       22 0.15263567E+00 0.52578391E+02</pdfrwt>
<totfact> 0.73218257E-01</totfact>
</mgrwt>
</event>
<event>
 4    1  0.2489082E+000  0.5114947E+02  0.7957747E-01  0.1439238E+00
         13   -1    0    0    0    0  0.00000000000E+00  0.00000000000E+00  0.99999944181E+02  0.10000000000E+03  0.10566000000E+00 0.  1.
         22   -1    0    0    0    0 -0.00000000000E+00 -0.00000000000E+00 -0.10228354633E+02  0.10228354633E+02  0.00000000000E+00 0.  1.
         13    1    1    2    0    0  0.88235230800E+01  0.61978563659E+01  0.67708930479E+01  0.12732797798E+02  0.10566000000E+00 0. -1.
        996    1    1    2    0    0 -0.88235230800E+01 -0.61978563659E+01  0.83000696500E+02  0.97495556835E+02  0.50000000000E+02 0.  0.
<mgrwt>
<rscale>  0 0.51149467E+02</rscale>
<asrwt>0</asrwt>
<pdfrwt beam="1">  1       13 0.10000000E+01 0.51149467E+02</pdfrwt>
<pdfrwt beam="2">  1       22 0.10228380E+00 0.51149467E+02</pdfrwt>
<totfact> 0.13615022E+00</totfact>
</mgrwt>
</event>
<event>
 4    1  0.2489082E+000  0.5172055E+02  0.7957747E-01  0.1436276E+00
         13   -1    0    0    0    0  0.00000000000E+00  0.00000000000E+00  0.99999944171E+02  0.99999999992E+02  0.10566000000E+00 0. -1.
         22   -1    0    0    0    0 -0.00000000000E+00 -0.00000000000E+00 -0.23299595020E+02  0.23299595020E+02  0.00000000000E+00 0.  1.
         13    1    1    2    0    0  0.86940878265E+00 -0.13200738234E+02 -0.13765733429E+02  0.19092457737E+02  0.10566000000E+00 0.  1.
        996    1    1    2    0    0 -0.86940878265E+00  0.13200738234E+02  0.90466082581E+02  0.10420713727E+03  0.50000000000E+02 0.  0.
<mgrwt>
<rscale>  0 0.51720551E+02</rscale>
<asrwt>0</asrwt>
<pdfrwt beam="1">  1       13 0.10000000E+01 0.51720551E+02</pdfrwt>
<pdfrwt beam="2">  1       22 0.23299616E+00 0.51720551E+02</pdfrwt>
<totfact> 0.33827142E-01</totfact>
</mgrwt>
</event>
<event>
 4    1  0.2489082E+000  0.5467098E+02  0.7957747E-01  0.1421661E+00
         13   -1    0    0    0    0  0.00000000000E+00  0.00000000000E+00  0.99999944181E+02  0.10000000000E+03  0.10566000000E+00 0. -1.
         22   -1    0    0    0    0 -0.00000000000E+00 -0.00000000000E+00 -0.20147251258E+02  0.20147251258E+02  0.00000000000E+00 0.  1.
         13    1    1    2    0    0 -0.18554775272E+01  0.22033468902E+02 -0.14648907146E+01  0.22160180901E+02  0.10566000000E+00 0.  1.
        996    1    1    2    0    0  0.18554775272E+01 -0.22033468902E+02  0.81317583637E+02  0.97987070358E+02  0.50000000000E+02 0.  0.
<mgrwt>
<rscale>  0 0.54670985E+02</rscale>
<asrwt>0</asrwt>
<pdfrwt beam="1">  1       13 0.10000000E+01 0.54670985E+02</pdfrwt>
<pdfrwt beam="2">  1       22 0.20147274E+00 0.54670985E+02</pdfrwt>
<totfact> 0.44899672E-01</totfact>
</mgrwt>
</event>
<event>
 4    1  0.2489082E+000  0.5109937E+02  0.7957747E-01  0.1439500E+00
         13   -1    0    0    0    0  0.00000000000E+00  0.00000000000E+00  0.99999944180E+02  0.10000000000E+03  0.10566000000E+00 0.  1.
         22   -1    0    0    0    0 -0.00000000000E+00 -0.00000000000E+00 -0.26796099908E+02  0.26796099908E+02  0.00000000000E+00 0. -1.
         13    1    1    2    0    0  0.10542270028E+02 -0.81058496456E-01 -0.18799829810E+02  0.21554368298E+02  0.10566000000E+00 0. -1.
        996    1    1    2    0    0 -0.10542270028E+02  0.81058496456E-01  0.92003674081E+02  0.10524173161E+03  0.50000000000E+02 0.  0.
<mgrwt>
<rscale>  0 0.51099374E+02</rscale>
<asrwt>0</asrwt>
<pdfrwt beam="1">  1       13 0.10000000E+01 0.51099374E+02</pdfrwt>
<pdfrwt beam="2">  1       22 0.26796120E+00 0.51099374E+02</pdfrwt>
<totfact> 0.25686451E-01</totfact>
</mgrwt>
</event>
<event>
 4    1  0.2489082E+000  0.5108873E+02  0.7957747E-01  0.1439556E+00
         13   -1    0    0    0    0  0.00000000000E+00  0.00000000000E+00  0.99999944176E+02  0.99999999997E+02  0.10566000000E+00 0.  1.
         22   -1    0    0    0    0 -0.00000000000E+00 -0.00000000000E+00 -0.99932928918E+01  0.99932928918E+01  0.00000000000E+00 0.  1.
         13    1    1    2    0    0  0.44121758397E+01 -0.95179201091E+01  0.73047608029E+01  0.12783927146E+02  0.10566000000E+00 0. -1.
        996    1    1    2    0    0 -0.44121758397E+01  0.95179201091E+01  0.82701890482E+02  0.97209365743E+02  0.50000000000E+02 0.  0.
<mgrwt>
<rscale>  0 0.51088728E+02</rscale>
<asrwt>0</asrwt>
<pdfrwt beam="1">  1       13 0.10000000E+01 0.51088728E+02</pdfrwt>
<pdfrwt beam="2">  1       22 0.99933180E-01 0.51088728E+02</pdfrwt>
<totfact> 0.14080461E+00</totfact>
</mgrwt>
</event>
<event>
 4    1  0.2489082E+000  0.5131005E+02  0.7957747E-01  0.1438401E+00
         13   -1    0    0    0    0  0.00000000000E+00  0.00000000000E+00  0.99999944188E+02  0.10000000001E+03  0.10566000000E+00 0. -1.
         22   -1    0    0    0    0 -0.00000000000E+00 -0.00000000000E+00 -0.12779548266E+02  0.12779548266E+02  0.00000000000E+00 0. -1.
         13    1    1    2    0    0  0.91367518273E+00 -0.11484169053E+02 -0.75277472382E-01  0.11521187956E+02  0.10566000000E+00 0.  1.
        996    1    1    2    0    0 -0.91367518273E+00  0.11484169053E+02  0.87295673394E+02  0.10125836032E+03  0.50000000000E+02 0.  0.
<mgrwt>
<rscale>  0 0.51310047E+02</rscale>
<asrwt>0</asrwt>
<pdfrwt beam="1">  1       13 0.10000000E+01 0.51310047E+02</pdfrwt>
<pdfrwt beam="2">  1       22 0.12779573E+00 0.51310047E+02</pdfrwt>
<totfact> 0.97363437E-01</totfact>
</mgrwt>
</event>
<event>
 4    1  0.2489082E+000  0.5128124E+02  0.7957747E-01  0.1438551E+00
         13   -1    0    0    0    0  0.00000000000E+00  0.00000000000E+00  0.99999944186E+02  0.10000000001E+03  0.10566000000E+00 0. -1.
         22   -1    0    0    0    0 -0.00000000000E+00 -0.00000000000E+00 -0.98764841268E+01  0.98764841268E+01  0.00000000000E+00 0. -1.
         13    1    1    2    0    0  0.82827670128E+01 -0.78205431570E+01  0.13329455780E+02  0.17534271587E+02  0.10566000000E+00 0.  1.
        996    1    1    2    0    0 -0.82827670128E+01  0.78205431570E+01  0.76794004279E+02  0.92342212546E+02  0.50000000000E+02 0.  0.
<mgrwt>
<rscale>  0 0.51281236E+02</rscale>
<asrwt>0</asrwt>
<pdfrwt beam="1">  1       13 0.10000000E+01 0.51281236E+02</pdfrwt>
<pdfrwt beam="2">  1       22 0.98765093E-01 0.51281236E+02</pdfrwt>
<totfact> 0.14328551E+00</totfact>
</mgrwt>
</event>
<event>
 4    1  0.2489082E+000  0.5113156E+02  0.7957747E-01  0.1439332E+00
         13   -1    0    0    0    0  0.00000000000E+00  0.00000000000E+00  0.99999944183E+02  0.10000000000E+03  0.10566000000E+00 0.  1.
         22   -1    0    0    0    0 -0.00000000000E+00 -0.00000000000E+00 -0.10085789614E+02  0.10085789614E+02  0.00000000000E+00 0.  1.
         13    1    1    2    0    0 -0.85639948019E+01  0.64104548774E+01  0.73802017260E+01  0.12996710363E+02  0.10566000000E+00 0. -1.
        996    1    1    2    0    0  0.85639948019E+01 -0.64104548774E+01  0.82533952842E+02  0.97089079254E+02  0.50000000000E+02 0.  0.
<mgrwt>
<rscale>  0 0.51131555E+02</rscale>
<asrwt>0</asrwt>
<pdfrwt beam="1">  1       13 0.10000000E+01 0.51131555E+02</pdfrwt>
<pdfrwt beam="2">  1       22 0.10085815E+00 0.51131555E+02</pdfrwt>
<totfact> 0.13895132E+00</totfact>
</mgrwt>
</event>
<event>
 4    1  0.2489082E+000  0.5527584E+02  0.7957747E-01  0.1418799E+00
         13   -1    0    0    0    0  0.00000000000E+00  0.00000000000E+00  0.99999944174E+02  0.99999999995E+02  0.10566000000E+00 0.  1.
         22   -1    0    0    0    0 -0.00000000000E+00 -0.00000000000E+00 -0.61213885745E+02  0.61213885745E+02  0.00000000000E+00 0. -1.
         13    1    1    2    0    0 -0.33156406500E+00 -0.23564993409E+02 -0.50769596638E+02  0.55973046691E+02  0.10566000000E+00 0. -1.
        996    1    1    2    0    0  0.33156406500E+00  0.23564993409E+02  0.89555655067E+02  0.10524083905E+03  0.50000000000E+02 0.  0.
<mgrwt>
<rscale>  0 0.55275843E+02</rscale>
<asrwt>0</asrwt>
<pdfrwt beam="1">  1       13 0.10000000E+01 0.55275843E+02</pdfrwt>
<pdfrwt beam="2">  1       22 0.61213897E+00 0.55275843E+02</pdfrwt>
<totfact> 0.68607940E-02</totfact>
</mgrwt>
</event>
<event>
 4    1  0.2489082E+000  0.5100964E+02  0.7957747E-01  0.1439971E+00
         13   -1    0    0    0    0  0.00000000000E+00  0.00000000000E+00  0.99999944176E+02  0.99999999996E+02  0.10566000000E+00 0. -1.
         22   -1    0    0    0    0 -0.00000000000E+00 -0.00000000000E+00 -0.35555716632E+02  0.35555716632E+02  0.00000000000E+00 0.  1.
         13    1    1    2    0    0  0.65180048086E+01 -0.77135671073E+01 -0.28113592223E+02  0.29872541504E+02  0.10566000000E+00 0.  1.
        996    1    1    2    0    0 -0.65180048086E+01  0.77135671073E+01  0.92557819767E+02  0.10568317512E+03  0.50000000000E+02 0.  0.
<mgrwt>
<rscale>  0 0.51009641E+02</rscale>
<asrwt>0</asrwt>
<pdfrwt beam="1">  1       13 0.10000000E+01 0.51009641E+02</pdfrwt>
<pdfrwt beam="2">  1       22 0.35555735E+00 0.51009641E+02</pdfrwt>
<totfact> 0.15273254E-01</totfact>
</mgrwt>
</event>
<event>
 4    1  0.2489082E+000  0.5180610E+02  0.7957747E-01  0.1435836E+00
         13   -1    0    0    0    0  0.00000000000E+00  0.00000000000E+00  0.99999944177E+02  0.99999999998E+02  0.10566000000E+00 0. -1.
         22   -1    0    0    0    0 -0.00000000000E+00 -0.00000000000E+00 -0.10752579744E+02  0.10752579744E+02  0.00000000000E+00 0. -1.
         13    1    1    2    0    0 -0.13558137286E+02  0.22015808371E+00  0.15038932620E+02  0.20249746039E+02  0.10566000000E+00 0.  1.
        996    1    1    2    0    0  0.13558137286E+02 -0.22015808371E+00  0.74208431813E+02  0.90502833704E+02  0.50000000000E+02 0.  0.
<mgrwt>
<rscale>  0 0.51806096E+02</rscale>
<asrwt>0</asrwt>
<pdfrwt beam="1">  1       13 0.10000000E+01 0.51806096E+02</pdfrwt>
<pdfrwt beam="2">  1       22 0.10752605E+00 0.51806096E+02</pdfrwt>
<totfact> 0.12672085E+00</totfact>
</mgrwt>
</event>
<event>
 4    1  0.2489082E+000  0.7270734E+02  0.7957747E-01  0.1351121E+00
         13   -1    0    0    0    0  0.00000000000E+00  0.00000000000E+00  0.99999944171E+02  0.99999999991E+02  0.10566000000E+00 0. -1.
         22   -1    0    0    0    0 -0.00000000000E+00 -0.00000000000E+00 -0.55203607835E+02  0.55203607835E+02  0.00000000000E+00 0.  1.
         13    1    1    2    0    0 -0.52661602802E+02 -0.36211253760E+01 -0.21320838257E+02  0.56929309382E+02  0.10566000000E+00 0.  1.
        996    1    1    2    0    0  0.52661602802E+02  0.36211253760E+01  0.66117174592E+02  0.98274298444E+02  0.50000000000E+02 0.  0.
<mgrwt>
<rscale>  0 0.72707338E+02</rscale>
<asrwt>0</asrwt>
<pdfrwt beam="1">  1       13 0.10000000E+01 0.72707338E+02</pdfrwt>
<pdfrwt beam="2">  1       22 0.55203620E+00 0.72707338E+02</pdfrwt>
<totfact> 0.59336238E-02</totfact>
</mgrwt>
</event>
<event>
 4    1  0.2489082E+000  0.5127434E+02  0.7957747E-01  0.1438587E+00
         13   -1    0    0    0    0  0.00000000000E+00  0.00000000000E+00  0.99999944180E+02  0.10000000000E+03  0.10566000000E+00 0.  1.
         22   -1    0    0    0    0 -0.00000000000E+00 -0.00000000000E+00 -0.11851510789E+02  0.11851510789E+02  0.00000000000E+00 0.  1.
         13    1    1    2    0    0  0.43720759966E+01  0.10485382140E+02  0.19083903894E+01  0.11520043622E+02  0.10566000000E+00 0. -1.
        996    1    1    2    0    0 -0.43720759966E+01 -0.10485382140E+02  0.86240043001E+02  0.10033146717E+03  0.50000000000E+02 0.  0.
<mgrwt>
<rscale>  0 0.51274343E+02</rscale>
<asrwt>0</asrwt>
<pdfrwt beam="1">  1       13 0.10000000E+01 0.51274343E+02</pdfrwt>
<pdfrwt beam="2">  1       22 0.11851535E+00 0.51274343E+02</pdfrwt>
<totfact> 0.10937979E+00</totfact>
</mgrwt>
</event>
<event>
 4    1  0.2489082E+000  0.5318334E+02  0.7957747E-01  0.1428891E+00
         13   -1    0    0    0    0  0.00000000000E+00  0.00000000000E+00  0.99999944176E+02  0.99999999996E+02  0.10566000000E+00 0. -1.
         22   -1    0    0    0    0 -0.00000000000E+00 -0.00000000000E+00 -0.15105088068E+02  0.15105088068E+02  0.00000000000E+00 0.  1.
         13    1    1    2    0    0  0.12127735930E+02  0.13467937237E+02  0.44380696112E+01  0.18659446350E+02  0.10566000000E+00 0.  1.
        996    1    1    2    0    0 -0.12127735930E+02 -0.13467937237E+02  0.80456786496E+02  0.96445641713E+02  0.50000000000E+02 0.  0.
<mgrwt>
<rscale>  0 0.53183337E+02</rscale>
<asrwt>0</asrwt>
<pdfrwt beam="1">  1       13 0.10000000E+01 0.53183337E+02</pdfrwt>
<pdfrwt beam="2">  1       22 0.15105112E+00 0.53183337E+02</pdfrwt>
<totfact> 0.74598580E-01</totfact>
</mgrwt>
</event>
<event>
 4    1  0.2489082E+000  0.5173466E+02  0.7957747E-01  0.1436204E+00
         13   -1    0    0    0    0  0.00000000000E+00  0.00000000000E+00  0.99999944182E+02  0.10000000000E+03  0.10566000000E+00 0.  1.
         22   -1    0    0    0    0 -0.00000000000E+00 -0.00000000000E+00 -0.12667513146E+02  0.12667513146E+02  0.00000000000E+00 0.  1.
         13    1    1    2    0    0  0.12896286837E+02 -0.31875975527E+01  0.28251034003E+01  0.13581876366E+02  0.10566000000E+00 0. -1.
        996    1    1    2    0    0 -0.12896286837E+02  0.31875975527E+01  0.84507327636E+02  0.99085636782E+02  0.50000000000E+02 0.  0.
<mgrwt>
<rscale>  0 0.51734659E+02</rscale>
<asrwt>0</asrwt>
<pdfrwt beam="1">  1       13 0.10000000E+01 0.51734659E+02</pdfrwt>
<pdfrwt beam="2">  1       22 0.12667538E+00 0.51734659E+02</pdfrwt>
<totfact> 0.98805090E-01</totfact>
</mgrwt>
</event>
<event>
 4    1  0.2489082E+000  0.5427958E+02  0.7957747E-01  0.1423537E+00
         13   -1    0    0    0    0  0.00000000000E+00  0.00000000000E+00  0.99999944178E+02  0.99999999999E+02  0.10566000000E+00 0.  1.
         22   -1    0    0    0    0 -0.00000000000E+00 -0.00000000000E+00 -0.19537196085E+02  0.19537196085E+02  0.00000000000E+00 0. -1.
         13    1    1    2    0    0  0.15074887190E+02  0.14799361212E+02 -0.15574787271E+01  0.21182781217E+02  0.10566000000E+00 0. -1.
        996    1    1    2    0    0 -0.15074887190E+02 -0.14799361212E+02  0.82020226820E+02  0.98354414866E+02  0.50000000000E+02 0.  0.
<mgrwt>
<rscale>  0 0.54279585E+02</rscale>
<asrwt>0</asrwt>
<pdfrwt beam="1">  1       13 0.10000000E+01 0.54279585E+02</pdfrwt>
<pdfrwt beam="2">  1       22 0.19537219E+00 0.54279585E+02</pdfrwt>
<totfact> 0.47513761E-01</totfact>
</mgrwt>
</event>
<event>
 4    1  0.2489082E+000  0.5311317E+02  0.7957747E-01  0.1429238E+00
         13   -1    0    0    0    0  0.00000000000E+00  0.00000000000E+00  0.99999944173E+02  0.99999999994E+02  0.10566000000E+00 0. -1.
         22   -1    0    0    0    0 -0.00000000000E+00 -0.00000000000E+00 -0.20873872373E+02  0.20873872373E+02  0.00000000000E+00 0.  1.
         13    1    1    2    0    0 -0.11836831942E+02  0.13449833569E+02 -0.73688995886E+01  0.19373189171E+02  0.10566000000E+00 0.  1.
        996    1    1    2    0    0  0.11836831942E+02 -0.13449833569E+02  0.86494971389E+02  0.10150068320E+03  0.50000000000E+02 0.  0.
<mgrwt>
<rscale>  0 0.53113168E+02</rscale>
<asrwt>0</asrwt>
<pdfrwt beam="1">  1       13 0.10000000E+01 0.53113168E+02</pdfrwt>
<pdfrwt beam="2">  1       22 0.20873894E+00 0.53113168E+02</pdfrwt>
<totfact> 0.41890092E-01</totfact>
</mgrwt>
</event>
<event>
 4    1  0.2489082E+000  0.5459463E+02  0.7957747E-01  0.1422026E+00
         13   -1    0    0    0    0  0.00000000000E+00  0.00000000000E+00  0.99999944178E+02  0.99999999998E+02  0.10566000000E+00 0.  1.
         22   -1    0    0    0    0 -0.00000000000E+00 -0.00000000000E+00 -0.57701967675E+02  0.57701967675E+02  0.00000000000E+00 0. -1.
         13    1    1    2    0    0  0.11033555704E+02  0.18942912990E+02 -0.47667662597E+02  0.52467042279E+02  0.10566000000E+00 0. -1.
        996    1    1    2    0    0 -0.11033555704E+02 -0.18942912990E+02  0.89965639100E+02  0.10523492539E+03  0.50000000000E+02 0.  0.
<mgrwt>
<rscale>  0 0.54594627E+02</rscale>
<asrwt>0</asrwt>
<pdfrwt beam="1">  1       13 0.10000000E+01 0.54594627E+02</pdfrwt>
<pdfrwt beam="2">  1       22 0.57701980E+00 0.54594627E+02</pdfrwt>
<totfact> 0.57976345E-02</totfact>
</mgrwt>
</event>
<event>
 4    1  0.2489082E+000  0.5198109E+02  0.7957747E-01  0.1434940E+00
         13   -1    0    0    0    0  0.00000000000E+00  0.00000000000E+00  0.99999944176E+02  0.99999999996E+02  0.10566000000E+00 0. -1.
         22   -1    0    0    0    0 -0.00000000000E+00 -0.00000000000E+00 -0.13074948227E+02  0.13074948227E+02  0.00000000000E+00 0. -1.
         13    1    1    2    0    0 -0.11534160523E+02 -0.83064085226E+01  0.32701935254E+01  0.14585561739E+02  0.10566000000E+00 0.  1.
        996    1    1    2    0    0  0.11534160523E+02  0.83064085226E+01  0.83654802423E+02  0.98489386484E+02  0.50000000000E+02 0.  0.
<mgrwt>
<rscale>  0 0.51981086E+02</rscale>
<asrwt>0</asrwt>
<pdfrwt beam="1">  1       13 0.10000000E+01 0.51981086E+02</pdfrwt>
<pdfrwt beam="2">  1       22 0.13074972E+00 0.51981086E+02</pdfrwt>
<totfact> 0.94065853E-01</totfact>
</mgrwt>
</event>
<event>
 4    1  0.2489082E+000  0.5107184E+02  0.7957747E-01  0.1439645E+00
         13   -1    0    0    0    0  0.00000000000E+00  0.00000000000E+00  0.99999944172E+02  0.99999999993E+02  0.10566000000E+00 0.  1.
         22   -1    0    0    0    0 -0.00000000000E+00 -0.00000000000E+00 -0.10935924197E+02  0.10935924197E+02  0.00000000000E+00 0. -1.
         13    1    1    2    0    0 -0.91910526390E+01 -0.48843890576E+01  0.29544051412E+01  0.10819999023E+02  0.10566000000E+00 0. -1.
        996    1    1    2    0    0  0.91910526390E+01  0.48843890576E+01  0.86109614834E+02  0.10011592517E+03  0.50000000000E+02 0.  0.
<mgrwt>
<rscale>  0 0.51071839E+02</rscale>
<asrwt>0</asrwt>
<pdfrwt beam="1">  1       13 0.10000000E+01 0.51071839E+02</pdfrwt>
<pdfrwt beam="2">  1       22 0.10935949E+00 0.51071839E+02</pdfrwt>
<totfact> 0.12337367E+00</totfact>
</mgrwt>
</event>
<event>
 4    1  0.2489082E+000  0.5724141E+02  0.7957747E-01  0.1409787E+00
         13   -1    0    0    0    0  0.00000000000E+00  0.00000000000E+00  0.99999944181E+02  0.10000000000E+03  0.10566000000E+00 0. -1.
         22   -1    0    0    0    0 -0.00000000000E+00 -0.00000000000E+00 -0.19453420649E+02  0.19453420649E+02  0.00000000000E+00 0.  1.
         13    1    1    2    0    0  0.12074048447E+02 -0.25115664359E+02  0.12527606143E+02  0.30553744808E+02  0.10566000000E+00 0.  1.
        996    1    1    2    0    0 -0.12074048447E+02  0.25115664359E+02  0.68018917389E+02  0.88899675843E+02  0.50000000000E+02 0.  0.
<mgrwt>
<rscale>  0 0.57241412E+02</rscale>
<asrwt>0</asrwt>
<pdfrwt beam="1">  1       13 0.10000000E+01 0.57241412E+02</pdfrwt>
<pdfrwt beam="2">  1       22 0.19453443E+00 0.57241412E+02</pdfrwt>
<totfact> 0.48133105E-01</totfact>
</mgrwt>
</event>
<event>
 4    1  0.2489082E+000  0.5102107E+02  0.7957747E-01  0.1439911E+00
         13   -1    0    0    0    0  0.00000000000E+00  0.00000000000E+00  0.99999944181E+02  0.10000000000E+03  0.10566000000E+00 0. -1.
         22   -1    0    0    0    0 -0.00000000000E+00 -0.00000000000E+00 -0.17280835506E+02  0.17280835506E+02  0.00000000000E+00 0.  1.
         13    1    1    2    0    0  0.40231537603E+01  0.93254345184E+01 -0.81803290967E+01  0.13041412627E+02  0.10566000000E+00 0.  1.
        996    1    1    2    0    0 -0.40231537603E+01 -0.93254345184E+01  0.90899437772E+02  0.10423942288E+03  0.50000000000E+02 0.  0.
<mgrwt>
<rscale>  0 0.51021069E+02</rscale>
<asrwt>0</asrwt>
<pdfrwt beam="1">  1       13 0.10000000E+01 0.51021069E+02</pdfrwt>
<pdfrwt beam="2">  1       22 0.17280859E+00 0.51021069E+02</pdfrwt>
<totfact> 0.58959935E-01</totfact>
</mgrwt>
</event>
<event>
 4    1  0.2489082E+000  0.5124380E+02  0.7957747E-01  0.1438746E+00
         13   -1    0    0    0    0  0.00000000000E+00  0.00000000000E+00  0.99999944185E+02  0.10000000000E+03  0.10566000000E+00 0. -1.
         22   -1    0    0    0    0 -0.00000000000E+00 -0.00000000000E+00 -0.10611298263E+02  0.10611298263E+02  0.00000000000E+00 0.  1.
         13    1    1    2    0    0  0.11067214086E+02  0.18557232907E+01  0.59726988207E+01  0.12712640630E+02  0.10566000000E+00 0.  1.
        996    1    1    2    0    0 -0.11067214086E+02 -0.18557232907E+01  0.83415947101E+02  0.97898657638E+02  0.50000000000E+02 0.  0.
<mgrwt>
<rscale>  0 0.51243799E+02</rscale>
<asrwt>0</asrwt>
<pdfrwt beam="1">  1       13 0.10000000E+01 0.51243799E+02</pdfrwt>
<pdfrwt beam="2">  1       22 0.10611323E+00 0.51243799E+02</pdfrwt>
<totfact> 0.12904578E+00</totfact>
</mgrwt>
</event>
<event>
 4    1  0.2489082E+000  0.5237231E+02  0.7957747E-01  0.1432950E+00
         13   -1    0    0    0    0  0.00000000000E+00  0.00000000000E+00  0.99999944180E+02  0.10000000000E+03  0.10566000000E+00 0. -1.
         22   -1    0    0    0    0 -0.00000000000E+00 -0.00000000000E+00 -0.13451013238E+02  0.13451013238E+02  0.00000000000E+00 0. -1.
         13    1    1    2    0    0  0.21854114019E+00 -0.15582390247E+02  0.46947145809E+01  0.16276060797E+02  0.10566000000E+00 0.  1.
        996    1    1    2    0    0 -0.21854114019E+00  0.15582390247E+02  0.81854216361E+02  0.97174952442E+02  0.50000000000E+02 0.  0.
<mgrwt>
<rscale>  0 0.52372308E+02</rscale>
<asrwt>0</asrwt>
<pdfrwt beam="1">  1       13 0.10000000E+01 0.52372308E+02</pdfrwt>
<pdfrwt beam="2">  1       22 0.13451037E+00 0.52372308E+02</pdfrwt>
<totfact> 0.90001441E-01</totfact>
</mgrwt>
</event>
<event>
 4    1  0.2489082E+000  0.5120069E+02  0.7957747E-01  0.1438971E+00
         13   -1    0    0    0    0  0.00000000000E+00  0.00000000000E+00  0.99999944182E+02  0.10000000000E+03  0.10566000000E+00 0.  1.
         22   -1    0    0    0    0 -0.00000000000E+00 -0.00000000000E+00 -0.10671933852E+02  0.10671933852E+02  0.00000000000E+00 0.  1.
         13    1    1    2    0    0 -0.74499429842E+00  0.10998001243E+02  0.31812759742E+02  0.33668589134E+02  0.10566000000E+00 0. -1.
        996    1    1    2    0    0  0.74499429842E+00 -0.10998001243E+02  0.57515250588E+02  0.77003344720E+02  0.50000000000E+02 0.  0.
<mgrwt>
<rscale>  0 0.51200694E+02</rscale>
<asrwt>0</asrwt>
<pdfrwt beam="1">  1       13 0.10000000E+01 0.51200694E+02</pdfrwt>
<pdfrwt beam="2">  1       22 0.10671959E+00 0.51200694E+02</pdfrwt>
<totfact> 0.12795411E+00</totfact>
</mgrwt>
</event>
<event>
 4    1  0.2489082E+000  0.5252874E+02  0.7957747E-01  0.1432161E+00
         13   -1    0    0    0    0  0.00000000000E+00  0.00000000000E+00  0.99999944169E+02  0.99999999990E+02  0.10566000000E+00 0. -1.
         22   -1    0    0    0    0 -0.00000000000E+00 -0.00000000000E+00 -0.22585547435E+02  0.22585547435E+02  0.00000000000E+00 0.  1.
         13    1    1    2    0    0  0.10873570998E+02 -0.11875776681E+02 -0.11170488744E+02  0.19597438629E+02  0.10566000000E+00 0.  1.
        996    1    1    2    0    0 -0.10873570998E+02  0.11875776681E+02  0.88584885478E+02  0.10298810880E+03  0.50000000000E+02 0.  0.
<mgrwt>
<rscale>  0 0.52528741E+02</rscale>
<asrwt>0</asrwt>
<pdfrwt beam="1">  1       13 0.10000000E+01 0.52528741E+02</pdfrwt>
<pdfrwt beam="2">  1       22 0.22585569E+00 0.52528741E+02</pdfrwt>
<totfact> 0.35983946E-01</totfact>
</mgrwt>
</event>
<event>
 4    1  0.2489082E+000  0.5965976E+02  0.7957747E-01  0.1399265E+00
         13   -1    0    0    0    0  0.00000000000E+00  0.00000000000E+00  0.99999944187E+02  0.10000000001E+03  0.10566000000E+00 0. -1.
         22   -1    0    0    0    0 -0.00000000000E+00 -0.00000000000E+00 -0.29324882516E+02  0.29324882516E+02  0.00000000000E+00 0.  1.
         13    1    1    2    0    0  0.18799182949E+02  0.26568351948E+02 -0.50344489695E+01  0.32933925446E+02  0.10566000000E+00 0.  1.
        996    1    1    2    0    0 -0.18799182949E+02 -0.26568351948E+02  0.75709510641E+02  0.96390957078E+02  0.50000000000E+02 0.  0.
<mgrwt>
<rscale>  0 0.59659757E+02</rscale>
<asrwt>0</asrwt>
<pdfrwt beam="1">  1       13 0.10000000E+01 0.59659757E+02</pdfrwt>
<pdfrwt beam="2">  1       22 0.29324902E+00 0.59659757E+02</pdfrwt>
<totfact> 0.21818818E-01</totfact>
</mgrwt>
</event>
<event>
 4    1  0.2489082E+000  0.5307222E+02  0.7957747E-01  0.1429442E+00
         13   -1    0    0    0    0  0.00000000000E+00  0.00000000000E+00  0.99999944176E+02  0.99999999996E+02  0.10566000000E+00 0. -1.
         22   -1    0    0    0    0 -0.00000000000E+00 -0.00000000000E+00 -0.17374507153E+02  0.17374507153E+02  0.00000000000E+00 0.  1.
         13    1    1    2    0    0 -0.93260626355E+00  0.17770493218E+02 -0.15524114677E+01  0.17862847731E+02  0.10566000000E+00 0.  1.
        996    1    1    2    0    0  0.93260626355E+00 -0.17770493218E+02  0.84177848491E+02  0.99511659418E+02  0.50000000000E+02 0.  0.
<mgrwt>
<rscale>  0 0.53072217E+02</rscale>
<asrwt>0</asrwt>
<pdfrwt beam="1">  1       13 0.10000000E+01 0.53072217E+02</pdfrwt>
<pdfrwt beam="2">  1       22 0.17374530E+00 0.53072217E+02</pdfrwt>
<totfact> 0.58630197E-01</totfact>
</mgrwt>
</event>
<event>
 4    1  0.2489082E+000  0.5256893E+02  0.7957747E-01  0.1431958E+00
         13   -1    0    0    0    0  0.00000000000E+00  0.00000000000E+00  0.99999944176E+02  0.99999999996E+02  0.10566000000E+00 0.  1.
         22   -1    0    0    0    0 -0.00000000000E+00 -0.00000000000E+00 -0.12992879104E+02  0.12992879104E+02  0.00000000000E+00 0. -1.
         13    1    1    2    0    0 -0.80157143483E+01  0.14115281810E+02  0.80053317078E+01  0.18099429739E+02  0.10566000000E+00 0. -1.
        996    1    1    2    0    0  0.80157143483E+01 -0.14115281810E+02  0.79001733364E+02  0.94893449361E+02  0.50000000000E+02 0.  0.
<mgrwt>
<rscale>  0 0.52568934E+02</rscale>
<asrwt>0</asrwt>
<pdfrwt beam="1">  1       13 0.10000000E+01 0.52568934E+02</pdfrwt>
<pdfrwt beam="2">  1       22 0.12992903E+00 0.52568934E+02</pdfrwt>
<totfact> 0.95124929E-01</totfact>
</mgrwt>
</event>
<event>
 4    1  0.2489082E+000  0.5199778E+02  0.7957747E-01  0.1434855E+00
         13   -1    0    0    0    0  0.00000000000E+00  0.00000000000E+00  0.99999944182E+02  0.10000000000E+03  0.10566000000E+00 0.  1.
         22   -1    0    0    0    0 -0.00000000000E+00 -0.00000000000E+00 -0.18860527763E+02  0.18860527763E+02  0.00000000000E+00 0. -1.
         13    1    1    2    0    0  0.57520409583E+01  0.13064562151E+02 -0.74772018282E+01  0.16114852485E+02  0.10566000000E+00 0. -1.
        996    1    1    2    0    0 -0.57520409583E+01 -0.13064562151E+02  0.88616618247E+02  0.10274567528E+03  0.50000000000E+02 0.  0.
<mgrwt>
<rscale>  0 0.51997776E+02</rscale>
<asrwt>0</asrwt>
<pdfrwt beam="1">  1       13 0.10000000E+01 0.51997776E+02</pdfrwt>
<pdfrwt beam="2">  1       22 0.18860550E+00 0.51997776E+02</pdfrwt>
<totfact> 0.50488674E-01</totfact>
</mgrwt>
</event>
<event>
 4    1  0.2489082E+000  0.5688660E+02  0.7957747E-01  0.1411382E+00
         13   -1    0    0    0    0  0.00000000000E+00  0.00000000000E+00  0.99999944174E+02  0.99999999994E+02  0.10566000000E+00 0. -1.
         22   -1    0    0    0    0 -0.00000000000E+00 -0.00000000000E+00 -0.87867725223E+02  0.87867725223E+02  0.00000000000E+00 0.  1.
         13    1    1    2    0    0 -0.54529656774E+01  0.26577254288E+02 -0.77273776290E+02  0.81898308568E+02  0.10566000000E+00 0.  1.
        996    1    1    2    0    0  0.54529656774E+01 -0.26577254288E+02  0.89405995241E+02  0.10596941665E+03  0.50000000000E+02 0.  0.
<mgrwt>
<rscale>  0 0.56886600E+02</rscale>
<asrwt>0</asrwt>
<pdfrwt beam="1">  1       13 0.10000000E+01 0.56886600E+02</pdfrwt>
<pdfrwt beam="2">  1       22 0.87867729E+00 0.56886600E+02</pdfrwt>
<totfact> 0.13730838E-02</totfact>
</mgrwt>
</event>
<event>
 4    1  0.2489082E+000  0.5241864E+02  0.7957747E-01  0.1432716E+00
         13   -1    0    0    0    0  0.00000000000E+00  0.00000000000E+00  0.99999944182E+02  0.10000000000E+03  0.10566000000E+00 0. -1.
         22   -1    0    0    0    0 -0.00000000000E+00 -0.00000000000E+00 -0.11621257757E+02  0.11621257757E+02  0.00000000000E+00 0. -1.
         13    1    1    2    0    0 -0.12411988868E+02 -0.96776169665E+01  0.21621521128E+02  0.26743505337E+02  0.10566000000E+00 0.  1.
        996    1    1    2    0    0  0.12411988868E+02  0.96776169665E+01  0.66757165297E+02  0.84877752423E+02  0.50000000000E+02 0.  0.
<mgrwt>
<rscale>  0 0.52418639E+02</rscale>
<asrwt>0</asrwt>
<pdfrwt beam="1">  1       13 0.10000000E+01 0.52418639E+02</pdfrwt>
<pdfrwt beam="2">  1       22 0.11621282E+00 0.52418639E+02</pdfrwt>
<totfact> 0.11297927E+00</totfact>
</mgrwt>
</event>
<event>
 4    1  0.2489082E+000  0.5733525E+02  0.7957747E-01  0.1409367E+00
         13   -1    0    0    0    0  0.00000000000E+00  0.00000000000E+00  0.99999944183E+02  0.10000000000E+03  0.10566000000E+00 0. -1.
         22   -1    0    0    0    0 -0.00000000000E+00 -0.00000000000E+00 -0.32272930524E+02  0.32272930524E+02  0.00000000000E+00 0.  1.
         13    1    1    2    0    0  0.56999690972E+01 -0.27474372965E+02 -0.14846884667E+02  0.31745424329E+02  0.10566000000E+00 0.  1.
        996    1    1    2    0    0 -0.56999690972E+01  0.27474372965E+02  0.82573898326E+02  0.10052750620E+03  0.50000000000E+02 0.  0.
<mgrwt>
<rscale>  0 0.57335249E+02</rscale>
<asrwt>0</asrwt>
<pdfrwt beam="1">  1       13 0.10000000E+01 0.57335249E+02</pdfrwt>
<pdfrwt beam="2">  1       22 0.32272949E+00 0.57335249E+02</pdfrwt>
<totfact> 0.18230583E-01</totfact>
</mgrwt>
</event>
<event>
 4    1  0.2489082E+000  0.6024275E+02  0.7957747E-01  0.1396816E+00
         13   -1    0    0    0    0  0.00000000000E+00  0.00000000000E+00  0.99999944184E+02  0.10000000000E+03  0.10566000000E+00 0. -1.
         22   -1    0    0    0    0 -0.00000000000E+00 -0.00000000000E+00 -0.24509520564E+02  0.24509520564E+02  0.00000000000E+00 0.  1.
         13    1    1    2    0    0 -0.32877148838E+02 -0.69485655868E+01  0.90023520496E+01  0.34788546763E+02  0.10566000000E+00 0.  1.
        996    1    1    2    0    0  0.32877148838E+02  0.69485655868E+01  0.66488071571E+02  0.89720973806E+02  0.50000000000E+02 0.  0.
<mgrwt>
<rscale>  0 0.60242755E+02</rscale>
<asrwt>0</asrwt>
<pdfrwt beam="1">  1       13 0.10000000E+01 0.60242755E+02</pdfrwt>
<pdfrwt beam="2">  1       22 0.24509542E+00 0.60242755E+02</pdfrwt>
<totfact> 0.31023843E-01</totfact>
</mgrwt>
</event>
<event>
 4    1  0.2489082E+000  0.5888241E+02  0.7957747E-01  0.1402583E+00
         13   -1    0    0    0    0  0.00000000000E+00  0.00000000000E+00  0.99999944175E+02  0.99999999996E+02  0.10566000000E+00 0. -1.
         22   -1    0    0    0    0 -0.00000000000E+00 -0.00000000000E+00 -0.20259520843E+02  0.20259520843E+02  0.00000000000E+00 0. -1.
         13    1    1    2    0    0 -0.78370801936E+01  0.30095153578E+02  0.29270390581E+02  0.42707201075E+02  0.10566000000E+00 0.  1.
        996    1    1    2    0    0  0.78370801936E+01 -0.30095153578E+02  0.50470032751E+02  0.77552319764E+02  0.50000000000E+02 0.  0.
<mgrwt>
<rscale>  0 0.58882409E+02</rscale>
<asrwt>0</asrwt>
<pdfrwt beam="1">  1       13 0.10000000E+01 0.58882409E+02</pdfrwt>
<pdfrwt beam="2">  1       22 0.20259543E+00 0.58882409E+02</pdfrwt>
<totfact> 0.44739050E-01</totfact>
</mgrwt>
</event>
<event>
 4    1  0.2489082E+000  0.5121086E+02  0.7957747E-01  0.1438918E+00
         13   -1    0    0    0    0  0.00000000000E+00  0.00000000000E+00  0.99999944174E+02  0.99999999994E+02  0.10566000000E+00 0. -1.
         22   -1    0    0    0    0 -0.00000000000E+00 -0.00000000000E+00 -0.10294191303E+02  0.10294191303E+02  0.00000000000E+00 0. -1.
         13    1    1    2    0    0  0.38137157992E+01  0.10392670523E+02  0.72624239133E+01  0.13240316988E+02  0.10566000000E+00 0.  1.
        996    1    1    2    0    0 -0.38137157992E+01 -0.10392670523E+02  0.82443328958E+02  0.97053874309E+02  0.50000000000E+02 0.  0.
<mgrwt>
<rscale>  0 0.51210859E+02</rscale>
<asrwt>0</asrwt>
<pdfrwt beam="1">  1       13 0.10000000E+01 0.51210859E+02</pdfrwt>
<pdfrwt beam="2">  1       22 0.10294216E+00 0.51210859E+02</pdfrwt>
<totfact> 0.13490247E+00</totfact>
</mgrwt>
</event>
<event>
 4    1  0.2489082E+000  0.5299390E+02  0.7957747E-01  0.1429831E+00
         13   -1    0    0    0    0  0.00000000000E+00  0.00000000000E+00  0.99999944177E+02  0.99999999997E+02  0.10566000000E+00 0.  1.
         22   -1    0    0    0    0 -0.00000000000E+00 -0.00000000000E+00 -0.17775922030E+02  0.17775922030E+02  0.00000000000E+00 0. -1.
         13    1    1    2    0    0 -0.10273135545E+02  0.14241358914E+02 -0.26068634377E+01  0.17752760875E+02  0.10566000000E+00 0. -1.
        996    1    1    2    0    0  0.10273135545E+02 -0.14241358914E+02  0.84830885585E+02  0.10002316115E+03  0.50000000000E+02 0.  0.
<mgrwt>
<rscale>  0 0.52993902E+02</rscale>
<asrwt>0</asrwt>
<pdfrwt beam="1">  1       13 0.10000000E+01 0.52993902E+02</pdfrwt>
<pdfrwt beam="2">  1       22 0.17775945E+00 0.52993902E+02</pdfrwt>
<totfact> 0.56290250E-01</totfact>
</mgrwt>
</event>
<event>
 4    1  0.2489082E+000  0.5179979E+02  0.7957747E-01  0.1435869E+00
         13   -1    0    0    0    0  0.00000000000E+00  0.00000000000E+00  0.99999944179E+02  0.99999999999E+02  0.10566000000E+00 0.  1.
         22   -1    0    0    0    0 -0.00000000000E+00 -0.00000000000E+00 -0.15934423344E+02  0.15934423344E+02  0.00000000000E+00 0.  1.
         13    1    1    2    0    0  0.13297536452E+02  0.25284958367E+01  0.54783494218E+02  0.56431021342E+02  0.10566000000E+00 0. -1.
        996    1    1    2    0    0 -0.13297536452E+02 -0.25284958367E+01  0.29282026617E+02  0.59503402001E+02  0.50000000000E+02 0.  0.
<mgrwt>
<rscale>  0 0.51799785E+02</rscale>
<asrwt>0</asrwt>
<pdfrwt beam="1">  1       13 0.10000000E+01 0.51799785E+02</pdfrwt>
<pdfrwt beam="2">  1       22 0.15934447E+00 0.51799785E+02</pdfrwt>
<totfact> 0.67972933E-01</totfact>
</mgrwt>
</event>
<event>
 4    1  0.2489082E+000  0.5647436E+02  0.7957747E-01  0.1413252E+00
         13   -1    0    0    0    0  0.00000000000E+00  0.00000000000E+00  0.99999944178E+02  0.99999999998E+02  0.10566000000E+00 0. -1.
         22   -1    0    0    0    0 -0.00000000000E+00 -0.00000000000E+00 -0.30840711608E+02  0.30840711608E+02  0.00000000000E+00 0.  1.
         13    1    1    2    0    0  0.13779994967E+02  0.22348707325E+02 -0.14431692639E+02  0.29960605749E+02  0.10566000000E+00 0.  1.
        996    1    1    2    0    0 -0.13779994967E+02 -0.22348707325E+02  0.83590925209E+02  0.10088010586E+03  0.50000000000E+02 0.  0.
<mgrwt>
<rscale>  0 0.56474357E+02</rscale>
<asrwt>0</asrwt>
<pdfrwt beam="1">  1       13 0.10000000E+01 0.56474357E+02</pdfrwt>
<pdfrwt beam="2">  1       22 0.30840731E+00 0.56474357E+02</pdfrwt>
<totfact> 0.19778240E-01</totfact>
</mgrwt>
</event>
<event>
 4    1  0.2489082E+000  0.7775945E+02  0.7957747E-01  0.1335533E+00
         13   -1    0    0    0    0  0.00000000000E+00  0.00000000000E+00  0.99999944166E+02  0.99999999986E+02  0.10566000000E+00 0. -1.
         22   -1    0    0    0    0 -0.00000000000E+00 -0.00000000000E+00 -0.78221878926E+02  0.78221878926E+02  0.00000000000E+00 0.  1.
         13    1    1    2    0    0 -0.18535124708E+02  0.56594884041E+02 -0.45857741767E+02  0.75162992167E+02  0.10566000000E+00 0.  1.
        996    1    1    2    0    0  0.18535124708E+02 -0.56594884041E+02  0.67635807007E+02  0.10305888674E+03  0.50000000000E+02 0.  0.
<mgrwt>
<rscale>  0 0.77759448E+02</rscale>
<asrwt>0</asrwt>
<pdfrwt beam="1">  1       13 0.10000000E+01 0.77759448E+02</pdfrwt>
<pdfrwt beam="2">  1       22 0.78221885E+00 0.77759448E+02</pdfrwt>
<totfact> 0.36332884E-02</totfact>
</mgrwt>
</event>
<event>
 4    1  0.2489082E+000  0.5196374E+02  0.7957747E-01  0.1435029E+00
         13   -1    0    0    0    0  0.00000000000E+00  0.00000000000E+00  0.99999944181E+02  0.10000000000E+03  0.10566000000E+00 0.  1.
         22   -1    0    0    0    0 -0.00000000000E+00 -0.00000000000E+00 -0.15087043066E+02  0.15087043066E+02  0.00000000000E+00 0.  1.
         13    1    1    2    0    0 -0.10938899657E+02 -0.89761369110E+01 -0.15243532526E+01  0.14232546379E+02  0.10566000000E+00 0. -1.
        996    1    1    2    0    0  0.10938899657E+02  0.89761369110E+01  0.86437254367E+02  0.10085449669E+03  0.50000000000E+02 0.  0.
<mgrwt>
<rscale>  0 0.51963743E+02</rscale>
<asrwt>0</asrwt>
<pdfrwt beam="1">  1       13 0.10000000E+01 0.51963743E+02</pdfrwt>
<pdfrwt beam="2">  1       22 0.15087067E+00 0.51963743E+02</pdfrwt>
<totfact> 0.74564188E-01</totfact>
</mgrwt>
</event>
<event>
 4    1  0.2489082E+000  0.5119061E+02  0.7957747E-01  0.1439024E+00
         13   -1    0    0    0    0  0.00000000000E+00  0.00000000000E+00  0.99999944180E+02  0.10000000000E+03  0.10566000000E+00 0. -1.
         22   -1    0    0    0    0 -0.00000000000E+00 -0.00000000000E+00 -0.16768996805E+02  0.16768996805E+02  0.00000000000E+00 0.  1.
         13    1    1    2    0    0  0.79990399290E+01 -0.75162640107E+01 -0.70068257705E+01  0.13022504977E+02  0.10566000000E+00 0.  1.
        996    1    1    2    0    0 -0.79990399290E+01  0.75162640107E+01  0.90237773146E+02  0.10374649183E+03  0.50000000000E+02 0.  0.
<mgrwt>
<rscale>  0 0.51190613E+02</rscale>
<asrwt>0</asrwt>
<pdfrwt beam="1">  1       13 0.10000000E+01 0.51190613E+02</pdfrwt>
<pdfrwt beam="2">  1       22 0.16769020E+00 0.51190613E+02</pdfrwt>
<totfact> 0.62170491E-01</totfact>
</mgrwt>
</event>
<event>
 4    1  0.2489082E+000  0.5111424E+02  0.7957747E-01  0.1439423E+00
         13   -1    0    0    0    0  0.00000000000E+00  0.00000000000E+00  0.99999944179E+02  0.99999999999E+02  0.10566000000E+00 0. -1.
         22   -1    0    0    0    0 -0.00000000000E+00 -0.00000000000E+00 -0.25620888509E+02  0.25620888509E+02  0.00000000000E+00 0.  1.
         13    1    1    2    0    0  0.83782100664E+01 -0.65170106339E+01 -0.17507605002E+02  0.20474208861E+02  0.10566000000E+00 0.  1.
        996    1    1    2    0    0 -0.83782100664E+01  0.65170106339E+01  0.91886660672E+02  0.10514667965E+03  0.50000000000E+02 0.  0.
<mgrwt>
<rscale>  0 0.51114243E+02</rscale>
<asrwt>0</asrwt>
<pdfrwt beam="1">  1       13 0.10000000E+01 0.51114243E+02</pdfrwt>
<pdfrwt beam="2">  1       22 0.25620909E+00 0.51114243E+02</pdfrwt>
<totfact> 0.28051345E-01</totfact>
</mgrwt>
</event>
<event>
 4    1  0.2489082E+000  0.5176990E+02  0.7957747E-01  0.1436022E+00
         13   -1    0    0    0    0  0.00000000000E+00  0.00000000000E+00  0.99999944174E+02  0.99999999995E+02  0.10566000000E+00 0. -1.
         22   -1    0    0    0    0 -0.00000000000E+00 -0.00000000000E+00 -0.20004604471E+02  0.20004604471E+02  0.00000000000E+00 0. -1.
         13    1    1    2    0    0 -0.10742655325E+02 -0.80447186912E+01 -0.96182992628E+01  0.16511964965E+02  0.10566000000E+00 0.  1.
        996    1    1    2    0    0  0.10742655325E+02  0.80447186912E+01  0.89613638966E+02  0.10349263950E+03  0.50000000000E+02 0.  0.
<mgrwt>
<rscale>  0 0.51769896E+02</rscale>
<asrwt>0</asrwt>
<pdfrwt beam="1">  1       13 0.10000000E+01 0.51769896E+02</pdfrwt>
<pdfrwt beam="2">  1       22 0.20004627E+00 0.51769896E+02</pdfrwt>
<totfact> 0.45269662E-01</totfact>
</mgrwt>
</event>
<event>
 4    1  0.2489082E+000  0.5700194E+02  0.7957747E-01  0.1410862E+00
         13   -1    0    0    0    0  0.00000000000E+00  0.00000000000E+00  0.99999944184E+02  0.10000000000E+03  0.10566000000E+00 0.  1.
         22   -1    0    0    0    0 -0.00000000000E+00 -0.00000000000E+00 -0.17826424159E+02  0.17826424159E+02  0.00000000000E+00 0.  1.
         13    1    1    2    0    0 -0.23590713040E+02 -0.13881602295E+02  0.24456481313E+02  0.36706283744E+02  0.10566000000E+00 0. -1.
        996    1    1    2    0    0  0.23590713040E+02  0.13881602295E+02  0.57717038711E+02  0.81120140419E+02  0.50000000000E+02 0.  0.
<mgrwt>
<rscale>  0 0.57001935E+02</rscale>
<asrwt>0</asrwt>
<pdfrwt beam="1">  1       13 0.10000000E+01 0.57001935E+02</pdfrwt>
<pdfrwt beam="2">  1       22 0.17826447E+00 0.57001935E+02</pdfrwt>
<totfact> 0.56408012E-01</totfact>
</mgrwt>
</event>
<event>
 4    1  0.2489082E+000  0.5101294E+02  0.7957747E-01  0.1439953E+00
         13   -1    0    0    0    0  0.00000000000E+00  0.00000000000E+00  0.99999944182E+02  0.10000000000E+03  0.10566000000E+00 0.  1.
         22   -1    0    0    0    0 -0.00000000000E+00 -0.00000000000E+00 -0.10036913969E+02  0.10036913969E+02  0.00000000000E+00 0.  1.
         13    1    1    2    0    0  0.10037622200E+02  0.12514768132E+01  0.28030633423E+02  0.29800127982E+02  0.10566000000E+00 0. -1.
        996    1    1    2    0    0 -0.10037622200E+02 -0.12514768132E+01  0.61932396790E+02  0.80236785989E+02  0.50000000000E+02 0.  0.
<mgrwt>
<rscale>  0 0.51012940E+02</rscale>
<asrwt>0</asrwt>
<pdfrwt beam="1">  1       13 0.10000000E+01 0.51012940E+02</pdfrwt>
<pdfrwt beam="2">  1       22 0.10036939E+00 0.51012940E+02</pdfrwt>
<totfact> 0.13989323E+00</totfact>
</mgrwt>
</event>
<event>
 4    1  0.2489082E+000  0.5127093E+02  0.7957747E-01  0.1438605E+00
         13   -1    0    0    0    0  0.00000000000E+00  0.00000000000E+00  0.99999944175E+02  0.99999999995E+02  0.10566000000E+00 0.  1.
         22   -1    0    0    0    0 -0.00000000000E+00 -0.00000000000E+00 -0.15063699662E+02  0.15063699662E+02  0.00000000000E+00 0. -1.
         13    1    1    2    0    0 -0.75404752453E+01  0.84764051746E+01 -0.43115933608E+01  0.12137100681E+02  0.10566000000E+00 0. -1.
        996    1    1    2    0    0  0.75404752453E+01 -0.84764051746E+01  0.89247837874E+02  0.10292659898E+03  0.50000000000E+02 0.  0.
<mgrwt>
<rscale>  0 0.51270929E+02</rscale>
<asrwt>0</asrwt>
<pdfrwt beam="1">  1       13 0.10000000E+01 0.51270929E+02</pdfrwt>
<pdfrwt beam="2">  1       22 0.15063723E+00 0.51270929E+02</pdfrwt>
<totfact> 0.74650679E-01</totfact>
</mgrwt>
</event>
<event>
 4    1  0.2489082E+000  0.5227683E+02  0.7957747E-01  0.1433434E+00
         13   -1    0    0    0    0  0.00000000000E+00  0.00000000000E+00  0.99999944174E+02  0.99999999994E+02  0.10566000000E+00 0.  1.
         22   -1    0    0    0    0 -0.00000000000E+00 -0.00000000000E+00 -0.12246418213E+02  0.12246418213E+02  0.00000000000E+00 0.  1.
         13    1    1    2    0    0 -0.15824455913E+01 -0.15177724602E+02  0.89854153278E+01  0.17709215420E+02  0.10566000000E+00 0. -1.
        996    1    1    2    0    0  0.15824455913E+01  0.15177724602E+02  0.78768110633E+02  0.94537202787E+02  0.50000000000E+02 0.  0.
<mgrwt>
<rscale>  0 0.52276835E+02</rscale>
<asrwt>0</asrwt>
<pdfrwt beam="1">  1       13 0.10000000E+01 0.52276835E+02</pdfrwt>
<pdfrwt beam="2">  1       22 0.12246443E+00 0.52276835E+02</pdfrwt>
<totfact> 0.10425095E+00</totfact>
</mgrwt>
</event>
<event>
 4    1  0.2489082E+000  0.5373034E+02  0.7957747E-01  0.1426200E+00
         13   -1    0    0    0    0  0.00000000000E+00  0.00000000000E+00  0.99999944185E+02  0.10000000001E+03  0.10566000000E+00 0.  1.
         22   -1    0    0    0    0 -0.00000000000E+00 -0.00000000000E+00 -0.24032338613E+02  0.24032338613E+02  0.00000000000E+00 0. -1.
         13    1    1    2    0    0 -0.48229475105E+01  0.19070622323E+02 -0.10448736770E+02  0.22274126752E+02  0.10566000000E+00 0. -1.
        996    1    1    2    0    0  0.48229475105E+01 -0.19070622323E+02  0.86416342342E+02  0.10175821187E+03  0.50000000000E+02 0.  0.
<mgrwt>
<rscale>  0 0.53730340E+02</rscale>
<asrwt>0</asrwt>
<pdfrwt beam="1">  1       13 0.10000000E+01 0.53730340E+02</pdfrwt>
<pdfrwt beam="2">  1       22 0.24032360E+00 0.53730340E+02</pdfrwt>
<totfact> 0.31943014E-01</totfact>
</mgrwt>
</event>
<event>
 4    1  0.2489082E+000  0.5244761E+02  0.7957747E-01  0.1432570E+00
         13   -1    0    0    0    0  0.00000000000E+00  0.00000000000E+00  0.99999944178E+02  0.99999999999E+02  0.10566000000E+00 0.  1.
         22   -1    0    0    0    0 -0.00000000000E+00 -0.00000000000E+00 -0.12200525770E+02  0.12200525770E+02  0.00000000000E+00 0. -1.
         13    1    1    2    0    0  0.12388713020E+02 -0.98626282314E+01  0.11321459013E+02  0.19466336177E+02  0.10566000000E+00 0. -1.
        996    1    1    2    0    0 -0.12388713020E+02  0.98626282314E+01  0.76477959396E+02  0.92734189592E+02  0.50000000000E+02 0.  0.
<mgrwt>
<rscale>  0 0.52447609E+02</rscale>
<asrwt>0</asrwt>
<pdfrwt beam="1">  1       13 0.10000000E+01 0.52447609E+02</pdfrwt>
<pdfrwt beam="2">  1       22 0.12200550E+00 0.52447609E+02</pdfrwt>
<totfact> 0.10489565E+00</totfact>
</mgrwt>
</event>
<event>
 4    1  0.2489082E+000  0.5226841E+02  0.7957747E-01  0.1433477E+00
         13   -1    0    0    0    0  0.00000000000E+00  0.00000000000E+00  0.99999944179E+02  0.99999999999E+02  0.10566000000E+00 0. -1.
         22   -1    0    0    0    0 -0.00000000000E+00 -0.00000000000E+00 -0.34531092257E+02  0.34531092257E+02  0.00000000000E+00 0.  1.
         13    1    1    2    0    0 -0.25296864605E+01 -0.15019556521E+02 -0.25449383449E+02  0.29659208918E+02  0.10566000000E+00 0.  1.
        996    1    1    2    0    0  0.25296864605E+01  0.15019556521E+02  0.90918235371E+02  0.10487188334E+03  0.50000000000E+02 0.  0.
<mgrwt>
<rscale>  0 0.52268407E+02</rscale>
<asrwt>0</asrwt>
<pdfrwt beam="1">  1       13 0.10000000E+01 0.52268407E+02</pdfrwt>
<pdfrwt beam="2">  1       22 0.34531111E+00 0.52268407E+02</pdfrwt>
<totfact> 0.16092799E-01</totfact>
</mgrwt>
</event>
<event>
 4    1  0.2489082E+000  0.5492316E+02  0.7957747E-01  0.1420463E+00
         13   -1    0    0    0    0  0.00000000000E+00  0.00000000000E+00  0.99999944173E+02  0.99999999993E+02  0.10566000000E+00 0.  1.
         22   -1    0    0    0    0 -0.00000000000E+00 -0.00000000000E+00 -0.53568047628E+02  0.53568047628E+02  0.00000000000E+00 0. -1.
         13    1    1    2    0    0  0.14539117957E+01 -0.22681273466E+02 -0.42988722671E+02  0.48627106294E+02  0.10566000000E+00 0. -1.
        996    1    1    2    0    0 -0.14539117957E+01  0.22681273466E+02  0.89420619217E+02  0.10494094133E+03  0.50000000000E+02 0.  0.
<mgrwt>
<rscale>  0 0.54923165E+02</rscale>
<asrwt>0</asrwt>
<pdfrwt beam="1">  1       13 0.10000000E+01 0.54923165E+02</pdfrwt>
<pdfrwt beam="2">  1       22 0.53568061E+00 0.54923165E+02</pdfrwt>
<totfact> 0.61667733E-02</totfact>
</mgrwt>
</event>
<event>
 4    1  0.2489082E+000  0.5099687E+02  0.7957747E-01  0.1440038E+00
         13   -1    0    0    0    0  0.00000000000E+00  0.00000000000E+00  0.99999944177E+02  0.99999999997E+02  0.10566000000E+00 0. -1.
         22   -1    0    0    0    0 -0.00000000000E+00 -0.00000000000E+00 -0.12748757150E+02  0.12748757150E+02  0.00000000000E+00 0.  1.
         13    1    1    2    0    0 -0.97927668790E+01  0.21868111003E+01 -0.17370135525E+01  0.10183752062E+02  0.10566000000E+00 0.  1.
        996    1    1    2    0    0  0.97927668790E+01 -0.21868111003E+01  0.88988200579E+02  0.10256500509E+03  0.50000000000E+02 0.  0.
<mgrwt>
<rscale>  0 0.50996867E+02</rscale>
<asrwt>0</asrwt>
<pdfrwt beam="1">  1       13 0.10000000E+01 0.50996867E+02</pdfrwt>
<pdfrwt beam="2">  1       22 0.12748782E+00 0.50996867E+02</pdfrwt>
<totfact> 0.97663657E-01</totfact>
</mgrwt>
</event>
<event>
 4    1  0.2489082E+000  0.5200049E+02  0.7957747E-01  0.1434841E+00
         13   -1    0    0    0    0  0.00000000000E+00  0.00000000000E+00  0.99999944176E+02  0.99999999996E+02  0.10566000000E+00 0.  1.
         22   -1    0    0    0    0 -0.00000000000E+00 -0.00000000000E+00 -0.20354294131E+02  0.20354294131E+02  0.00000000000E+00 0. -1.
         13    1    1    2    0    0  0.14133631286E+02  0.20714761933E+01 -0.94965493511E+01  0.17153604885E+02  0.10566000000E+00 0. -1.
        996    1    1    2    0    0 -0.14133631286E+02 -0.20714761933E+01  0.89142199396E+02  0.10320068924E+03  0.50000000000E+02 0.  0.
<mgrwt>
<rscale>  0 0.52000486E+02</rscale>
<asrwt>0</asrwt>
<pdfrwt beam="1">  1       13 0.10000000E+01 0.52000486E+02</pdfrwt>
<pdfrwt beam="2">  1       22 0.20354316E+00 0.52000486E+02</pdfrwt>
<totfact> 0.43843438E-01</totfact>
</mgrwt>
</event>
<event>
 4    1  0.2489082E+000  0.5215484E+02  0.7957747E-01  0.1434054E+00
         13   -1    0    0    0    0  0.00000000000E+00  0.00000000000E+00  0.99999944177E+02  0.99999999997E+02  0.10566000000E+00 0.  1.
         22   -1    0    0    0    0 -0.00000000000E+00 -0.00000000000E+00 -0.11632039736E+02  0.11632039736E+02  0.00000000000E+00 0.  1.
         13    1    1    2    0    0  0.13249338303E+01 -0.14777421229E+02  0.29239701405E+02  0.32788701257E+02  0.10566000000E+00 0. -1.
        996    1    1    2    0    0 -0.13249338303E+01  0.14777421229E+02  0.59128203035E+02  0.78843338476E+02  0.50000000000E+02 0.  0.
<mgrwt>
<rscale>  0 0.52154843E+02</rscale>
<asrwt>0</asrwt>
<pdfrwt beam="1">  1       13 0.10000000E+01 0.52154843E+02</pdfrwt>
<pdfrwt beam="2">  1       22 0.11632064E+00 0.52154843E+02</pdfrwt>
<totfact> 0.11275382E+00</totfact>
</mgrwt>
</event>
<event>
 4    1  0.2489082E+000  0.5334343E+02  0.7957747E-01  0.1428099E+00
         13   -1    0    0    0    0  0.00000000000E+00  0.00000000000E+00  0.99999944176E+02  0.99999999997E+02  0.10566000000E+00 0.  1.
         22   -1    0    0    0    0 -0.00000000000E+00 -0.00000000000E+00 -0.22128570376E+02  0.22128570376E+02  0.00000000000E+00 0. -1.
         13    1    1    2    0    0  0.15756254541E+02  0.98621496643E+01 -0.86359892783E+01  0.20496658948E+02  0.10566000000E+00 0. -1.
        996    1    1    2    0    0 -0.15756254541E+02 -0.98621496643E+01  0.86507363078E+02  0.10163191143E+03  0.50000000000E+02 0.  0.
<mgrwt>
<rscale>  0 0.53343430E+02</rscale>
<asrwt>0</asrwt>
<pdfrwt beam="1">  1       13 0.10000000E+01 0.53343430E+02</pdfrwt>
<pdfrwt beam="2">  1       22 0.22128592E+00 0.53343430E+02</pdfrwt>
<totfact> 0.37483737E-01</totfact>
</mgrwt>
</event>
<event>
 4    1  0.2489082E+000  0.5332166E+02  0.7957747E-01  0.1428207E+00
         13   -1    0    0    0    0  0.00000000000E+00  0.00000000000E+00  0.99999944181E+02  0.10000000000E+03  0.10566000000E+00 0. -1.
         22   -1    0    0    0    0 -0.00000000000E+00 -0.00000000000E+00 -0.71381983219E+02  0.71381983219E+02  0.00000000000E+00 0.  1.
         13    1    1    2    0    0  0.18365036558E+02 -0.24341586657E+01 -0.62840735868E+02  0.65514646794E+02  0.10566000000E+00 0.  1.
        996    1    1    2    0    0 -0.18365036558E+02  0.24341586657E+01  0.91458696829E+02  0.10586733643E+03  0.50000000000E+02 0.  0.
<mgrwt>
<rscale>  0 0.53321663E+02</rscale>
<asrwt>0</asrwt>
<pdfrwt beam="1">  1       13 0.10000000E+01 0.53321663E+02</pdfrwt>
<pdfrwt beam="2">  1       22 0.71381991E+00 0.53321663E+02</pdfrwt>
<totfact> 0.67368491E-02</totfact>
</mgrwt>
</event>
<event>
 4    1  0.2489082E+000  0.5132949E+02  0.7957747E-01  0.1438300E+00
         13   -1    0    0    0    0  0.00000000000E+00  0.00000000000E+00  0.99999944184E+02  0.10000000000E+03  0.10566000000E+00 0.  1.
         22   -1    0    0    0    0 -0.00000000000E+00 -0.00000000000E+00 -0.15009141339E+02  0.15009141339E+02  0.00000000000E+00 0.  1.
         13    1    1    2    0    0  0.14797667316E+01 -0.11512013297E+02 -0.39991507386E+01  0.12276829004E+02  0.10566000000E+00 0. -1.
        996    1    1    2    0    0 -0.14797667316E+01  0.11512013297E+02  0.88989953584E+02  0.10273231234E+03  0.50000000000E+02 0.  0.
<mgrwt>
<rscale>  0 0.51329486E+02</rscale>
<asrwt>0</asrwt>
<pdfrwt beam="1">  1       13 0.10000000E+01 0.51329486E+02</pdfrwt>
<pdfrwt beam="2">  1       22 0.15009165E+00 0.51329486E+02</pdfrwt>
<totfact> 0.75112434E-01</totfact>
</mgrwt>
</event>
<event>
 4    1  0.2489082E+000  0.5127173E+02  0.7957747E-01  0.1438600E+00
         13   -1    0    0    0    0  0.00000000000E+00  0.00000000000E+00  0.99999944181E+02  0.10000000000E+03  0.10566000000E+00 0. -1.
         22   -1    0    0    0    0 -0.00000000000E+00 -0.00000000000E+00 -0.10056255029E+02  0.10056255029E+02  0.00000000000E+00 0.  1.
         13    1    1    2    0    0  0.11342553044E+02  0.36964001247E+00  0.10241512868E+02  0.15286919021E+02  0.10566000000E+00 0.  1.
        996    1    1    2    0    0 -0.11342553044E+02 -0.36964001247E+00  0.79702176284E+02  0.94769336009E+02  0.50000000000E+02 0.  0.
<mgrwt>
<rscale>  0 0.51271728E+02</rscale>
<asrwt>0</asrwt>
<pdfrwt beam="1">  1       13 0.10000000E+01 0.51271728E+02</pdfrwt>
<pdfrwt beam="2">  1       22 0.10056280E+00 0.51271728E+02</pdfrwt>
<totfact> 0.13959124E+00</totfact>
</mgrwt>
</event>
<event>
 4    1  0.2489082E+000  0.5780379E+02  0.7957747E-01  0.1407286E+00
         13   -1    0    0    0    0  0.00000000000E+00  0.00000000000E+00  0.99999944178E+02  0.99999999998E+02  0.10566000000E+00 0.  1.
         22   -1    0    0    0    0 -0.00000000000E+00 -0.00000000000E+00 -0.27191305321E+02  0.27191305321E+02  0.00000000000E+00 0.  1.
         13    1    1    2    0    0  0.15820884521E+02 -0.24310042240E+02 -0.58384570628E+01  0.29586775520E+02  0.10566000000E+00 0. -1.
        996    1    1    2    0    0 -0.15820884521E+02  0.24310042240E+02  0.78647095920E+02  0.97604529799E+02  0.50000000000E+02 0.  0.
<mgrwt>
<rscale>  0 0.57803793E+02</rscale>
<asrwt>0</asrwt>
<pdfrwt beam="1">  1       13 0.10000000E+01 0.57803793E+02</pdfrwt>
<pdfrwt beam="2">  1       22 0.27191326E+00 0.57803793E+02</pdfrwt>
<totfact> 0.25196840E-01</totfact>
</mgrwt>
</event>
<event>
 4    1  0.2489082E+000  0.5145864E+02  0.7957747E-01  0.1437629E+00
         13   -1    0    0    0    0  0.00000000000E+00  0.00000000000E+00  0.99999944177E+02  0.99999999997E+02  0.10566000000E+00 0. -1.
         22   -1    0    0    0    0 -0.00000000000E+00 -0.00000000000E+00 -0.12064210234E+02  0.12064210234E+02  0.00000000000E+00 0.  1.
         13    1    1    2    0    0 -0.44018193582E+01  0.11340870075E+02  0.26409315057E+01  0.12448977105E+02  0.10566000000E+00 0.  1.
        996    1    1    2    0    0  0.44018193582E+01 -0.11340870075E+02  0.85294802437E+02  0.99615233125E+02  0.50000000000E+02 0.  0.
<mgrwt>
<rscale>  0 0.51458637E+02</rscale>
<asrwt>0</asrwt>
<pdfrwt beam="1">  1       13 0.10000000E+01 0.51458637E+02</pdfrwt>
<pdfrwt beam="2">  1       22 0.12064235E+00 0.51458637E+02</pdfrwt>
<totfact> 0.10648865E+00</totfact>
</mgrwt>
</event>
<event>
 4    1  0.2489082E+000  0.5118963E+02  0.7957747E-01  0.1439029E+00
         13   -1    0    0    0    0  0.00000000000E+00  0.00000000000E+00  0.99999944178E+02  0.99999999999E+02  0.10566000000E+00 0. -1.
         22   -1    0    0    0    0 -0.00000000000E+00 -0.00000000000E+00 -0.12552655479E+02  0.12552655479E+02  0.00000000000E+00 0. -1.
         13    1    1    2    0    0 -0.53621179592E+01 -0.95721250153E+01 -0.28779840207E+00  0.10975968216E+02  0.10566000000E+00 0.  1.
        996    1    1    2    0    0  0.53621179592E+01  0.95721250153E+01  0.87735087102E+02  0.10157668726E+03  0.50000000000E+02 0.  0.
<mgrwt>
<rscale>  0 0.51189627E+02</rscale>
<asrwt>0</asrwt>
<pdfrwt beam="1">  1       13 0.10000000E+01 0.51189627E+02</pdfrwt>
<pdfrwt beam="2">  1       22 0.12552680E+00 0.51189627E+02</pdfrwt>
<totfact> 0.10009623E+00</totfact>
</mgrwt>
</event>
<event>
 4    1  0.2489082E+000  0.5178811E+02  0.7957747E-01  0.1435929E+00
         13   -1    0    0    0    0  0.00000000000E+00  0.00000000000E+00  0.99999944182E+02  0.10000000000E+03  0.10566000000E+00 0.  1.
         22   -1    0    0    0    0 -0.00000000000E+00 -0.00000000000E+00 -0.13098146562E+02  0.13098146562E+02  0.00000000000E+00 0. -1.
         13    1    1    2    0    0  0.97407173381E+01  0.93341940358E+01  0.19871011094E+01  0.13637026341E+02  0.10566000000E+00 0. -1.
        996    1    1    2    0    0 -0.97407173381E+01 -0.93341940358E+01  0.84914696511E+02  0.99461120224E+02  0.50000000000E+02 0.  0.
<mgrwt>
<rscale>  0 0.51788114E+02</rscale>
<asrwt>0</asrwt>
<pdfrwt beam="1">  1       13 0.10000000E+01 0.51788114E+02</pdfrwt>
<pdfrwt beam="2">  1       22 0.13098171E+00 0.51788114E+02</pdfrwt>
<totfact> 0.93763690E-01</totfact>
</mgrwt>
</event>
<event>
 4    1  0.2489082E+000  0.5254429E+02  0.7957747E-01  0.1432082E+00
         13   -1    0    0    0    0  0.00000000000E+00  0.00000000000E+00  0.99999944176E+02  0.99999999996E+02  0.10566000000E+00 0. -1.
         22   -1    0    0    0    0 -0.00000000000E+00 -0.00000000000E+00 -0.12204532954E+02  0.12204532954E+02  0.00000000000E+00 0. -1.
         13    1    1    2    0    0  0.12244755003E+02  0.10534133843E+02  0.12679066264E+02  0.20534650868E+02  0.10566000000E+00 0.  1.
        996    1    1    2    0    0 -0.12244755003E+02 -0.10534133843E+02  0.75116344958E+02  0.91669882081E+02  0.50000000000E+02 0.  0.
<mgrwt>
<rscale>  0 0.52544286E+02</rscale>
<asrwt>0</asrwt>
<pdfrwt beam="1">  1       13 0.10000000E+01 0.52544286E+02</pdfrwt>
<pdfrwt beam="2">  1       22 0.12204557E+00 0.52544286E+02</pdfrwt>
<totfact> 0.10486486E+00</totfact>
</mgrwt>
</event>
<event>
 4    1  0.2489082E+000  0.5178244E+02  0.7957747E-01  0.1435958E+00
         13   -1    0    0    0    0  0.00000000000E+00  0.00000000000E+00  0.99999944180E+02  0.10000000000E+03  0.10566000000E+00 0.  1.
         22   -1    0    0    0    0 -0.00000000000E+00 -0.00000000000E+00 -0.15556652824E+02  0.15556652824E+02  0.00000000000E+00 0.  1.
         13    1    1    2    0    0  0.55081399837E+01 -0.12291529983E+02 -0.31214074326E+01  0.13826628793E+02  0.10566000000E+00 0. -1.
        996    1    1    2    0    0 -0.55081399837E+01  0.12291529983E+02  0.87564698788E+02  0.10173002403E+03  0.50000000000E+02 0.  0.
<mgrwt>
<rscale>  0 0.51782442E+02</rscale>
<asrwt>0</asrwt>
<pdfrwt beam="1">  1       13 0.10000000E+01 0.51782442E+02</pdfrwt>
<pdfrwt beam="2">  1       22 0.15556676E+00 0.51782442E+02</pdfrwt>
<totfact> 0.70797337E-01</totfact>
</mgrwt>
</event>
<event>
 4    1  0.2489082E+000  0.5220766E+02  0.7957747E-01  0.1433785E+00
         13   -1    0    0    0    0  0.00000000000E+00  0.00000000000E+00  0.99999944179E+02  0.10000000000E+03  0.10566000000E+00 0.  1.
         22   -1    0    0    0    0 -0.00000000000E+00 -0.00000000000E+00 -0.15628997656E+02  0.15628997656E+02  0.00000000000E+00 0.  1.
         13    1    1    2    0    0  0.11182479478E+02  0.10029571195E+02 -0.15382452908E+01  0.15100248615E+02  0.10566000000E+00 0. -1.
        996    1    1    2    0    0 -0.11182479478E+02 -0.10029571195E+02  0.85909191814E+02  0.10052874904E+03  0.50000000000E+02 0.  0.
<mgrwt>
<rscale>  0 0.52207664E+02</rscale>
<asrwt>0</asrwt>
<pdfrwt beam="1">  1       13 0.10000000E+01 0.52207664E+02</pdfrwt>
<pdfrwt beam="2">  1       22 0.15629021E+00 0.52207664E+02</pdfrwt>
<totfact> 0.70303938E-01</totfact>
</mgrwt>
</event>
<event>
 4    1  0.2489082E+000  0.5309813E+02  0.7957747E-01  0.1429313E+00
         13   -1    0    0    0    0  0.00000000000E+00  0.00000000000E+00  0.99999944172E+02  0.99999999992E+02  0.10566000000E+00 0.  1.
         22   -1    0    0    0    0 -0.00000000000E+00 -0.00000000000E+00 -0.14299745692E+02  0.14299745692E+02  0.00000000000E+00 0. -1.
         13    1    1    2    0    0 -0.17511055666E+02 -0.35741292595E+01  0.66450079040E+01  0.19067741466E+02  0.10566000000E+00 0. -1.
        996    1    1    2    0    0  0.17511055666E+02  0.35741292595E+01  0.79055190576E+02  0.95232004219E+02  0.50000000000E+02 0.  0.
<mgrwt>
<rscale>  0 0.53098131E+02</rscale>
<asrwt>0</asrwt>
<pdfrwt beam="1">  1       13 0.10000000E+01 0.53098131E+02</pdfrwt>
<pdfrwt beam="2">  1       22 0.14299770E+00 0.53098131E+02</pdfrwt>
<totfact> 0.81654685E-01</totfact>
</mgrwt>
</event>
<event>
 4    1  0.2489082E+000  0.5611178E+02  0.7957747E-01  0.1414913E+00
         13   -1    0    0    0    0  0.00000000000E+00  0.00000000000E+00  0.99999944179E+02  0.99999999999E+02  0.10566000000E+00 0. -1.
         22   -1    0    0    0    0 -0.00000000000E+00 -0.00000000000E+00 -0.32528286143E+02  0.32528286143E+02  0.00000000000E+00 0.  1.
         13    1    1    2    0    0  0.49454397409E+01  0.24981491751E+02 -0.17358236498E+02  0.30819666492E+02  0.10566000000E+00 0.  1.
        996    1    1    2    0    0 -0.49454397409E+01 -0.24981491751E+02  0.84829894534E+02  0.10170861965E+03  0.50000000000E+02 0.  0.
<mgrwt>
<rscale>  0 0.56111784E+02</rscale>
<asrwt>0</asrwt>
<pdfrwt beam="1">  1       13 0.10000000E+01 0.56111784E+02</pdfrwt>
<pdfrwt beam="2">  1       22 0.32528305E+00 0.56111784E+02</pdfrwt>
<totfact> 0.17951710E-01</totfact>
</mgrwt>
</event>
<event>
 4    1  0.2489082E+000  0.6012363E+02  0.7957747E-01  0.1397314E+00
         13   -1    0    0    0    0  0.00000000000E+00  0.00000000000E+00  0.99999944183E+02  0.10000000000E+03  0.10566000000E+00 0.  1.
         22   -1    0    0    0    0 -0.00000000000E+00 -0.00000000000E+00 -0.37688428317E+02  0.37688428317E+02  0.00000000000E+00 0. -1.
         13    1    1    2    0    0  0.29359792730E+02  0.15901366623E+02 -0.17553160119E+02  0.37722347274E+02  0.10566000000E+00 0. -1.
        996    1    1    2    0    0 -0.29359792730E+02 -0.15901366623E+02  0.79864675985E+02  0.99966081046E+02  0.50000000000E+02 0.  0.
<mgrwt>
<rscale>  0 0.60123630E+02</rscale>
<asrwt>0</asrwt>
<pdfrwt beam="1">  1       13 0.10000000E+01 0.60123630E+02</pdfrwt>
<pdfrwt beam="2">  1       22 0.37688446E+00 0.60123630E+02</pdfrwt>
<totfact> 0.13890321E-01</totfact>
</mgrwt>
</event>
<event>
 4    1  0.2489082E+000  0.5203142E+02  0.7957747E-01  0.1434683E+00
         13   -1    0    0    0    0  0.00000000000E+00  0.00000000000E+00  0.99999944176E+02  0.99999999996E+02  0.10566000000E+00 0.  1.
         22   -1    0    0    0    0 -0.00000000000E+00 -0.00000000000E+00 -0.11121860788E+02  0.11121860788E+02  0.00000000000E+00 0.  1.
         13    1    1    2    0    0 -0.73928558422E+01  0.12353703364E+02  0.23592443285E+02  0.27638430645E+02  0.10566000000E+00 0. -1.
        996    1    1    2    0    0  0.73928558422E+01 -0.12353703364E+02  0.65285640102E+02  0.83483430140E+02  0.50000000000E+02 0.  0.
<mgrwt>
<rscale>  0 0.52031417E+02</rscale>
<asrwt>0</asrwt>
<pdfrwt beam="1">  1       13 0.10000000E+01 0.52031417E+02</pdfrwt>
<pdfrwt beam="2">  1       22 0.11121886E+00 0.52031417E+02</pdfrwt>
<totfact> 0.12058490E+00</totfact>
</mgrwt>
</event>
<event>
 4    1  0.2489082E+000  0.5296351E+02  0.7957747E-01  0.1429983E+00
         13   -1    0    0    0    0  0.00000000000E+00  0.00000000000E+00  0.99999944177E+02  0.99999999997E+02  0.10566000000E+00 0.  1.
         22   -1    0    0    0    0 -0.00000000000E+00 -0.00000000000E+00 -0.16335280993E+02  0.16335280993E+02  0.00000000000E+00 0. -1.
         13    1    1    2    0    0 -0.12779803891E+02  0.11908405222E+02  0.18208481288E+00  0.17469339464E+02  0.10566000000E+00 0. -1.
        996    1    1    2    0    0  0.12779803891E+02 -0.11908405222E+02  0.83482578371E+02  0.98865941526E+02  0.50000000000E+02 0.  0.
<mgrwt>
<rscale>  0 0.52963511E+02</rscale>
<asrwt>0</asrwt>
<pdfrwt beam="1">  1       13 0.10000000E+01 0.52963511E+02</pdfrwt>
<pdfrwt beam="2">  1       22 0.16335304E+00 0.52963511E+02</pdfrwt>
<totfact> 0.65285604E-01</totfact>
</mgrwt>
</event>
<event>
 4    1  0.2489082E+000  0.5294727E+02  0.7957747E-01  0.1430063E+00
         13   -1    0    0    0    0  0.00000000000E+00  0.00000000000E+00  0.99999944175E+02  0.99999999995E+02  0.10566000000E+00 0.  1.
         22   -1    0    0    0    0 -0.00000000000E+00 -0.00000000000E+00 -0.59795894195E+02  0.59795894195E+02  0.00000000000E+00 0. -1.
         13    1    1    2    0    0  0.89959848568E+01  0.14915937174E+02 -0.51245201713E+02  0.54124807509E+02  0.10566000000E+00 0. -1.
        996    1    1    2    0    0 -0.89959848568E+01 -0.14915937174E+02  0.91449251692E+02  0.10567108668E+03  0.50000000000E+02 0.  0.
<mgrwt>
<rscale>  0 0.52947266E+02</rscale>
<asrwt>0</asrwt>
<pdfrwt beam="1">  1       13 0.10000000E+01 0.52947266E+02</pdfrwt>
<pdfrwt beam="2">  1       22 0.59795905E+00 0.52947266E+02</pdfrwt>
<totfact> 0.62871952E-02</totfact>
</mgrwt>
</event>
<event>
 4    1  0.2489082E+000  0.5356853E+02  0.7957747E-01  0.1426992E+00
         13   -1    0    0    0    0  0.00000000000E+00  0.00000000000E+00  0.99999944170E+02  0.99999999991E+02  0.10566000000E+00 0. -1.
         22   -1    0    0    0    0 -0.00000000000E+00 -0.00000000000E+00 -0.19317967855E+02  0.19317967855E+02  0.00000000000E+00 0.  1.
         13    1    1    2    0    0  0.12884317767E+02 -0.14268197044E+02 -0.34963910672E+01  0.19540291854E+02  0.10566000000E+00 0.  1.
        996    1    1    2    0    0 -0.12884317767E+02  0.14268197044E+02  0.84178367382E+02  0.99777675992E+02  0.50000000000E+02 0.  0.
<mgrwt>
<rscale>  0 0.53568527E+02</rscale>
<asrwt>0</asrwt>
<pdfrwt beam="1">  1       13 0.10000000E+01 0.53568527E+02</pdfrwt>
<pdfrwt beam="2">  1       22 0.19317990E+00 0.53568527E+02</pdfrwt>
<totfact> 0.48454427E-01</totfact>
</mgrwt>
</event>
<event>
 4    1  0.2489082E+000  0.5121201E+02  0.7957747E-01  0.1438912E+00
         13   -1    0    0    0    0  0.00000000000E+00  0.00000000000E+00  0.99999944177E+02  0.99999999997E+02  0.10566000000E+00 0. -1.
         22   -1    0    0    0    0 -0.00000000000E+00 -0.00000000000E+00 -0.18546807935E+02  0.18546807935E+02  0.00000000000E+00 0. -1.
         13    1    1    2    0    0 -0.38494513645E+01  0.10385184242E+02 -0.92196338234E+01  0.14411215751E+02  0.10566000000E+00 0.  1.
        996    1    1    2    0    0  0.38494513645E+01 -0.10385184242E+02  0.90672770066E+02  0.10413559218E+03  0.50000000000E+02 0.  0.
<mgrwt>
<rscale>  0 0.51212014E+02</rscale>
<asrwt>0</asrwt>
<pdfrwt beam="1">  1       13 0.10000000E+01 0.51212014E+02</pdfrwt>
<pdfrwt beam="2">  1       22 0.18546831E+00 0.51212014E+02</pdfrwt>
<totfact> 0.51976902E-01</totfact>
</mgrwt>
</event>
<event>
 4    1  0.2489082E+000  0.5767488E+02  0.7957747E-01  0.1407857E+00
         13   -1    0    0    0    0  0.00000000000E+00  0.00000000000E+00  0.99999944182E+02  0.10000000000E+03  0.10566000000E+00 0. -1.
         22   -1    0    0    0    0 -0.00000000000E+00 -0.00000000000E+00 -0.71979483997E+02  0.71979483997E+02  0.00000000000E+00 0.  1.
         13    1    1    2    0    0  0.15183483853E+02 -0.24410115377E+02 -0.60123789413E+02  0.66642877580E+02  0.10566000000E+00 0.  1.
        996    1    1    2    0    0 -0.15183483853E+02  0.24410115377E+02  0.88144249599E+02  0.10533660642E+03  0.50000000000E+02 0.  0.
<mgrwt>
<rscale>  0 0.57674881E+02</rscale>
<asrwt>0</asrwt>
<pdfrwt beam="1">  1       13 0.10000000E+01 0.57674881E+02</pdfrwt>
<pdfrwt beam="2">  1       22 0.71979492E+00 0.57674881E+02</pdfrwt>
<totfact> 0.64152187E-02</totfact>
</mgrwt>
</event>
<event>
 4    1  0.2489082E+000  0.5175287E+02  0.7957747E-01  0.1436110E+00
         13   -1    0    0    0    0  0.00000000000E+00  0.00000000000E+00  0.99999944178E+02  0.99999999998E+02  0.10566000000E+00 0.  1.
         22   -1    0    0    0    0 -0.00000000000E+00 -0.00000000000E+00 -0.13027631283E+02  0.13027631283E+02  0.00000000000E+00 0. -1.
         13    1    1    2    0    0 -0.49484680652E+01  0.12404507250E+02  0.19559065409E+01  0.13497995064E+02  0.10566000000E+00 0. -1.
        996    1    1    2    0    0  0.49484680652E+01 -0.12404507250E+02  0.85016406354E+02  0.99529636218E+02  0.50000000000E+02 0.  0.
<mgrwt>
<rscale>  0 0.51752866E+02</rscale>
<asrwt>0</asrwt>
<pdfrwt beam="1">  1       13 0.10000000E+01 0.51752866E+02</pdfrwt>
<pdfrwt beam="2">  1       22 0.13027656E+00 0.51752866E+02</pdfrwt>
<totfact> 0.94558603E-01</totfact>
</mgrwt>
</event>
<event>
 4    1  0.2489082E+000  0.5142679E+02  0.7957747E-01  0.1437794E+00
         13   -1    0    0    0    0  0.00000000000E+00  0.00000000000E+00  0.99999944182E+02  0.10000000000E+03  0.10566000000E+00 0.  1.
         22   -1    0    0    0    0 -0.00000000000E+00 -0.00000000000E+00 -0.10084101995E+02  0.10084101995E+02  0.00000000000E+00 0.  1.
         13    1    1    2    0    0  0.53914732136E+00  0.12017672732E+02  0.15313651561E+02  0.19473937093E+02  0.10566000000E+00 0. -1.
        996    1    1    2    0    0 -0.53914732136E+00 -0.12017672732E+02  0.74602190626E+02  0.90610164904E+02  0.50000000000E+02 0.  0.
<mgrwt>
<rscale>  0 0.51426794E+02</rscale>
<asrwt>0</asrwt>
<pdfrwt beam="1">  1       13 0.10000000E+01 0.51426794E+02</pdfrwt>
<pdfrwt beam="2">  1       22 0.10084127E+00 0.51426794E+02</pdfrwt>
<totfact> 0.13908454E+00</totfact>
</mgrwt>
</event>
<event>
 4    1  0.2489082E+000  0.5103397E+02  0.7957747E-01  0.1439843E+00
         13   -1    0    0    0    0  0.00000000000E+00  0.00000000000E+00  0.99999944180E+02  0.10000000000E+03  0.10566000000E+00 0. -1.
         22   -1    0    0    0    0 -0.00000000000E+00 -0.00000000000E+00 -0.17685851235E+02  0.17685851235E+02  0.00000000000E+00 0.  1.
         13    1    1    2    0    0 -0.98781812259E+01  0.26244777240E+01 -0.86456747966E+01  0.13387501798E+02  0.10566000000E+00 0.  1.
        996    1    1    2    0    0  0.98781812259E+01 -0.26244777240E+01  0.90959767742E+02  0.10429834944E+03  0.50000000000E+02 0.  0.
<mgrwt>
<rscale>  0 0.51033972E+02</rscale>
<asrwt>0</asrwt>
<pdfrwt beam="1">  1       13 0.10000000E+01 0.51033972E+02</pdfrwt>
<pdfrwt beam="2">  1       22 0.17685874E+00 0.51033972E+02</pdfrwt>
<totfact> 0.56590912E-01</totfact>
</mgrwt>
</event>
<event>
 4    1  0.2489082E+000  0.5379625E+02  0.7957747E-01  0.1425879E+00
         13   -1    0    0    0    0  0.00000000000E+00  0.00000000000E+00  0.99999944184E+02  0.10000000000E+03  0.10566000000E+00 0.  1.
         22   -1    0    0    0    0 -0.00000000000E+00 -0.00000000000E+00 -0.14369522515E+02  0.14369522515E+02  0.00000000000E+00 0. -1.
         13    1    1    2    0    0 -0.79233707636E+01  0.18200455391E+02  0.36332036942E+02  0.41401261491E+02  0.10566000000E+00 0.  1.
        996    1    1    2    0    0  0.79233707636E+01 -0.18200455391E+02  0.49298384727E+02  0.72968261028E+02  0.50000000000E+02 0.  0.
<mgrwt>
<rscale>  0 0.53796249E+02</rscale>
<asrwt>0</asrwt>
<pdfrwt beam="1">  1       13 0.10000000E+01 0.53796249E+02</pdfrwt>
<pdfrwt beam="2">  1       22 0.14369546E+00 0.53796249E+02</pdfrwt>
<totfact> 0.81121065E-01</totfact>
</mgrwt>
</event>
<event>
 4    1  0.2489082E+000  0.5145137E+02  0.7957747E-01  0.1437667E+00
         13   -1    0    0    0    0  0.00000000000E+00  0.00000000000E+00  0.99999944180E+02  0.10000000000E+03  0.10566000000E+00 0.  1.
         22   -1    0    0    0    0 -0.00000000000E+00 -0.00000000000E+00 -0.14187095774E+02  0.14187095774E+02  0.00000000000E+00 0. -1.
         13    1    1    2    0    0 -0.48811241735E+01 -0.11109369910E+02 -0.21093364329E+01  0.12316815222E+02  0.10566000000E+00 0. -1.
        996    1    1    2    0    0  0.48811241735E+01  0.11109369910E+02  0.87922184839E+02  0.10187028055E+03  0.50000000000E+02 0.  0.
<mgrwt>
<rscale>  0 0.51451370E+02</rscale>
<asrwt>0</asrwt>
<pdfrwt beam="1">  1       13 0.10000000E+01 0.51451370E+02</pdfrwt>
<pdfrwt beam="2">  1       22 0.14187120E+00 0.51451370E+02</pdfrwt>
<totfact> 0.82432985E-01</totfact>
</mgrwt>
</event>
<event>
 4    1  0.2489082E+000  0.5545877E+02  0.7957747E-01  0.1417942E+00
         13   -1    0    0    0    0  0.00000000000E+00  0.00000000000E+00  0.99999944177E+02  0.99999999997E+02  0.10566000000E+00 0.  1.
         22   -1    0    0    0    0 -0.00000000000E+00 -0.00000000000E+00 -0.17841457641E+02  0.17841457641E+02  0.00000000000E+00 0.  1.
         13    1    1    2    0    0  0.22613097554E+02  0.80201633080E+01  0.81092605176E+01  0.25326793533E+02  0.10566000000E+00 0. -1.
        996    1    1    2    0    0 -0.22613097554E+02 -0.80201633080E+01  0.74049226019E+02  0.92514664105E+02  0.50000000000E+02 0.  0.
<mgrwt>
<rscale>  0 0.55458770E+02</rscale>
<asrwt>0</asrwt>
<pdfrwt beam="1">  1       13 0.10000000E+01 0.55458770E+02</pdfrwt>
<pdfrwt beam="2">  1       22 0.17841481E+00 0.55458770E+02</pdfrwt>
<totfact> 0.56171815E-01</totfact>
</mgrwt>
</event>
<event>
 4    1  0.2489082E+000  0.5364612E+02  0.7957747E-01  0.1426612E+00
         13   -1    0    0    0    0  0.00000000000E+00  0.00000000000E+00  0.99999944175E+02  0.99999999995E+02  0.10566000000E+00 0.  1.
         22   -1    0    0    0    0 -0.00000000000E+00 -0.00000000000E+00 -0.53273154216E+02  0.53273154216E+02  0.00000000000E+00 0. -1.
         13    1    1    2    0    0  0.98721436606E+01  0.16746558114E+02 -0.43870146814E+02  0.47984449300E+02  0.10566000000E+00 0. -1.
        996    1    1    2    0    0 -0.98721436606E+01 -0.16746558114E+02  0.90596936773E+02  0.10528870491E+03  0.50000000000E+02 0.  0.
<mgrwt>
<rscale>  0 0.53646122E+02</rscale>
<asrwt>0</asrwt>
<pdfrwt beam="1">  1       13 0.10000000E+01 0.53646122E+02</pdfrwt>
<pdfrwt beam="2">  1       22 0.53273167E+00 0.53646122E+02</pdfrwt>
<totfact> 0.62412706E-02</totfact>
</mgrwt>
</event>
<event>
 4    1  0.2489082E+000  0.5137641E+02  0.7957747E-01  0.1438056E+00
         13   -1    0    0    0    0  0.00000000000E+00  0.00000000000E+00  0.99999944182E+02  0.10000000000E+03  0.10566000000E+00 0. -1.
         22   -1    0    0    0    0 -0.00000000000E+00 -0.00000000000E+00 -0.10378119730E+02  0.10378119730E+02  0.00000000000E+00 0. -1.
         13    1    1    2    0    0  0.52211580204E+01  0.10596008159E+02  0.93171539454E+01  0.15045145451E+02  0.10566000000E+00 0.  1.
        996    1    1    2    0    0 -0.52211580204E+01 -0.10596008159E+02  0.80304670507E+02  0.95332974281E+02  0.50000000000E+02 0.  0.
<mgrwt>
<rscale>  0 0.51376414E+02</rscale>
<asrwt>0</asrwt>
<pdfrwt beam="1">  1       13 0.10000000E+01 0.51376414E+02</pdfrwt>
<pdfrwt beam="2">  1       22 0.10378145E+00 0.51376414E+02</pdfrwt>
<totfact> 0.13336446E+00</totfact>
</mgrwt>
</event>
<event>
 4    1  0.2489082E+000  0.7415337E+02  0.7957747E-01  0.1346513E+00
         13   -1    0    0    0    0  0.00000000000E+00  0.00000000000E+00  0.99999944185E+02  0.10000000001E+03  0.10566000000E+00 0.  1.
         22   -1    0    0    0    0 -0.00000000000E+00 -0.00000000000E+00 -0.73014517571E+02  0.73014517571E+02  0.00000000000E+00 0. -1.
         13    1    1    2    0    0  0.53679927160E+02 -0.10825305504E+02 -0.44086308361E+02  0.70301746551E+02  0.10566000000E+00 0. -1.
        996    1    1    2    0    0 -0.53679927160E+02  0.10825305504E+02  0.71071734976E+02  0.10271277103E+03  0.50000000000E+02 0.  0.
<mgrwt>
<rscale>  0 0.74153367E+02</rscale>
<asrwt>0</asrwt>
<pdfrwt beam="1">  1       13 0.10000000E+01 0.74153367E+02</pdfrwt>
<pdfrwt beam="2">  1       22 0.73014525E+00 0.74153367E+02</pdfrwt>
<totfact> 0.58672001E-02</totfact>
</mgrwt>
</event>
<event>
 4    1  0.2489082E+000  0.5363470E+02  0.7957747E-01  0.1426668E+00
         13   -1    0    0    0    0  0.00000000000E+00  0.00000000000E+00  0.99999944173E+02  0.99999999993E+02  0.10566000000E+00 0.  1.
         22   -1    0    0    0    0 -0.00000000000E+00 -0.00000000000E+00 -0.18328792435E+02  0.18328792435E+02  0.00000000000E+00 0. -1.
         13    1    1    2    0    0 -0.55623432240E+01 -0.18594124072E+02 -0.13874678964E+01  0.19458091976E+02  0.10566000000E+00 0. -1.
        996    1    1    2    0    0  0.55623432240E+01  0.18594124072E+02  0.83058619635E+02  0.98870700452E+02  0.50000000000E+02 0.  0.
<mgrwt>
<rscale>  0 0.53634701E+02</rscale>
<asrwt>0</asrwt>
<pdfrwt beam="1">  1       13 0.10000000E+01 0.53634701E+02</pdfrwt>
<pdfrwt beam="2">  1       22 0.18328815E+00 0.53634701E+02</pdfrwt>
<totfact> 0.53340223E-01</totfact>
</mgrwt>
</event>
<event>
 4    1  0.2489082E+000  0.5133628E+02  0.7957747E-01  0.1438264E+00
         13   -1    0    0    0    0  0.00000000000E+00  0.00000000000E+00  0.99999944181E+02  0.10000000000E+03  0.10566000000E+00 0. -1.
         22   -1    0    0    0    0 -0.00000000000E+00 -0.00000000000E+00 -0.15470012377E+02  0.15470012377E+02  0.00000000000E+00 0.  1.
         13    1    1    2    0    0 -0.65604802400E-01 -0.11636551793E+02 -0.46805539129E+01  0.12543220902E+02  0.10566000000E+00 0.  1.
        996    1    1    2    0    0  0.65604802400E-01  0.11636551793E+02  0.89210485717E+02  0.10292679148E+03  0.50000000000E+02 0.  0.
<mgrwt>
<rscale>  0 0.51336280E+02</rscale>
<asrwt>0</asrwt>
<pdfrwt beam="1">  1       13 0.10000000E+01 0.51336280E+02</pdfrwt>
<pdfrwt beam="2">  1       22 0.15470036E+00 0.51336280E+02</pdfrwt>
<totfact> 0.71403006E-01</totfact>
</mgrwt>
</event>
<event>
 4    1  0.2489082E+000  0.5341615E+02  0.7957747E-01  0.1427741E+00
         13   -1    0    0    0    0  0.00000000000E+00  0.00000000000E+00  0.99999944173E+02  0.99999999993E+02  0.10566000000E+00 0.  1.
         22   -1    0    0    0    0 -0.00000000000E+00 -0.00000000000E+00 -0.17389960879E+02  0.17389960879E+02  0.00000000000E+00 0.  1.
         13    1    1    2    0    0 -0.11540776269E+02  0.14835607318E+02 -0.25799686286E+00  0.18797938393E+02  0.10566000000E+00 0. -1.
        996    1    1    2    0    0  0.11540776269E+02 -0.14835607318E+02  0.82867980156E+02  0.98592022479E+02  0.50000000000E+02 0.  0.
<mgrwt>
<rscale>  0 0.53416147E+02</rscale>
<asrwt>0</asrwt>
<pdfrwt beam="1">  1       13 0.10000000E+01 0.53416147E+02</pdfrwt>
<pdfrwt beam="2">  1       22 0.17389984E+00 0.53416147E+02</pdfrwt>
<totfact> 0.58575721E-01</totfact>
</mgrwt>
</event>
<event>
 4    1  0.2489082E+000  0.5101214E+02  0.7957747E-01  0.1439958E+00
         13   -1    0    0    0    0  0.00000000000E+00  0.00000000000E+00  0.99999944173E+02  0.99999999993E+02  0.10566000000E+00 0.  1.
         22   -1    0    0    0    0 -0.00000000000E+00 -0.00000000000E+00 -0.13742473656E+02  0.13742473656E+02  0.00000000000E+00 0.  1.
         13    1    1    2    0    0  0.98498345329E+01 -0.22845615414E+01 -0.33329455541E+01  0.10646978532E+02  0.10566000000E+00 0. -1.
        996    1    1    2    0    0 -0.98498345329E+01  0.22845615414E+01  0.89590416071E+02  0.10309549512E+03  0.50000000000E+02 0.  0.
<mgrwt>
<rscale>  0 0.51012140E+02</rscale>
<asrwt>0</asrwt>
<pdfrwt beam="1">  1       13 0.10000000E+01 0.51012140E+02</pdfrwt>
<pdfrwt beam="2">  1       22 0.13742498E+00 0.51012140E+02</pdfrwt>
<totfact> 0.86710682E-01</totfact>
</mgrwt>
</event>
<event>
 4    1  0.2489082E+000  0.5924865E+02  0.7957747E-01  0.1401012E+00
         13   -1    0    0    0    0  0.00000000000E+00  0.00000000000E+00  0.99999944181E+02  0.10000000000E+03  0.10566000000E+00 0.  1.
         22   -1    0    0    0    0 -0.00000000000E+00 -0.00000000000E+00 -0.26866956908E+02  0.26866956908E+02  0.00000000000E+00 0. -1.
         13    1    1    2    0    0 -0.31754491648E+02 -0.14335150552E+01 -0.12006146450E+01  0.31809673761E+02  0.10566000000E+00 0. -1.
        996    1    1    2    0    0  0.31754491648E+02  0.14335150552E+01  0.74333601918E+02  0.95057283147E+02  0.50000000000E+02 0.  0.
<mgrwt>
<rscale>  0 0.59248652E+02</rscale>
<asrwt>0</asrwt>
<pdfrwt beam="1">  1       13 0.10000000E+01 0.59248652E+02</pdfrwt>
<pdfrwt beam="2">  1       22 0.26866977E+00 0.59248652E+02</pdfrwt>
<totfact> 0.25845765E-01</totfact>
</mgrwt>
</event>
<event>
 4    1  0.2489082E+000  0.5117316E+02  0.7957747E-01  0.1439115E+00
         13   -1    0    0    0    0  0.00000000000E+00  0.00000000000E+00  0.99999944184E+02  0.10000000000E+03  0.10566000000E+00 0. -1.
         22   -1    0    0    0    0 -0.00000000000E+00 -0.00000000000E+00 -0.97078141144E+01  0.97078141144E+01  0.00000000000E+00 0. -1.
         13    1    1    2    0    0 -0.49554946170E+01  0.97023391133E+01  0.19800194001E+02  0.22599804373E+02  0.10566000000E+00 0.  1.
        996    1    1    2    0    0  0.49554946170E+01 -0.97023391133E+01  0.70491936068E+02  0.87108009745E+02  0.50000000000E+02 0.  0.
<mgrwt>
<rscale>  0 0.51173160E+02</rscale>
<asrwt>0</asrwt>
<pdfrwt beam="1">  1       13 0.10000000E+01 0.51173160E+02</pdfrwt>
<pdfrwt beam="2">  1       22 0.97078393E-01 0.51173160E+02</pdfrwt>
<totfact> 0.14684529E+00</totfact>
</mgrwt>
</event>
<event>
 4    1  0.2489082E+000  0.5524777E+02  0.7957747E-01  0.1418931E+00
         13   -1    0    0    0    0  0.00000000000E+00  0.00000000000E+00  0.99999944178E+02  0.99999999998E+02  0.10566000000E+00 0. -1.
         22   -1    0    0    0    0 -0.00000000000E+00 -0.00000000000E+00 -0.18595683620E+02  0.18595683620E+02  0.00000000000E+00 0.  1.
         13    1    1    2    0    0 -0.87288233266E+01 -0.21820264125E+02  0.45400222489E+01  0.23936149423E+02  0.10566000000E+00 0.  1.
        996    1    1    2    0    0  0.87288233266E+01  0.21820264125E+02  0.76864238309E+02  0.94659534195E+02  0.50000000000E+02 0.  0.
<mgrwt>
<rscale>  0 0.55247772E+02</rscale>
<asrwt>0</asrwt>
<pdfrwt beam="1">  1       13 0.10000000E+01 0.55247772E+02</pdfrwt>
<pdfrwt beam="2">  1       22 0.18595706E+00 0.55247772E+02</pdfrwt>
<totfact> 0.52109585E-01</totfact>
</mgrwt>
</event>
<event>
 4    1  0.2489082E+000  0.5279600E+02  0.7957747E-01  0.1430819E+00
         13   -1    0    0    0    0  0.00000000000E+00  0.00000000000E+00  0.99999944176E+02  0.99999999996E+02  0.10566000000E+00 0. -1.
         22   -1    0    0    0    0 -0.00000000000E+00 -0.00000000000E+00 -0.32889839575E+02  0.32889839575E+02  0.00000000000E+00 0. -1.
         13    1    1    2    0    0  0.15680056247E+02  0.64462157727E+01 -0.22927329804E+02  0.28514758945E+02  0.10566000000E+00 0.  1.
        996    1    1    2    0    0 -0.15680056247E+02 -0.64462157727E+01  0.90037434405E+02  0.10437508063E+03  0.50000000000E+02 0.  0.
<mgrwt>
<rscale>  0 0.52796002E+02</rscale>
<asrwt>0</asrwt>
<pdfrwt beam="1">  1       13 0.10000000E+01 0.52796002E+02</pdfrwt>
<pdfrwt beam="2">  1       22 0.32889858E+00 0.52796002E+02</pdfrwt>
<totfact> 0.17537956E-01</totfact>
</mgrwt>
</event>
<event>
 4    1  0.2489082E+000  0.5366803E+02  0.7957747E-01  0.1426505E+00
         13   -1    0    0    0    0  0.00000000000E+00  0.00000000000E+00  0.99999944180E+02  0.10000000000E+03  0.10566000000E+00 0.  1.
         22   -1    0    0    0    0 -0.00000000000E+00 -0.00000000000E+00 -0.13404151548E+02  0.13404151548E+02  0.00000000000E+00 0.  1.
         13    1    1    2    0    0 -0.91840675455E+01 -0.17202043596E+02  0.25051393492E+02  0.31746509737E+02  0.10566000000E+00 0. -1.
        996    1    1    2    0    0  0.91840675455E+01  0.17202043596E+02  0.61544399140E+02  0.81657641811E+02  0.50000000000E+02 0.  0.
<mgrwt>
<rscale>  0 0.53668030E+02</rscale>
<asrwt>0</asrwt>
<pdfrwt beam="1">  1       13 0.10000000E+01 0.53668030E+02</pdfrwt>
<pdfrwt beam="2">  1       22 0.13404176E+00 0.53668030E+02</pdfrwt>
<totfact> 0.90749712E-01</totfact>
</mgrwt>
</event>
<event>
 4    1  0.2489082E+000  0.5368962E+02  0.7957747E-01  0.1426399E+00
         13   -1    0    0    0    0  0.00000000000E+00  0.00000000000E+00  0.99999944175E+02  0.99999999995E+02  0.10566000000E+00 0. -1.
         22   -1    0    0    0    0 -0.00000000000E+00 -0.00000000000E+00 -0.15848716183E+02  0.15848716183E+02  0.00000000000E+00 0.  1.
         13    1    1    2    0    0  0.56346845142E+01 -0.18730341746E+02  0.49699989470E+01  0.20181363311E+02  0.10566000000E+00 0.  1.
        996    1    1    2    0    0 -0.56346845142E+01  0.18730341746E+02  0.79181229046E+02  0.95667352868E+02  0.50000000000E+02 0.  0.
<mgrwt>
<rscale>  0 0.53689621E+02</rscale>
<asrwt>0</asrwt>
<pdfrwt beam="1">  1       13 0.10000000E+01 0.53689621E+02</pdfrwt>
<pdfrwt beam="2">  1       22 0.15848740E+00 0.53689621E+02</pdfrwt>
<totfact> 0.68856245E-01</totfact>
</mgrwt>
</event>
<event>
 4    1  0.2489082E+000  0.5396018E+02  0.7957747E-01  0.1425081E+00
         13   -1    0    0    0    0  0.00000000000E+00  0.00000000000E+00  0.99999944168E+02  0.99999999988E+02  0.10566000000E+00 0. -1.
         22   -1    0    0    0    0 -0.00000000000E+00 -0.00000000000E+00 -0.72443439395E+02  0.72443439395E+02  0.00000000000E+00 0.  1.
         13    1    1    2    0    0 -0.14838518302E+02 -0.13839055205E+02 -0.63464816456E+02  0.66629536740E+02  0.10566000000E+00 0.  1.
        996    1    1    2    0    0  0.14838518302E+02  0.13839055205E+02  0.91021321229E+02  0.10581390264E+03  0.50000000000E+02 0.  0.
<mgrwt>
<rscale>  0 0.53960180E+02</rscale>
<asrwt>0</asrwt>
<pdfrwt beam="1">  1       13 0.10000000E+01 0.53960180E+02</pdfrwt>
<pdfrwt beam="2">  1       22 0.72443447E+00 0.53960180E+02</pdfrwt>
<totfact> 0.61675925E-02</totfact>
</mgrwt>
</event>
<event>
 4    1  0.2489082E+000  0.5187940E+02  0.7957747E-01  0.1435460E+00
         13   -1    0    0    0    0  0.00000000000E+00  0.00000000000E+00  0.99999944176E+02  0.99999999996E+02  0.10566000000E+00 0.  1.
         22   -1    0    0    0    0 -0.00000000000E+00 -0.00000000000E+00 -0.16901358158E+02  0.16901358158E+02  0.00000000000E+00 0. -1.
         13    1    1    2    0    0 -0.86717362211E+01  0.10783005889E+02 -0.49574115400E+01  0.14698956368E+02  0.10566000000E+00 0. -1.
        996    1    1    2    0    0  0.86717362211E+01 -0.10783005889E+02  0.88055997557E+02  0.10220240179E+03  0.50000000000E+02 0.  0.
<mgrwt>
<rscale>  0 0.51879401E+02</rscale>
<asrwt>0</asrwt>
<pdfrwt beam="1">  1       13 0.10000000E+01 0.51879401E+02</pdfrwt>
<pdfrwt beam="2">  1       22 0.16901381E+00 0.51879401E+02</pdfrwt>
<totfact> 0.61406419E-01</totfact>
</mgrwt>
</event>
<event>
 4    1  0.2489082E+000  0.5957812E+02  0.7957747E-01  0.1399611E+00
         13   -1    0    0    0    0  0.00000000000E+00  0.00000000000E+00  0.99999944187E+02  0.10000000001E+03  0.10566000000E+00 0.  1.
         22   -1    0    0    0    0 -0.00000000000E+00 -0.00000000000E+00 -0.21331369738E+02  0.21331369738E+02  0.00000000000E+00 0.  1.
         13    1    1    2    0    0 -0.31490766917E+02  0.76081145501E+01  0.33177682528E+02  0.46371560142E+02  0.10566000000E+00 0. -1.
        996    1    1    2    0    0  0.31490766917E+02 -0.76081145501E+01  0.45490891921E+02  0.74959809604E+02  0.50000000000E+02 0.  0.
<mgrwt>
<rscale>  0 0.59578115E+02</rscale>
<asrwt>0</asrwt>
<pdfrwt beam="1">  1       13 0.10000000E+01 0.59578115E+02</pdfrwt>
<pdfrwt beam="2">  1       22 0.21331392E+00 0.59578115E+02</pdfrwt>
<totfact> 0.40615666E-01</totfact>
</mgrwt>
</event>
<event>
 4    1  0.2489082E+000  0.5165049E+02  0.7957747E-01  0.1436637E+00
         13   -1    0    0    0    0  0.00000000000E+00  0.00000000000E+00  0.99999944175E+02  0.99999999995E+02  0.10566000000E+00 0. -1.
         22   -1    0    0    0    0 -0.00000000000E+00 -0.00000000000E+00 -0.24127036548E+02  0.24127036548E+02  0.00000000000E+00 0.  1.
         13    1    1    2    0    0  0.12294196159E+02  0.40775414387E+01 -0.14866038101E+02  0.19717602700E+02  0.10566000000E+00 0.  1.
        996    1    1    2    0    0 -0.12294196159E+02 -0.40775414387E+01  0.90738945728E+02  0.10440943384E+03  0.50000000000E+02 0.  0.
<mgrwt>
<rscale>  0 0.51650495E+02</rscale>
<asrwt>0</asrwt>
<pdfrwt beam="1">  1       13 0.10000000E+01 0.51650495E+02</pdfrwt>
<pdfrwt beam="2">  1       22 0.24127058E+00 0.51650495E+02</pdfrwt>
<totfact> 0.31593007E-01</totfact>
</mgrwt>
</event>
<event>
 4    1  0.2489082E+000  0.5565413E+02  0.7957747E-01  0.1417031E+00
         13   -1    0    0    0    0  0.00000000000E+00  0.00000000000E+00  0.99999944176E+02  0.99999999996E+02  0.10566000000E+00 0. -1.
         22   -1    0    0    0    0 -0.00000000000E+00 -0.00000000000E+00 -0.18691858782E+02  0.18691858782E+02  0.00000000000E+00 0.  1.
         13    1    1    2    0    0  0.21111746188E+02 -0.12315674500E+02  0.62078562221E+01  0.25217658662E+02  0.10566000000E+00 0.  1.
        996    1    1    2    0    0 -0.21111746188E+02  0.12315674500E+02  0.75100229172E+02  0.93474200115E+02  0.50000000000E+02 0.  0.
<mgrwt>
<rscale>  0 0.55654125E+02</rscale>
<asrwt>0</asrwt>
<pdfrwt beam="1">  1       13 0.10000000E+01 0.55654125E+02</pdfrwt>
<pdfrwt beam="2">  1       22 0.18691881E+00 0.55654125E+02</pdfrwt>
<totfact> 0.51658849E-01</totfact>
</mgrwt>
</event>
<event>
 4    1  0.2489082E+000  0.5734622E+02  0.7957747E-01  0.1409318E+00
         13   -1    0    0    0    0  0.00000000000E+00  0.00000000000E+00  0.99999944180E+02  0.10000000000E+03  0.10566000000E+00 0.  1.
         22   -1    0    0    0    0 -0.00000000000E+00 -0.00000000000E+00 -0.19578324052E+02  0.19578324052E+02  0.00000000000E+00 0.  1.
         13    1    1    2    0    0  0.17742062858E+02 -0.21767121573E+02  0.12649014394E+02  0.30799303648E+02  0.10566000000E+00 0. -1.
        996    1    1    2    0    0 -0.17742062858E+02  0.21767121573E+02  0.67772605734E+02  0.88779020404E+02  0.50000000000E+02 0.  0.
<mgrwt>
<rscale>  0 0.57346215E+02</rscale>
<asrwt>0</asrwt>
<pdfrwt beam="1">  1       13 0.10000000E+01 0.57346215E+02</pdfrwt>
<pdfrwt beam="2">  1       22 0.19578347E+00 0.57346215E+02</pdfrwt>
<totfact> 0.47573638E-01</totfact>
</mgrwt>
</event>
<event>
 4    1  0.2489082E+000  0.5099184E+02  0.7957747E-01  0.1440064E+00
         13   -1    0    0    0    0  0.00000000000E+00  0.00000000000E+00  0.99999944183E+02  0.10000000000E+03  0.10566000000E+00 0.  1.
         22   -1    0    0    0    0 -0.00000000000E+00 -0.00000000000E+00 -0.19529872103E+02  0.19529872103E+02  0.00000000000E+00 0. -1.
         13    1    1    2    0    0 -0.98401041895E+00 -0.99599081199E+01 -0.10959444889E+02  0.14842123924E+02  0.10566000000E+00 0. -1.
        996    1    1    2    0    0  0.98401041895E+00  0.99599081199E+01  0.91429516969E+02  0.10468774818E+03  0.50000000000E+02 0.  0.
<mgrwt>
<rscale>  0 0.50991843E+02</rscale>
<asrwt>0</asrwt>
<pdfrwt beam="1">  1       13 0.10000000E+01 0.50991843E+02</pdfrwt>
<pdfrwt beam="2">  1       22 0.19529895E+00 0.50991843E+02</pdfrwt>
<totfact> 0.47267134E-01</totfact>
</mgrwt>
</event>
<event>
 4    1  0.2489082E+000  0.6260869E+02  0.7957747E-01  0.1387199E+00
         13   -1    0    0    0    0  0.00000000000E+00  0.00000000000E+00  0.99999944190E+02  0.10000000001E+03  0.10566000000E+00 0. -1.
         22   -1    0    0    0    0 -0.00000000000E+00 -0.00000000000E+00 -0.87270100470E+02  0.87270100470E+02  0.00000000000E+00 0.  1.
         13    1    1    2    0    0  0.50333241518E+01 -0.37343184271E+02 -0.72386780844E+02  0.81607015437E+02  0.10566000000E+00 0.  1.
        996    1    1    2    0    0 -0.50333241518E+01  0.37343184271E+02  0.85116624565E+02  0.10566308504E+03  0.50000000000E+02 0.  0.
<mgrwt>
<rscale>  0 0.62608688E+02</rscale>
<asrwt>0</asrwt>
<pdfrwt beam="1">  1       13 0.10000000E+01 0.62608688E+02</pdfrwt>
<pdfrwt beam="2">  1       22 0.87270104E+00 0.62608688E+02</pdfrwt>
<totfact> 0.14747806E-02</totfact>
</mgrwt>
</event>
<event>
 4    1  0.2489082E+000  0.5160858E+02  0.7957747E-01  0.1436854E+00
         13   -1    0    0    0    0  0.00000000000E+00  0.00000000000E+00  0.99999944182E+02  0.10000000000E+03  0.10566000000E+00 0.  1.
         22   -1    0    0    0    0 -0.00000000000E+00 -0.00000000000E+00 -0.11677625660E+02  0.11677625660E+02  0.00000000000E+00 0. -1.
         13    1    1    2    0    0 -0.12678200626E+02 -0.16457315715E+01  0.51261909906E+01  0.13774403857E+02  0.10566000000E+00 0. -1.
        996    1    1    2    0    0  0.12678200626E+02  0.16457315715E+01  0.83196127531E+02  0.97903221804E+02  0.50000000000E+02 0.  0.
<mgrwt>
<rscale>  0 0.51608577E+02</rscale>
<asrwt>0</asrwt>
<pdfrwt beam="1">  1       13 0.10000000E+01 0.51608577E+02</pdfrwt>
<pdfrwt beam="2">  1       22 0.11677650E+00 0.51608577E+02</pdfrwt>
<totfact> 0.11194905E+00</totfact>
</mgrwt>
</event>
<event>
 4    1  0.2489082E+000  0.5128612E+02  0.7957747E-01  0.1438526E+00
         13   -1    0    0    0    0  0.00000000000E+00  0.00000000000E+00  0.99999944182E+02  0.10000000000E+03  0.10566000000E+00 0.  1.
         22   -1    0    0    0    0 -0.00000000000E+00 -0.00000000000E+00 -0.12405221074E+02  0.12405221074E+02  0.00000000000E+00 0.  1.
         13    1    1    2    0    0  0.42302528934E+01  0.10600503227E+02  0.61397458974E+00  0.11430390940E+02  0.10566000000E+00 0. -1.
        996    1    1    2    0    0 -0.42302528934E+01 -0.10600503227E+02  0.86980748518E+02  0.10097483014E+03  0.50000000000E+02 0.  0.
<mgrwt>
<rscale>  0 0.51286116E+02</rscale>
<asrwt>0</asrwt>
<pdfrwt beam="1">  1       13 0.10000000E+01 0.51286116E+02</pdfrwt>
<pdfrwt beam="2">  1       22 0.12405246E+00 0.51286116E+02</pdfrwt>
<totfact> 0.10197057E+00</totfact>
</mgrwt>
</event>
<event>
 4    1  0.2489082E+000  0.5103618E+02  0.7957747E-01  0.1439831E+00
         13   -1    0    0    0    0  0.00000000000E+00  0.00000000000E+00  0.99999944172E+02  0.99999999992E+02  0.10566000000E+00 0. -1.
         22   -1    0    0    0    0 -0.00000000000E+00 -0.00000000000E+00 -0.10585275578E+02  0.10585275578E+02  0.00000000000E+00 0. -1.
         13    1    1    2    0    0  0.92665486639E+01  0.43385653669E+01  0.38044661909E+01  0.10916831070E+02  0.10566000000E+00 0.  1.
        996    1    1    2    0    0 -0.92665486639E+01 -0.43385653669E+01  0.85610202403E+02  0.99668444500E+02  0.50000000000E+02 0.  0.
<mgrwt>
<rscale>  0 0.51036184E+02</rscale>
<asrwt>0</asrwt>
<pdfrwt beam="1">  1       13 0.10000000E+01 0.51036184E+02</pdfrwt>
<pdfrwt beam="2">  1       22 0.10585301E+00 0.51036184E+02</pdfrwt>
<totfact> 0.12944865E+00</totfact>
</mgrwt>
</event>
<event>
 4    1  0.2489082E+000  0.5605709E+02  0.7957747E-01  0.1415165E+00
         13   -1    0    0    0    0  0.00000000000E+00  0.00000000000E+00  0.99999944177E+02  0.99999999997E+02  0.10566000000E+00 0.  1.
         22   -1    0    0    0    0 -0.00000000000E+00 -0.00000000000E+00 -0.44216091725E+02  0.44216091725E+02  0.00000000000E+00 0. -1.
         13    1    1    2    0    0 -0.25112781645E+02  0.34271986316E+01 -0.31531204713E+02  0.40455228675E+02  0.10566000000E+00 0. -1.
        996    1    1    2    0    0  0.25112781645E+02 -0.34271986316E+01  0.87315057166E+02  0.10376086305E+03  0.50000000000E+02 0.  0.
<mgrwt>
<rscale>  0 0.56057091E+02</rscale>
<asrwt>0</asrwt>
<pdfrwt beam="1">  1       13 0.10000000E+01 0.56057091E+02</pdfrwt>
<pdfrwt beam="2">  1       22 0.44216107E+00 0.56057091E+02</pdfrwt>
<totfact> 0.10084567E-01</totfact>
</mgrwt>
</event>
<event>
 4    1  0.2489082E+000  0.5374780E+02  0.7957747E-01  0.1426115E+00
         13   -1    0    0    0    0  0.00000000000E+00  0.00000000000E+00  0.99999944181E+02  0.10000000000E+03  0.10566000000E+00 0.  1.
         22   -1    0    0    0    0 -0.00000000000E+00 -0.00000000000E+00 -0.13602822570E+02  0.13602822570E+02  0.00000000000E+00 0.  1.
         13    1    1    2    0    0  0.35390403685E+01 -0.19398486015E+02  0.18830277955E+02  0.27265667025E+02  0.10566000000E+00 0. -1.
        996    1    1    2    0    0 -0.35390403685E+01  0.19398486015E+02  0.67566843656E+02  0.86337155547E+02  0.50000000000E+02 0.  0.
<mgrwt>
<rscale>  0 0.53747801E+02</rscale>
<asrwt>0</asrwt>
<pdfrwt beam="1">  1       13 0.10000000E+01 0.53747801E+02</pdfrwt>
<pdfrwt beam="2">  1       22 0.13602847E+00 0.53747801E+02</pdfrwt>
<totfact> 0.88654025E-01</totfact>
</mgrwt>
</event>
<event>
 4    1  0.2489082E+000  0.5621698E+02  0.7957747E-01  0.1414430E+00
         13   -1    0    0    0    0  0.00000000000E+00  0.00000000000E+00  0.99999944175E+02  0.99999999995E+02  0.10566000000E+00 0.  1.
         22   -1    0    0    0    0 -0.00000000000E+00 -0.00000000000E+00 -0.23237621975E+02  0.23237621975E+02  0.00000000000E+00 0. -1.
         13    1    1    2    0    0 -0.25696490273E+02  0.19816488981E+00 -0.27662425419E+01  0.25845930889E+02  0.10566000000E+00 0. -1.
        996    1    1    2    0    0  0.25696490273E+02 -0.19816488981E+00  0.79528564742E+02  0.97391691081E+02  0.50000000000E+02 0.  0.
<mgrwt>
<rscale>  0 0.56216980E+02</rscale>
<asrwt>0</asrwt>
<pdfrwt beam="1">  1       13 0.10000000E+01 0.56216980E+02</pdfrwt>
<pdfrwt beam="2">  1       22 0.23237643E+00 0.56216980E+02</pdfrwt>
<totfact> 0.34246630E-01</totfact>
</mgrwt>
</event>
<event>
 4    1  0.2489082E+000  0.5385866E+02  0.7957747E-01  0.1425575E+00
         13   -1    0    0    0    0  0.00000000000E+00  0.00000000000E+00  0.99999944183E+02  0.10000000000E+03  0.10566000000E+00 0. -1.
         22   -1    0    0    0    0 -0.00000000000E+00 -0.00000000000E+00 -0.67002410430E+02  0.67002410430E+02  0.00000000000E+00 0.  1.
         13    1    1    2    0    0  0.17529926151E+02 -0.96673382216E+01 -0.57946290462E+02  0.61306928495E+02  0.10566000000E+00 0.  1.
        996    1    1    2    0    0 -0.17529926151E+02  0.96673382216E+01  0.90943824215E+02  0.10569548194E+03  0.50000000000E+02 0.  0.
<mgrwt>
<rscale>  0 0.53858664E+02</rscale>
<asrwt>0</asrwt>
<pdfrwt beam="1">  1       13 0.10000000E+01 0.53858664E+02</pdfrwt>
<pdfrwt beam="2">  1       22 0.67002420E+00 0.53858664E+02</pdfrwt>
<totfact> 0.86268399E-02</totfact>
</mgrwt>
</event>
<event>
 4    1  0.2489082E+000  0.5134305E+02  0.7957747E-01  0.1438229E+00
         13   -1    0    0    0    0  0.00000000000E+00  0.00000000000E+00  0.99999944175E+02  0.99999999995E+02  0.10566000000E+00 0. -1.
         22   -1    0    0    0    0 -0.00000000000E+00 -0.00000000000E+00 -0.14581404116E+02  0.14581404116E+02  0.00000000000E+00 0.  1.
         13    1    1    2    0    0 -0.41302342227E+01 -0.10910991307E+02 -0.32582406439E+01  0.12113457895E+02  0.10566000000E+00 0.  1.
        996    1    1    2    0    0  0.41302342227E+01  0.10910991307E+02  0.88676780703E+02  0.10246794622E+03  0.50000000000E+02 0.  0.
<mgrwt>
<rscale>  0 0.51343048E+02</rscale>
<asrwt>0</asrwt>
<pdfrwt beam="1">  1       13 0.10000000E+01 0.51343048E+02</pdfrwt>
<pdfrwt beam="2">  1       22 0.14581428E+00 0.51343048E+02</pdfrwt>
<totfact> 0.78797050E-01</totfact>
</mgrwt>
</event>
<event>
 4    1  0.2489082E+000  0.5332294E+02  0.7957747E-01  0.1428200E+00
         13   -1    0    0    0    0  0.00000000000E+00  0.00000000000E+00  0.99999944181E+02  0.10000000000E+03  0.10566000000E+00 0. -1.
         22   -1    0    0    0    0 -0.00000000000E+00 -0.00000000000E+00 -0.33290471542E+02  0.33290471542E+02  0.00000000000E+00 0.  1.
         13    1    1    2    0    0  0.68138898235E+01 -0.17230974335E+02 -0.22629689252E+02  0.29248069522E+02  0.10566000000E+00 0.  1.
        996    1    1    2    0    0 -0.68138898235E+01  0.17230974335E+02  0.89339161891E+02  0.10404240202E+03  0.50000000000E+02 0.  0.
<mgrwt>
<rscale>  0 0.53322937E+02</rscale>
<asrwt>0</asrwt>
<pdfrwt beam="1">  1       13 0.10000000E+01 0.53322937E+02</pdfrwt>
<pdfrwt beam="2">  1       22 0.33290490E+00 0.53322937E+02</pdfrwt>
<totfact> 0.17177408E-01</totfact>
</mgrwt>
</event>
<event>
 4    1  0.2489082E+000  0.5124056E+02  0.7957747E-01  0.1438763E+00
         13   -1    0    0    0    0  0.00000000000E+00  0.00000000000E+00  0.99999944180E+02  0.10000000000E+03  0.10566000000E+00 0.  1.
         22   -1    0    0    0    0 -0.00000000000E+00 -0.00000000000E+00 -0.16182460441E+02  0.16182460441E+02  0.00000000000E+00 0. -1.
         13    1    1    2    0    0 -0.66640171822E+01 -0.90103356574E+01 -0.60477839491E+01  0.12735074731E+02  0.10566000000E+00 0. -1.
        996    1    1    2    0    0  0.66640171822E+01  0.90103356574E+01  0.89865267688E+02  0.10344738571E+03  0.50000000000E+02 0.  0.
<mgrwt>
<rscale>  0 0.51240563E+02</rscale>
<asrwt>0</asrwt>
<pdfrwt beam="1">  1       13 0.10000000E+01 0.51240563E+02</pdfrwt>
<pdfrwt beam="2">  1       22 0.16182484E+00 0.51240563E+02</pdfrwt>
<totfact> 0.66125180E-01</totfact>
</mgrwt>
</event>
<event>
 4    1  0.2489082E+000  0.5329207E+02  0.7957747E-01  0.1428353E+00
         13   -1    0    0    0    0  0.00000000000E+00  0.00000000000E+00  0.99999944173E+02  0.99999999993E+02  0.10566000000E+00 0.  1.
         22   -1    0    0    0    0 -0.00000000000E+00 -0.00000000000E+00 -0.21721545327E+02  0.21721545327E+02  0.00000000000E+00 0. -1.
         13    1    1    2    0    0  0.18436141199E+02  0.39187241460E+00 -0.81679091797E+01  0.20168558965E+02  0.10566000000E+00 0. -1.
        996    1    1    2    0    0 -0.18436141199E+02 -0.39187241460E+00  0.86446308026E+02  0.10155298635E+03  0.50000000000E+02 0.  0.
<mgrwt>
<rscale>  0 0.53292071E+02</rscale>
<asrwt>0</asrwt>
<pdfrwt beam="1">  1       13 0.10000000E+01 0.53292071E+02</pdfrwt>
<pdfrwt beam="2">  1       22 0.21721567E+00 0.53292071E+02</pdfrwt>
<totfact> 0.38842027E-01</totfact>
</mgrwt>
</event>
<event>
 4    1  0.2489082E+000  0.5358932E+02  0.7957747E-01  0.1426890E+00
         13   -1    0    0    0    0  0.00000000000E+00  0.00000000000E+00  0.99999944179E+02  0.99999999999E+02  0.10566000000E+00 0. -1.
         22   -1    0    0    0    0 -0.00000000000E+00 -0.00000000000E+00 -0.17465474807E+02  0.17465474807E+02  0.00000000000E+00 0.  1.
         13    1    1    2    0    0 -0.19049055980E+02 -0.29914963375E+01  0.26872631117E+00  0.19284682054E+02  0.10566000000E+00 0.  1.
        996    1    1    2    0    0  0.19049055980E+02  0.29914963375E+01  0.82265743061E+02  0.98180792752E+02  0.50000000000E+02 0.  0.
<mgrwt>
<rscale>  0 0.53589323E+02</rscale>
<asrwt>0</asrwt>
<pdfrwt beam="1">  1       13 0.10000000E+01 0.53589323E+02</pdfrwt>
<pdfrwt beam="2">  1       22 0.17465498E+00 0.53589323E+02</pdfrwt>
<totfact> 0.58146612E-01</totfact>
</mgrwt>
</event>
<event>
 4    1  0.2489082E+000  0.6631702E+02  0.7957747E-01  0.1373085E+00
         13   -1    0    0    0    0  0.00000000000E+00  0.00000000000E+00  0.99999944176E+02  0.99999999996E+02  0.10566000000E+00 0. -1.
         22   -1    0    0    0    0 -0.00000000000E+00 -0.00000000000E+00 -0.38966285483E+02  0.38966285483E+02  0.00000000000E+00 0.  1.
         13    1    1    2    0    0 -0.30256725766E+02  0.31344502962E+02 -0.68095488481E+01  0.44094539793E+02  0.10566000000E+00 0.  1.
        996    1    1    2    0    0  0.30256725766E+02 -0.31344502962E+02  0.67843207542E+02  0.94871745686E+02  0.50000000000E+02 0.  0.
<mgrwt>
<rscale>  0 0.66317021E+02</rscale>
<asrwt>0</asrwt>
<pdfrwt beam="1">  1       13 0.10000000E+01 0.66317021E+02</pdfrwt>
<pdfrwt beam="2">  1       22 0.38966303E+00 0.66317021E+02</pdfrwt>
<totfact> 0.13124843E-01</totfact>
</mgrwt>
</event>
<event>
 4    1  0.2489082E+000  0.6721886E+02  0.7957747E-01  0.1369814E+00
         13   -1    0    0    0    0  0.00000000000E+00  0.00000000000E+00  0.99999944176E+02  0.99999999996E+02  0.10566000000E+00 0. -1.
         22   -1    0    0    0    0 -0.00000000000E+00 -0.00000000000E+00 -0.63076177770E+02  0.63076177770E+02  0.00000000000E+00 0.  1.
         13    1    1    2    0    0 -0.18801163749E+01 -0.44886976031E+02 -0.40540347427E+02  0.60513687612E+02  0.10566000000E+00 0.  1.
        996    1    1    2    0    0  0.18801163749E+01  0.44886976031E+02  0.77464113833E+02  0.10256249015E+03  0.50000000000E+02 0.  0.
<mgrwt>
<rscale>  0 0.67218862E+02</rscale>
<asrwt>0</asrwt>
<pdfrwt beam="1">  1       13 0.10000000E+01 0.67218862E+02</pdfrwt>
<pdfrwt beam="2">  1       22 0.63076188E+00 0.67218862E+02</pdfrwt>
<totfact> 0.79175301E-02</totfact>
</mgrwt>
</event>
<event>
 4    1  0.2489082E+000  0.5171971E+02  0.7957747E-01  0.1436281E+00
         13   -1    0    0    0    0  0.00000000000E+00  0.00000000000E+00  0.99999944177E+02  0.99999999997E+02  0.10566000000E+00 0. -1.
         22   -1    0    0    0    0 -0.00000000000E+00 -0.00000000000E+00 -0.11707663487E+02  0.11707663487E+02  0.00000000000E+00 0. -1.
         13    1    1    2    0    0 -0.12983386324E+02 -0.25219144515E+01  0.60265849087E+01  0.14534760495E+02  0.10566000000E+00 0.  1.
        996    1    1    2    0    0  0.12983386324E+02  0.25219144515E+01  0.82265695781E+02  0.97172902989E+02  0.50000000000E+02 0.  0.
<mgrwt>
<rscale>  0 0.51719710E+02</rscale>
<asrwt>0</asrwt>
<pdfrwt beam="1">  1       13 0.10000000E+01 0.51719710E+02</pdfrwt>
<pdfrwt beam="2">  1       22 0.11707688E+00 0.51719710E+02</pdfrwt>
<totfact> 0.11154198E+00</totfact>
</mgrwt>
</event>
<event>
 4    1  0.2489082E+000  0.5192994E+02  0.7957747E-01  0.1435201E+00
         13   -1    0    0    0    0  0.00000000000E+00  0.00000000000E+00  0.99999944176E+02  0.99999999997E+02  0.10566000000E+00 0.  1.
         22   -1    0    0    0    0 -0.00000000000E+00 -0.00000000000E+00 -0.12766964683E+02  0.12766964683E+02  0.00000000000E+00 0.  1.
         13    1    1    2    0    0 -0.67541697280E+01 -0.12292278692E+02  0.38661872960E+01  0.14549140607E+02  0.10566000000E+00 0. -1.
        996    1    1    2    0    0  0.67541697280E+01  0.12292278692E+02  0.83366792198E+02  0.98217824072E+02  0.50000000000E+02 0.  0.
<mgrwt>
<rscale>  0 0.51929942E+02</rscale>
<asrwt>0</asrwt>
<pdfrwt beam="1">  1       13 0.10000000E+01 0.51929942E+02</pdfrwt>
<pdfrwt beam="2">  1       22 0.12766989E+00 0.51929942E+02</pdfrwt>
<totfact> 0.97646588E-01</totfact>
</mgrwt>
</event>
<event>
 4    1  0.2489082E+000  0.6637912E+02  0.7957747E-01  0.1372858E+00
         13   -1    0    0    0    0  0.00000000000E+00  0.00000000000E+00  0.99999944179E+02  0.99999999999E+02  0.10566000000E+00 0. -1.
         22   -1    0    0    0    0 -0.00000000000E+00 -0.00000000000E+00 -0.30410541183E+02  0.30410541183E+02  0.00000000000E+00 0.  1.
         13    1    1    2    0    0  0.40263663430E+02  0.16882687059E+02  0.31957830592E+02  0.54106393479E+02  0.10566000000E+00 0.  1.
        996    1    1    2    0    0 -0.40263663430E+02 -0.16882687059E+02  0.37631572404E+02  0.76304147703E+02  0.50000000000E+02 0.  0.
<mgrwt>
<rscale>  0 0.66379121E+02</rscale>
<asrwt>0</asrwt>
<pdfrwt beam="1">  1       13 0.10000000E+01 0.66379121E+02</pdfrwt>
<pdfrwt beam="2">  1       22 0.30410561E+00 0.66379121E+02</pdfrwt>
<totfact> 0.20518602E-01</totfact>
</mgrwt>
</event>
<event>
 4    1  0.2489082E+000  0.5446205E+02  0.7957747E-01  0.1422660E+00
         13   -1    0    0    0    0  0.00000000000E+00  0.00000000000E+00  0.99999944184E+02  0.10000000000E+03  0.10566000000E+00 0.  1.
         22   -1    0    0    0    0 -0.00000000000E+00 -0.00000000000E+00 -0.28595682048E+02  0.28595682048E+02  0.00000000000E+00 0. -1.
         13    1    1    2    0    0  0.16505614376E+02 -0.13916865428E+02 -0.15119990851E+02  0.26357916015E+02  0.10566000000E+00 0. -1.
        996    1    1    2    0    0 -0.16505614376E+02  0.13916865428E+02  0.86524252987E+02  0.10223776604E+03  0.50000000000E+02 0.  0.
<mgrwt>
<rscale>  0 0.54462046E+02</rscale>
<asrwt>0</asrwt>
<pdfrwt beam="1">  1       13 0.10000000E+01 0.54462046E+02</pdfrwt>
<pdfrwt beam="2">  1       22 0.28595702E+00 0.54462046E+02</pdfrwt>
<totfact> 0.22748185E-01</totfact>
</mgrwt>
</event>
<event>
 4    1  0.2489082E+000  0.5144084E+02  0.7957747E-01  0.1437721E+00
         13   -1    0    0    0    0  0.00000000000E+00  0.00000000000E+00  0.99999944178E+02  0.99999999998E+02  0.10566000000E+00 0. -1.
         22   -1    0    0    0    0 -0.00000000000E+00 -0.00000000000E+00 -0.21338711234E+02  0.21338711234E+02  0.00000000000E+00 0.  1.
         13    1    1    2    0    0  0.11480243961E+02  0.37900368527E+01 -0.12041912180E+02  0.17063973562E+02  0.10566000000E+00 0.  1.
        996    1    1    2    0    0 -0.11480243961E+02 -0.37900368527E+01  0.90703145124E+02  0.10427473767E+03  0.50000000000E+02 0.  0.
<mgrwt>
<rscale>  0 0.51440844E+02</rscale>
<asrwt>0</asrwt>
<pdfrwt beam="1">  1       13 0.10000000E+01 0.51440844E+02</pdfrwt>
<pdfrwt beam="2">  1       22 0.21338733E+00 0.51440844E+02</pdfrwt>
<totfact> 0.40057314E-01</totfact>
</mgrwt>
</event>
<event>
 4    1  0.2489082E+000  0.5135478E+02  0.7957747E-01  0.1438168E+00
         13   -1    0    0    0    0  0.00000000000E+00  0.00000000000E+00  0.99999944178E+02  0.99999999998E+02  0.10566000000E+00 0.  1.
         22   -1    0    0    0    0 -0.00000000000E+00 -0.00000000000E+00 -0.10107606499E+02  0.10107606499E+02  0.00000000000E+00 0.  1.
         13    1    1    2    0    0 -0.10352358272E+02  0.54902199850E+01  0.11703960454E+02  0.16562236915E+02  0.10566000000E+00 0. -1.
        996    1    1    2    0    0  0.10352358272E+02 -0.54902199850E+01  0.78188377225E+02  0.93545369583E+02  0.50000000000E+02 0.  0.
<mgrwt>
<rscale>  0 0.51354784E+02</rscale>
<asrwt>0</asrwt>
<pdfrwt beam="1">  1       13 0.10000000E+01 0.51354784E+02</pdfrwt>
<pdfrwt beam="2">  1       22 0.10107632E+00 0.51354784E+02</pdfrwt>
<totfact> 0.13859111E+00</totfact>
</mgrwt>
</event>
<event>
 4    1  0.2489082E+000  0.5192245E+02  0.7957747E-01  0.1435240E+00
         13   -1    0    0    0    0  0.00000000000E+00  0.00000000000E+00  0.99999944170E+02  0.99999999990E+02  0.10566000000E+00 0. -1.
         22   -1    0    0    0    0 -0.00000000000E+00 -0.00000000000E+00 -0.68632919212E+02  0.68632919212E+02  0.00000000000E+00 0.  1.
         13    1    1    2    0    0 -0.79185663009E+01 -0.11542823132E+02 -0.61047094802E+02  0.62631456999E+02  0.10566000000E+00 0.  1.
        996    1    1    2    0    0  0.79185663009E+01  0.11542823132E+02  0.92414119760E+02  0.10600146220E+03  0.50000000000E+02 0.  0.
<mgrwt>
<rscale>  0 0.51922447E+02</rscale>
<asrwt>0</asrwt>
<pdfrwt beam="1">  1       13 0.10000000E+01 0.51922447E+02</pdfrwt>
<pdfrwt beam="2">  1       22 0.68632928E+00 0.51922447E+02</pdfrwt>
<totfact> 0.81043097E-02</totfact>
</mgrwt>
</event>
<event>
 4    1  0.2489082E+000  0.5247935E+02  0.7957747E-01  0.1432410E+00
         13   -1    0    0    0    0  0.00000000000E+00  0.00000000000E+00  0.99999944179E+02  0.99999999999E+02  0.10566000000E+00 0. -1.
         22   -1    0    0    0    0 -0.00000000000E+00 -0.00000000000E+00 -0.14366602239E+02  0.14366602239E+02  0.00000000000E+00 0.  1.
         13    1    1    2    0    0 -0.13269940814E+02  0.88312720450E+01  0.26171843907E+01  0.16153746108E+02  0.10566000000E+00 0.  1.
        996    1    1    2    0    0  0.13269940814E+02 -0.88312720450E+01  0.83016157549E+02  0.98212856131E+02  0.50000000000E+02 0.  0.
<mgrwt>
<rscale>  0 0.52479355E+02</rscale>
<asrwt>0</asrwt>
<pdfrwt beam="1">  1       13 0.10000000E+01 0.52479355E+02</pdfrwt>
<pdfrwt beam="2">  1       22 0.14366626E+00 0.52479355E+02</pdfrwt>
<totfact> 0.80931231E-01</totfact>
</mgrwt>
</event>
<event>
 4    1  0.2489082E+000  0.5417043E+02  0.7957747E-01  0.1424063E+00
         13   -1    0    0    0    0  0.00000000000E+00  0.00000000000E+00  0.99999944183E+02  0.10000000000E+03  0.10566000000E+00 0. -1.
         22   -1    0    0    0    0 -0.00000000000E+00 -0.00000000000E+00 -0.68803634545E+02  0.68803634545E+02  0.00000000000E+00 0.  1.
         13    1    1    2    0    0 -0.14876480558E+02 -0.14598833603E+02 -0.59564537658E+02  0.63106108474E+02  0.10566000000E+00 0.  1.
        996    1    1    2    0    0  0.14876480558E+02  0.14598833603E+02  0.90760847295E+02  0.10569752607E+03  0.50000000000E+02 0.  0.
<mgrwt>
<rscale>  0 0.54170431E+02</rscale>
<asrwt>0</asrwt>
<pdfrwt beam="1">  1       13 0.10000000E+01 0.54170431E+02</pdfrwt>
<pdfrwt beam="2">  1       22 0.68803643E+00 0.54170431E+02</pdfrwt>
<totfact> 0.80316296E-02</totfact>
</mgrwt>
</event>
<event>
 4    1  0.2489082E+000  0.5194446E+02  0.7957747E-01  0.1435127E+00
         13   -1    0    0    0    0  0.00000000000E+00  0.00000000000E+00  0.99999944175E+02  0.99999999995E+02  0.10566000000E+00 0.  1.
         22   -1    0    0    0    0 -0.00000000000E+00 -0.00000000000E+00 -0.18511161770E+02  0.18511161770E+02  0.00000000000E+00 0. -1.
         13    1    1    2    0    0 -0.13764824263E+02  0.29591502463E+01 -0.71364508598E+01  0.15785026198E+02  0.10566000000E+00 0. -1.
        996    1    1    2    0    0  0.13764824263E+02 -0.29591502463E+01  0.88625233265E+02  0.10272613557E+03  0.50000000000E+02 0.  0.
<mgrwt>
<rscale>  0 0.51944460E+02</rscale>
<asrwt>0</asrwt>
<pdfrwt beam="1">  1       13 0.10000000E+01 0.51944460E+02</pdfrwt>
<pdfrwt beam="2">  1       22 0.18511185E+00 0.51944460E+02</pdfrwt>
<totfact> 0.52230340E-01</totfact>
</mgrwt>
</event>
<event>
 4    1  0.2489082E+000  0.5159409E+02  0.7957747E-01  0.1436928E+00
         13   -1    0    0    0    0  0.00000000000E+00  0.00000000000E+00  0.99999944176E+02  0.99999999997E+02  0.10566000000E+00 0.  1.
         22   -1    0    0    0    0 -0.00000000000E+00 -0.00000000000E+00 -0.12272498752E+02  0.12272498752E+02  0.00000000000E+00 0.  1.
         13    1    1    2    0    0  0.10349517824E+02  0.74052614776E+01  0.30047770025E+01  0.13076324622E+02  0.10566000000E+00 0. -1.
        996    1    1    2    0    0 -0.10349517824E+02 -0.74052614776E+01  0.84722668422E+02  0.99196174126E+02  0.50000000000E+02 0.  0.
<mgrwt>
<rscale>  0 0.51594093E+02</rscale>
<asrwt>0</asrwt>
<pdfrwt beam="1">  1       13 0.10000000E+01 0.51594093E+02</pdfrwt>
<pdfrwt beam="2">  1       22 0.12272523E+00 0.51594093E+02</pdfrwt>
<totfact> 0.10375196E+00</totfact>
</mgrwt>
</event>
<event>
 4    1  0.2489082E+000  0.5879629E+02  0.7957747E-01  0.1402954E+00
         13   -1    0    0    0    0  0.00000000000E+00  0.00000000000E+00  0.99999944177E+02  0.99999999998E+02  0.10566000000E+00 0.  1.
         22   -1    0    0    0    0 -0.00000000000E+00 -0.00000000000E+00 -0.45044398279E+02  0.45044398279E+02  0.00000000000E+00 0. -1.
         13    1    1    2    0    0  0.29662604793E+02  0.87825584303E+01 -0.29096339466E+02  0.42468948539E+02  0.10566000000E+00 0. -1.
        996    1    1    2    0    0 -0.29662604793E+02 -0.87825584303E+01  0.84051885364E+02  0.10257544974E+03  0.50000000000E+02 0.  0.
<mgrwt>
<rscale>  0 0.58796288E+02</rscale>
<asrwt>0</asrwt>
<pdfrwt beam="1">  1       13 0.10000000E+01 0.58796288E+02</pdfrwt>
<pdfrwt beam="2">  1       22 0.45044414E+00 0.58796288E+02</pdfrwt>
<totfact> 0.96762361E-02</totfact>
</mgrwt>
</event>
<event>
 4    1  0.2489082E+000  0.5110744E+02  0.7957747E-01  0.1439458E+00
         13   -1    0    0    0    0  0.00000000000E+00  0.00000000000E+00  0.99999944176E+02  0.99999999996E+02  0.10566000000E+00 0.  1.
         22   -1    0    0    0    0 -0.00000000000E+00 -0.00000000000E+00 -0.31652457001E+02  0.31652457001E+02  0.00000000000E+00 0. -1.
         13    1    1    2    0    0  0.42183371222E+01  0.97044339512E+01 -0.23931115077E+02  0.26166387585E+02  0.10566000000E+00 0. -1.
        996    1    1    2    0    0 -0.42183371222E+01 -0.97044339512E+01  0.92278602252E+02  0.10548606941E+03  0.50000000000E+02 0.  0.
<mgrwt>
<rscale>  0 0.51107440E+02</rscale>
<asrwt>0</asrwt>
<pdfrwt beam="1">  1       13 0.10000000E+01 0.51107440E+02</pdfrwt>
<pdfrwt beam="2">  1       22 0.31652476E+00 0.51107440E+02</pdfrwt>
<totfact> 0.18742333E-01</totfact>
</mgrwt>
</event>
<event>
 4    1  0.2489082E+000  0.5248261E+02  0.7957747E-01  0.1432393E+00
         13   -1    0    0    0    0  0.00000000000E+00  0.00000000000E+00  0.99999944181E+02  0.10000000000E+03  0.10566000000E+00 0. -1.
         22   -1    0    0    0    0 -0.00000000000E+00 -0.00000000000E+00 -0.42110389036E+02  0.42110389036E+02  0.00000000000E+00 0.  1.
         13    1    1    2    0    0  0.48489056371E+01 -0.15195794655E+02 -0.33284892480E+02  0.36909609758E+02  0.10566000000E+00 0.  1.
        996    1    1    2    0    0 -0.48489056371E+01  0.15195794655E+02  0.91174447625E+02  0.10520077928E+03  0.50000000000E+02 0.  0.
<mgrwt>
<rscale>  0 0.52482607E+02</rscale>
<asrwt>0</asrwt>
<pdfrwt beam="1">  1       13 0.10000000E+01 0.52482607E+02</pdfrwt>
<pdfrwt beam="2">  1       22 0.42110405E+00 0.52482607E+02</pdfrwt>
<totfact> 0.11178757E-01</totfact>
</mgrwt>
</event>
<event>
 4    1  0.2489082E+000  0.5596041E+02  0.7957747E-01  0.1415611E+00
         13   -1    0    0    0    0  0.00000000000E+00  0.00000000000E+00  0.99999944182E+02  0.10000000000E+03  0.10566000000E+00 0. -1.
         22   -1    0    0    0    0 -0.00000000000E+00 -0.00000000000E+00 -0.16455430713E+02  0.16455430713E+02  0.00000000000E+00 0. -1.
         13    1    1    2    0    0  0.40020545053E+01 -0.24810290516E+02  0.24236380831E+02  0.34913898029E+02  0.10566000000E+00 0.  1.
        996    1    1    2    0    0 -0.40020545053E+01  0.24810290516E+02  0.59308132638E+02  0.81541532686E+02  0.50000000000E+02 0.  0.
<mgrwt>
<rscale>  0 0.55960405E+02</rscale>
<asrwt>0</asrwt>
<pdfrwt beam="1">  1       13 0.10000000E+01 0.55960405E+02</pdfrwt>
<pdfrwt beam="2">  1       22 0.16455454E+00 0.55960405E+02</pdfrwt>
<totfact> 0.64826441E-01</totfact>
</mgrwt>
</event>
<event>
 4    1  0.2489082E+000  0.5149810E+02  0.7957747E-01  0.1437425E+00
         13   -1    0    0    0    0  0.00000000000E+00  0.00000000000E+00  0.99999944183E+02  0.10000000000E+03  0.10566000000E+00 0. -1.
         22   -1    0    0    0    0 -0.00000000000E+00 -0.00000000000E+00 -0.16794779441E+02  0.16794779441E+02  0.00000000000E+00 0.  1.
         13    1    1    2    0    0  0.67835914136E+01 -0.10297435917E+02 -0.60598242908E+01  0.13739975743E+02  0.10566000000E+00 0.  1.
        996    1    1    2    0    0 -0.67835914136E+01  0.10297435917E+02  0.89264989033E+02  0.10305480370E+03  0.50000000000E+02 0.  0.
<mgrwt>
<rscale>  0 0.51498100E+02</rscale>
<asrwt>0</asrwt>
<pdfrwt beam="1">  1       13 0.10000000E+01 0.51498100E+02</pdfrwt>
<pdfrwt beam="2">  1       22 0.16794803E+00 0.51498100E+02</pdfrwt>
<totfact> 0.62041930E-01</totfact>
</mgrwt>
</event>
<event>
 4    1  0.2489082E+000  0.5480530E+02  0.7957747E-01  0.1421022E+00
         13   -1    0    0    0    0  0.00000000000E+00  0.00000000000E+00  0.99999944178E+02  0.99999999998E+02  0.10566000000E+00 0. -1.
         22   -1    0    0    0    0 -0.00000000000E+00 -0.00000000000E+00 -0.30937565894E+02  0.30937565894E+02  0.00000000000E+00 0.  1.
         13    1    1    2    0    0 -0.89340730985E+01  0.20586470205E+02 -0.17517746357E+02  0.28469334715E+02  0.10566000000E+00 0.  1.
        996    1    1    2    0    0  0.89340730985E+01 -0.20586470205E+02  0.86580124642E+02  0.10246823118E+03  0.50000000000E+02 0.  0.
<mgrwt>
<rscale>  0 0.54805296E+02</rscale>
<asrwt>0</asrwt>
<pdfrwt beam="1">  1       13 0.10000000E+01 0.54805296E+02</pdfrwt>
<pdfrwt beam="2">  1       22 0.30937585E+00 0.54805296E+02</pdfrwt>
<totfact> 0.19625868E-01</totfact>
</mgrwt>
</event>
<event>
 4    1  0.2489082E+000  0.5331389E+02  0.7957747E-01  0.1428245E+00
         13   -1    0    0    0    0  0.00000000000E+00  0.00000000000E+00  0.99999944181E+02  0.10000000000E+03  0.10566000000E+00 0. -1.
         22   -1    0    0    0    0 -0.00000000000E+00 -0.00000000000E+00 -0.49287534007E+02  0.49287534007E+02  0.00000000000E+00 0.  1.
         13    1    1    2    0    0 -0.27430812900E+01  0.18298820928E+02 -0.39997575902E+02  0.44070268713E+02  0.10566000000E+00 0.  1.
        996    1    1    2    0    0  0.27430812900E+01 -0.18298820928E+02  0.90709986076E+02  0.10521726530E+03  0.50000000000E+02 0.  0.
<mgrwt>
<rscale>  0 0.53313894E+02</rscale>
<asrwt>0</asrwt>
<pdfrwt beam="1">  1       13 0.10000000E+01 0.53313894E+02</pdfrwt>
<pdfrwt beam="2">  1       22 0.49287548E+00 0.53313894E+02</pdfrwt>
<totfact> 0.76625548E-02</totfact>
</mgrwt>
</event>
<event>
 4    1  0.2489082E+000  0.5255540E+02  0.7957747E-01  0.1432026E+00
         13   -1    0    0    0    0  0.00000000000E+00  0.00000000000E+00  0.99999944176E+02  0.99999999996E+02  0.10566000000E+00 0.  1.
         22   -1    0    0    0    0 -0.00000000000E+00 -0.00000000000E+00 -0.12900828214E+02  0.12900828214E+02  0.00000000000E+00 0. -1.
         13    1    1    2    0    0  0.15287886848E+02  0.53245123312E+01  0.83242620795E+01  0.18203692456E+02  0.10566000000E+00 0. -1.
        996    1    1    2    0    0 -0.15287886848E+02 -0.53245123312E+01  0.78774853882E+02  0.94697135754E+02  0.50000000000E+02 0.  0.
<mgrwt>
<rscale>  0 0.52555399E+02</rscale>
<asrwt>0</asrwt>
<pdfrwt beam="1">  1       13 0.10000000E+01 0.52555399E+02</pdfrwt>
<pdfrwt beam="2">  1       22 0.12900853E+00 0.52555399E+02</pdfrwt>
<totfact> 0.96192410E-01</totfact>
</mgrwt>
</event>
<event>
 4    1  0.2489082E+000  0.5109025E+02  0.7957747E-01  0.1439548E+00
         13   -1    0    0    0    0  0.00000000000E+00  0.00000000000E+00  0.99999944186E+02  0.10000000001E+03  0.10566000000E+00 0.  1.
         22   -1    0    0    0    0 -0.00000000000E+00 -0.00000000000E+00 -0.10254760125E+02  0.10254760125E+02  0.00000000000E+00 0.  1.
         13    1    1    2    0    0 -0.91647782304E+01 -0.51205701594E+01  0.29222144334E+02  0.31050898253E+02  0.10566000000E+00 0. -1.
        996    1    1    2    0    0  0.91647782304E+01  0.51205701594E+01  0.60523039726E+02  0.79203861878E+02  0.50000000000E+02 0.  0.
<mgrwt>
<rscale>  0 0.51090248E+02</rscale>
<asrwt>0</asrwt>
<pdfrwt beam="1">  1       13 0.10000000E+01 0.51090248E+02</pdfrwt>
<pdfrwt beam="2">  1       22 0.10254785E+00 0.51090248E+02</pdfrwt>
<totfact> 0.13562023E+00</totfact>
</mgrwt>
</event>
<event>
 4    1  0.2489082E+000  0.5445837E+02  0.7957747E-01  0.1422678E+00
         13   -1    0    0    0    0  0.00000000000E+00  0.00000000000E+00  0.99999944167E+02  0.99999999988E+02  0.10566000000E+00 0. -1.
         22   -1    0    0    0    0 -0.00000000000E+00 -0.00000000000E+00 -0.77095475094E+02  0.77095475094E+02  0.00000000000E+00 0.  1.
         13    1    1    2    0    0  0.43177453141E+01  0.21144058489E+02 -0.67881045089E+02  0.71228937801E+02  0.10566000000E+00 0.  1.
        996    1    1    2    0    0 -0.43177453141E+01 -0.21144058489E+02  0.90785514162E+02  0.10586653728E+03  0.50000000000E+02 0.  0.
<mgrwt>
<rscale>  0 0.54458371E+02</rscale>
<asrwt>0</asrwt>
<pdfrwt beam="1">  1       13 0.10000000E+01 0.54458371E+02</pdfrwt>
<pdfrwt beam="2">  1       22 0.77095482E+00 0.54458371E+02</pdfrwt>
<totfact> 0.40359724E-02</totfact>
</mgrwt>
</event>
<event>
 4    1  0.2489082E+000  0.6443280E+02  0.7957747E-01  0.1380118E+00
         13   -1    0    0    0    0  0.00000000000E+00  0.00000000000E+00  0.99999944184E+02  0.10000000000E+03  0.10566000000E+00 0.  1.
         22   -1    0    0    0    0 -0.00000000000E+00 -0.00000000000E+00 -0.61409150647E+02  0.61409150647E+02  0.00000000000E+00 0. -1.
         13    1    1    2    0    0  0.34532009748E+02 -0.21427233791E+02 -0.41856118652E+02  0.58339796690E+02  0.10566000000E+00 0. -1.
        996    1    1    2    0    0 -0.34532009748E+02  0.21427233791E+02  0.80446912190E+02  0.10306935396E+03  0.50000000000E+02 0.  0.
<mgrwt>
<rscale>  0 0.64432803E+02</rscale>
<asrwt>0</asrwt>
<pdfrwt beam="1">  1       13 0.10000000E+01 0.64432803E+02</pdfrwt>
<pdfrwt beam="2">  1       22 0.61409161E+00 0.64432803E+02</pdfrwt>
<totfact> 0.69589455E-02</totfact>
</mgrwt>
</event>
<event>
 4    1  0.2489082E+000  0.5206762E+02  0.7957747E-01  0.1434498E+00
         13   -1    0    0    0    0  0.00000000000E+00  0.00000000000E+00  0.99999944181E+02  0.10000000000E+03  0.10566000000E+00 0.  1.
         22   -1    0    0    0    0 -0.00000000000E+00 -0.00000000000E+00 -0.18563287375E+02  0.18563287375E+02  0.00000000000E+00 0. -1.
         13    1    1    2    0    0 -0.69217973428E+01  0.12772054931E+02 -0.68539967232E+01  0.16063159737E+02  0.10566000000E+00 0. -1.
        996    1    1    2    0    0  0.69217973428E+01 -0.12772054931E+02  0.88290653529E+02  0.10250012764E+03  0.50000000000E+02 0.  0.
<mgrwt>
<rscale>  0 0.52067616E+02</rscale>
<asrwt>0</asrwt>
<pdfrwt beam="1">  1       13 0.10000000E+01 0.52067616E+02</pdfrwt>
<pdfrwt beam="2">  1       22 0.18563310E+00 0.52067616E+02</pdfrwt>
<totfact> 0.51976581E-01</totfact>
</mgrwt>
</event>
<event>
 4    1  0.2489082E+000  0.5206019E+02  0.7957747E-01  0.1434536E+00
         13   -1    0    0    0    0  0.00000000000E+00  0.00000000000E+00  0.99999944179E+02  0.99999999999E+02  0.10566000000E+00 0. -1.
         22   -1    0    0    0    0 -0.00000000000E+00 -0.00000000000E+00 -0.11189216338E+02  0.11189216338E+02  0.00000000000E+00 0. -1.
         13    1    1    2    0    0 -0.11264771653E+02  0.91306020636E+01  0.24231714502E+02  0.28239159446E+02  0.10566000000E+00 0.  1.
        996    1    1    2    0    0  0.11264771653E+02 -0.91306020636E+01  0.64579013339E+02  0.82950056891E+02  0.50000000000E+02 0.  0.
<mgrwt>
<rscale>  0 0.52060186E+02</rscale>
<asrwt>0</asrwt>
<pdfrwt beam="1">  1       13 0.10000000E+01 0.52060186E+02</pdfrwt>
<pdfrwt beam="2">  1       22 0.11189241E+00 0.52060186E+02</pdfrwt>
<totfact> 0.11950972E+00</totfact>
</mgrwt>
</event>
<event>
 4    1  0.2489082E+000  0.5207215E+02  0.7957747E-01  0.1434475E+00
         13   -1    0    0    0    0  0.00000000000E+00  0.00000000000E+00  0.99999944173E+02  0.99999999993E+02  0.10566000000E+00 0. -1.
         22   -1    0    0    0    0 -0.00000000000E+00 -0.00000000000E+00 -0.24120522576E+02  0.24120522576E+02  0.00000000000E+00 0. -1.
         13    1    1    2    0    0 -0.18203797954E+01  0.14428962454E+02 -0.14038058910E+02  0.20213535121E+02  0.10566000000E+00 0.  1.
        996    1    1    2    0    0  0.18203797954E+01 -0.14428962454E+02  0.89917480506E+02  0.10390698745E+03  0.50000000000E+02 0.  0.
<mgrwt>
<rscale>  0 0.52072149E+02</rscale>
<asrwt>0</asrwt>
<pdfrwt beam="1">  1       13 0.10000000E+01 0.52072149E+02</pdfrwt>
<pdfrwt beam="2">  1       22 0.24120544E+00 0.52072149E+02</pdfrwt>
<totfact> 0.31631266E-01</totfact>
</mgrwt>
</event>
<event>
 4    1  0.2489082E+000  0.5099470E+02  0.7957747E-01  0.1440049E+00
         13   -1    0    0    0    0  0.00000000000E+00  0.00000000000E+00  0.99999944180E+02  0.10000000000E+03  0.10566000000E+00 0. -1.
         22   -1    0    0    0    0 -0.00000000000E+00 -0.00000000000E+00 -0.27366487518E+02  0.27366487518E+02  0.00000000000E+00 0.  1.
         13    1    1    2    0    0  0.48272292481E+01 -0.87839379863E+01 -0.19577438074E+02  0.21994248210E+02  0.10566000000E+00 0.  1.
        996    1    1    2    0    0 -0.48272292481E+01  0.87839379863E+01  0.92210894736E+02  0.10537223931E+03  0.50000000000E+02 0.  0.
<mgrwt>
<rscale>  0 0.50994703E+02</rscale>
<asrwt>0</asrwt>
<pdfrwt beam="1">  1       13 0.10000000E+01 0.50994703E+02</pdfrwt>
<pdfrwt beam="2">  1       22 0.27366508E+00 0.50994703E+02</pdfrwt>
<totfact> 0.24647677E-01</totfact>
</mgrwt>
</event>
<event>
 4    1  0.2489082E+000  0.5402914E+02  0.7957747E-01  0.1424747E+00
         13   -1    0    0    0    0  0.00000000000E+00  0.00000000000E+00  0.99999944183E+02  0.10000000000E+03  0.10566000000E+00 0. -1.
         22   -1    0    0    0    0 -0.00000000000E+00 -0.00000000000E+00 -0.16343165597E+02  0.16343165597E+02  0.00000000000E+00 0. -1.
         13    1    1    2    0    0 -0.13285927816E+02  0.15576665450E+02  0.52712866108E+01  0.21141097678E+02  0.10566000000E+00 0.  1.
        996    1    1    2    0    0  0.13285927816E+02 -0.15576665450E+02  0.78385491975E+02  0.95202067922E+02  0.50000000000E+02 0.  0.
<mgrwt>
<rscale>  0 0.54029144E+02</rscale>
<asrwt>0</asrwt>
<pdfrwt beam="1">  1       13 0.10000000E+01 0.54029144E+02</pdfrwt>
<pdfrwt beam="2">  1       22 0.16343189E+00 0.54029144E+02</pdfrwt>
<totfact> 0.65364277E-01</totfact>
</mgrwt>
</event>
<event>
 4    1  0.2489082E+000  0.5895639E+02  0.7957747E-01  0.1402264E+00
         13   -1    0    0    0    0  0.00000000000E+00  0.00000000000E+00  0.99999944172E+02  0.99999999992E+02  0.10566000000E+00 0. -1.
         22   -1    0    0    0    0 -0.00000000000E+00 -0.00000000000E+00 -0.23000823807E+02  0.23000823807E+02  0.00000000000E+00 0.  1.
         13    1    1    2    0    0 -0.28863267392E+01  0.31105062136E+02  0.80050781454E+01  0.32248228055E+02  0.10566000000E+00 0.  1.
        996    1    1    2    0    0  0.28863267392E+01 -0.31105062136E+02  0.68994042220E+02  0.90752595745E+02  0.50000000000E+02 0.  0.
<mgrwt>
<rscale>  0 0.58956389E+02</rscale>
<asrwt>0</asrwt>
<pdfrwt beam="1">  1       13 0.10000000E+01 0.58956389E+02</pdfrwt>
<pdfrwt beam="2">  1       22 0.23000845E+00 0.58956389E+02</pdfrwt>
<totfact> 0.35080265E-01</totfact>
</mgrwt>
</event>
<event>
 4    1  0.2489082E+000  0.5547041E+02  0.7957747E-01  0.1417887E+00
         13   -1    0    0    0    0  0.00000000000E+00  0.00000000000E+00  0.99999944183E+02  0.10000000000E+03  0.10566000000E+00 0.  1.
         22   -1    0    0    0    0 -0.00000000000E+00 -0.00000000000E+00 -0.25861653838E+02  0.25861653838E+02  0.00000000000E+00 0. -1.
         13    1    1    2    0    0  0.10917451317E+02  0.21395697222E+02 -0.92240201537E+01  0.25730532733E+02  0.10566000000E+00 0. -1.
        996    1    1    2    0    0 -0.10917451317E+02 -0.21395697222E+02  0.83362310498E+02  0.10013112111E+03  0.50000000000E+02 0.  0.
<mgrwt>
<rscale>  0 0.55470412E+02</rscale>
<asrwt>0</asrwt>
<pdfrwt beam="1">  1       13 0.10000000E+01 0.55470412E+02</pdfrwt>
<pdfrwt beam="2">  1       22 0.25861675E+00 0.55470412E+02</pdfrwt>
<totfact> 0.27719532E-01</totfact>
</mgrwt>
</event>
<event>
 4    1  0.2489082E+000  0.5320859E+02  0.7957747E-01  0.1428766E+00
         13   -1    0    0    0    0  0.00000000000E+00  0.00000000000E+00  0.99999944176E+02  0.99999999996E+02  0.10566000000E+00 0. -1.
         22   -1    0    0    0    0 -0.00000000000E+00 -0.00000000000E+00 -0.17650998504E+02  0.17650998504E+02  0.00000000000E+00 0. -1.
         13    1    1    2    0    0  0.10963857992E+02  0.14524060649E+02  0.54781564969E+02  0.57725085919E+02  0.10566000000E+00 0.  1.
        996    1    1    2    0    0 -0.10963857992E+02 -0.14524060649E+02  0.27567380703E+02  0.59925912581E+02  0.50000000000E+02 0.  0.
<mgrwt>
<rscale>  0 0.53208594E+02</rscale>
<asrwt>0</asrwt>
<pdfrwt beam="1">  1       13 0.10000000E+01 0.53208594E+02</pdfrwt>
<pdfrwt beam="2">  1       22 0.17651021E+00 0.53208594E+02</pdfrwt>
<totfact> 0.57025076E-01</totfact>
</mgrwt>
</event>
<event>
 4    1  0.2489082E+000  0.6083775E+02  0.7957747E-01  0.1394349E+00
         13   -1    0    0    0    0  0.00000000000E+00  0.00000000000E+00  0.99999944178E+02  0.99999999998E+02  0.10566000000E+00 0. -1.
         22   -1    0    0    0    0 -0.00000000000E+00 -0.00000000000E+00 -0.22901710990E+02  0.22901710990E+02  0.00000000000E+00 0.  1.
         13    1    1    2    0    0  0.22046102403E+02 -0.26743248994E+02  0.24071128777E+02  0.42197895712E+02  0.10566000000E+00 0.  1.
        996    1    1    2    0    0 -0.22046102403E+02  0.26743248994E+02  0.53027104411E+02  0.80703815276E+02  0.50000000000E+02 0.  0.
<mgrwt>
<rscale>  0 0.60837751E+02</rscale>
<asrwt>0</asrwt>
<pdfrwt beam="1">  1       13 0.10000000E+01 0.60837751E+02</pdfrwt>
<pdfrwt beam="2">  1       22 0.22901733E+00 0.60837751E+02</pdfrwt>
<totfact> 0.35472118E-01</totfact>
</mgrwt>
</event>
<event>
 4    1  0.2489082E+000  0.5399940E+02  0.7957747E-01  0.1424891E+00
         13   -1    0    0    0    0  0.00000000000E+00  0.00000000000E+00  0.99999944183E+02  0.10000000000E+03  0.10566000000E+00 0.  1.
         22   -1    0    0    0    0 -0.00000000000E+00 -0.00000000000E+00 -0.20640456326E+02  0.20640456326E+02  0.00000000000E+00 0. -1.
         13    1    1    2    0    0  0.19397748140E+02 -0.62978221375E+01 -0.45129967680E+01  0.20888118643E+02  0.10566000000E+00 0. -1.
        996    1    1    2    0    0 -0.19397748140E+02  0.62978221375E+01  0.83872484626E+02  0.99752337686E+02  0.50000000000E+02 0.  0.
<mgrwt>
<rscale>  0 0.53999400E+02</rscale>
<asrwt>0</asrwt>
<pdfrwt beam="1">  1       13 0.10000000E+01 0.53999400E+02</pdfrwt>
<pdfrwt beam="2">  1       22 0.20640478E+00 0.53999400E+02</pdfrwt>
<totfact> 0.42854973E-01</totfact>
</mgrwt>
</event>
<event>
 4    1  0.2489082E+000  0.5120220E+02  0.7957747E-01  0.1438963E+00
         13   -1    0    0    0    0  0.00000000000E+00  0.00000000000E+00  0.99999944180E+02  0.10000000000E+03  0.10566000000E+00 0. -1.
         22   -1    0    0    0    0 -0.00000000000E+00 -0.00000000000E+00 -0.10089517005E+02  0.10089517005E+02  0.00000000000E+00 0. -1.
         13    1    1    2    0    0 -0.86729225437E+01  0.68151441146E+01  0.85410456078E+01  0.13950856564E+02  0.10566000000E+00 0.  1.
        996    1    1    2    0    0  0.86729225437E+01 -0.68151441146E+01  0.81369381567E+02  0.96138660441E+02  0.50000000000E+02 0.  0.
<mgrwt>
<rscale>  0 0.51202205E+02</rscale>
<asrwt>0</asrwt>
<pdfrwt beam="1">  1       13 0.10000000E+01 0.51202205E+02</pdfrwt>
<pdfrwt beam="2">  1       22 0.10089542E+00 0.51202205E+02</pdfrwt>
<totfact> 0.13890066E+00</totfact>
</mgrwt>
</event>
<event>
 4    1  0.2489082E+000  0.5370373E+02  0.7957747E-01  0.1426330E+00
         13   -1    0    0    0    0  0.00000000000E+00  0.00000000000E+00  0.99999944177E+02  0.99999999997E+02  0.10566000000E+00 0.  1.
         22   -1    0    0    0    0 -0.00000000000E+00 -0.00000000000E+00 -0.26721591254E+02  0.26721591254E+02  0.00000000000E+00 0. -1.
         13    1    1    2    0    0 -0.19133155912E+02  0.42441465306E+01 -0.14110811149E+02  0.24149877645E+02  0.10566000000E+00 0. -1.
        996    1    1    2    0    0  0.19133155912E+02 -0.42441465306E+01  0.87389164072E+02  0.10257171361E+03  0.50000000000E+02 0.  0.
<mgrwt>
<rscale>  0 0.53703728E+02</rscale>
<asrwt>0</asrwt>
<pdfrwt beam="1">  1       13 0.10000000E+01 0.53703728E+02</pdfrwt>
<pdfrwt beam="2">  1       22 0.26721612E+00 0.53703728E+02</pdfrwt>
<totfact> 0.25926310E-01</totfact>
</mgrwt>
</event>
<event>
 4    1  0.2489082E+000  0.5145253E+02  0.7957747E-01  0.1437661E+00
         13   -1    0    0    0    0  0.00000000000E+00  0.00000000000E+00  0.99999944180E+02  0.10000000000E+03  0.10566000000E+00 0. -1.
         22   -1    0    0    0    0 -0.00000000000E+00 -0.00000000000E+00 -0.10140969711E+02  0.10140969711E+02  0.00000000000E+00 0. -1.
         13    1    1    2    0    0 -0.10319758055E+02  0.63925991881E+01  0.14841813539E+02  0.19174288093E+02  0.10566000000E+00 0.  1.
        996    1    1    2    0    0  0.10319758055E+02 -0.63925991881E+01  0.75017160929E+02  0.90966681618E+02  0.50000000000E+02 0.  0.
<mgrwt>
<rscale>  0 0.51452529E+02</rscale>
<asrwt>0</asrwt>
<pdfrwt beam="1">  1       13 0.10000000E+01 0.51452529E+02</pdfrwt>
<pdfrwt beam="2">  1       22 0.10140995E+00 0.51452529E+02</pdfrwt>
<totfact> 0.13796166E+00</totfact>
</mgrwt>
</event>
<event>
 4    1  0.2489082E+000  0.5310851E+02  0.7957747E-01  0.1429262E+00
         13   -1    0    0    0    0  0.00000000000E+00  0.00000000000E+00  0.99999944178E+02  0.99999999998E+02  0.10566000000E+00 0.  1.
         22   -1    0    0    0    0 -0.00000000000E+00 -0.00000000000E+00 -0.15757772083E+02  0.15757772083E+02  0.00000000000E+00 0. -1.
         13    1    1    2    0    0  0.11957576534E+02  0.13324042874E+02  0.22160788874E+01  0.18039842703E+02  0.10566000000E+00 0. -1.
        996    1    1    2    0    0 -0.11957576534E+02 -0.13324042874E+02  0.82026093207E+02  0.97717929378E+02  0.50000000000E+02 0.  0.
<mgrwt>
<rscale>  0 0.53108509E+02</rscale>
<asrwt>0</asrwt>
<pdfrwt beam="1">  1       13 0.10000000E+01 0.53108509E+02</pdfrwt>
<pdfrwt beam="2">  1       22 0.15757796E+00 0.53108509E+02</pdfrwt>
<totfact> 0.69455590E-01</totfact>
</mgrwt>
</event>
<event>
 4    1  0.2489082E+000  0.5122117E+02  0.7957747E-01  0.1438864E+00
         13   -1    0    0    0    0  0.00000000000E+00  0.00000000000E+00  0.99999944182E+02  0.10000000000E+03  0.10566000000E+00 0. -1.
         22   -1    0    0    0    0 -0.00000000000E+00 -0.00000000000E+00 -0.26547321358E+02  0.26547321358E+02  0.00000000000E+00 0. -1.
         13    1    1    2    0    0 -0.11425824524E+01 -0.11059060548E+02 -0.18330579652E+02  0.21438974539E+02  0.10566000000E+00 0.  1.
        996    1    1    2    0    0  0.11425824524E+01  0.11059060548E+02  0.91783202476E+02  0.10510834682E+03  0.50000000000E+02 0.  0.
<mgrwt>
<rscale>  0 0.51221171E+02</rscale>
<asrwt>0</asrwt>
<pdfrwt beam="1">  1       13 0.10000000E+01 0.51221171E+02</pdfrwt>
<pdfrwt beam="2">  1       22 0.26547342E+00 0.51221171E+02</pdfrwt>
<totfact> 0.26164816E-01</totfact>
</mgrwt>
</event>
<event>
 4    1  0.2489082E+000  0.5183471E+02  0.7957747E-01  0.1435690E+00
         13   -1    0    0    0    0  0.00000000000E+00  0.00000000000E+00  0.99999944182E+02  0.10000000000E+03  0.10566000000E+00 0. -1.
         22   -1    0    0    0    0 -0.00000000000E+00 -0.00000000000E+00 -0.13676752516E+02  0.13676752516E+02  0.00000000000E+00 0. -1.
         13    1    1    2    0    0 -0.95318427173E+01 -0.97970207515E+01  0.82660643264E+00  0.13694235408E+02  0.10566000000E+00 0.  1.
        996    1    1    2    0    0  0.95318427173E+01  0.97970207515E+01  0.85496585233E+02  0.99982517110E+02  0.50000000000E+02 0.  0.
<mgrwt>
<rscale>  0 0.51834715E+02</rscale>
<asrwt>0</asrwt>
<pdfrwt beam="1">  1       13 0.10000000E+01 0.51834715E+02</pdfrwt>
<pdfrwt beam="2">  1       22 0.13676777E+00 0.51834715E+02</pdfrwt>
<totfact> 0.87535608E-01</totfact>
</mgrwt>
</event>
<event>
 4    1  0.2489082E+000  0.5223874E+02  0.7957747E-01  0.1433627E+00
         13   -1    0    0    0    0  0.00000000000E+00  0.00000000000E+00  0.99999944180E+02  0.10000000000E+03  0.10566000000E+00 0.  1.
         22   -1    0    0    0    0 -0.00000000000E+00 -0.00000000000E+00 -0.70507231967E+02  0.70507231967E+02  0.00000000000E+00 0. -1.
         13    1    1    2    0    0 -0.13225235585E+02  0.73470235807E+01 -0.62723701921E+02  0.64522550775E+02  0.10566000000E+00 0. -1.
        996    1    1    2    0    0  0.13225235585E+02 -0.73470235807E+01  0.92216414134E+02  0.10598468119E+03  0.50000000000E+02 0.  0.
<mgrwt>
<rscale>  0 0.52238737E+02</rscale>
<asrwt>0</asrwt>
<pdfrwt beam="1">  1       13 0.10000000E+01 0.52238737E+02</pdfrwt>
<pdfrwt beam="2">  1       22 0.70507240E+00 0.52238737E+02</pdfrwt>
<totfact> 0.72016413E-02</totfact>
</mgrwt>
</event>
<event>
 4    1  0.2489082E+000  0.5281969E+02  0.7957747E-01  0.1430700E+00
         13   -1    0    0    0    0  0.00000000000E+00  0.00000000000E+00  0.99999944178E+02  0.99999999999E+02  0.10566000000E+00 0.  1.
         22   -1    0    0    0    0 -0.00000000000E+00 -0.00000000000E+00 -0.45917301016E+02  0.45917301016E+02  0.00000000000E+00 0. -1.
         13    1    1    2    0    0 -0.50196851714E+01 -0.16270294845E+02 -0.36942143737E+02  0.40677424715E+02  0.10566000000E+00 0. -1.
        996    1    1    2    0    0  0.50196851714E+01  0.16270294845E+02  0.91024786899E+02  0.10523987630E+03  0.50000000000E+02 0.  0.
<mgrwt>
<rscale>  0 0.52819691E+02</rscale>
<asrwt>0</asrwt>
<pdfrwt beam="1">  1       13 0.10000000E+01 0.52819691E+02</pdfrwt>
<pdfrwt beam="2">  1       22 0.45917316E+00 0.52819691E+02</pdfrwt>
<totfact> 0.92116581E-02</totfact>
</mgrwt>
</event>
<event>
 4    1  0.2489082E+000  0.6146407E+02  0.7957747E-01  0.1391788E+00
         13   -1    0    0    0    0  0.00000000000E+00  0.00000000000E+00  0.99999944177E+02  0.99999999997E+02  0.10566000000E+00 0.  1.
         22   -1    0    0    0    0 -0.00000000000E+00 -0.00000000000E+00 -0.25442391345E+02  0.25442391345E+02  0.00000000000E+00 0. -1.
         13    1    1    2    0    0  0.16700978428E+02  0.31605517333E+02  0.11911379370E+02  0.37679218793E+02  0.10566000000E+00 0. -1.
        996    1    1    2    0    0 -0.16700978428E+02 -0.31605517333E+02  0.62646173462E+02  0.87763172548E+02  0.50000000000E+02 0.  0.
<mgrwt>
<rscale>  0 0.61464066E+02</rscale>
<asrwt>0</asrwt>
<pdfrwt beam="1">  1       13 0.10000000E+01 0.61464066E+02</pdfrwt>
<pdfrwt beam="2">  1       22 0.25442412E+00 0.61464066E+02</pdfrwt>
<totfact> 0.28862966E-01</totfact>
</mgrwt>
</event>
<event>
 4    1  0.2489082E+000  0.5648927E+02  0.7957747E-01  0.1413184E+00
         13   -1    0    0    0    0  0.00000000000E+00  0.00000000000E+00  0.99999944172E+02  0.99999999992E+02  0.10566000000E+00 0. -1.
         22   -1    0    0    0    0 -0.00000000000E+00 -0.00000000000E+00 -0.20148950437E+02  0.20148950437E+02  0.00000000000E+00 0.  1.
         13    1    1    2    0    0  0.11555417012E+02 -0.23611647793E+02  0.56430737129E+01  0.26886669909E+02  0.10566000000E+00 0.  1.
        996    1    1    2    0    0 -0.11555417012E+02  0.23611647793E+02  0.74207920022E+02  0.93262280520E+02  0.50000000000E+02 0.  0.
<mgrwt>
<rscale>  0 0.56489270E+02</rscale>
<asrwt>0</asrwt>
<pdfrwt beam="1">  1       13 0.10000000E+01 0.56489270E+02</pdfrwt>
<pdfrwt beam="2">  1       22 0.20148973E+00 0.56489270E+02</pdfrwt>
<totfact> 0.45028648E-01</totfact>
</mgrwt>
</event>
<event>
 4    1  0.2489082E+000  0.5299730E+02  0.7957747E-01  0.1429814E+00
         13   -1    0    0    0    0  0.00000000000E+00  0.00000000000E+00  0.99999944176E+02  0.99999999996E+02  0.10566000000E+00 0.  1.
         22   -1    0    0    0    0 -0.00000000000E+00 -0.00000000000E+00 -0.36896375136E+02  0.36896375136E+02  0.00000000000E+00 0. -1.
         13    1    1    2    0    0 -0.16482065778E+02  0.60873058002E+01 -0.27087374136E+02  0.32287006455E+02  0.10566000000E+00 0. -1.
        996    1    1    2    0    0  0.16482065778E+02 -0.60873058002E+01  0.90190943175E+02  0.10460936868E+03  0.50000000000E+02 0.  0.
<mgrwt>
<rscale>  0 0.52997300E+02</rscale>
<asrwt>0</asrwt>
<pdfrwt beam="1">  1       13 0.10000000E+01 0.52997300E+02</pdfrwt>
<pdfrwt beam="2">  1       22 0.36896393E+00 0.52997300E+02</pdfrwt>
<totfact> 0.14340681E-01</totfact>
</mgrwt>
</event>
<event>
 4    1  0.2489082E+000  0.5221888E+02  0.7957747E-01  0.1433728E+00
         13   -1    0    0    0    0  0.00000000000E+00  0.00000000000E+00  0.99999944175E+02  0.99999999995E+02  0.10566000000E+00 0. -1.
         22   -1    0    0    0    0 -0.00000000000E+00 -0.00000000000E+00 -0.11848473858E+02  0.11848473858E+02  0.00000000000E+00 0. -1.
         13    1    1    2    0    0  0.14557531206E+02  0.38586626839E+01  0.10848816303E+02  0.18561222258E+02  0.10566000000E+00 0.  1.
        996    1    1    2    0    0 -0.14557531206E+02 -0.38586626839E+01  0.77302654014E+02  0.93287251595E+02  0.50000000000E+02 0.  0.
<mgrwt>
<rscale>  0 0.52218876E+02</rscale>
<asrwt>0</asrwt>
<pdfrwt beam="1">  1       13 0.10000000E+01 0.52218876E+02</pdfrwt>
<pdfrwt beam="2">  1       22 0.11848498E+00 0.52218876E+02</pdfrwt>
<totfact> 0.10965611E+00</totfact>
</mgrwt>
</event>
<event>
 4    1  0.2489082E+000  0.5291251E+02  0.7957747E-01  0.1430237E+00
         13   -1    0    0    0    0  0.00000000000E+00  0.00000000000E+00  0.99999944183E+02  0.10000000000E+03  0.10566000000E+00 0.  1.
         22   -1    0    0    0    0 -0.00000000000E+00 -0.00000000000E+00 -0.17782127713E+02  0.17782127713E+02  0.00000000000E+00 0. -1.
         13    1    1    2    0    0 -0.14327755568E+02  0.97184815141E+01 -0.29041035872E+01  0.17555011941E+02  0.10566000000E+00 0. -1.
        996    1    1    2    0    0  0.14327755568E+02 -0.97184815141E+01  0.85121920057E+02  0.10022711578E+03  0.50000000000E+02 0.  0.
<mgrwt>
<rscale>  0 0.52912508E+02</rscale>
<asrwt>0</asrwt>
<pdfrwt beam="1">  1       13 0.10000000E+01 0.52912508E+02</pdfrwt>
<pdfrwt beam="2">  1       22 0.17782151E+00 0.52912508E+02</pdfrwt>
<totfact> 0.56246663E-01</totfact>
</mgrwt>
</event>
<event>
 4    1  0.2489082E+000  0.5223568E+02  0.7957747E-01  0.1433643E+00
         13   -1    0    0    0    0  0.00000000000E+00  0.00000000000E+00  0.99999944185E+02  0.10000000001E+03  0.10566000000E+00 0.  1.
         22   -1    0    0    0    0 -0.00000000000E+00 -0.00000000000E+00 -0.19996356020E+02  0.19996356020E+02  0.00000000000E+00 0. -1.
         13    1    1    2    0    0 -0.12014746309E+02  0.91767016201E+01 -0.84133340267E+01  0.17302061582E+02  0.10566000000E+00 0. -1.
        996    1    1    2    0    0  0.12014746309E+02 -0.91767016201E+01  0.88416922192E+02  0.10269429444E+03  0.50000000000E+02 0.  0.
<mgrwt>
<rscale>  0 0.52235677E+02</rscale>
<asrwt>0</asrwt>
<pdfrwt beam="1">  1       13 0.10000000E+01 0.52235677E+02</pdfrwt>
<pdfrwt beam="2">  1       22 0.19996378E+00 0.52235677E+02</pdfrwt>
<totfact> 0.45342424E-01</totfact>
</mgrwt>
</event>
<event>
 4    1  0.2489082E+000  0.5508421E+02  0.7957747E-01  0.1419701E+00
         13   -1    0    0    0    0  0.00000000000E+00  0.00000000000E+00  0.99999944178E+02  0.99999999999E+02  0.10566000000E+00 0. -1.
         22   -1    0    0    0    0 -0.00000000000E+00 -0.00000000000E+00 -0.41820175791E+02  0.41820175791E+02  0.00000000000E+00 0.  1.
         13    1    1    2    0    0 -0.12618025795E+02 -0.19366360925E+02 -0.29986216823E+02  0.37860994095E+02  0.10566000000E+00 0.  1.
        996    1    1    2    0    0  0.12618025795E+02  0.19366360925E+02  0.88165985211E+02  0.10395918169E+03  0.50000000000E+02 0.  0.
<mgrwt>
<rscale>  0 0.55084213E+02</rscale>
<asrwt>0</asrwt>
<pdfrwt beam="1">  1       13 0.10000000E+01 0.55084213E+02</pdfrwt>
<pdfrwt beam="2">  1       22 0.41820192E+00 0.55084213E+02</pdfrwt>
<totfact> 0.11358258E-01</totfact>
</mgrwt>
</event>
<event>
 4    1  0.2489082E+000  0.5183328E+02  0.7957747E-01  0.1435697E+00
         13   -1    0    0    0    0  0.00000000000E+00  0.00000000000E+00  0.99999944175E+02  0.99999999995E+02  0.10566000000E+00 0. -1.
         22   -1    0    0    0    0 -0.00000000000E+00 -0.00000000000E+00 -0.35057137032E+02  0.35057137032E+02  0.00000000000E+00 0.  1.
         13    1    1    2    0    0 -0.13536130934E+02  0.18607544895E+01 -0.26573976883E+02  0.29881041805E+02  0.10566000000E+00 0.  1.
        996    1    1    2    0    0  0.13536130934E+02 -0.18607544895E+01  0.91516784026E+02  0.10517609522E+03  0.50000000000E+02 0.  0.
<mgrwt>
<rscale>  0 0.51833283E+02</rscale>
<asrwt>0</asrwt>
<pdfrwt beam="1">  1       13 0.10000000E+01 0.51833283E+02</pdfrwt>
<pdfrwt beam="2">  1       22 0.35057155E+00 0.51833283E+02</pdfrwt>
<totfact> 0.15667013E-01</totfact>
</mgrwt>
</event>
<event>
 4    1  0.2489082E+000  0.8324019E+02  0.7957747E-01  0.1320100E+00
         13   -1    0    0    0    0  0.00000000000E+00  0.00000000000E+00  0.99999944172E+02  0.99999999992E+02  0.10566000000E+00 0.  1.
         22   -1    0    0    0    0 -0.00000000000E+00 -0.00000000000E+00 -0.56284578896E+02  0.56284578896E+02  0.00000000000E+00 0. -1.
         13    1    1    2    0    0  0.65366597484E+02 -0.12495472682E+02  0.23961805859E+02  0.70732653055E+02  0.10566000000E+00 0. -1.
        996    1    1    2    0    0 -0.65366597484E+02  0.12495472682E+02  0.19753559417E+02  0.85551925833E+02  0.50000000000E+02 0.  0.
<mgrwt>
<rscale>  0 0.83240188E+02</rscale>
<asrwt>0</asrwt>
<pdfrwt beam="1">  1       13 0.10000000E+01 0.83240188E+02</pdfrwt>
<pdfrwt beam="2">  1       22 0.56284591E+00 0.83240188E+02</pdfrwt>
<totfact> 0.58584972E-02</totfact>
</mgrwt>
</event>
<event>
 4    1  0.2489082E+000  0.5333707E+02  0.7957747E-01  0.1428131E+00
         13   -1    0    0    0    0  0.00000000000E+00  0.00000000000E+00  0.99999944182E+02  0.10000000000E+03  0.10566000000E+00 0.  1.
         22   -1    0    0    0    0 -0.00000000000E+00 -0.00000000000E+00 -0.19923523082E+02  0.19923523082E+02  0.00000000000E+00 0. -1.
         13    1    1    2    0    0  0.18399670223E+02  0.25089564549E+01 -0.52501611711E+01  0.19298136779E+02  0.10566000000E+00 0. -1.
        996    1    1    2    0    0 -0.18399670223E+02 -0.25089564549E+01  0.85326582271E+02  0.10062538630E+03  0.50000000000E+02 0.  0.
<mgrwt>
<rscale>  0 0.53337067E+02</rscale>
<asrwt>0</asrwt>
<pdfrwt beam="1">  1       13 0.10000000E+01 0.53337067E+02</pdfrwt>
<pdfrwt beam="2">  1       22 0.19923545E+00 0.53337067E+02</pdfrwt>
<totfact> 0.45741056E-01</totfact>
</mgrwt>
</event>
<event>
 4    1  0.2489082E+000  0.5158994E+02  0.7957747E-01  0.1436950E+00
         13   -1    0    0    0    0  0.00000000000E+00  0.00000000000E+00  0.99999944179E+02  0.99999999999E+02  0.10566000000E+00 0. -1.
         22   -1    0    0    0    0 -0.00000000000E+00 -0.00000000000E+00 -0.12485865815E+02  0.12485865815E+02  0.00000000000E+00 0.  1.
         13    1    1    2    0    0 -0.63341967100E+01 -0.11018173673E+02  0.23655102372E+01  0.12927838248E+02  0.10566000000E+00 0.  1.
        996    1    1    2    0    0  0.63341967100E+01  0.11018173673E+02  0.85148568126E+02  0.99558027567E+02  0.50000000000E+02 0.  0.
<mgrwt>
<rscale>  0 0.51589943E+02</rscale>
<asrwt>0</asrwt>
<pdfrwt beam="1">  1       13 0.10000000E+01 0.51589943E+02</pdfrwt>
<pdfrwt beam="2">  1       22 0.12485890E+00 0.51589943E+02</pdfrwt>
<totfact> 0.10101942E+00</totfact>
</mgrwt>
</event>
<event>
 4    1  0.2489082E+000  0.5312161E+02  0.7957747E-01  0.1429197E+00
         13   -1    0    0    0    0  0.00000000000E+00  0.00000000000E+00  0.99999944181E+02  0.10000000000E+03  0.10566000000E+00 0. -1.
         22   -1    0    0    0    0 -0.00000000000E+00 -0.00000000000E+00 -0.13850458857E+02  0.13850458857E+02  0.00000000000E+00 0. -1.
         13    1    1    2    0    0  0.14700792922E+02 -0.10285544003E+02  0.87160506345E+01  0.19947090782E+02  0.10566000000E+00 0.  1.
        996    1    1    2    0    0 -0.14700792922E+02  0.10285544003E+02  0.77433434690E+02  0.93903368075E+02  0.50000000000E+02 0.  0.
<mgrwt>
<rscale>  0 0.53121613E+02</rscale>
<asrwt>0</asrwt>
<pdfrwt beam="1">  1       13 0.10000000E+01 0.53121613E+02</pdfrwt>
<pdfrwt beam="2">  1       22 0.13850483E+00 0.53121613E+02</pdfrwt>
<totfact> 0.86006095E-01</totfact>
</mgrwt>
</event>
<event>
 4    1  0.2489082E+000  0.5210234E+02  0.7957747E-01  0.1434321E+00
         13   -1    0    0    0    0  0.00000000000E+00  0.00000000000E+00  0.99999944176E+02  0.99999999996E+02  0.10566000000E+00 0.  1.
         22   -1    0    0    0    0 -0.00000000000E+00 -0.00000000000E+00 -0.13041320468E+02  0.13041320468E+02  0.00000000000E+00 0. -1.
         13    1    1    2    0    0 -0.27106205380E+01  0.14398135593E+02  0.41896949012E+01  0.15238716470E+02  0.10566000000E+00 0. -1.
        996    1    1    2    0    0  0.27106205380E+01 -0.14398135593E+02  0.82768928807E+02  0.97802603994E+02  0.50000000000E+02 0.  0.
<mgrwt>
<rscale>  0 0.52102339E+02</rscale>
<asrwt>0</asrwt>
<pdfrwt beam="1">  1       13 0.10000000E+01 0.52102339E+02</pdfrwt>
<pdfrwt beam="2">  1       22 0.13041345E+00 0.52102339E+02</pdfrwt>
<totfact> 0.94473658E-01</totfact>
</mgrwt>
</event>
<event>
 4    1  0.2489082E+000  0.5729798E+02  0.7957747E-01  0.1409534E+00
         13   -1    0    0    0    0  0.00000000000E+00  0.00000000000E+00  0.99999944175E+02  0.99999999995E+02  0.10566000000E+00 0.  1.
         22   -1    0    0    0    0 -0.00000000000E+00 -0.00000000000E+00 -0.24062724861E+02  0.24062724861E+02  0.00000000000E+00 0. -1.
         13    1    1    2    0    0  0.41014706323E+01  0.27680978404E+02 -0.11574242621E+01  0.28007310147E+02  0.10566000000E+00 0. -1.
        996    1    1    2    0    0 -0.41014706323E+01 -0.27680978404E+02  0.77094643576E+02  0.96055414708E+02  0.50000000000E+02 0.  0.
<mgrwt>
<rscale>  0 0.57297981E+02</rscale>
<asrwt>0</asrwt>
<pdfrwt beam="1">  1       13 0.10000000E+01 0.57297981E+02</pdfrwt>
<pdfrwt beam="2">  1       22 0.24062746E+00 0.57297981E+02</pdfrwt>
<totfact> 0.32035386E-01</totfact>
</mgrwt>
</event>
<event>
 4    1  0.2489082E+000  0.5257601E+02  0.7957747E-01  0.1431923E+00
         13   -1    0    0    0    0  0.00000000000E+00  0.00000000000E+00  0.99999944173E+02  0.99999999994E+02  0.10566000000E+00 0. -1.
         22   -1    0    0    0    0 -0.00000000000E+00 -0.00000000000E+00 -0.20447551964E+02  0.20447551964E+02  0.00000000000E+00 0.  1.
         13    1    1    2    0    0 -0.14446610046E+02  0.74520039592E+01 -0.81567990022E+01  0.18187397803E+02  0.10566000000E+00 0.  1.
        996    1    1    2    0    0  0.14446610046E+02 -0.74520039592E+01  0.87709191211E+02  0.10226015416E+03  0.50000000000E+02 0.  0.
<mgrwt>
<rscale>  0 0.52576011E+02</rscale>
<asrwt>0</asrwt>
<pdfrwt beam="1">  1       13 0.10000000E+01 0.52576011E+02</pdfrwt>
<pdfrwt beam="2">  1       22 0.20447574E+00 0.52576011E+02</pdfrwt>
<totfact> 0.43512799E-01</totfact>
</mgrwt>
</event>
<event>
 4    1  0.2489082E+000  0.5240846E+02  0.7957747E-01  0.1432768E+00
         13   -1    0    0    0    0  0.00000000000E+00  0.00000000000E+00  0.99999944179E+02  0.99999999999E+02  0.10566000000E+00 0. -1.
         22   -1    0    0    0    0 -0.00000000000E+00 -0.00000000000E+00 -0.20371071237E+02  0.20371071237E+02  0.00000000000E+00 0. -1.
         13    1    1    2    0    0 -0.14668594965E+02  0.56106574993E+01 -0.84838672529E+01  0.17850331185E+02  0.10566000000E+00 0.  1.
        996    1    1    2    0    0  0.14668594965E+02 -0.56106574993E+01  0.88112740195E+02  0.10252074005E+03  0.50000000000E+02 0.  0.
<mgrwt>
<rscale>  0 0.52408465E+02</rscale>
<asrwt>0</asrwt>
<pdfrwt beam="1">  1       13 0.10000000E+01 0.52408465E+02</pdfrwt>
<pdfrwt beam="2">  1       22 0.20371093E+00 0.52408465E+02</pdfrwt>
<totfact> 0.43807346E-01</totfact>
</mgrwt>
</event>
<event>
 4    1  0.2489082E+000  0.6091311E+02  0.7957747E-01  0.1394039E+00
         13   -1    0    0    0    0  0.00000000000E+00  0.00000000000E+00  0.99999944173E+02  0.99999999993E+02  0.10566000000E+00 0. -1.
         22   -1    0    0    0    0 -0.00000000000E+00 -0.00000000000E+00 -0.38495980808E+02  0.38495980808E+02  0.00000000000E+00 0. -1.
         13    1    1    2    0    0  0.33702781549E+02  0.86330308511E+01 -0.17331902957E+02  0.38869174547E+02  0.10566000000E+00 0.  1.
        996    1    1    2    0    0 -0.33702781549E+02 -0.86330308511E+01  0.78835866322E+02  0.99626806254E+02  0.50000000000E+02 0.  0.
<mgrwt>
<rscale>  0 0.60913108E+02</rscale>
<asrwt>0</asrwt>
<pdfrwt beam="1">  1       13 0.10000000E+01 0.60913108E+02</pdfrwt>
<pdfrwt beam="2">  1       22 0.38495998E+00 0.60913108E+02</pdfrwt>
<totfact> 0.13373030E-01</totfact>
</mgrwt>
</event>
<event>
 4    1  0.2489082E+000  0.5470723E+02  0.7957747E-01  0.1421489E+00
         13   -1    0    0    0    0  0.00000000000E+00  0.00000000000E+00  0.99999944179E+02  0.99999999999E+02  0.10566000000E+00 0. -1.
         22   -1    0    0    0    0 -0.00000000000E+00 -0.00000000000E+00 -0.14878985269E+02  0.14878985269E+02  0.00000000000E+00 0.  1.
         13    1    1    2    0    0 -0.11687224568E+02 -0.18875644769E+02  0.20592249498E+02  0.30280903008E+02  0.10566000000E+00 0.  1.
        996    1    1    2    0    0  0.11687224568E+02  0.18875644769E+02  0.64528709412E+02  0.84598082259E+02  0.50000000000E+02 0.  0.
<mgrwt>
<rscale>  0 0.54707232E+02</rscale>
<asrwt>0</asrwt>
<pdfrwt beam="1">  1       13 0.10000000E+01 0.54707232E+02</pdfrwt>
<pdfrwt beam="2">  1       22 0.14879009E+00 0.54707232E+02</pdfrwt>
<totfact> 0.76726340E-01</totfact>
</mgrwt>
</event>
<event>
 4    1  0.2489082E+000  0.5325141E+02  0.7957747E-01  0.1428554E+00
         13   -1    0    0    0    0  0.00000000000E+00  0.00000000000E+00  0.99999944169E+02  0.99999999989E+02  0.10566000000E+00 0. -1.
         22   -1    0    0    0    0 -0.00000000000E+00 -0.00000000000E+00 -0.25095106490E+02  0.25095106490E+02  0.00000000000E+00 0.  1.
         13    1    1    2    0    0  0.17994686517E+02  0.34502496283E+01 -0.12897166930E+02  0.22406718729E+02  0.10566000000E+00 0.  1.
        996    1    1    2    0    0 -0.17994686517E+02 -0.34502496283E+01  0.87802004610E+02  0.10268838775E+03  0.50000000000E+02 0.  0.
<mgrwt>
<rscale>  0 0.53251413E+02</rscale>
<asrwt>0</asrwt>
<pdfrwt beam="1">  1       13 0.10000000E+01 0.53251413E+02</pdfrwt>
<pdfrwt beam="2">  1       22 0.25095127E+00 0.53251413E+02</pdfrwt>
<totfact> 0.29316587E-01</totfact>
</mgrwt>
</event>
<event>
 4    1  0.2489082E+000  0.5375003E+02  0.7957747E-01  0.1426104E+00
         13   -1    0    0    0    0  0.00000000000E+00  0.00000000000E+00  0.99999944170E+02  0.99999999990E+02  0.10566000000E+00 0.  1.
         22   -1    0    0    0    0 -0.00000000000E+00 -0.00000000000E+00 -0.17524640411E+02  0.17524640411E+02  0.00000000000E+00 0.  1.
         13    1    1    2    0    0  0.92393984721E+01 -0.17426959704E+02  0.78924259090E+00  0.19740807393E+02  0.10566000000E+00 0. -1.
        996    1    1    2    0    0 -0.92393984721E+01  0.17426959704E+02  0.81686061168E+02  0.97783833008E+02  0.50000000000E+02 0.  0.
<mgrwt>
<rscale>  0 0.53750027E+02</rscale>
<asrwt>0</asrwt>
<pdfrwt beam="1">  1       13 0.10000000E+01 0.53750027E+02</pdfrwt>
<pdfrwt beam="2">  1       22 0.17524663E+00 0.53750027E+02</pdfrwt>
<totfact> 0.57815973E-01</totfact>
</mgrwt>
</event>
<event>
 4    1  0.2489082E+000  0.5104260E+02  0.7957747E-01  0.1439798E+00
         13   -1    0    0    0    0  0.00000000000E+00  0.00000000000E+00  0.99999944178E+02  0.99999999998E+02  0.10566000000E+00 0. -1.
         22   -1    0    0    0    0 -0.00000000000E+00 -0.00000000000E+00 -0.10258920165E+02  0.10258920165E+02  0.00000000000E+00 0. -1.
         13    1    1    2    0    0  0.65035888188E+01 -0.79404320342E+01  0.52060247919E+01  0.11509169674E+02  0.10566000000E+00 0.  1.
        996    1    1    2    0    0 -0.65035888188E+01  0.79404320342E+01  0.84534999221E+02  0.98749750489E+02  0.50000000000E+02 0.  0.
<mgrwt>
<rscale>  0 0.51042601E+02</rscale>
<asrwt>0</asrwt>
<pdfrwt beam="1">  1       13 0.10000000E+01 0.51042601E+02</pdfrwt>
<pdfrwt beam="2">  1       22 0.10258945E+00 0.51042601E+02</pdfrwt>
<totfact> 0.13552445E+00</totfact>
</mgrwt>
</event>
<event>
 4    1  0.2489082E+000  0.5314983E+02  0.7957747E-01  0.1429057E+00
         13   -1    0    0    0    0  0.00000000000E+00  0.00000000000E+00  0.99999944174E+02  0.99999999995E+02  0.10566000000E+00 0.  1.
         22   -1    0    0    0    0 -0.00000000000E+00 -0.00000000000E+00 -0.12855067623E+02  0.12855067623E+02  0.00000000000E+00 0. -1.
         13    1    1    2    0    0 -0.17987883347E+02  0.11576732749E+01  0.16402508651E+02  0.24371245532E+02  0.10566000000E+00 0. -1.
        996    1    1    2    0    0  0.17987883347E+02 -0.11576732749E+01  0.70742367901E+02  0.88483822086E+02  0.50000000000E+02 0.  0.
<mgrwt>
<rscale>  0 0.53149827E+02</rscale>
<asrwt>0</asrwt>
<pdfrwt beam="1">  1       13 0.10000000E+01 0.53149827E+02</pdfrwt>
<pdfrwt beam="2">  1       22 0.12855092E+00 0.53149827E+02</pdfrwt>
<totfact> 0.96853727E-01</totfact>
</mgrwt>
</event>
<event>
 4    1  0.2489082E+000  0.5367634E+02  0.7957747E-01  0.1426464E+00
         13   -1    0    0    0    0  0.00000000000E+00  0.00000000000E+00  0.99999944179E+02  0.99999999999E+02  0.10566000000E+00 0.  1.
         22   -1    0    0    0    0 -0.00000000000E+00 -0.00000000000E+00 -0.15697405061E+02  0.15697405061E+02  0.00000000000E+00 0.  1.
         13    1    1    2    0    0 -0.19522647198E+02  0.12374039432E+00  0.53791383080E+01  0.20250811299E+02  0.10566000000E+00 0. -1.
        996    1    1    2    0    0  0.19522647198E+02 -0.12374039432E+00  0.78923400809E+02  0.95446593761E+02  0.50000000000E+02 0.  0.
<mgrwt>
<rscale>  0 0.53676336E+02</rscale>
<asrwt>0</asrwt>
<pdfrwt beam="1">  1       13 0.10000000E+01 0.53676336E+02</pdfrwt>
<pdfrwt beam="2">  1       22 0.15697429E+00 0.53676336E+02</pdfrwt>
<totfact> 0.69987293E-01</totfact>
</mgrwt>
</event>
<event>
 4    1  0.2489082E+000  0.5321531E+02  0.7957747E-01  0.1428732E+00
         13   -1    0    0    0    0  0.00000000000E+00  0.00000000000E+00  0.99999944176E+02  0.99999999996E+02  0.10566000000E+00 0. -1.
         22   -1    0    0    0    0 -0.00000000000E+00 -0.00000000000E+00 -0.30919318341E+02  0.30919318341E+02  0.00000000000E+00 0. -1.
         13    1    1    2    0    0  0.75347900092E+01  0.16586036848E+02 -0.20063045270E+02  0.27099937792E+02  0.10566000000E+00 0.  1.
        996    1    1    2    0    0 -0.75347900092E+01 -0.16586036848E+02  0.89143671104E+02  0.10381938054E+03  0.50000000000E+02 0.  0.
<mgrwt>
<rscale>  0 0.53215314E+02</rscale>
<asrwt>0</asrwt>
<pdfrwt beam="1">  1       13 0.10000000E+01 0.53215314E+02</pdfrwt>
<pdfrwt beam="2">  1       22 0.30919338E+00 0.53215314E+02</pdfrwt>
<totfact> 0.19609111E-01</totfact>
</mgrwt>
</event>
<event>
 4    1  0.2489082E+000  0.5667877E+02  0.7957747E-01  0.1412323E+00
         13   -1    0    0    0    0  0.00000000000E+00  0.00000000000E+00  0.99999944170E+02  0.99999999990E+02  0.10566000000E+00 0.  1.
         22   -1    0    0    0    0 -0.00000000000E+00 -0.00000000000E+00 -0.17659685209E+02  0.17659685209E+02  0.00000000000E+00 0. -1.
         13    1    1    2    0    0  0.16028415075E+02 -0.21344162386E+02  0.19645481152E+02  0.33142713400E+02  0.10566000000E+00 0. -1.
        996    1    1    2    0    0 -0.16028415075E+02  0.21344162386E+02  0.62694777808E+02  0.84516971800E+02  0.50000000000E+02 0.  0.
<mgrwt>
<rscale>  0 0.56678773E+02</rscale>
<asrwt>0</asrwt>
<pdfrwt beam="1">  1       13 0.10000000E+01 0.56678773E+02</pdfrwt>
<pdfrwt beam="2">  1       22 0.17659708E+00 0.56678773E+02</pdfrwt>
<totfact> 0.57331110E-01</totfact>
</mgrwt>
</event>
<event>
 4    1  0.2489082E+000  0.5269033E+02  0.7957747E-01  0.1431348E+00
         13   -1    0    0    0    0  0.00000000000E+00  0.00000000000E+00  0.99999944180E+02  0.10000000000E+03  0.10566000000E+00 0.  1.
         22   -1    0    0    0    0 -0.00000000000E+00 -0.00000000000E+00 -0.23277057026E+02  0.23277057026E+02  0.00000000000E+00 0. -1.
         13    1    1    2    0    0  0.10962803543E+02  0.12493527417E+02 -0.11713233208E+02  0.20334263819E+02  0.10566000000E+00 0. -1.
        996    1    1    2    0    0 -0.10962803543E+02 -0.12493527417E+02  0.88436120362E+02  0.10294279321E+03  0.50000000000E+02 0.  0.
<mgrwt>
<rscale>  0 0.52690334E+02</rscale>
<asrwt>0</asrwt>
<pdfrwt beam="1">  1       13 0.10000000E+01 0.52690334E+02</pdfrwt>
<pdfrwt beam="2">  1       22 0.23277078E+00 0.52690334E+02</pdfrwt>
<totfact> 0.33945014E-01</totfact>
</mgrwt>
</event>
<event>
 4    1  0.2489082E+000  0.6729382E+02  0.7957747E-01  0.1369545E+00
         13   -1    0    0    0    0  0.00000000000E+00  0.00000000000E+00  0.99999944174E+02  0.99999999995E+02  0.10566000000E+00 0. -1.
         22   -1    0    0    0    0 -0.00000000000E+00 -0.00000000000E+00 -0.31555318447E+02  0.31555318447E+02  0.00000000000E+00 0. -1.
         13    1    1    2    0    0  0.32266378058E+02 -0.31421956973E+02  0.26358836093E+02  0.52184843942E+02  0.10566000000E+00 0.  1.
        996    1    1    2    0    0 -0.32266378058E+02  0.31421956973E+02  0.42085789635E+02  0.79370474499E+02  0.50000000000E+02 0.  0.
<mgrwt>
<rscale>  0 0.67293822E+02</rscale>
<asrwt>0</asrwt>
<pdfrwt beam="1">  1       13 0.10000000E+01 0.67293822E+02</pdfrwt>
<pdfrwt beam="2">  1       22 0.31555338E+00 0.67293822E+02</pdfrwt>
<totfact> 0.19179345E-01</totfact>
</mgrwt>
</event>
<event>
 4    1  0.2489082E+000  0.5135429E+02  0.7957747E-01  0.1438171E+00
         13   -1    0    0    0    0  0.00000000000E+00  0.00000000000E+00  0.99999944178E+02  0.99999999998E+02  0.10566000000E+00 0.  1.
         22   -1    0    0    0    0 -0.00000000000E+00 -0.00000000000E+00 -0.11179545614E+02  0.11179545614E+02  0.00000000000E+00 0.  1.
         13    1    1    2    0    0 -0.50493014108E+01  0.10572034816E+02  0.47031913271E+01  0.12625154953E+02  0.10566000000E+00 0. -1.
        996    1    1    2    0    0  0.50493014108E+01 -0.10572034816E+02  0.84117207237E+02  0.98554390659E+02  0.50000000000E+02 0.  0.
<mgrwt>
<rscale>  0 0.51354293E+02</rscale>
<asrwt>0</asrwt>
<pdfrwt beam="1">  1       13 0.10000000E+01 0.51354293E+02</pdfrwt>
<pdfrwt beam="2">  1       22 0.11179570E+00 0.51354293E+02</pdfrwt>
<totfact> 0.11946937E+00</totfact>
</mgrwt>
</event>
<event>
 4    1  0.2489082E+000  0.5250540E+02  0.7957747E-01  0.1432278E+00
         13   -1    0    0    0    0  0.00000000000E+00  0.00000000000E+00  0.99999944179E+02  0.99999999999E+02  0.10566000000E+00 0. -1.
         22   -1    0    0    0    0 -0.00000000000E+00 -0.00000000000E+00 -0.14560520113E+02  0.14560520113E+02  0.00000000000E+00 0.  1.
         13    1    1    2    0    0 -0.49805524919E+01  0.15231921513E+02  0.22440339608E+01  0.16182218283E+02  0.10566000000E+00 0.  1.
        996    1    1    2    0    0  0.49805524919E+01 -0.15231921513E+02  0.83195390105E+02  0.98378301829E+02  0.50000000000E+02 0.  0.
<mgrwt>
<rscale>  0 0.52505403E+02</rscale>
<asrwt>0</asrwt>
<pdfrwt beam="1">  1       13 0.10000000E+01 0.52505403E+02</pdfrwt>
<pdfrwt beam="2">  1       22 0.14560544E+00 0.52505403E+02</pdfrwt>
<totfact> 0.79173564E-01</totfact>
</mgrwt>
</event>
<event>
 4    1  0.2489082E+000  0.5160659E+02  0.7957747E-01  0.1436864E+00
         13   -1    0    0    0    0  0.00000000000E+00  0.00000000000E+00  0.99999944172E+02  0.99999999992E+02  0.10566000000E+00 0.  1.
         22   -1    0    0    0    0 -0.00000000000E+00 -0.00000000000E+00 -0.13386664133E+02  0.13386664133E+02  0.00000000000E+00 0.  1.
         13    1    1    2    0    0 -0.30591372641E+01  0.12404930825E+02  0.25026572525E+00  0.12779453296E+02  0.10566000000E+00 0. -1.
        996    1    1    2    0    0  0.30591372641E+01 -0.12404930825E+02  0.86363014313E+02  0.10060721083E+03  0.50000000000E+02 0.  0.
<mgrwt>
<rscale>  0 0.51606595E+02</rscale>
<asrwt>0</asrwt>
<pdfrwt beam="1">  1       13 0.10000000E+01 0.51606595E+02</pdfrwt>
<pdfrwt beam="2">  1       22 0.13386688E+00 0.51606595E+02</pdfrwt>
<totfact> 0.90543596E-01</totfact>
</mgrwt>
</event>
<event>
 4    1  0.2489082E+000  0.5374922E+02  0.7957747E-01  0.1426108E+00
         13   -1    0    0    0    0  0.00000000000E+00  0.00000000000E+00  0.99999944173E+02  0.99999999993E+02  0.10566000000E+00 0.  1.
         22   -1    0    0    0    0 -0.00000000000E+00 -0.00000000000E+00 -0.17857420877E+02  0.17857420877E+02  0.00000000000E+00 0. -1.
         13    1    1    2    0    0  0.23658256389E+01 -0.19580124665E+02  0.36402088337E-01  0.19722852278E+02  0.10566000000E+00 0. -1.
        996    1    1    2    0    0 -0.23658256389E+01  0.19580124665E+02  0.82106121208E+02  0.98134568592E+02  0.50000000000E+02 0.  0.
<mgrwt>
<rscale>  0 0.53749218E+02</rscale>
<asrwt>0</asrwt>
<pdfrwt beam="1">  1       13 0.10000000E+01 0.53749218E+02</pdfrwt>
<pdfrwt beam="2">  1       22 0.17857444E+00 0.53749218E+02</pdfrwt>
<totfact> 0.55909907E-01</totfact>
</mgrwt>
</event>
<event>
 4    1  0.2489082E+000  0.5137178E+02  0.7957747E-01  0.1438080E+00
         13   -1    0    0    0    0  0.00000000000E+00  0.00000000000E+00  0.99999944185E+02  0.10000000000E+03  0.10566000000E+00 0.  1.
         22   -1    0    0    0    0 -0.00000000000E+00 -0.00000000000E+00 -0.14333860494E+02  0.14333860494E+02  0.00000000000E+00 0. -1.
         13    1    1    2    0    0 -0.11559585310E+02 -0.23315483985E+01 -0.27204400220E+01  0.12102565365E+02  0.10566000000E+00 0. -1.
        996    1    1    2    0    0  0.11559585310E+02  0.23315483985E+01  0.88386523713E+02  0.10223129513E+03  0.50000000000E+02 0.  0.
<mgrwt>
<rscale>  0 0.51371783E+02</rscale>
<asrwt>0</asrwt>
<pdfrwt beam="1">  1       13 0.10000000E+01 0.51371783E+02</pdfrwt>
<pdfrwt beam="2">  1       22 0.14333884E+00 0.51371783E+02</pdfrwt>
<totfact> 0.81046598E-01</totfact>
</mgrwt>
</event>
<event>
 4    1  0.2489082E+000  0.5367878E+02  0.7957747E-01  0.1426452E+00
         13   -1    0    0    0    0  0.00000000000E+00  0.00000000000E+00  0.99999944179E+02  0.99999999999E+02  0.10566000000E+00 0.  1.
         22   -1    0    0    0    0 -0.00000000000E+00 -0.00000000000E+00 -0.13740273060E+02  0.13740273060E+02  0.00000000000E+00 0. -1.
         13    1    1    2    0    0 -0.14742670773E+02  0.12808799389E+02  0.15554158705E+02  0.24967072323E+02  0.10566000000E+00 0. -1.
        996    1    1    2    0    0  0.14742670773E+02 -0.12808799389E+02  0.70705512414E+02  0.88773200737E+02  0.50000000000E+02 0.  0.
<mgrwt>
<rscale>  0 0.53678782E+02</rscale>
<asrwt>0</asrwt>
<pdfrwt beam="1">  1       13 0.10000000E+01 0.53678782E+02</pdfrwt>
<pdfrwt beam="2">  1       22 0.13740297E+00 0.53678782E+02</pdfrwt>
<totfact> 0.87220855E-01</totfact>
</mgrwt>
</event>
<event>
 4    1  0.2489082E+000  0.5533113E+02  0.7957747E-01  0.1418539E+00
         13   -1    0    0    0    0  0.00000000000E+00  0.00000000000E+00  0.99999944180E+02  0.10000000000E+03  0.10566000000E+00 0.  1.
         22   -1    0    0    0    0 -0.00000000000E+00 -0.00000000000E+00 -0.17280337720E+02  0.17280337720E+02  0.00000000000E+00 0.  1.
         13    1    1    2    0    0  0.15244309322E+02 -0.18142351294E+02  0.95586585096E+01  0.25552162212E+02  0.10566000000E+00 0. -1.
        996    1    1    2    0    0 -0.15244309322E+02  0.18142351294E+02  0.73160947949E+02  0.91728175508E+02  0.50000000000E+02 0.  0.
<mgrwt>
<rscale>  0 0.55331129E+02</rscale>
<asrwt>0</asrwt>
<pdfrwt beam="1">  1       13 0.10000000E+01 0.55331129E+02</pdfrwt>
<pdfrwt beam="2">  1       22 0.17280361E+00 0.55331129E+02</pdfrwt>
<totfact> 0.59442267E-01</totfact>
</mgrwt>
</event>
<event>
 4    1  0.2489082E+000  0.5161777E+02  0.7957747E-01  0.1436806E+00
         13   -1    0    0    0    0  0.00000000000E+00  0.00000000000E+00  0.99999944166E+02  0.99999999986E+02  0.10566000000E+00 0. -1.
         22   -1    0    0    0    0 -0.00000000000E+00 -0.00000000000E+00 -0.71245551448E+02  0.71245551448E+02  0.00000000000E+00 0.  1.
         13    1    1    2    0    0  0.12728021506E+02 -0.15465249364E+01 -0.63905085005E+02  0.65178718339E+02  0.10566000000E+00 0.  1.
        996    1    1    2    0    0 -0.12728021506E+02  0.15465249364E+01  0.92659477723E+02  0.10606683309E+03  0.50000000000E+02 0.  0.
<mgrwt>
<rscale>  0 0.51617771E+02</rscale>
<asrwt>0</asrwt>
<pdfrwt beam="1">  1       13 0.10000000E+01 0.51617771E+02</pdfrwt>
<pdfrwt beam="2">  1       22 0.71245559E+00 0.51617771E+02</pdfrwt>
<totfact> 0.68101977E-02</totfact>
</mgrwt>
</event>
<event>
 4    1  0.2489082E+000  0.5365348E+02  0.7957747E-01  0.1426576E+00
         13   -1    0    0    0    0  0.00000000000E+00  0.00000000000E+00  0.99999944182E+02  0.10000000000E+03  0.10566000000E+00 0.  1.
         22   -1    0    0    0    0 -0.00000000000E+00 -0.00000000000E+00 -0.15599471485E+02  0.15599471485E+02  0.00000000000E+00 0.  1.
         13    1    1    2    0    0 -0.19403408289E+02  0.14844527759E+01  0.55686747439E+01  0.20241471185E+02  0.10566000000E+00 0. -1.
        996    1    1    2    0    0  0.19403408289E+02 -0.14844527759E+01  0.78831797953E+02  0.95358000303E+02  0.50000000000E+02 0.  0.
<mgrwt>
<rscale>  0 0.53653479E+02</rscale>
<asrwt>0</asrwt>
<pdfrwt beam="1">  1       13 0.10000000E+01 0.53653479E+02</pdfrwt>
<pdfrwt beam="2">  1       22 0.15599495E+00 0.53653479E+02</pdfrwt>
<totfact> 0.70730790E-01</totfact>
</mgrwt>
</event>
<event>
 4    1  0.2489082E+000  0.5390402E+02  0.7957747E-01  0.1425354E+00
         13   -1    0    0    0    0  0.00000000000E+00  0.00000000000E+00  0.99999944173E+02  0.99999999993E+02  0.10566000000E+00 0. -1.
         22   -1    0    0    0    0 -0.00000000000E+00 -0.00000000000E+00 -0.19287256848E+02  0.19287256848E+02  0.00000000000E+00 0.  1.
         13    1    1    2    0    0 -0.14861552044E+02 -0.13593281196E+02 -0.23387860521E+01  0.20276195576E+02  0.10566000000E+00 0.  1.
        996    1    1    2    0    0  0.14861552044E+02  0.13593281196E+02  0.83051473377E+02  0.99011061265E+02  0.50000000000E+02 0.  0.
<mgrwt>
<rscale>  0 0.53904017E+02</rscale>
<asrwt>0</asrwt>
<pdfrwt beam="1">  1       13 0.10000000E+01 0.53904017E+02</pdfrwt>
<pdfrwt beam="2">  1       22 0.19287279E+00 0.53904017E+02</pdfrwt>
<totfact> 0.48625491E-01</totfact>
</mgrwt>
</event>
<event>
 4    1  0.2489082E+000  0.5105701E+02  0.7957747E-01  0.1439722E+00
         13   -1    0    0    0    0  0.00000000000E+00  0.00000000000E+00  0.99999944179E+02  0.99999999999E+02  0.10566000000E+00 0.  1.
         22   -1    0    0    0    0 -0.00000000000E+00 -0.00000000000E+00 -0.95048859907E+01  0.95048859907E+01  0.00000000000E+00 0.  1.
         13    1    1    2    0    0 -0.57529363946E+00  0.10319276060E+02  0.11671409015E+02  0.15590104990E+02  0.10566000000E+00 0. -1.
        996    1    1    2    0    0  0.57529363946E+00 -0.10319276060E+02  0.78823649174E+02  0.93914781000E+02  0.50000000000E+02 0.  0.
<mgrwt>
<rscale>  0 0.51057011E+02</rscale>
<asrwt>0</asrwt>
<pdfrwt beam="1">  1       13 0.10000000E+01 0.51057011E+02</pdfrwt>
<pdfrwt beam="2">  1       22 0.95049113E-01 0.51057011E+02</pdfrwt>
<totfact> 0.15131439E+00</totfact>
</mgrwt>
</event>
<event>
 4    1  0.2489082E+000  0.5165417E+02  0.7957747E-01  0.1436618E+00
         13   -1    0    0    0    0  0.00000000000E+00  0.00000000000E+00  0.99999944175E+02  0.99999999995E+02  0.10566000000E+00 0. -1.
         22   -1    0    0    0    0 -0.00000000000E+00 -0.00000000000E+00 -0.17780606205E+02  0.17780606205E+02  0.00000000000E+00 0.  1.
         13    1    1    2    0    0  0.19826928289E+01  0.12814926874E+02 -0.69632134703E+01  0.14719066802E+02  0.10566000000E+00 0.  1.
        996    1    1    2    0    0 -0.19826928289E+01 -0.12814926874E+02  0.89182551441E+02  0.10306153940E+03  0.50000000000E+02 0.  0.
<mgrwt>
<rscale>  0 0.51654171E+02</rscale>
<asrwt>0</asrwt>
<pdfrwt beam="1">  1       13 0.10000000E+01 0.51654171E+02</pdfrwt>
<pdfrwt beam="2">  1       22 0.17780629E+00 0.51654171E+02</pdfrwt>
<totfact> 0.56121722E-01</totfact>
</mgrwt>
</event>
<event>
 4    1  0.2489082E+000  0.5138070E+02  0.7957747E-01  0.1438034E+00
         13   -1    0    0    0    0  0.00000000000E+00  0.00000000000E+00  0.99999944181E+02  0.10000000000E+03  0.10566000000E+00 0.  1.
         22   -1    0    0    0    0 -0.00000000000E+00 -0.00000000000E+00 -0.10376757434E+02  0.10376757434E+02  0.00000000000E+00 0.  1.
         13    1    1    2    0    0 -0.81351948012E+01  0.85904261027E+01  0.26237875074E+02  0.28782183161E+02  0.10566000000E+00 0. -1.
        996    1    1    2    0    0  0.81351948012E+01 -0.85904261027E+01  0.63385311672E+02  0.81594574274E+02  0.50000000000E+02 0.  0.
<mgrwt>
<rscale>  0 0.51380705E+02</rscale>
<asrwt>0</asrwt>
<pdfrwt beam="1">  1       13 0.10000000E+01 0.51380705E+02</pdfrwt>
<pdfrwt beam="2">  1       22 0.10376782E+00 0.51380705E+02</pdfrwt>
<totfact> 0.13339144E+00</totfact>
</mgrwt>
</event>
<event>
 4    1  0.2489082E+000  0.5441362E+02  0.7957747E-01  0.1422892E+00
         13   -1    0    0    0    0  0.00000000000E+00  0.00000000000E+00  0.99999944180E+02  0.10000000000E+03  0.10566000000E+00 0.  1.
         22   -1    0    0    0    0 -0.00000000000E+00 -0.00000000000E+00 -0.15276551424E+02  0.15276551424E+02  0.00000000000E+00 0.  1.
         13    1    1    2    0    0  0.17477159356E+02  0.12465597621E+02  0.12473360265E+02  0.24828171571E+02  0.10566000000E+00 0. -1.
        996    1    1    2    0    0 -0.17477159356E+02 -0.12465597621E+02  0.72250032491E+02  0.90448379853E+02  0.50000000000E+02 0.  0.
<mgrwt>
<rscale>  0 0.54413622E+02</rscale>
<asrwt>0</asrwt>
<pdfrwt beam="1">  1       13 0.10000000E+01 0.54413622E+02</pdfrwt>
<pdfrwt beam="2">  1       22 0.15276575E+00 0.54413622E+02</pdfrwt>
<totfact> 0.73378078E-01</totfact>
</mgrwt>
</event>
<event>
 4    1  0.2489082E+000  0.5113196E+02  0.7957747E-01  0.1439330E+00
         13   -1    0    0    0    0  0.00000000000E+00  0.00000000000E+00  0.99999944176E+02  0.99999999997E+02  0.10566000000E+00 0. -1.
         22   -1    0    0    0    0 -0.00000000000E+00 -0.00000000000E+00 -0.23545989623E+02  0.23545989623E+02  0.00000000000E+00 0. -1.
         13    1    1    2    0    0  0.36277247510E+01  0.10065633338E+02 -0.15203299967E+02  0.18591096130E+02  0.10566000000E+00 0.  1.
        996    1    1    2    0    0 -0.36277247510E+01 -0.10065633338E+02  0.91657254520E+02  0.10495489349E+03  0.50000000000E+02 0.  0.
<mgrwt>
<rscale>  0 0.51131960E+02</rscale>
<asrwt>0</asrwt>
<pdfrwt beam="1">  1       13 0.10000000E+01 0.51131960E+02</pdfrwt>
<pdfrwt beam="2">  1       22 0.23546011E+00 0.51131960E+02</pdfrwt>
<totfact> 0.33107805E-01</totfact>
</mgrwt>
</event>
<event>
 4    1  0.2489082E+000  0.5284720E+02  0.7957747E-01  0.1430563E+00
         13   -1    0    0    0    0  0.00000000000E+00  0.00000000000E+00  0.99999944182E+02  0.10000000000E+03  0.10566000000E+00 0.  1.
         22   -1    0    0    0    0 -0.00000000000E+00 -0.00000000000E+00 -0.16591746301E+02  0.16591746301E+02  0.00000000000E+00 0. -1.
         13    1    1    2    0    0  0.77437369681E+01  0.15259781425E+02 -0.84805847862E+00  0.17133498143E+02  0.10566000000E+00 0. -1.
        996    1    1    2    0    0 -0.77437369681E+01 -0.15259781425E+02  0.84256256359E+02  0.99458248160E+02  0.50000000000E+02 0.  0.
<mgrwt>
<rscale>  0 0.52847199E+02</rscale>
<asrwt>0</asrwt>
<pdfrwt beam="1">  1       13 0.10000000E+01 0.52847199E+02</pdfrwt>
<pdfrwt beam="2">  1       22 0.16591770E+00 0.52847199E+02</pdfrwt>
<totfact> 0.63535109E-01</totfact>
</mgrwt>
</event>
<event>
 4    1  0.2489082E+000  0.5662165E+02  0.7957747E-01  0.1412582E+00
         13   -1    0    0    0    0  0.00000000000E+00  0.00000000000E+00  0.99999944185E+02  0.10000000001E+03  0.10566000000E+00 0.  1.
         22   -1    0    0    0    0 -0.00000000000E+00 -0.00000000000E+00 -0.17520076901E+02  0.17520076901E+02  0.00000000000E+00 0.  1.
         13    1    1    2    0    0 -0.69098634028E+01  0.25656675111E+02  0.32639343274E+02  0.42087398154E+02  0.10566000000E+00 0. -1.
        996    1    1    2    0    0  0.69098634028E+01 -0.25656675111E+02  0.49840524011E+02  0.75432678752E+02  0.50000000000E+02 0.  0.
<mgrwt>
<rscale>  0 0.56621649E+02</rscale>
<asrwt>0</asrwt>
<pdfrwt beam="1">  1       13 0.10000000E+01 0.56621649E+02</pdfrwt>
<pdfrwt beam="2">  1       22 0.17520100E+00 0.56621649E+02</pdfrwt>
<totfact> 0.58141175E-01</totfact>
</mgrwt>
</event>
<event>
 4    1  0.2489082E+000  0.5257031E+02  0.7957747E-01  0.1431951E+00
         13   -1    0    0    0    0  0.00000000000E+00  0.00000000000E+00  0.99999944177E+02  0.99999999998E+02  0.10566000000E+00 0. -1.
         22   -1    0    0    0    0 -0.00000000000E+00 -0.00000000000E+00 -0.21760484197E+02  0.21760484197E+02  0.00000000000E+00 0.  1.
         13    1    1    2    0    0  0.12045860709E+02 -0.10887378380E+02 -0.99844477002E+01  0.19061430380E+02  0.10566000000E+00 0.  1.
        996    1    1    2    0    0 -0.12045860709E+02  0.10887378380E+02  0.88223907680E+02  0.10269905382E+03  0.50000000000E+02 0.  0.
<mgrwt>
<rscale>  0 0.52570313E+02</rscale>
<asrwt>0</asrwt>
<pdfrwt beam="1">  1       13 0.10000000E+01 0.52570313E+02</pdfrwt>
<pdfrwt beam="2">  1       22 0.21760506E+00 0.52570313E+02</pdfrwt>
<totfact> 0.38661828E-01</totfact>
</mgrwt>
</event>
<event>
 4    1  0.2489082E+000  0.5282279E+02  0.7957747E-01  0.1430685E+00
         13   -1    0    0    0    0  0.00000000000E+00  0.00000000000E+00  0.99999944180E+02  0.10000000000E+03  0.10566000000E+00 0.  1.
         22   -1    0    0    0    0 -0.00000000000E+00 -0.00000000000E+00 -0.22511006492E+02  0.22511006492E+02  0.00000000000E+00 0.  1.
         13    1    1    2    0    0  0.10482828714E+02  0.13429717512E+02 -0.10406761892E+02  0.19963939176E+02  0.10566000000E+00 0. -1.
        996    1    1    2    0    0 -0.10482828714E+02 -0.13429717512E+02  0.87895699580E+02  0.10254706732E+03  0.50000000000E+02 0.  0.
<mgrwt>
<rscale>  0 0.52822789E+02</rscale>
<asrwt>0</asrwt>
<pdfrwt beam="1">  1       13 0.10000000E+01 0.52822789E+02</pdfrwt>
<pdfrwt beam="2">  1       22 0.22511028E+00 0.52822789E+02</pdfrwt>
<totfact> 0.36232597E-01</totfact>
</mgrwt>
</event>
<event>
 4    1  0.2489082E+000  0.5110859E+02  0.7957747E-01  0.1439452E+00
         13   -1    0    0    0    0  0.00000000000E+00  0.00000000000E+00  0.99999944183E+02  0.10000000000E+03  0.10566000000E+00 0. -1.
         22   -1    0    0    0    0 -0.00000000000E+00 -0.00000000000E+00 -0.95778954510E+01  0.95778954510E+01  0.00000000000E+00 0. -1.
         13    1    1    2    0    0  0.95022120289E+01 -0.46686407918E+01  0.12381153371E+02  0.16290867476E+02  0.10566000000E+00 0.  1.
        996    1    1    2    0    0 -0.95022120289E+01  0.46686407918E+01  0.78040895361E+02  0.93287027979E+02  0.50000000000E+02 0.  0.
<mgrwt>
<rscale>  0 0.51108593E+02</rscale>
<asrwt>0</asrwt>
<pdfrwt beam="1">  1       13 0.10000000E+01 0.51108593E+02</pdfrwt>
<pdfrwt beam="2">  1       22 0.95779207E-01 0.51108593E+02</pdfrwt>
<totfact> 0.14968657E+00</totfact>
</mgrwt>
</event>
<event>
 4    1  0.2489082E+000  0.5100239E+02  0.7957747E-01  0.1440009E+00
         13   -1    0    0    0    0  0.00000000000E+00  0.00000000000E+00  0.99999944175E+02  0.99999999996E+02  0.10566000000E+00 0. -1.
         22   -1    0    0    0    0 -0.00000000000E+00 -0.00000000000E+00 -0.12178429226E+02  0.12178429226E+02  0.00000000000E+00 0.  1.
         13    1    1    2    0    0  0.35193747932E+00  0.10055860346E+02 -0.62319680082E+00  0.10081851297E+02  0.10566000000E+00 0.  1.
        996    1    1    2    0    0 -0.35193747932E+00 -0.10055860346E+02  0.88444711751E+02  0.10209657792E+03  0.50000000000E+02 0.  0.
<mgrwt>
<rscale>  0 0.51002394E+02</rscale>
<asrwt>0</asrwt>
<pdfrwt beam="1">  1       13 0.10000000E+01 0.51002394E+02</pdfrwt>
<pdfrwt beam="2">  1       22 0.12178454E+00 0.51002394E+02</pdfrwt>
<totfact> 0.10484981E+00</totfact>
</mgrwt>
</event>
<event>
 4    1  0.2489082E+000  0.5218332E+02  0.7957747E-01  0.1433909E+00
         13   -1    0    0    0    0  0.00000000000E+00  0.00000000000E+00  0.99999944173E+02  0.99999999993E+02  0.10566000000E+00 0. -1.
         22   -1    0    0    0    0 -0.00000000000E+00 -0.00000000000E+00 -0.20308210316E+02  0.20308210316E+02  0.00000000000E+00 0.  1.
         13    1    1    2    0    0 -0.51290685477E+01 -0.14028236245E+02 -0.89746112340E+01  0.17425658299E+02  0.10566000000E+00 0.  1.
        996    1    1    2    0    0  0.51290685477E+01  0.14028236245E+02  0.88666345091E+02  0.10288255201E+03  0.50000000000E+02 0.  0.
<mgrwt>
<rscale>  0 0.52183319E+02</rscale>
<asrwt>0</asrwt>
<pdfrwt beam="1">  1       13 0.10000000E+01 0.52183319E+02</pdfrwt>
<pdfrwt beam="2">  1       22 0.20308233E+00 0.52183319E+02</pdfrwt>
<totfact> 0.44044603E-01</totfact>
</mgrwt>
</event>
<event>
 4    1  0.2489082E+000  0.5247183E+02  0.7957747E-01  0.1432448E+00
         13   -1    0    0    0    0  0.00000000000E+00  0.00000000000E+00  0.99999944178E+02  0.99999999998E+02  0.10566000000E+00 0.  1.
         22   -1    0    0    0    0 -0.00000000000E+00 -0.00000000000E+00 -0.11692589072E+02  0.11692589072E+02  0.00000000000E+00 0.  1.
         13    1    1    2    0    0 -0.11043877296E+02  0.11459723574E+02  0.20873983767E+02  0.26249320991E+02  0.10566000000E+00 0. -1.
        996    1    1    2    0    0  0.11043877296E+02 -0.11459723574E+02  0.67433371338E+02  0.85443268080E+02  0.50000000000E+02 0.  0.
<mgrwt>
<rscale>  0 0.52471826E+02</rscale>
<asrwt>0</asrwt>
<pdfrwt beam="1">  1       13 0.10000000E+01 0.52471826E+02</pdfrwt>
<pdfrwt beam="2">  1       22 0.11692614E+00 0.52471826E+02</pdfrwt>
<totfact> 0.11194974E+00</totfact>
</mgrwt>
</event>
<event>
 4    1  0.2489082E+000  0.5206097E+02  0.7957747E-01  0.1434532E+00
         13   -1    0    0    0    0  0.00000000000E+00  0.00000000000E+00  0.99999944178E+02  0.99999999998E+02  0.10566000000E+00 0. -1.
         22   -1    0    0    0    0 -0.00000000000E+00 -0.00000000000E+00 -0.11440697484E+02  0.11440697484E+02  0.00000000000E+00 0.  1.
         13    1    1    2    0    0 -0.14502039734E+02 -0.18773836298E+00  0.11828082870E+02  0.18715210673E+02  0.10566000000E+00 0.  1.
        996    1    1    2    0    0  0.14502039734E+02  0.18773836298E+00  0.76731163824E+02  0.92725486809E+02  0.50000000000E+02 0.  0.
<mgrwt>
<rscale>  0 0.52060968E+02</rscale>
<asrwt>0</asrwt>
<pdfrwt beam="1">  1       13 0.10000000E+01 0.52060968E+02</pdfrwt>
<pdfrwt beam="2">  1       22 0.11440722E+00 0.52060968E+02</pdfrwt>
<totfact> 0.11558903E+00</totfact>
</mgrwt>
</event>
<event>
 4    1  0.2489082E+000  0.6143544E+02  0.7957747E-01  0.1391905E+00
         13   -1    0    0    0    0  0.00000000000E+00  0.00000000000E+00  0.99999944183E+02  0.10000000000E+03  0.10566000000E+00 0.  1.
         22   -1    0    0    0    0 -0.00000000000E+00 -0.00000000000E+00 -0.23691818876E+02  0.23691818876E+02  0.00000000000E+00 0. -1.
         13    1    1    2    0    0  0.35688133275E+02  0.81858815122E+00  0.24123182253E+02  0.43084243399E+02  0.10566000000E+00 0. -1.
        996    1    1    2    0    0 -0.35688133275E+02 -0.81858815122E+00  0.52184943054E+02  0.80607575480E+02  0.50000000000E+02 0.  0.
<mgrwt>
<rscale>  0 0.61435437E+02</rscale>
<asrwt>0</asrwt>
<pdfrwt beam="1">  1       13 0.10000000E+01 0.61435437E+02</pdfrwt>
<pdfrwt beam="2">  1       22 0.23691840E+00 0.61435437E+02</pdfrwt>
<totfact> 0.33220870E-01</totfact>
</mgrwt>
</event>
<event>
 4    1  0.2489082E+000  0.5109812E+02  0.7957747E-01  0.1439507E+00
         13   -1    0    0    0    0  0.00000000000E+00  0.00000000000E+00  0.99999944181E+02  0.10000000000E+03  0.10566000000E+00 0.  1.
         22   -1    0    0    0    0 -0.00000000000E+00 -0.00000000000E+00 -0.12828649324E+02  0.12828649324E+02  0.00000000000E+00 0. -1.
         13    1    1    2    0    0 -0.10501130751E+02 -0.86269400871E+00 -0.13446947555E+01  0.10622492929E+02  0.10566000000E+00 0. -1.
        996    1    1    2    0    0  0.10501130751E+02  0.86269400871E+00  0.88515989613E+02  0.10220615640E+03  0.50000000000E+02 0.  0.
<mgrwt>
<rscale>  0 0.51098121E+02</rscale>
<asrwt>0</asrwt>
<pdfrwt beam="1">  1       13 0.10000000E+01 0.51098121E+02</pdfrwt>
<pdfrwt beam="2">  1       22 0.12828674E+00 0.51098121E+02</pdfrwt>
<totfact> 0.96735017E-01</totfact>
</mgrwt>
</event>
<event>
 4    1  0.2489082E+000  0.5612663E+02  0.7957747E-01  0.1414845E+00
         13   -1    0    0    0    0  0.00000000000E+00  0.00000000000E+00  0.99999944173E+02  0.99999999994E+02  0.10566000000E+00 0.  1.
         22   -1    0    0    0    0 -0.00000000000E+00 -0.00000000000E+00 -0.17451446680E+02  0.17451446680E+02  0.00000000000E+00 0. -1.
         13    1    1    2    0    0  0.25377010009E+02 -0.24910958127E+01  0.14834319557E+02  0.29500277899E+02  0.10566000000E+00 0. -1.
        996    1    1    2    0    0 -0.25377010009E+02  0.24910958127E+01  0.67714177936E+02  0.87951168775E+02  0.50000000000E+02 0.  0.
<mgrwt>
<rscale>  0 0.56126626E+02</rscale>
<asrwt>0</asrwt>
<pdfrwt beam="1">  1       13 0.10000000E+01 0.56126626E+02</pdfrwt>
<pdfrwt beam="2">  1       22 0.17451470E+00 0.56126626E+02</pdfrwt>
<totfact> 0.58497087E-01</totfact>
</mgrwt>
</event>
<event>
 4    1  0.2489082E+000  0.5461694E+02  0.7957747E-01  0.1421919E+00
         13   -1    0    0    0    0  0.00000000000E+00  0.00000000000E+00  0.99999944171E+02  0.99999999992E+02  0.10566000000E+00 0.  1.
         22   -1    0    0    0    0 -0.00000000000E+00 -0.00000000000E+00 -0.30061345385E+02  0.30061345385E+02  0.00000000000E+00 0. -1.
         13    1    1    2    0    0 -0.14909710916E+02  0.16146529900E+02 -0.16728619725E+02  0.27620061356E+02  0.10566000000E+00 0. -1.
        996    1    1    2    0    0  0.14909710916E+02 -0.16146529900E+02  0.86667218511E+02  0.10244128402E+03  0.50000000000E+02 0.  0.
<mgrwt>
<rscale>  0 0.54616938E+02</rscale>
<asrwt>0</asrwt>
<pdfrwt beam="1">  1       13 0.10000000E+01 0.54616938E+02</pdfrwt>
<pdfrwt beam="2">  1       22 0.30061365E+00 0.54616938E+02</pdfrwt>
<totfact> 0.20693486E-01</totfact>
</mgrwt>
</event>
<event>
 4    1  0.2489082E+000  0.5361198E+02  0.7957747E-01  0.1426779E+00
         13   -1    0    0    0    0  0.00000000000E+00  0.00000000000E+00  0.99999944185E+02  0.10000000001E+03  0.10566000000E+00 0.  1.
         22   -1    0    0    0    0 -0.00000000000E+00 -0.00000000000E+00 -0.24342162411E+02  0.24342162411E+02  0.00000000000E+00 0.  1.
         13    1    1    2    0    0  0.18728512686E+02 -0.48463853049E+01 -0.11138661536E+02  0.22323207270E+02  0.10566000000E+00 0. -1.
        996    1    1    2    0    0 -0.18728512686E+02  0.48463853049E+01  0.86796443310E+02  0.10201895515E+03  0.50000000000E+02 0.  0.
<mgrwt>
<rscale>  0 0.53611982E+02</rscale>
<asrwt>0</asrwt>
<pdfrwt beam="1">  1       13 0.10000000E+01 0.53611982E+02</pdfrwt>
<pdfrwt beam="2">  1       22 0.24342184E+00 0.53611982E+02</pdfrwt>
<totfact> 0.31144197E-01</totfact>
</mgrwt>
</event>
<event>
 4    1  0.2489082E+000  0.5582820E+02  0.7957747E-01  0.1416222E+00
         13   -1    0    0    0    0  0.00000000000E+00  0.00000000000E+00  0.99999944182E+02  0.10000000000E+03  0.10566000000E+00 0.  1.
         22   -1    0    0    0    0 -0.00000000000E+00 -0.00000000000E+00 -0.35270040089E+02  0.35270040089E+02  0.00000000000E+00 0. -1.
         13    1    1    2    0    0  0.15259388965E+02  0.19594359967E+02 -0.21296469415E+02  0.32716030744E+02  0.10566000000E+00 0. -1.
        996    1    1    2    0    0 -0.15259388965E+02 -0.19594359967E+02  0.86026373508E+02  0.10255400935E+03  0.50000000000E+02 0.  0.
<mgrwt>
<rscale>  0 0.55828200E+02</rscale>
<asrwt>0</asrwt>
<pdfrwt beam="1">  1       13 0.10000000E+01 0.55828200E+02</pdfrwt>
<pdfrwt beam="2">  1       22 0.35270058E+00 0.55828200E+02</pdfrwt>
<totfact> 0.15563876E-01</totfact>
</mgrwt>
</event>
<event>
 4    1  0.2489082E+000  0.5245123E+02  0.7957747E-01  0.1432552E+00
         13   -1    0    0    0    0  0.00000000000E+00  0.00000000000E+00  0.99999944175E+02  0.99999999995E+02  0.10566000000E+00 0.  1.
         22   -1    0    0    0    0 -0.00000000000E+00 -0.00000000000E+00 -0.13557580515E+02  0.13557580515E+02  0.00000000000E+00 0. -1.
         13    1    1    2    0    0  0.15443090926E+02 -0.35556880880E+01  0.48730021344E+01  0.16579785552E+02  0.10566000000E+00 0. -1.
        996    1    1    2    0    0 -0.15443090926E+02  0.35556880880E+01  0.81569361526E+02  0.96977794957E+02  0.50000000000E+02 0.  0.
<mgrwt>
<rscale>  0 0.52451234E+02</rscale>
<asrwt>0</asrwt>
<pdfrwt beam="1">  1       13 0.10000000E+01 0.52451234E+02</pdfrwt>
<pdfrwt beam="2">  1       22 0.13557605E+00 0.52451234E+02</pdfrwt>
<totfact> 0.88888364E-01</totfact>
</mgrwt>
</event>
<event>
 4    1  0.2489082E+000  0.7988548E+02  0.7957747E-01  0.1329377E+00
         13   -1    0    0    0    0  0.00000000000E+00  0.00000000000E+00  0.99999944184E+02  0.10000000000E+03  0.10566000000E+00 0. -1.
         22   -1    0    0    0    0 -0.00000000000E+00 -0.00000000000E+00 -0.84073577394E+02  0.84073577394E+02  0.00000000000E+00 0.  1.
         13    1    1    2    0    0  0.55123650008E+02  0.29035708882E+02 -0.50483632603E+02  0.80189135831E+02  0.10566000000E+00 0.  1.
        996    1    1    2    0    0 -0.55123650008E+02 -0.29035708882E+02  0.66409999392E+02  0.10388444157E+03  0.50000000000E+02 0.  0.
<mgrwt>
<rscale>  0 0.79885475E+02</rscale>
<asrwt>0</asrwt>
<pdfrwt beam="1">  1       13 0.10000000E+01 0.79885475E+02</pdfrwt>
<pdfrwt beam="2">  1       22 0.84073582E+00 0.79885475E+02</pdfrwt>
<totfact> 0.20882487E-02</totfact>
</mgrwt>
</event>
<event>
 4    1  0.2489082E+000  0.5256000E+02  0.7957747E-01  0.1432003E+00
         13   -1    0    0    0    0  0.00000000000E+00  0.00000000000E+00  0.99999944178E+02  0.99999999998E+02  0.10566000000E+00 0. -1.
         22   -1    0    0    0    0 -0.00000000000E+00 -0.00000000000E+00 -0.15802688402E+02  0.15802688402E+02  0.00000000000E+00 0.  1.
         13    1    1    2    0    0  0.16074097311E+02 -0.20436968846E+01 -0.39826602262E+00  0.16208734719E+02  0.10566000000E+00 0.  1.
        996    1    1    2    0    0 -0.16074097311E+02  0.20436968846E+01  0.84595521799E+02  0.99593953681E+02  0.50000000000E+02 0.  0.
<mgrwt>
<rscale>  0 0.52559997E+02</rscale>
<asrwt>0</asrwt>
<pdfrwt beam="1">  1       13 0.10000000E+01 0.52559997E+02</pdfrwt>
<pdfrwt beam="2">  1       22 0.15802712E+00 0.52559997E+02</pdfrwt>
<totfact> 0.69045654E-01</totfact>
</mgrwt>
</event>
<event>
 4    1  0.2489082E+000  0.5107272E+02  0.7957747E-01  0.1439640E+00
         13   -1    0    0    0    0  0.00000000000E+00  0.00000000000E+00  0.99999944176E+02  0.99999999996E+02  0.10566000000E+00 0. -1.
         22   -1    0    0    0    0 -0.00000000000E+00 -0.00000000000E+00 -0.10074541887E+02  0.10074541887E+02  0.00000000000E+00 0.  1.
         13    1    1    2    0    0 -0.84035707670E+01  0.61484215766E+01  0.65562524905E+01  0.12305230606E+02  0.10566000000E+00 0.  1.
        996    1    1    2    0    0  0.84035707670E+01 -0.61484215766E+01  0.83369149799E+02  0.97769311277E+02  0.50000000000E+02 0.  0.
<mgrwt>
<rscale>  0 0.51072724E+02</rscale>
<asrwt>0</asrwt>
<pdfrwt beam="1">  1       13 0.10000000E+01 0.51072724E+02</pdfrwt>
<pdfrwt beam="2">  1       22 0.10074567E+00 0.51072724E+02</pdfrwt>
<totfact> 0.13915655E+00</totfact>
</mgrwt>
</event>
<event>
 4    1  0.2489082E+000  0.5343366E+02  0.7957747E-01  0.1427655E+00
         13   -1    0    0    0    0  0.00000000000E+00  0.00000000000E+00  0.99999944171E+02  0.99999999991E+02  0.10566000000E+00 0.  1.
         22   -1    0    0    0    0 -0.00000000000E+00 -0.00000000000E+00 -0.18698933305E+02  0.18698933305E+02  0.00000000000E+00 0. -1.
         13    1    1    2    0    0 -0.10198844159E+02 -0.15847389343E+02 -0.28062035302E+01  0.19053664043E+02  0.10566000000E+00 0. -1.
        996    1    1    2    0    0  0.10198844159E+02  0.15847389343E+02  0.84107214396E+02  0.99645269254E+02  0.50000000000E+02 0.  0.
<mgrwt>
<rscale>  0 0.53433661E+02</rscale>
<asrwt>0</asrwt>
<pdfrwt beam="1">  1       13 0.10000000E+01 0.53433661E+02</pdfrwt>
<pdfrwt beam="2">  1       22 0.18698956E+00 0.53433661E+02</pdfrwt>
<totfact> 0.51421650E-01</totfact>
</mgrwt>
</event>
<event>
 4    1  0.2489082E+000  0.6555843E+02  0.7957747E-01  0.1375883E+00
         13   -1    0    0    0    0  0.00000000000E+00  0.00000000000E+00  0.99999944183E+02  0.10000000000E+03  0.10566000000E+00 0.  1.
         22   -1    0    0    0    0 -0.00000000000E+00 -0.00000000000E+00 -0.62882771874E+02  0.62882771874E+02  0.00000000000E+00 0. -1.
         13    1    1    2    0    0 -0.26328219984E+02  0.33237512619E+02 -0.42306028588E+02  0.59897567826E+02  0.10566000000E+00 0. -1.
        996    1    1    2    0    0  0.26328219984E+02 -0.33237512619E+02  0.79423200896E+02  0.10298520405E+03  0.50000000000E+02 0.  0.
<mgrwt>
<rscale>  0 0.65558427E+02</rscale>
<asrwt>0</asrwt>
<pdfrwt beam="1">  1       13 0.10000000E+01 0.65558427E+02</pdfrwt>
<pdfrwt beam="2">  1       22 0.62882782E+00 0.65558427E+02</pdfrwt>
<totfact> 0.78103136E-02</totfact>
</mgrwt>
</event>
<event>
 4    1  0.2489082E+000  0.5196365E+02  0.7957747E-01  0.1435029E+00
         13   -1    0    0    0    0  0.00000000000E+00  0.00000000000E+00  0.99999944188E+02  0.10000000001E+03  0.10566000000E+00 0. -1.
         22   -1    0    0    0    0 -0.00000000000E+00 -0.00000000000E+00 -0.20666597689E+02  0.20666597689E+02  0.00000000000E+00 0.  1.
         13    1    1    2    0    0 -0.12740521926E+02  0.61563089419E+01 -0.99944993340E+01  0.17324035895E+02  0.10566000000E+00 0.  1.
        996    1    1    2    0    0  0.12740521926E+02 -0.61563089419E+01  0.89327845832E+02  0.10334256180E+03  0.50000000000E+02 0.  0.
<mgrwt>
<rscale>  0 0.51963651E+02</rscale>
<asrwt>0</asrwt>
<pdfrwt beam="1">  1       13 0.10000000E+01 0.51963651E+02</pdfrwt>
<pdfrwt beam="2">  1       22 0.20666620E+00 0.51963651E+02</pdfrwt>
<totfact> 0.42602299E-01</totfact>
</mgrwt>
</event>
<event>
 4    1  0.2489082E+000  0.5705417E+02  0.7957747E-01  0.1410627E+00
         13   -1    0    0    0    0  0.00000000000E+00  0.00000000000E+00  0.99999944180E+02  0.10000000000E+03  0.10566000000E+00 0.  1.
         22   -1    0    0    0    0 -0.00000000000E+00 -0.00000000000E+00 -0.18628158395E+02  0.18628158395E+02  0.00000000000E+00 0.  1.
         13    1    1    2    0    0  0.62596074231E+01 -0.26758085902E+02  0.15758857417E+02  0.31678551062E+02  0.10566000000E+00 0. -1.
        996    1    1    2    0    0 -0.62596074231E+01  0.26758085902E+02  0.65612928369E+02  0.86949607333E+02  0.50000000000E+02 0.  0.
<mgrwt>
<rscale>  0 0.57054166E+02</rscale>
<asrwt>0</asrwt>
<pdfrwt beam="1">  1       13 0.10000000E+01 0.57054166E+02</pdfrwt>
<pdfrwt beam="2">  1       22 0.18628181E+00 0.57054166E+02</pdfrwt>
<totfact> 0.52105120E-01</totfact>
</mgrwt>
</event>
<event>
 4    1  0.2489082E+000  0.5116578E+02  0.7957747E-01  0.1439153E+00
         13   -1    0    0    0    0  0.00000000000E+00  0.00000000000E+00  0.99999944176E+02  0.99999999997E+02  0.10566000000E+00 0.  1.
         22   -1    0    0    0    0 -0.00000000000E+00 -0.00000000000E+00 -0.10149081856E+02  0.10149081856E+02  0.00000000000E+00 0. -1.
         13    1    1    2    0    0 -0.99586188825E+01  0.43315833567E+01  0.75030696519E+01  0.13200148585E+02  0.10566000000E+00 0. -1.
        996    1    1    2    0    0  0.99586188825E+01 -0.43315833567E+01  0.82347792668E+02  0.96948933268E+02  0.50000000000E+02 0.  0.
<mgrwt>
<rscale>  0 0.51165777E+02</rscale>
<asrwt>0</asrwt>
<pdfrwt beam="1">  1       13 0.10000000E+01 0.51165777E+02</pdfrwt>
<pdfrwt beam="2">  1       22 0.10149107E+00 0.51165777E+02</pdfrwt>
<totfact> 0.13770594E+00</totfact>
</mgrwt>
</event>
<event>
 4    1  0.2489082E+000  0.5229572E+02  0.7957747E-01  0.1433338E+00
         13   -1    0    0    0    0  0.00000000000E+00  0.00000000000E+00  0.99999944181E+02  0.10000000000E+03  0.10566000000E+00 0.  1.
         22   -1    0    0    0    0 -0.00000000000E+00 -0.00000000000E+00 -0.12761706112E+02  0.12761706112E+02  0.00000000000E+00 0. -1.
         13    1    1    2    0    0 -0.13645432638E+02 -0.69745956481E+01  0.66799057971E+01  0.16717509438E+02  0.10566000000E+00 0. -1.
        996    1    1    2    0    0  0.13645432638E+02  0.69745956481E+01  0.80558332272E+02  0.96044196674E+02  0.50000000000E+02 0.  0.
<mgrwt>
<rscale>  0 0.52295725E+02</rscale>
<asrwt>0</asrwt>
<pdfrwt beam="1">  1       13 0.10000000E+01 0.52295725E+02</pdfrwt>
<pdfrwt beam="2">  1       22 0.12761730E+00 0.52295725E+02</pdfrwt>
<totfact> 0.97787415E-01</totfact>
</mgrwt>
</event>
<event>
 4    1  0.2489082E+000  0.5216856E+02  0.7957747E-01  0.1433984E+00
         13   -1    0    0    0    0  0.00000000000E+00  0.00000000000E+00  0.99999944180E+02  0.10000000000E+03  0.10566000000E+00 0.  1.
         22   -1    0    0    0    0 -0.00000000000E+00 -0.00000000000E+00 -0.36659687952E+02  0.36659687952E+02  0.00000000000E+00 0. -1.
         13    1    1    2    0    0 -0.62244249019E+00  0.14871811454E+02 -0.27863236398E+02  0.31590019265E+02  0.10566000000E+00 0. -1.
        996    1    1    2    0    0  0.62244249019E+00 -0.14871811454E+02  0.91203492627E+02  0.10506966869E+03  0.50000000000E+02 0.  0.
<mgrwt>
<rscale>  0 0.52168556E+02</rscale>
<asrwt>0</asrwt>
<pdfrwt beam="1">  1       13 0.10000000E+01 0.52168556E+02</pdfrwt>
<pdfrwt beam="2">  1       22 0.36659706E+00 0.52168556E+02</pdfrwt>
<totfact> 0.14493273E-01</totfact>
</mgrwt>
</event>
<event>
 4    1  0.2489082E+000  0.5156725E+02  0.7957747E-01  0.1437067E+00
         13   -1    0    0    0    0  0.00000000000E+00  0.00000000000E+00  0.99999944180E+02  0.10000000000E+03  0.10566000000E+00 0. -1.
         22   -1    0    0    0    0 -0.00000000000E+00 -0.00000000000E+00 -0.15707796866E+02  0.15707796866E+02  0.00000000000E+00 0. -1.
         13    1    1    2    0    0 -0.22226233497E+01  0.12419377249E+02 -0.41907335916E+01  0.13294901198E+02  0.10566000000E+00 0.  1.
        996    1    1    2    0    0  0.22226233497E+01 -0.12419377249E+02  0.88482880905E+02  0.10241289567E+03  0.50000000000E+02 0.  0.
<mgrwt>
<rscale>  0 0.51567247E+02</rscale>
<asrwt>0</asrwt>
<pdfrwt beam="1">  1       13 0.10000000E+01 0.51567247E+02</pdfrwt>
<pdfrwt beam="2">  1       22 0.15707820E+00 0.51567247E+02</pdfrwt>
<totfact> 0.69617446E-01</totfact>
</mgrwt>
</event>
<event>
 4    1  0.2489082E+000  0.5123334E+02  0.7957747E-01  0.1438801E+00
         13   -1    0    0    0    0  0.00000000000E+00  0.00000000000E+00  0.99999944177E+02  0.99999999997E+02  0.10566000000E+00 0.  1.
         22   -1    0    0    0    0 -0.00000000000E+00 -0.00000000000E+00 -0.97667899917E+01  0.97667899917E+01  0.00000000000E+00 0.  1.
         13    1    1    2    0    0 -0.11167704129E+02 -0.37042252147E+00  0.13909991991E+02  0.17842473751E+02  0.10566000000E+00 0. -1.
        996    1    1    2    0    0  0.11167704129E+02  0.37042252147E+00  0.76323162195E+02  0.91924316238E+02  0.50000000000E+02 0.  0.
<mgrwt>
<rscale>  0 0.51233337E+02</rscale>
<asrwt>0</asrwt>
<pdfrwt beam="1">  1       13 0.10000000E+01 0.51233337E+02</pdfrwt>
<pdfrwt beam="2">  1       22 0.97668152E-01 0.51233337E+02</pdfrwt>
<totfact> 0.14559350E+00</totfact>
</mgrwt>
</event>
<event>
 4    1  0.2489082E+000  0.5292687E+02  0.7957747E-01  0.1430165E+00
         13   -1    0    0    0    0  0.00000000000E+00  0.00000000000E+00  0.99999944176E+02  0.99999999996E+02  0.10566000000E+00 0.  1.
         22   -1    0    0    0    0 -0.00000000000E+00 -0.00000000000E+00 -0.44606843173E+02  0.44606843173E+02  0.00000000000E+00 0. -1.
         13    1    1    2    0    0  0.17103721473E+02 -0.29524160171E+01 -0.35449464300E+02  0.39470618588E+02  0.10566000000E+00 0. -1.
        996    1    1    2    0    0 -0.17103721473E+02  0.29524160171E+01  0.90842565302E+02  0.10513622458E+03  0.50000000000E+02 0.  0.
<mgrwt>
<rscale>  0 0.52926875E+02</rscale>
<asrwt>0</asrwt>
<pdfrwt beam="1">  1       13 0.10000000E+01 0.52926875E+02</pdfrwt>
<pdfrwt beam="2">  1       22 0.44606859E+00 0.52926875E+02</pdfrwt>
<totfact> 0.98660947E-02</totfact>
</mgrwt>
</event>
<event>
 4    1  0.2489082E+000  0.5348611E+02  0.7957747E-01  0.1427397E+00
         13   -1    0    0    0    0  0.00000000000E+00  0.00000000000E+00  0.99999944169E+02  0.99999999990E+02  0.10566000000E+00 0. -1.
         22   -1    0    0    0    0 -0.00000000000E+00 -0.00000000000E+00 -0.16819559658E+02  0.16819559658E+02  0.00000000000E+00 0.  1.
         13    1    1    2    0    0  0.40150884634E+01  0.18564553781E+02  0.13268014283E+01  0.19040356050E+02  0.10566000000E+00 0.  1.
        996    1    1    2    0    0 -0.40150884634E+01 -0.18564553781E+02  0.81853583084E+02  0.97779203597E+02  0.50000000000E+02 0.  0.
<mgrwt>
<rscale>  0 0.53486107E+02</rscale>
<asrwt>0</asrwt>
<pdfrwt beam="1">  1       13 0.10000000E+01 0.53486107E+02</pdfrwt>
<pdfrwt beam="2">  1       22 0.16819583E+00 0.53486107E+02</pdfrwt>
<totfact> 0.62120196E-01</totfact>
</mgrwt>
</event>
<event>
 4    1  0.2489082E+000  0.5137630E+02  0.7957747E-01  0.1438056E+00
         13   -1    0    0    0    0  0.00000000000E+00  0.00000000000E+00  0.99999944177E+02  0.99999999997E+02  0.10566000000E+00 0. -1.
         22   -1    0    0    0    0 -0.00000000000E+00 -0.00000000000E+00 -0.49037094349E+02  0.49037094349E+02  0.00000000000E+00 0.  1.
         13    1    1    2    0    0 -0.11767963585E+02  0.10193188898E+01 -0.41560498061E+02  0.43206598351E+02  0.10566000000E+00 0.  1.
        996    1    1    2    0    0  0.11767963585E+02 -0.10193188898E+01  0.92523347889E+02  0.10583049599E+03  0.50000000000E+02 0.  0.
<mgrwt>
<rscale>  0 0.51376298E+02</rscale>
<asrwt>0</asrwt>
<pdfrwt beam="1">  1       13 0.10000000E+01 0.51376298E+02</pdfrwt>
<pdfrwt beam="2">  1       22 0.49037109E+00 0.51376298E+02</pdfrwt>
<totfact> 0.77633379E-02</totfact>
</mgrwt>
</event>
<event>
 4    1  0.2489082E+000  0.5205069E+02  0.7957747E-01  0.1434584E+00
         13   -1    0    0    0    0  0.00000000000E+00  0.00000000000E+00  0.99999944181E+02  0.10000000000E+03  0.10566000000E+00 0. -1.
         22   -1    0    0    0    0 -0.00000000000E+00 -0.00000000000E+00 -0.11073980591E+02  0.11073980591E+02  0.00000000000E+00 0. -1.
         13    1    1    2    0    0 -0.12826445019E+02  0.66900783265E+01  0.17823487110E+02  0.22955668072E+02  0.10566000000E+00 0.  1.
        996    1    1    2    0    0  0.12826445019E+02 -0.66900783265E+01  0.71102476480E+02  0.88118312520E+02  0.50000000000E+02 0.  0.
<mgrwt>
<rscale>  0 0.52050695E+02</rscale>
<asrwt>0</asrwt>
<pdfrwt beam="1">  1       13 0.10000000E+01 0.52050695E+02</pdfrwt>
<pdfrwt beam="2">  1       22 0.11074005E+00 0.52050695E+02</pdfrwt>
<totfact> 0.12136898E+00</totfact>
</mgrwt>
</event>
<event>
 4    1  0.2489082E+000  0.5147169E+02  0.7957747E-01  0.1437562E+00
         13   -1    0    0    0    0  0.00000000000E+00  0.00000000000E+00  0.99999944180E+02  0.10000000000E+03  0.10566000000E+00 0.  1.
         22   -1    0    0    0    0 -0.00000000000E+00 -0.00000000000E+00 -0.22049880524E+02  0.22049880524E+02  0.00000000000E+00 0. -1.
         13    1    1    2    0    0  0.93161184160E+01  0.79085050798E+01 -0.12813846889E+02  0.17707070652E+02  0.10566000000E+00 0. -1.
        996    1    1    2    0    0 -0.93161184160E+01 -0.79085050798E+01  0.90763910544E+02  0.10434280987E+03  0.50000000000E+02 0.  0.
<mgrwt>
<rscale>  0 0.51471687E+02</rscale>
<asrwt>0</asrwt>
<pdfrwt beam="1">  1       13 0.10000000E+01 0.51471687E+02</pdfrwt>
<pdfrwt beam="2">  1       22 0.22049902E+00 0.51471687E+02</pdfrwt>
<totfact> 0.37622603E-01</totfact>
</mgrwt>
</event>
<event>
 4    1  0.2489082E+000  0.5171346E+02  0.7957747E-01  0.1436313E+00
         13   -1    0    0    0    0  0.00000000000E+00  0.00000000000E+00  0.99999944177E+02  0.99999999997E+02  0.10566000000E+00 0. -1.
         22   -1    0    0    0    0 -0.00000000000E+00 -0.00000000000E+00 -0.11916691637E+02  0.11916691637E+02  0.00000000000E+00 0. -1.
         13    1    1    2    0    0  0.49245811843E+01  0.12248692445E+02  0.51286768838E+01  0.14163207866E+02  0.10566000000E+00 0.  1.
        996    1    1    2    0    0 -0.49245811843E+01 -0.12248692445E+02  0.82954575656E+02  0.97753483768E+02  0.50000000000E+02 0.  0.
<mgrwt>
<rscale>  0 0.51713460E+02</rscale>
<asrwt>0</asrwt>
<pdfrwt beam="1">  1       13 0.10000000E+01 0.51713460E+02</pdfrwt>
<pdfrwt beam="2">  1       22 0.11916716E+00 0.51713460E+02</pdfrwt>
<totfact> 0.10857589E+00</totfact>
</mgrwt>
</event>
<event>
 4    1  0.2489082E+000  0.5213042E+02  0.7957747E-01  0.1434178E+00
         13   -1    0    0    0    0  0.00000000000E+00  0.00000000000E+00  0.99999944176E+02  0.99999999997E+02  0.10566000000E+00 0. -1.
         22   -1    0    0    0    0 -0.00000000000E+00 -0.00000000000E+00 -0.12530932084E+02  0.12530932084E+02  0.00000000000E+00 0. -1.
         13    1    1    2    0    0  0.12235882360E+02 -0.82379241548E+01  0.62480413142E+01  0.16019656544E+02  0.10566000000E+00 0.  1.
        996    1    1    2    0    0 -0.12235882360E+02  0.82379241548E+01  0.81220970778E+02  0.96511275536E+02  0.50000000000E+02 0.  0.
<mgrwt>
<rscale>  0 0.52130415E+02</rscale>
<asrwt>0</asrwt>
<pdfrwt beam="1">  1       13 0.10000000E+01 0.52130415E+02</pdfrwt>
<pdfrwt beam="2">  1       22 0.12530957E+00 0.52130415E+02</pdfrwt>
<totfact> 0.10057526E+00</totfact>
</mgrwt>
</event>
<event>
 4    1  0.2489082E+000  0.5757408E+02  0.7957747E-01  0.1408304E+00
         13   -1    0    0    0    0  0.00000000000E+00  0.00000000000E+00  0.99999944183E+02  0.10000000000E+03  0.10566000000E+00 0. -1.
         22   -1    0    0    0    0 -0.00000000000E+00 -0.00000000000E+00 -0.18664838876E+02  0.18664838876E+02  0.00000000000E+00 0.  1.
         13    1    1    2    0    0 -0.26009719038E+01 -0.28425505917E+02  0.31602292112E+02  0.42585096833E+02  0.10566000000E+00 0.  1.
        996    1    1    2    0    0  0.26009719038E+01  0.28425505917E+02  0.49732813196E+02  0.76079742047E+02  0.50000000000E+02 0.  0.
<mgrwt>
<rscale>  0 0.57574078E+02</rscale>
<asrwt>0</asrwt>
<pdfrwt beam="1">  1       13 0.10000000E+01 0.57574078E+02</pdfrwt>
<pdfrwt beam="2">  1       22 0.18664862E+00 0.57574078E+02</pdfrwt>
<totfact> 0.51963810E-01</totfact>
</mgrwt>
</event>
<event>
 4    1  0.2489082E+000  0.5125499E+02  0.7957747E-01  0.1438688E+00
         13   -1    0    0    0    0  0.00000000000E+00  0.00000000000E+00  0.99999944183E+02  0.10000000000E+03  0.10566000000E+00 0.  1.
         22   -1    0    0    0    0 -0.00000000000E+00 -0.00000000000E+00 -0.18794116412E+02  0.18794116412E+02  0.00000000000E+00 0. -1.
         13    1    1    2    0    0 -0.10346257581E+02 -0.44754269120E+01 -0.94116368170E+01  0.14685522244E+02  0.10566000000E+00 0. -1.
        996    1    1    2    0    0  0.10346257581E+02  0.44754269120E+01  0.90617464587E+02  0.10410859417E+03  0.50000000000E+02 0.  0.
<mgrwt>
<rscale>  0 0.51254995E+02</rscale>
<asrwt>0</asrwt>
<pdfrwt beam="1">  1       13 0.10000000E+01 0.51254995E+02</pdfrwt>
<pdfrwt beam="2">  1       22 0.18794139E+00 0.51254995E+02</pdfrwt>
<totfact> 0.50744311E-01</totfact>
</mgrwt>
</event>
<event>
 4    1  0.2489082E+000  0.5204644E+02  0.7957747E-01  0.1434606E+00
         13   -1    0    0    0    0  0.00000000000E+00  0.00000000000E+00  0.99999944176E+02  0.99999999996E+02  0.10566000000E+00 0.  1.
         22   -1    0    0    0    0 -0.00000000000E+00 -0.00000000000E+00 -0.11449943185E+02  0.11449943185E+02  0.00000000000E+00 0.  1.
         13    1    1    2    0    0  0.10352780291E+02 -0.10082271878E+02  0.28714246393E+02  0.32145783175E+02  0.10566000000E+00 0. -1.
        996    1    1    2    0    0 -0.10352780291E+02  0.10082271878E+02  0.59835754598E+02  0.79304160006E+02  0.50000000000E+02 0.  0.
<mgrwt>
<rscale>  0 0.52046443E+02</rscale>
<asrwt>0</asrwt>
<pdfrwt beam="1">  1       13 0.10000000E+01 0.52046443E+02</pdfrwt>
<pdfrwt beam="2">  1       22 0.11449968E+00 0.52046443E+02</pdfrwt>
<totfact> 0.11544465E+00</totfact>
</mgrwt>
</event>
<event>
 4    1  0.2489082E+000  0.5425841E+02  0.7957747E-01  0.1423639E+00
         13   -1    0    0    0    0  0.00000000000E+00  0.00000000000E+00  0.99999944172E+02  0.99999999993E+02  0.10566000000E+00 0.  1.
         22   -1    0    0    0    0 -0.00000000000E+00 -0.00000000000E+00 -0.14895159835E+02  0.14895159835E+02  0.00000000000E+00 0.  1.
         13    1    1    2    0    0 -0.29965520639E+00 -0.21068582958E+02  0.36012555829E+02  0.41723977788E+02  0.10566000000E+00 0. -1.
        996    1    1    2    0    0  0.29965520639E+00  0.21068582958E+02  0.49092228509E+02  0.73171182039E+02  0.50000000000E+02 0.  0.
<mgrwt>
<rscale>  0 0.54258409E+02</rscale>
<asrwt>0</asrwt>
<pdfrwt beam="1">  1       13 0.10000000E+01 0.54258409E+02</pdfrwt>
<pdfrwt beam="2">  1       22 0.14895184E+00 0.54258409E+02</pdfrwt>
<totfact> 0.76520982E-01</totfact>
</mgrwt>
</event>
<event>
 4    1  0.2489082E+000  0.5133761E+02  0.7957747E-01  0.1438258E+00
         13   -1    0    0    0    0  0.00000000000E+00  0.00000000000E+00  0.99999944179E+02  0.99999999999E+02  0.10566000000E+00 0.  1.
         22   -1    0    0    0    0 -0.00000000000E+00 -0.00000000000E+00 -0.15996602160E+02  0.15996602160E+02  0.00000000000E+00 0.  1.
         13    1    1    2    0    0  0.11516355337E+02  0.17099915808E+01 -0.54523788774E+01  0.12856520172E+02  0.10566000000E+00 0. -1.
        996    1    1    2    0    0 -0.11516355337E+02 -0.17099915808E+01  0.89455720896E+02  0.10314008199E+03  0.50000000000E+02 0.  0.
<mgrwt>
<rscale>  0 0.51337613E+02</rscale>
<asrwt>0</asrwt>
<pdfrwt beam="1">  1       13 0.10000000E+01 0.51337613E+02</pdfrwt>
<pdfrwt beam="2">  1       22 0.15996626E+00 0.51337613E+02</pdfrwt>
<totfact> 0.67459744E-01</totfact>
</mgrwt>
</event>
<event>
 4    1  0.2489082E+000  0.5335427E+02  0.7957747E-01  0.1428046E+00
         13   -1    0    0    0    0  0.00000000000E+00  0.00000000000E+00  0.99999944184E+02  0.10000000000E+03  0.10566000000E+00 0.  1.
         22   -1    0    0    0    0 -0.00000000000E+00 -0.00000000000E+00 -0.42015511339E+02  0.42015511339E+02  0.00000000000E+00 0. -1.
         13    1    1    2    0    0 -0.18318688744E+02 -0.33322357860E+01 -0.32220053564E+02  0.37213185410E+02  0.10566000000E+00 0. -1.
        996    1    1    2    0    0  0.18318688744E+02  0.33322357860E+01  0.90204486410E+02  0.10480232593E+03  0.50000000000E+02 0.  0.
<mgrwt>
<rscale>  0 0.53354270E+02</rscale>
<asrwt>0</asrwt>
<pdfrwt beam="1">  1       13 0.10000000E+01 0.53354270E+02</pdfrwt>
<pdfrwt beam="2">  1       22 0.42015528E+00 0.53354270E+02</pdfrwt>
<totfact> 0.11237413E-01</totfact>
</mgrwt>
</event>
<event>
 4    1  0.2489082E+000  0.5237844E+02  0.7957747E-01  0.1432919E+00
         13   -1    0    0    0    0  0.00000000000E+00  0.00000000000E+00  0.99999944178E+02  0.99999999998E+02  0.10566000000E+00 0.  1.
         22   -1    0    0    0    0 -0.00000000000E+00 -0.00000000000E+00 -0.16330687835E+02  0.16330687835E+02  0.00000000000E+00 0.  1.
         13    1    1    2    0    0 -0.80651112829E+01 -0.13358719301E+02 -0.21879459127E+01  0.15757527494E+02  0.10566000000E+00 0. -1.
        996    1    1    2    0    0  0.80651112829E+01  0.13358719301E+02  0.85857202256E+02  0.10057316034E+03  0.50000000000E+02 0.  0.
<mgrwt>
<rscale>  0 0.52378444E+02</rscale>
<asrwt>0</asrwt>
<pdfrwt beam="1">  1       13 0.10000000E+01 0.52378444E+02</pdfrwt>
<pdfrwt beam="2">  1       22 0.16330711E+00 0.52378444E+02</pdfrwt>
<totfact> 0.65242994E-01</totfact>
</mgrwt>
</event>
<event>
 4    1  0.2489082E+000  0.5568153E+02  0.7957747E-01  0.1416903E+00
         13   -1    0    0    0    0  0.00000000000E+00  0.00000000000E+00  0.99999944186E+02  0.10000000001E+03  0.10566000000E+00 0. -1.
         22   -1    0    0    0    0 -0.00000000000E+00 -0.00000000000E+00 -0.16079484976E+02  0.16079484976E+02  0.00000000000E+00 0. -1.
         13    1    1    2    0    0 -0.12912358568E+02  0.20825560394E+02  0.26614587895E+02  0.36177070396E+02  0.10566000000E+00 0.  1.
        996    1    1    2    0    0  0.12912358568E+02 -0.20825560394E+02  0.57305871315E+02  0.79902414586E+02  0.50000000000E+02 0.  0.
<mgrwt>
<rscale>  0 0.55681532E+02</rscale>
<asrwt>0</asrwt>
<pdfrwt beam="1">  1       13 0.10000000E+01 0.55681532E+02</pdfrwt>
<pdfrwt beam="2">  1       22 0.16079508E+00 0.55681532E+02</pdfrwt>
<totfact> 0.67427471E-01</totfact>
</mgrwt>
</event>
<event>
 4    1  0.2489082E+000  0.5509744E+02  0.7957747E-01  0.1419639E+00
         13   -1    0    0    0    0  0.00000000000E+00  0.00000000000E+00  0.99999944180E+02  0.10000000000E+03  0.10566000000E+00 0.  1.
         22   -1    0    0    0    0 -0.00000000000E+00 -0.00000000000E+00 -0.34252451976E+02  0.34252451976E+02  0.00000000000E+00 0. -1.
         13    1    1    2    0    0 -0.22790648413E+02  0.40391095965E+01 -0.21153925593E+02  0.31356463344E+02  0.10566000000E+00 0. -1.
        996    1    1    2    0    0  0.22790648413E+02 -0.40391095965E+01  0.86901417797E+02  0.10289598863E+03  0.50000000000E+02 0.  0.
<mgrwt>
<rscale>  0 0.55097442E+02</rscale>
<asrwt>0</asrwt>
<pdfrwt beam="1">  1       13 0.10000000E+01 0.55097442E+02</pdfrwt>
<pdfrwt beam="2">  1       22 0.34252470E+00 0.55097442E+02</pdfrwt>
<totfact> 0.16370344E-01</totfact>
</mgrwt>
</event>
<event>
 4    1  0.2489082E+000  0.5245162E+02  0.7957747E-01  0.1432550E+00
         13   -1    0    0    0    0  0.00000000000E+00  0.00000000000E+00  0.99999944178E+02  0.99999999998E+02  0.10566000000E+00 0. -1.
         22   -1    0    0    0    0 -0.00000000000E+00 -0.00000000000E+00 -0.12423652902E+02  0.12423652902E+02  0.00000000000E+00 0. -1.
         13    1    1    2    0    0  0.15165617580E+02 -0.46018480434E+01  0.33651920984E+02  0.37197256780E+02  0.10566000000E+00 0.  1.
        996    1    1    2    0    0 -0.15165617580E+02  0.46018480434E+01  0.53924370291E+02  0.75226396121E+02  0.50000000000E+02 0.  0.
<mgrwt>
<rscale>  0 0.52451625E+02</rscale>
<asrwt>0</asrwt>
<pdfrwt beam="1">  1       13 0.10000000E+01 0.52451625E+02</pdfrwt>
<pdfrwt beam="2">  1       22 0.12423677E+00 0.52451625E+02</pdfrwt>
<totfact> 0.10199876E+00</totfact>
</mgrwt>
</event>
<event>
 4    1  0.2489082E+000  0.5715122E+02  0.7957747E-01  0.1410191E+00
         13   -1    0    0    0    0  0.00000000000E+00  0.00000000000E+00  0.99999944184E+02  0.10000000000E+03  0.10566000000E+00 0. -1.
         22   -1    0    0    0    0 -0.00000000000E+00 -0.00000000000E+00 -0.57425635313E+02  0.57425635313E+02  0.00000000000E+00 0.  1.
         13    1    1    2    0    0 -0.34705509730E+01  0.27463012229E+02 -0.45011894942E+02  0.52842630660E+02  0.10566000000E+00 0.  1.
        996    1    1    2    0    0  0.34705509730E+01 -0.27463012229E+02  0.87586203813E+02  0.10458300466E+03  0.50000000000E+02 0.  0.
<mgrwt>
<rscale>  0 0.57151218E+02</rscale>
<asrwt>0</asrwt>
<pdfrwt beam="1">  1       13 0.10000000E+01 0.57151218E+02</pdfrwt>
<pdfrwt beam="2">  1       22 0.57425647E+00 0.57151218E+02</pdfrwt>
<totfact> 0.57887698E-02</totfact>
</mgrwt>
</event>
<event>
 4    1  0.2489082E+000  0.5128585E+02  0.7957747E-01  0.1438527E+00
         13   -1    0    0    0    0  0.00000000000E+00  0.00000000000E+00  0.99999944192E+02  0.10000000001E+03  0.10566000000E+00 0. -1.
         22   -1    0    0    0    0 -0.00000000000E+00 -0.00000000000E+00 -0.21000945903E+02  0.21000945903E+02  0.00000000000E+00 0.  1.
         13    1    1    2    0    0 -0.10184733784E+02 -0.51487934004E+01 -0.11990252499E+02  0.16553434530E+02  0.10566000000E+00 0.  1.
        996    1    1    2    0    0  0.10184733784E+02  0.51487934004E+01  0.90989250788E+02  0.10444751139E+03  0.50000000000E+02 0.  0.
<mgrwt>
<rscale>  0 0.51285855E+02</rscale>
<asrwt>0</asrwt>
<pdfrwt beam="1">  1       13 0.10000000E+01 0.51285855E+02</pdfrwt>
<pdfrwt beam="2">  1       22 0.21000968E+00 0.51285855E+02</pdfrwt>
<totfact> 0.41279203E-01</totfact>
</mgrwt>
</event>
<event>
 4    1  0.2489082E+000  0.5142160E+02  0.7957747E-01  0.1437821E+00
         13   -1    0    0    0    0  0.00000000000E+00  0.00000000000E+00  0.99999944187E+02  0.10000000001E+03  0.10566000000E+00 0.  1.
         22   -1    0    0    0    0 -0.00000000000E+00 -0.00000000000E+00 -0.20028276244E+02  0.20028276244E+02  0.00000000000E+00 0. -1.
         13    1    1    2    0    0 -0.10226470774E+02  0.62928345263E+01 -0.10508581988E+02  0.15956877210E+02  0.10566000000E+00 0. -1.
        996    1    1    2    0    0  0.10226470774E+02 -0.62928345263E+01  0.90480249931E+02  0.10407139904E+03  0.50000000000E+02 0.  0.
<mgrwt>
<rscale>  0 0.51421595E+02</rscale>
<asrwt>0</asrwt>
<pdfrwt beam="1">  1       13 0.10000000E+01 0.51421595E+02</pdfrwt>
<pdfrwt beam="2">  1       22 0.20028299E+00 0.51421595E+02</pdfrwt>
<totfact> 0.45141447E-01</totfact>
</mgrwt>
</event>
<event>
 4    1  0.2489082E+000  0.6114670E+02  0.7957747E-01  0.1393082E+00
         13   -1    0    0    0    0  0.00000000000E+00  0.00000000000E+00  0.99999944175E+02  0.99999999995E+02  0.10566000000E+00 0.  1.
         22   -1    0    0    0    0 -0.00000000000E+00 -0.00000000000E+00 -0.39040572153E+02  0.39040572153E+02  0.00000000000E+00 0. -1.
         13    1    1    2    0    0  0.30691512934E+02 -0.17232237091E+02 -0.17709646922E+02  0.39402559808E+02  0.10566000000E+00 0. -1.
        996    1    1    2    0    0 -0.30691512934E+02  0.17232237091E+02  0.78669018944E+02  0.99638012340E+02  0.50000000000E+02 0.  0.
<mgrwt>
<rscale>  0 0.61146700E+02</rscale>
<asrwt>0</asrwt>
<pdfrwt beam="1">  1       13 0.10000000E+01 0.61146700E+02</pdfrwt>
<pdfrwt beam="2">  1       22 0.39040589E+00 0.61146700E+02</pdfrwt>
<totfact> 0.13032846E-01</totfact>
</mgrwt>
</event>
<event>
 4    1  0.2489082E+000  0.5139474E+02  0.7957747E-01  0.1437961E+00
         13   -1    0    0    0    0  0.00000000000E+00  0.00000000000E+00  0.99999944181E+02  0.10000000000E+03  0.10566000000E+00 0. -1.
         22   -1    0    0    0    0 -0.00000000000E+00 -0.00000000000E+00 -0.10061826582E+02  0.10061826582E+02  0.00000000000E+00 0. -1.
         13    1    1    2    0    0 -0.11379229323E+02 -0.34542885250E+01  0.20031609579E+02  0.23295826140E+02  0.10566000000E+00 0.  1.
        996    1    1    2    0    0  0.11379229323E+02  0.34542885250E+01  0.69906508021E+02  0.86766000443E+02  0.50000000000E+02 0.  0.
<mgrwt>
<rscale>  0 0.51394737E+02</rscale>
<asrwt>0</asrwt>
<pdfrwt beam="1">  1       13 0.10000000E+01 0.51394737E+02</pdfrwt>
<pdfrwt beam="2">  1       22 0.10061852E+00 0.51394737E+02</pdfrwt>
<totfact> 0.13952072E+00</totfact>
</mgrwt>
</event>
<event>
 4    1  0.2489082E+000  0.5164014E+02  0.7957747E-01  0.1436691E+00
         13   -1    0    0    0    0  0.00000000000E+00  0.00000000000E+00  0.99999944178E+02  0.99999999999E+02  0.10566000000E+00 0.  1.
         22   -1    0    0    0    0 -0.00000000000E+00 -0.00000000000E+00 -0.21536438966E+02  0.21536438966E+02  0.00000000000E+00 0. -1.
         13    1    1    2    0    0  0.42553058609E+01 -0.12190027086E+02 -0.11834658993E+02  0.17514985180E+02  0.10566000000E+00 0. -1.
        996    1    1    2    0    0 -0.42553058609E+01  0.12190027086E+02  0.90298164206E+02  0.10402145378E+03  0.50000000000E+02 0.  0.
<mgrwt>
<rscale>  0 0.51640143E+02</rscale>
<asrwt>0</asrwt>
<pdfrwt beam="1">  1       13 0.10000000E+01 0.51640143E+02</pdfrwt>
<pdfrwt beam="2">  1       22 0.21536461E+00 0.51640143E+02</pdfrwt>
<totfact> 0.39372287E-01</totfact>
</mgrwt>
</event>
<event>
 4    1  0.2489082E+000  0.5855812E+02  0.7957747E-01  0.1403984E+00
         13   -1    0    0    0    0  0.00000000000E+00  0.00000000000E+00  0.99999944178E+02  0.99999999999E+02  0.10566000000E+00 0.  1.
         22   -1    0    0    0    0 -0.00000000000E+00 -0.00000000000E+00 -0.20680095401E+02  0.20680095401E+02  0.00000000000E+00 0. -1.
         13    1    1    2    0    0  0.26416151161E+02 -0.15206603623E+02  0.15967270675E+02  0.34409573272E+02  0.10566000000E+00 0. -1.
        996    1    1    2    0    0 -0.26416151161E+02  0.15206603623E+02  0.63352578103E+02  0.86270522128E+02  0.50000000000E+02 0.  0.
<mgrwt>
<rscale>  0 0.58558124E+02</rscale>
<asrwt>0</asrwt>
<pdfrwt beam="1">  1       13 0.10000000E+01 0.58558124E+02</pdfrwt>
<pdfrwt beam="2">  1       22 0.20680118E+00 0.58558124E+02</pdfrwt>
<totfact> 0.43016698E-01</totfact>
</mgrwt>
</event>
<event>
 4    1  0.2489082E+000  0.6334069E+02  0.7957747E-01  0.1384324E+00
         13   -1    0    0    0    0  0.00000000000E+00  0.00000000000E+00  0.99999944181E+02  0.10000000000E+03  0.10566000000E+00 0. -1.
         22   -1    0    0    0    0 -0.00000000000E+00 -0.00000000000E+00 -0.82116224852E+02  0.82116224852E+02  0.00000000000E+00 0.  1.
         13    1    1    2    0    0 -0.35672621659E+02  0.15476033532E+02 -0.66241529278E+02  0.76811424378E+02  0.10566000000E+00 0.  1.
        996    1    1    2    0    0  0.35672621659E+02 -0.15476033532E+02  0.84125248606E+02  0.10530480047E+03  0.50000000000E+02 0.  0.
<mgrwt>
<rscale>  0 0.63340694E+02</rscale>
<asrwt>0</asrwt>
<pdfrwt beam="1">  1       13 0.10000000E+01 0.63340694E+02</pdfrwt>
<pdfrwt beam="2">  1       22 0.82116230E+00 0.63340694E+02</pdfrwt>
<totfact> 0.25318313E-02</totfact>
</mgrwt>
</event>
<event>
 4    1  0.2489082E+000  0.5174704E+02  0.7957747E-01  0.1436140E+00
         13   -1    0    0    0    0  0.00000000000E+00  0.00000000000E+00  0.99999944176E+02  0.99999999996E+02  0.10566000000E+00 0.  1.
         22   -1    0    0    0    0 -0.00000000000E+00 -0.00000000000E+00 -0.13786251865E+02  0.13786251865E+02  0.00000000000E+00 0. -1.
         13    1    1    2    0    0 -0.87892013158E+01  0.10025289603E+02  0.11485829083E+00  0.13333448461E+02  0.10566000000E+00 0. -1.
        996    1    1    2    0    0  0.87892013158E+01 -0.10025289603E+02  0.86098834020E+02  0.10045280340E+03  0.50000000000E+02 0.  0.
<mgrwt>
<rscale>  0 0.51747043E+02</rscale>
<asrwt>0</asrwt>
<pdfrwt beam="1">  1       13 0.10000000E+01 0.51747043E+02</pdfrwt>
<pdfrwt beam="2">  1       22 0.13786276E+00 0.51747043E+02</pdfrwt>
<totfact> 0.86403893E-01</totfact>
</mgrwt>
</event>
<event>
 4    1  0.2489082E+000  0.5287685E+02  0.7957747E-01  0.1430415E+00
         13   -1    0    0    0    0  0.00000000000E+00  0.00000000000E+00  0.99999944183E+02  0.10000000000E+03  0.10566000000E+00 0. -1.
         22   -1    0    0    0    0 -0.00000000000E+00 -0.00000000000E+00 -0.12287925546E+02  0.12287925546E+02  0.00000000000E+00 0. -1.
         13    1    1    2    0    0 -0.14195213926E+02  0.97189314364E+01  0.20192946427E+02  0.26527871684E+02  0.10566000000E+00 0.  1.
        996    1    1    2    0    0  0.14195213926E+02 -0.97189314364E+01  0.67519072210E+02  0.85760053864E+02  0.50000000000E+02 0.  0.
<mgrwt>
<rscale>  0 0.52876854E+02</rscale>
<asrwt>0</asrwt>
<pdfrwt beam="1">  1       13 0.10000000E+01 0.52876854E+02</pdfrwt>
<pdfrwt beam="2">  1       22 0.12287950E+00 0.52876854E+02</pdfrwt>
<totfact> 0.10384410E+00</totfact>
</mgrwt>
</event>
<event>
 4    1  0.2489082E+000  0.5706079E+02  0.7957747E-01  0.1410597E+00
         13   -1    0    0    0    0  0.00000000000E+00  0.00000000000E+00  0.99999944167E+02  0.99999999988E+02  0.10566000000E+00 0. -1.
         22   -1    0    0    0    0 -0.00000000000E+00 -0.00000000000E+00 -0.22330304801E+02  0.22330304801E+02  0.00000000000E+00 0. -1.
         13    1    1    2    0    0 -0.36049856761E+01 -0.27256893126E+02  0.53918073118E+02  0.60523581499E+02  0.10566000000E+00 0.  1.
        996    1    1    2    0    0  0.36049856761E+01  0.27256893126E+02  0.23751566248E+02  0.61806723290E+02  0.50000000000E+02 0.  0.
<mgrwt>
<rscale>  0 0.57060793E+02</rscale>
<asrwt>0</asrwt>
<pdfrwt beam="1">  1       13 0.10000000E+01 0.57060793E+02</pdfrwt>
<pdfrwt beam="2">  1       22 0.22330326E+00 0.57060793E+02</pdfrwt>
<totfact> 0.37051021E-01</totfact>
</mgrwt>
</event>
<event>
 4    1  0.2489082E+000  0.6820206E+02  0.7957747E-01  0.1366316E+00
         13   -1    0    0    0    0  0.00000000000E+00  0.00000000000E+00  0.99999944173E+02  0.99999999993E+02  0.10566000000E+00 0. -1.
         22   -1    0    0    0    0 -0.00000000000E+00 -0.00000000000E+00 -0.66217502277E+02  0.66217502277E+02  0.00000000000E+00 0.  1.
         13    1    1    2    0    0  0.41171333959E+02 -0.21364520645E+02 -0.43188168104E+02  0.63377839270E+02  0.10566000000E+00 0.  1.
        996    1    1    2    0    0 -0.41171333959E+02  0.21364520645E+02  0.76970610000E+02  0.10283966300E+03  0.50000000000E+02 0.  0.
<mgrwt>
<rscale>  0 0.68202064E+02</rscale>
<asrwt>0</asrwt>
<pdfrwt beam="1">  1       13 0.10000000E+01 0.68202064E+02</pdfrwt>
<pdfrwt beam="2">  1       22 0.66217512E+00 0.68202064E+02</pdfrwt>
<totfact> 0.87207774E-02</totfact>
</mgrwt>
</event>
<event>
 4    1  0.2489082E+000  0.5108778E+02  0.7957747E-01  0.1439561E+00
         13   -1    0    0    0    0  0.00000000000E+00  0.00000000000E+00  0.99999944173E+02  0.99999999993E+02  0.10566000000E+00 0. -1.
         22   -1    0    0    0    0 -0.00000000000E+00 -0.00000000000E+00 -0.61387614216E+02  0.61387614216E+02  0.00000000000E+00 0.  1.
         13    1    1    2    0    0  0.46238010959E+01  0.94117787431E+01 -0.54328429932E+02  0.55331280291E+02  0.10566000000E+00 0.  1.
        996    1    1    2    0    0 -0.46238010959E+01 -0.94117787431E+01  0.92940759889E+02  0.10605633392E+03  0.50000000000E+02 0.  0.
<mgrwt>
<rscale>  0 0.51087779E+02</rscale>
<asrwt>0</asrwt>
<pdfrwt beam="1">  1       13 0.10000000E+01 0.51087779E+02</pdfrwt>
<pdfrwt beam="2">  1       22 0.61387625E+00 0.51087779E+02</pdfrwt>
<totfact> 0.69412026E-02</totfact>
</mgrwt>
</event>
<event>
 4    1  0.2489082E+000  0.5619937E+02  0.7957747E-01  0.1414511E+00
         13   -1    0    0    0    0  0.00000000000E+00  0.00000000000E+00  0.99999944181E+02  0.10000000000E+03  0.10566000000E+00 0. -1.
         22   -1    0    0    0    0 -0.00000000000E+00 -0.00000000000E+00 -0.69394715845E+02  0.69394715845E+02  0.00000000000E+00 0.  1.
         13    1    1    2    0    0 -0.24263509039E+02 -0.83457459331E+01 -0.58594974054E+02  0.63966799939E+02  0.10566000000E+00 0.  1.
        996    1    1    2    0    0  0.24263509039E+02  0.83457459331E+01  0.89200202390E+02  0.10542791591E+03  0.50000000000E+02 0.  0.
<mgrwt>
<rscale>  0 0.56199371E+02</rscale>
<asrwt>0</asrwt>
<pdfrwt beam="1">  1       13 0.10000000E+01 0.56199371E+02</pdfrwt>
<pdfrwt beam="2">  1       22 0.69394724E+00 0.56199371E+02</pdfrwt>
<totfact> 0.77631632E-02</totfact>
</mgrwt>
</event>
<event>
 4    1  0.2489082E+000  0.5777083E+02  0.7957747E-01  0.1407432E+00
         13   -1    0    0    0    0  0.00000000000E+00  0.00000000000E+00  0.99999944175E+02  0.99999999995E+02  0.10566000000E+00 0.  1.
         22   -1    0    0    0    0 -0.00000000000E+00 -0.00000000000E+00 -0.19829593976E+02  0.19829593976E+02  0.00000000000E+00 0.  1.
         13    1    1    2    0    0  0.22911027910E+02  0.17679187209E+02  0.14512247338E+02  0.32374146276E+02  0.10566000000E+00 0. -1.
        996    1    1    2    0    0 -0.22911027910E+02 -0.17679187209E+02  0.65658102861E+02  0.87455447695E+02  0.50000000000E+02 0.  0.
<mgrwt>
<rscale>  0 0.57770831E+02</rscale>
<asrwt>0</asrwt>
<pdfrwt beam="1">  1       13 0.10000000E+01 0.57770831E+02</pdfrwt>
<pdfrwt beam="2">  1       22 0.19829616E+00 0.57770831E+02</pdfrwt>
<totfact> 0.46490334E-01</totfact>
</mgrwt>
</event>
<event>
 4    1  0.2489082E+000  0.5646242E+02  0.7957747E-01  0.1413307E+00
         13   -1    0    0    0    0  0.00000000000E+00  0.00000000000E+00  0.99999944182E+02  0.10000000000E+03  0.10566000000E+00 0. -1.
         22   -1    0    0    0    0 -0.00000000000E+00 -0.00000000000E+00 -0.82060773195E+02  0.82060773195E+02  0.00000000000E+00 0.  1.
         13    1    1    2    0    0 -0.12298516212E+02 -0.23167897029E+02 -0.71573367306E+02  0.76228361030E+02  0.10566000000E+00 0.  1.
        996    1    1    2    0    0  0.12298516212E+02  0.23167897029E+02  0.89512538293E+02  0.10583241217E+03  0.50000000000E+02 0.  0.
<mgrwt>
<rscale>  0 0.56462421E+02</rscale>
<asrwt>0</asrwt>
<pdfrwt beam="1">  1       13 0.10000000E+01 0.56462421E+02</pdfrwt>
<pdfrwt beam="2">  1       22 0.82060778E+00 0.56462421E+02</pdfrwt>
<totfact> 0.25459524E-02</totfact>
</mgrwt>
</event>
<event>
 4    1  0.2489082E+000  0.8552489E+02  0.7957747E-01  0.1314066E+00
         13   -1    0    0    0    0  0.00000000000E+00  0.00000000000E+00  0.99999944184E+02  0.10000000000E+03  0.10566000000E+00 0. -1.
         22   -1    0    0    0    0 -0.00000000000E+00 -0.00000000000E+00 -0.82425785843E+02  0.82425785843E+02  0.00000000000E+00 0.  1.
         13    1    1    2    0    0  0.58620140648E+02  0.37123929655E+02 -0.39274396936E+02  0.79730774870E+02  0.10566000000E+00 0.  1.
        996    1    1    2    0    0 -0.58620140648E+02 -0.37123929655E+02  0.56848555278E+02  0.10269501098E+03  0.50000000000E+02 0.  0.
<mgrwt>
<rscale>  0 0.85524891E+02</rscale>
<asrwt>0</asrwt>
<pdfrwt beam="1">  1       13 0.10000000E+01 0.85524891E+02</pdfrwt>
<pdfrwt beam="2">  1       22 0.82425791E+00 0.85524891E+02</pdfrwt>
<totfact> 0.24560874E-02</totfact>
</mgrwt>
</event>
<event>
 4    1  0.2489082E+000  0.6595422E+02  0.7957747E-01  0.1374418E+00
         13   -1    0    0    0    0  0.00000000000E+00  0.00000000000E+00  0.99999944178E+02  0.99999999998E+02  0.10566000000E+00 0. -1.
         22   -1    0    0    0    0 -0.00000000000E+00 -0.00000000000E+00 -0.53564233193E+02  0.53564233193E+02  0.00000000000E+00 0.  1.
         13    1    1    2    0    0  0.57361601917E+01 -0.42626940942E+02 -0.30125361987E+02  0.52511981744E+02  0.10566000000E+00 0.  1.
        996    1    1    2    0    0 -0.57361601917E+01  0.42626940942E+02  0.76561072972E+02  0.10105225145E+03  0.50000000000E+02 0.  0.
<mgrwt>
<rscale>  0 0.65954224E+02</rscale>
<asrwt>0</asrwt>
<pdfrwt beam="1">  1       13 0.10000000E+01 0.65954224E+02</pdfrwt>
<pdfrwt beam="2">  1       22 0.53564246E+00 0.65954224E+02</pdfrwt>
<totfact> 0.61884467E-02</totfact>
</mgrwt>
</event>
<event>
 4    1  0.2489082E+000  0.5153854E+02  0.7957747E-01  0.1437215E+00
         13   -1    0    0    0    0  0.00000000000E+00  0.00000000000E+00  0.99999944182E+02  0.10000000000E+03  0.10566000000E+00 0.  1.
         22   -1    0    0    0    0 -0.00000000000E+00 -0.00000000000E+00 -0.13733314289E+02  0.13733314289E+02  0.00000000000E+00 0. -1.
         13    1    1    2    0    0  0.12489125804E+02 -0.49267798792E+00 -0.83379371177E+00  0.12527065536E+02  0.10566000000E+00 0. -1.
        996    1    1    2    0    0 -0.12489125804E+02  0.49267798792E+00  0.87100423605E+02  0.10120624876E+03  0.50000000000E+02 0.  0.
<mgrwt>
<rscale>  0 0.51538539E+02</rscale>
<asrwt>0</asrwt>
<pdfrwt beam="1">  1       13 0.10000000E+01 0.51538539E+02</pdfrwt>
<pdfrwt beam="2">  1       22 0.13733338E+00 0.51538539E+02</pdfrwt>
<totfact> 0.86901988E-01</totfact>
</mgrwt>
</event>
<event>
 4    1  0.2489082E+000  0.5225259E+02  0.7957747E-01  0.1433557E+00
         13   -1    0    0    0    0  0.00000000000E+00  0.00000000000E+00  0.99999944177E+02  0.99999999997E+02  0.10566000000E+00 0.  1.
         22   -1    0    0    0    0 -0.00000000000E+00 -0.00000000000E+00 -0.44845386602E+02  0.44845386602E+02  0.00000000000E+00 0. -1.
         13    1    1    2    0    0 -0.21831483839E+01 -0.15018903490E+02 -0.36395454073E+02  0.39433156609E+02  0.10566000000E+00 0. -1.
        996    1    1    2    0    0  0.21831483839E+01  0.15018903490E+02  0.91550011648E+02  0.10541222999E+03  0.50000000000E+02 0.  0.
<mgrwt>
<rscale>  0 0.52252594E+02</rscale>
<asrwt>0</asrwt>
<pdfrwt beam="1">  1       13 0.10000000E+01 0.52252594E+02</pdfrwt>
<pdfrwt beam="2">  1       22 0.44845402E+00 0.52252594E+02</pdfrwt>
<totfact> 0.97413544E-02</totfact>
</mgrwt>
</event>
<event>
 4    1  0.2489082E+000  0.7105459E+02  0.7957747E-01  0.1356543E+00
         13   -1    0    0    0    0  0.00000000000E+00  0.00000000000E+00  0.99999944173E+02  0.99999999993E+02  0.10566000000E+00 0.  1.
         22   -1    0    0    0    0 -0.00000000000E+00 -0.00000000000E+00 -0.43949292377E+02  0.43949292377E+02  0.00000000000E+00 0. -1.
         13    1    1    2    0    0  0.50457605169E+02 -0.16689442002E+01 -0.43762286494E+01  0.50674627136E+02  0.10566000000E+00 0. -1.
        996    1    1    2    0    0 -0.50457605169E+02  0.16689442002E+01  0.60426880445E+02  0.93274665234E+02  0.50000000000E+02 0.  0.
<mgrwt>
<rscale>  0 0.71054594E+02</rscale>
<asrwt>0</asrwt>
<pdfrwt beam="1">  1       13 0.10000000E+01 0.71054594E+02</pdfrwt>
<pdfrwt beam="2">  1       22 0.43949308E+00 0.71054594E+02</pdfrwt>
<totfact> 0.10302141E-01</totfact>
</mgrwt>
</event>
<event>
 4    1  0.2489082E+000  0.5110819E+02  0.7957747E-01  0.1439454E+00
         13   -1    0    0    0    0  0.00000000000E+00  0.00000000000E+00  0.99999944172E+02  0.99999999992E+02  0.10566000000E+00 0. -1.
         22   -1    0    0    0    0 -0.00000000000E+00 -0.00000000000E+00 -0.11217933524E+02  0.11217933524E+02  0.00000000000E+00 0. -1.
         13    1    1    2    0    0  0.95120859927E+01 -0.46440650988E+01  0.24082825739E+01  0.10856247490E+02  0.10566000000E+00 0.  1.
        996    1    1    2    0    0 -0.95120859927E+01  0.46440650988E+01  0.86373728074E+02  0.10036168603E+03  0.50000000000E+02 0.  0.
<mgrwt>
<rscale>  0 0.51108190E+02</rscale>
<asrwt>0</asrwt>
<pdfrwt beam="1">  1       13 0.10000000E+01 0.51108190E+02</pdfrwt>
<pdfrwt beam="2">  1       22 0.11217958E+00 0.51108190E+02</pdfrwt>
<totfact> 0.11879037E+00</totfact>
</mgrwt>
</event>
<event>
 4    1  0.2489082E+000  0.5137855E+02  0.7957747E-01  0.1438045E+00
         13   -1    0    0    0    0  0.00000000000E+00  0.00000000000E+00  0.99999944179E+02  0.99999999999E+02  0.10566000000E+00 0.  1.
         22   -1    0    0    0    0 -0.00000000000E+00 -0.00000000000E+00 -0.12550884134E+02  0.12550884134E+02  0.00000000000E+00 0.  1.
         13    1    1    2    0    0  0.10158436748E+02  0.60466324511E+01  0.43058047489E+02  0.44651564572E+02  0.10566000000E+00 0. -1.
        996    1    1    2    0    0 -0.10158436748E+02 -0.60466324511E+01  0.44391012556E+02  0.67899319561E+02  0.50000000000E+02 0.  0.
<mgrwt>
<rscale>  0 0.51378552E+02</rscale>
<asrwt>0</asrwt>
<pdfrwt beam="1">  1       13 0.10000000E+01 0.51378552E+02</pdfrwt>
<pdfrwt beam="2">  1       22 0.12550909E+00 0.51378552E+02</pdfrwt>
<totfact> 0.10016035E+00</totfact>
</mgrwt>
</event>
<event>
 4    1  0.2489082E+000  0.5160491E+02  0.7957747E-01  0.1436872E+00
         13   -1    0    0    0    0  0.00000000000E+00  0.00000000000E+00  0.99999944184E+02  0.10000000000E+03  0.10566000000E+00 0. -1.
         22   -1    0    0    0    0 -0.00000000000E+00 -0.00000000000E+00 -0.10667845416E+02  0.10667845416E+02  0.00000000000E+00 0. -1.
         13    1    1    2    0    0  0.11969996992E+02  0.44480887138E+01  0.10943606770E+02  0.16817848089E+02  0.10566000000E+00 0.  1.
        996    1    1    2    0    0 -0.11969996992E+02 -0.44480887138E+01  0.78388491999E+02  0.93849997331E+02  0.50000000000E+02 0.  0.
<mgrwt>
<rscale>  0 0.51604906E+02</rscale>
<asrwt>0</asrwt>
<pdfrwt beam="1">  1       13 0.10000000E+01 0.51604906E+02</pdfrwt>
<pdfrwt beam="2">  1       22 0.10667870E+00 0.51604906E+02</pdfrwt>
<totfact> 0.12814891E+00</totfact>
</mgrwt>
</event>
<event>
 4    1  0.2489082E+000  0.5205181E+02  0.7957747E-01  0.1434579E+00
         13   -1    0    0    0    0  0.00000000000E+00  0.00000000000E+00  0.99999944180E+02  0.10000000000E+03  0.10566000000E+00 0.  1.
         22   -1    0    0    0    0 -0.00000000000E+00 -0.00000000000E+00 -0.11204699983E+02  0.11204699983E+02  0.00000000000E+00 0. -1.
         13    1    1    2    0    0 -0.14238670024E+02 -0.25789110781E+01  0.24805756416E+02  0.28718064382E+02  0.10566000000E+00 0. -1.
        996    1    1    2    0    0  0.14238670024E+02  0.25789110781E+01  0.63989487781E+02  0.82486635602E+02  0.50000000000E+02 0.  0.
<mgrwt>
<rscale>  0 0.52051806E+02</rscale>
<asrwt>0</asrwt>
<pdfrwt beam="1">  1       13 0.10000000E+01 0.52051806E+02</pdfrwt>
<pdfrwt beam="2">  1       22 0.11204725E+00 0.52051806E+02</pdfrwt>
<totfact> 0.11926044E+00</totfact>
</mgrwt>
</event>
<event>
 4    1  0.2489082E+000  0.5220397E+02  0.7957747E-01  0.1433804E+00
         13   -1    0    0    0    0  0.00000000000E+00  0.00000000000E+00  0.99999944182E+02  0.10000000000E+03  0.10566000000E+00 0. -1.
         22   -1    0    0    0    0 -0.00000000000E+00 -0.00000000000E+00 -0.19134173427E+02  0.19134173427E+02  0.00000000000E+00 0.  1.
         13    1    1    2    0    0  0.12893115824E+02  0.76826138012E+01 -0.72862721732E+01  0.16684001819E+02  0.10566000000E+00 0.  1.
        996    1    1    2    0    0 -0.12893115824E+02 -0.76826138012E+01  0.88152042928E+02  0.10245017161E+03  0.50000000000E+02 0.  0.
<mgrwt>
<rscale>  0 0.52203975E+02</rscale>
<asrwt>0</asrwt>
<pdfrwt beam="1">  1       13 0.10000000E+01 0.52203975E+02</pdfrwt>
<pdfrwt beam="2">  1       22 0.19134196E+00 0.52203975E+02</pdfrwt>
<totfact> 0.49193239E-01</totfact>
</mgrwt>
</event>
<event>
 4    1  0.2489082E+000  0.6118968E+02  0.7957747E-01  0.1392906E+00
         13   -1    0    0    0    0  0.00000000000E+00  0.00000000000E+00  0.99999944177E+02  0.99999999997E+02  0.10566000000E+00 0. -1.
         22   -1    0    0    0    0 -0.00000000000E+00 -0.00000000000E+00 -0.25580479064E+02  0.25580479064E+02  0.00000000000E+00 0.  1.
         13    1    1    2    0    0  0.34740458750E+02  0.61054918336E+01  0.46388397435E+02  0.58275819045E+02  0.10566000000E+00 0.  1.
        996    1    1    2    0    0 -0.34740458750E+02 -0.61054918336E+01  0.28031067679E+02  0.67304660016E+02  0.50000000000E+02 0.  0.
<mgrwt>
<rscale>  0 0.61189676E+02</rscale>
<asrwt>0</asrwt>
<pdfrwt beam="1">  1       13 0.10000000E+01 0.61189676E+02</pdfrwt>
<pdfrwt beam="2">  1       22 0.25580500E+00 0.61189676E+02</pdfrwt>
<totfact> 0.28545422E-01</totfact>
</mgrwt>
</event>
<event>
 4    1  0.2489082E+000  0.5116824E+02  0.7957747E-01  0.1439140E+00
         13   -1    0    0    0    0  0.00000000000E+00  0.00000000000E+00  0.99999944180E+02  0.10000000000E+03  0.10566000000E+00 0. -1.
         22   -1    0    0    0    0 -0.00000000000E+00 -0.00000000000E+00 -0.14043934134E+02  0.14043934134E+02  0.00000000000E+00 0. -1.
         13    1    1    2    0    0  0.55683015542E+01 -0.93371647228E+01 -0.31258442116E+01  0.11312413241E+02  0.10566000000E+00 0.  1.
        996    1    1    2    0    0 -0.55683015542E+01  0.93371647228E+01  0.89081854257E+02  0.10273152089E+03  0.50000000000E+02 0.  0.
<mgrwt>
<rscale>  0 0.51168238E+02</rscale>
<asrwt>0</asrwt>
<pdfrwt beam="1">  1       13 0.10000000E+01 0.51168238E+02</pdfrwt>
<pdfrwt beam="2">  1       22 0.14043958E+00 0.51168238E+02</pdfrwt>
<totfact> 0.83752589E-01</totfact>
</mgrwt>
</event>
<event>
 4    1  0.2489082E+000  0.5179013E+02  0.7957747E-01  0.1435919E+00
         13   -1    0    0    0    0  0.00000000000E+00  0.00000000000E+00  0.99999944178E+02  0.99999999999E+02  0.10566000000E+00 0.  1.
         22   -1    0    0    0    0 -0.00000000000E+00 -0.00000000000E+00 -0.10910223790E+02  0.10910223790E+02  0.00000000000E+00 0.  1.
         13    1    1    2    0    0  0.13197147231E+02  0.28376766542E+01  0.25915562395E+02  0.29220620153E+02  0.10566000000E+00 0. -1.
        996    1    1    2    0    0 -0.13197147231E+02 -0.28376766542E+01  0.63174157994E+02  0.81689603635E+02  0.50000000000E+02 0.  0.
<mgrwt>
<rscale>  0 0.51790126E+02</rscale>
<asrwt>0</asrwt>
<pdfrwt beam="1">  1       13 0.10000000E+01 0.51790126E+02</pdfrwt>
<pdfrwt beam="2">  1       22 0.10910249E+00 0.51790126E+02</pdfrwt>
<totfact> 0.12401389E+00</totfact>
</mgrwt>
</event>
<event>
 4    1  0.2489082E+000  0.5870497E+02  0.7957747E-01  0.1403348E+00
         13   -1    0    0    0    0  0.00000000000E+00  0.00000000000E+00  0.99999944174E+02  0.99999999994E+02  0.10566000000E+00 0. -1.
         22   -1    0    0    0    0 -0.00000000000E+00 -0.00000000000E+00 -0.20170069506E+02  0.20170069506E+02  0.00000000000E+00 0. -1.
         13    1    1    2    0    0  0.16415548940E+02  0.26015443413E+02  0.32622506316E+02  0.44838740230E+02  0.10566000000E+00 0.  1.
        996    1    1    2    0    0 -0.16415548940E+02 -0.26015443413E+02  0.47207368351E+02  0.75331329270E+02  0.50000000000E+02 0.  0.
<mgrwt>
<rscale>  0 0.58704970E+02</rscale>
<asrwt>0</asrwt>
<pdfrwt beam="1">  1       13 0.10000000E+01 0.58704970E+02</pdfrwt>
<pdfrwt beam="2">  1       22 0.20170092E+00 0.58704970E+02</pdfrwt>
<totfact> 0.45099917E-01</totfact>
</mgrwt>
</event>
<event>
 4    1  0.2489082E+000  0.5112925E+02  0.7957747E-01  0.1439344E+00
         13   -1    0    0    0    0  0.00000000000E+00  0.00000000000E+00  0.99999944178E+02  0.99999999999E+02  0.10566000000E+00 0.  1.
         22   -1    0    0    0    0 -0.00000000000E+00 -0.00000000000E+00 -0.97591674913E+01  0.97591674913E+01  0.00000000000E+00 0. -1.
         13    1    1    2    0    0  0.77700731004E+01  0.73366110155E+01  0.10145593730E+02  0.14735811255E+02  0.10566000000E+00 0. -1.
        996    1    1    2    0    0 -0.77700731004E+01 -0.73366110155E+01  0.80095182957E+02  0.95023356234E+02  0.50000000000E+02 0.  0.
<mgrwt>
<rscale>  0 0.51129247E+02</rscale>
<asrwt>0</asrwt>
<pdfrwt beam="1">  1       13 0.10000000E+01 0.51129247E+02</pdfrwt>
<pdfrwt beam="2">  1       22 0.97591927E-01 0.51129247E+02</pdfrwt>
<totfact> 0.14571987E+00</totfact>
</mgrwt>
</event>
<event>
 4    1  0.2489082E+000  0.5915437E+02  0.7957747E-01  0.1401415E+00
         13   -1    0    0    0    0  0.00000000000E+00  0.00000000000E+00  0.99999944186E+02  0.10000000001E+03  0.10566000000E+00 0. -1.
         22   -1    0    0    0    0 -0.00000000000E+00 -0.00000000000E+00 -0.20899265018E+02  0.20899265018E+02  0.00000000000E+00 0.  1.
         13    1    1    2    0    0  0.11878576823E+02  0.29294011776E+02  0.20777225755E+02  0.37827820283E+02  0.10566000000E+00 0.  1.
        996    1    1    2    0    0 -0.11878576823E+02 -0.29294011776E+02  0.58323453413E+02  0.83071444741E+02  0.50000000000E+02 0.  0.
<mgrwt>
<rscale>  0 0.59154372E+02</rscale>
<asrwt>0</asrwt>
<pdfrwt beam="1">  1       13 0.10000000E+01 0.59154372E+02</pdfrwt>
<pdfrwt beam="2">  1       22 0.20899287E+00 0.59154372E+02</pdfrwt>
<totfact> 0.42204076E-01</totfact>
</mgrwt>
</event>
<event>
 4    1  0.2489082E+000  0.5201070E+02  0.7957747E-01  0.1434789E+00
         13   -1    0    0    0    0  0.00000000000E+00  0.00000000000E+00  0.99999944174E+02  0.99999999994E+02  0.10566000000E+00 0. -1.
         22   -1    0    0    0    0 -0.00000000000E+00 -0.00000000000E+00 -0.37640109471E+02  0.37640109471E+02  0.00000000000E+00 0.  1.
         13    1    1    2    0    0 -0.93432125592E+00 -0.14291252301E+02 -0.29095721536E+02  0.32429693558E+02  0.10566000000E+00 0.  1.
        996    1    1    2    0    0  0.93432125592E+00  0.14291252301E+02  0.91455556238E+02  0.10521041591E+03  0.50000000000E+02 0.  0.
<mgrwt>
<rscale>  0 0.52010699E+02</rscale>
<asrwt>0</asrwt>
<pdfrwt beam="1">  1       13 0.10000000E+01 0.52010699E+02</pdfrwt>
<pdfrwt beam="2">  1       22 0.37640127E+00 0.52010699E+02</pdfrwt>
<totfact> 0.13828713E-01</totfact>
</mgrwt>
</event>
<event>
 4    1  0.2489082E+000  0.6014079E+02  0.7957747E-01  0.1397242E+00
         13   -1    0    0    0    0  0.00000000000E+00  0.00000000000E+00  0.99999944180E+02  0.10000000000E+03  0.10566000000E+00 0. -1.
         22   -1    0    0    0    0 -0.00000000000E+00 -0.00000000000E+00 -0.22092746027E+02  0.22092746027E+02  0.00000000000E+00 0.  1.
         13    1    1    2    0    0  0.25092822800E+02  0.22074078382E+02  0.22247808828E+02  0.40148360542E+02  0.10566000000E+00 0.  1.
        996    1    1    2    0    0 -0.25092822800E+02 -0.22074078382E+02  0.55659389325E+02  0.81944385485E+02  0.50000000000E+02 0.  0.
<mgrwt>
<rscale>  0 0.60140791E+02</rscale>
<asrwt>0</asrwt>
<pdfrwt beam="1">  1       13 0.10000000E+01 0.60140791E+02</pdfrwt>
<pdfrwt beam="2">  1       22 0.22092768E+00 0.60140791E+02</pdfrwt>
<totfact> 0.37999299E-01</totfact>
</mgrwt>
</event>
<event>
 4    1  0.2489082E+000  0.5180016E+02  0.7957747E-01  0.1435867E+00
         13   -1    0    0    0    0  0.00000000000E+00  0.00000000000E+00  0.99999944180E+02  0.10000000000E+03  0.10566000000E+00 0.  1.
         22   -1    0    0    0    0 -0.00000000000E+00 -0.00000000000E+00 -0.18416759814E+02  0.18416759814E+02  0.00000000000E+00 0. -1.
         13    1    1    2    0    0 -0.45326328410E+01  0.12755871721E+02 -0.74194567548E+01  0.15437503891E+02  0.10566000000E+00 0. -1.
        996    1    1    2    0    0  0.45326328410E+01 -0.12755871721E+02  0.89002641121E+02  0.10297925592E+03  0.50000000000E+02 0.  0.
<mgrwt>
<rscale>  0 0.51800164E+02</rscale>
<asrwt>0</asrwt>
<pdfrwt beam="1">  1       13 0.10000000E+01 0.51800164E+02</pdfrwt>
<pdfrwt beam="2">  1       22 0.18416783E+00 0.51800164E+02</pdfrwt>
<totfact> 0.52701886E-01</totfact>
</mgrwt>
</event>
<event>
 4    1  0.2489082E+000  0.6444528E+02  0.7957747E-01  0.1380070E+00
         13   -1    0    0    0    0  0.00000000000E+00  0.00000000000E+00  0.99999944180E+02  0.10000000000E+03  0.10566000000E+00 0.  1.
         22   -1    0    0    0    0 -0.00000000000E+00 -0.00000000000E+00 -0.31030737304E+02  0.31030737304E+02  0.00000000000E+00 0. -1.
         13    1    1    2    0    0  0.22242779037E+02 -0.34036050604E+02  0.63116894180E+01  0.41146598248E+02  0.10566000000E+00 0. -1.
        996    1    1    2    0    0 -0.22242779037E+02  0.34036050604E+02  0.62657517457E+02  0.89884139057E+02  0.50000000000E+02 0.  0.
<mgrwt>
<rscale>  0 0.64445279E+02</rscale>
<asrwt>0</asrwt>
<pdfrwt beam="1">  1       13 0.10000000E+01 0.64445279E+02</pdfrwt>
<pdfrwt beam="2">  1       22 0.31030757E+00 0.64445279E+02</pdfrwt>
<totfact> 0.19724875E-01</totfact>
</mgrwt>
</event>
<event>
 4    1  0.2489082E+000  0.5121171E+02  0.7957747E-01  0.1438913E+00
         13   -1    0    0    0    0  0.00000000000E+00  0.00000000000E+00  0.99999944182E+02  0.10000000000E+03  0.10566000000E+00 0.  1.
         22   -1    0    0    0    0 -0.00000000000E+00 -0.00000000000E+00 -0.14727902400E+02  0.14727902400E+02  0.00000000000E+00 0. -1.
         13    1    1    2    0    0  0.63277388333E+01 -0.90883929758E+01 -0.40288096547E+01  0.11784805340E+02  0.10566000000E+00 0. -1.
        996    1    1    2    0    0 -0.63277388333E+01  0.90883929758E+01  0.89300851436E+02  0.10294309706E+03  0.50000000000E+02 0.  0.
<mgrwt>
<rscale>  0 0.51211709E+02</rscale>
<asrwt>0</asrwt>
<pdfrwt beam="1">  1       13 0.10000000E+01 0.51211709E+02</pdfrwt>
<pdfrwt beam="2">  1       22 0.14727926E+00 0.51211709E+02</pdfrwt>
<totfact> 0.77487335E-01</totfact>
</mgrwt>
</event>
<event>
 4    1  0.2489082E+000  0.5113769E+02  0.7957747E-01  0.1439300E+00
         13   -1    0    0    0    0  0.00000000000E+00  0.00000000000E+00  0.99999944175E+02  0.99999999995E+02  0.10566000000E+00 0.  1.
         22   -1    0    0    0    0 -0.00000000000E+00 -0.00000000000E+00 -0.95992196077E+01  0.95992196077E+01  0.00000000000E+00 0.  1.
         13    1    1    2    0    0 -0.51706710415E+01 -0.93982446880E+01  0.13407465679E+02  0.17170735051E+02  0.10566000000E+00 0. -1.
        996    1    1    2    0    0  0.51706710415E+01  0.93982446880E+01  0.76993258889E+02  0.92428484552E+02  0.50000000000E+02 0.  0.
<mgrwt>
<rscale>  0 0.51137685E+02</rscale>
<asrwt>0</asrwt>
<pdfrwt beam="1">  1       13 0.10000000E+01 0.51137685E+02</pdfrwt>
<pdfrwt beam="2">  1       22 0.95992448E-01 0.51137685E+02</pdfrwt>
<totfact> 0.14922135E+00</totfact>
</mgrwt>
</event>
<event>
 4    1  0.2489082E+000  0.5282912E+02  0.7957747E-01  0.1430653E+00
         13   -1    0    0    0    0  0.00000000000E+00  0.00000000000E+00  0.99999944181E+02  0.10000000000E+03  0.10566000000E+00 0.  1.
         22   -1    0    0    0    0 -0.00000000000E+00 -0.00000000000E+00 -0.12576661545E+02  0.12576661545E+02  0.00000000000E+00 0.  1.
         13    1    1    2    0    0 -0.10222721339E+02  0.13653291853E+02  0.13690263043E+02  0.21871233989E+02  0.10566000000E+00 0. -1.
        996    1    1    2    0    0  0.10222721339E+02 -0.13653291853E+02  0.73733019593E+02  0.90705427557E+02  0.50000000000E+02 0.  0.
<mgrwt>
<rscale>  0 0.52829125E+02</rscale>
<asrwt>0</asrwt>
<pdfrwt beam="1">  1       13 0.10000000E+01 0.52829125E+02</pdfrwt>
<pdfrwt beam="2">  1       22 0.12576686E+00 0.52829125E+02</pdfrwt>
<totfact> 0.10015874E+00</totfact>
</mgrwt>
</event>
<event>
 4    1  0.2489082E+000  0.5485358E+02  0.7957747E-01  0.1420793E+00
         13   -1    0    0    0    0  0.00000000000E+00  0.00000000000E+00  0.99999944175E+02  0.99999999995E+02  0.10566000000E+00 0. -1.
         22   -1    0    0    0    0 -0.00000000000E+00 -0.00000000000E+00 -0.15613997630E+02  0.15613997630E+02  0.00000000000E+00 0.  1.
         13    1    1    2    0    0  0.91213765324E+01  0.20632891952E+02  0.14688499763E+02  0.26919861246E+02  0.10566000000E+00 0.  1.
        996    1    1    2    0    0 -0.91213765324E+01 -0.20632891952E+02  0.69697446782E+02  0.88694136380E+02  0.50000000000E+02 0.  0.
<mgrwt>
<rscale>  0 0.54853585E+02</rscale>
<asrwt>0</asrwt>
<pdfrwt beam="1">  1       13 0.10000000E+01 0.54853585E+02</pdfrwt>
<pdfrwt beam="2">  1       22 0.15614021E+00 0.54853585E+02</pdfrwt>
<totfact> 0.70782174E-01</totfact>
</mgrwt>
</event>
<event>
 4    1  0.2489082E+000  0.5205104E+02  0.7957747E-01  0.1434583E+00
         13   -1    0    0    0    0  0.00000000000E+00  0.00000000000E+00  0.99999944187E+02  0.10000000001E+03  0.10566000000E+00 0. -1.
         22   -1    0    0    0    0 -0.00000000000E+00 -0.00000000000E+00 -0.18224075739E+02  0.18224075739E+02  0.00000000000E+00 0.  1.
         13    1    1    2    0    0 -0.13509431733E+02  0.51774959999E+01 -0.64086214010E+01  0.15823804943E+02  0.10566000000E+00 0.  1.
        996    1    1    2    0    0  0.13509431733E+02 -0.51774959999E+01  0.88184489849E+02  0.10240027080E+03  0.50000000000E+02 0.  0.
<mgrwt>
<rscale>  0 0.52051044E+02</rscale>
<asrwt>0</asrwt>
<pdfrwt beam="1">  1       13 0.10000000E+01 0.52051044E+02</pdfrwt>
<pdfrwt beam="2">  1       22 0.18224099E+00 0.52051044E+02</pdfrwt>
<totfact> 0.53737403E-01</totfact>
</mgrwt>
</event>
<event>
 4    1  0.2489082E+000  0.5607516E+02  0.7957747E-01  0.1415082E+00
         13   -1    0    0    0    0  0.00000000000E+00  0.00000000000E+00  0.99999944181E+02  0.10000000000E+03  0.10566000000E+00 0.  1.
         22   -1    0    0    0    0 -0.00000000000E+00 -0.00000000000E+00 -0.26533119912E+02  0.26533119912E+02  0.00000000000E+00 0. -1.
         13    1    1    2    0    0  0.59769146786E+01 -0.24671854243E+02 -0.88909421880E+01  0.26897656365E+02  0.10566000000E+00 0. -1.
        996    1    1    2    0    0 -0.59769146786E+01  0.24671854243E+02  0.82357766457E+02  0.99635463549E+02  0.50000000000E+02 0.  0.
<mgrwt>
<rscale>  0 0.56075163E+02</rscale>
<asrwt>0</asrwt>
<pdfrwt beam="1">  1       13 0.10000000E+01 0.56075163E+02</pdfrwt>
<pdfrwt beam="2">  1       22 0.26533140E+00 0.56075163E+02</pdfrwt>
<totfact> 0.26377176E-01</totfact>
</mgrwt>
</event>
<event>
 4    1  0.2489082E+000  0.5561281E+02  0.7957747E-01  0.1417223E+00
         13   -1    0    0    0    0  0.00000000000E+00  0.00000000000E+00  0.99999944183E+02  0.10000000000E+03  0.10566000000E+00 0. -1.
         22   -1    0    0    0    0 -0.00000000000E+00 -0.00000000000E+00 -0.44573980414E+02  0.44573980414E+02  0.00000000000E+00 0.  1.
         13    1    1    2    0    0 -0.24305657641E+02 -0.14209995778E+01 -0.32456384113E+02  0.40573541464E+02  0.10566000000E+00 0.  1.
        996    1    1    2    0    0  0.24305657641E+02  0.14209995778E+01  0.87882347883E+02  0.10400043895E+03  0.50000000000E+02 0.  0.
<mgrwt>
<rscale>  0 0.55612806E+02</rscale>
<asrwt>0</asrwt>
<pdfrwt beam="1">  1       13 0.10000000E+01 0.55612806E+02</pdfrwt>
<pdfrwt beam="2">  1       22 0.44573996E+00 0.55612806E+02</pdfrwt>
<totfact> 0.98982858E-02</totfact>
</mgrwt>
</event>
<event>
 4    1  0.2489082E+000  0.5273817E+02  0.7957747E-01  0.1431108E+00
         13   -1    0    0    0    0  0.00000000000E+00  0.00000000000E+00  0.99999944172E+02  0.99999999992E+02  0.10566000000E+00 0.  1.
         22   -1    0    0    0    0 -0.00000000000E+00 -0.00000000000E+00 -0.12151384244E+02  0.12151384244E+02  0.00000000000E+00 0.  1.
         13    1    1    2    0    0 -0.51278479136E+01  0.15969351563E+02  0.17635043916E+02  0.24337644741E+02  0.10566000000E+00 0. -1.
        996    1    1    2    0    0  0.51278479136E+01 -0.15969351563E+02  0.70213516011E+02  0.87813739496E+02  0.50000000000E+02 0.  0.
<mgrwt>
<rscale>  0 0.52738174E+02</rscale>
<asrwt>0</asrwt>
<pdfrwt beam="1">  1       13 0.10000000E+01 0.52738174E+02</pdfrwt>
<pdfrwt beam="2">  1       22 0.12151409E+00 0.52738174E+02</pdfrwt>
<totfact> 0.10561698E+00</totfact>
</mgrwt>
</event>
<event>
 4    1  0.2489082E+000  0.5115832E+02  0.7957747E-01  0.1439192E+00
         13   -1    0    0    0    0  0.00000000000E+00  0.00000000000E+00  0.99999944173E+02  0.99999999993E+02  0.10566000000E+00 0. -1.
         22   -1    0    0    0    0 -0.00000000000E+00 -0.00000000000E+00 -0.13316596540E+02  0.13316596540E+02  0.00000000000E+00 0. -1.
         13    1    1    2    0    0  0.81767115326E+01 -0.70933490602E+01 -0.19300988574E+01  0.10995938251E+02  0.10566000000E+00 0.  1.
        996    1    1    2    0    0 -0.81767115326E+01  0.70933490602E+01  0.88613446490E+02  0.10232065828E+03  0.50000000000E+02 0.  0.
<mgrwt>
<rscale>  0 0.51158325E+02</rscale>
<asrwt>0</asrwt>
<pdfrwt beam="1">  1       13 0.10000000E+01 0.51158325E+02</pdfrwt>
<pdfrwt beam="2">  1       22 0.13316621E+00 0.51158325E+02</pdfrwt>
<totfact> 0.91213748E-01</totfact>
</mgrwt>
</event>
<event>
 4    1  0.2489082E+000  0.5154091E+02  0.7957747E-01  0.1437203E+00
         13   -1    0    0    0    0  0.00000000000E+00  0.00000000000E+00  0.99999944175E+02  0.99999999995E+02  0.10566000000E+00 0.  1.
         22   -1    0    0    0    0 -0.00000000000E+00 -0.00000000000E+00 -0.10880711478E+02  0.10880711478E+02  0.00000000000E+00 0.  1.
         13    1    1    2    0    0  0.90935816332E+01  0.85890842050E+01  0.82542893964E+01  0.14986996092E+02  0.10566000000E+00 0. -1.
        996    1    1    2    0    0 -0.90935816332E+01 -0.85890842050E+01  0.80864943301E+02  0.95893715380E+02  0.50000000000E+02 0.  0.
<mgrwt>
<rscale>  0 0.51540912E+02</rscale>
<asrwt>0</asrwt>
<pdfrwt beam="1">  1       13 0.10000000E+01 0.51540912E+02</pdfrwt>
<pdfrwt beam="2">  1       22 0.10880736E+00 0.51540912E+02</pdfrwt>
<totfact> 0.12444081E+00</totfact>
</mgrwt>
</event>
<event>
 4    1  0.2489082E+000  0.5143355E+02  0.7957747E-01  0.1437759E+00
         13   -1    0    0    0    0  0.00000000000E+00  0.00000000000E+00  0.99999944181E+02  0.10000000000E+03  0.10566000000E+00 0.  1.
         22   -1    0    0    0    0 -0.00000000000E+00 -0.00000000000E+00 -0.19730917598E+02  0.19730917598E+02  0.00000000000E+00 0. -1.
         13    1    1    2    0    0  0.10319773367E+02 -0.62379807471E+01 -0.10113457498E+02  0.15738593099E+02  0.10566000000E+00 0. -1.
        996    1    1    2    0    0 -0.10319773367E+02  0.62379807471E+01  0.90382484081E+02  0.10399232450E+03  0.50000000000E+02 0.  0.
<mgrwt>
<rscale>  0 0.51433551E+02</rscale>
<asrwt>0</asrwt>
<pdfrwt beam="1">  1       13 0.10000000E+01 0.51433551E+02</pdfrwt>
<pdfrwt beam="2">  1       22 0.19730940E+00 0.51433551E+02</pdfrwt>
<totfact> 0.46416648E-01</totfact>
</mgrwt>
</event>
<event>
 4    1  0.2489082E+000  0.5712691E+02  0.7957747E-01  0.1410300E+00
         13   -1    0    0    0    0  0.00000000000E+00  0.00000000000E+00  0.99999944178E+02  0.99999999998E+02  0.10566000000E+00 0.  1.
         22   -1    0    0    0    0 -0.00000000000E+00 -0.00000000000E+00 -0.35111887783E+02  0.35111887783E+02  0.00000000000E+00 0. -1.
         13    1    1    2    0    0  0.53472974776E+00  0.27626030711E+02 -0.19061763060E+02  0.33568519237E+02  0.10566000000E+00 0. -1.
        996    1    1    2    0    0 -0.53472974776E+00 -0.27626030711E+02  0.83949819455E+02  0.10154336854E+03  0.50000000000E+02 0.  0.
<mgrwt>
<rscale>  0 0.57126907E+02</rscale>
<asrwt>0</asrwt>
<pdfrwt beam="1">  1       13 0.10000000E+01 0.57126907E+02</pdfrwt>
<pdfrwt beam="2">  1       22 0.35111906E+00 0.57126907E+02</pdfrwt>
<totfact> 0.15706060E-01</totfact>
</mgrwt>
</event>
<event>
 4    1  0.2489082E+000  0.8905650E+02  0.7957747E-01  0.1305153E+00
         13   -1    0    0    0    0  0.00000000000E+00  0.00000000000E+00  0.99999944187E+02  0.10000000001E+03  0.10566000000E+00 0. -1.
         22   -1    0    0    0    0 -0.00000000000E+00 -0.00000000000E+00 -0.66226800801E+02  0.66226800801E+02  0.00000000000E+00 0.  1.
         13    1    1    2    0    0 -0.70231509528E+02 -0.22329255506E+02  0.16082225251E+02  0.75430164491E+02  0.10566000000E+00 0.  1.
        996    1    1    2    0    0  0.70231509528E+02  0.22329255506E+02  0.17690918135E+02  0.90796636317E+02  0.50000000000E+02 0.  0.
<mgrwt>
<rscale>  0 0.89056502E+02</rscale>
<asrwt>0</asrwt>
<pdfrwt beam="1">  1       13 0.10000000E+01 0.89056502E+02</pdfrwt>
<pdfrwt beam="2">  1       22 0.66226810E+00 0.89056502E+02</pdfrwt>
<totfact> 0.87206608E-02</totfact>
</mgrwt>
</event>
<event>
 4    1  0.2489082E+000  0.5104742E+02  0.7957747E-01  0.1439773E+00
         13   -1    0    0    0    0  0.00000000000E+00  0.00000000000E+00  0.99999944184E+02  0.10000000000E+03  0.10566000000E+00 0. -1.
         22   -1    0    0    0    0 -0.00000000000E+00 -0.00000000000E+00 -0.22274035604E+02  0.22274035604E+02  0.00000000000E+00 0. -1.
         13    1    1    2    0    0 -0.10074042785E+02 -0.20862160056E+01 -0.13956224017E+02  0.17338569379E+02  0.10566000000E+00 0.  1.
        996    1    1    2    0    0  0.10074042785E+02  0.20862160056E+01  0.91682132597E+02  0.10493546623E+03  0.50000000000E+02 0.  0.
<mgrwt>
<rscale>  0 0.51047416E+02</rscale>
<asrwt>0</asrwt>
<pdfrwt beam="1">  1       13 0.10000000E+01 0.51047416E+02</pdfrwt>
<pdfrwt beam="2">  1       22 0.22274057E+00 0.51047416E+02</pdfrwt>
<totfact> 0.36869962E-01</totfact>
</mgrwt>
</event>
<event>
 4    1  0.2489082E+000  0.6060630E+02  0.7957747E-01  0.1395305E+00
         13   -1    0    0    0    0  0.00000000000E+00  0.00000000000E+00  0.99999944179E+02  0.99999999999E+02  0.10566000000E+00 0. -1.
         22   -1    0    0    0    0 -0.00000000000E+00 -0.00000000000E+00 -0.25583003915E+02  0.25583003915E+02  0.00000000000E+00 0.  1.
         13    1    1    2    0    0 -0.17838279769E+02  0.29239003657E+02  0.70555687046E+01  0.34970212664E+02  0.10566000000E+00 0.  1.
        996    1    1    2    0    0  0.17838279769E+02 -0.29239003657E+02  0.67361371559E+02  0.90612791251E+02  0.50000000000E+02 0.  0.
<mgrwt>
<rscale>  0 0.60606300E+02</rscale>
<asrwt>0</asrwt>
<pdfrwt beam="1">  1       13 0.10000000E+01 0.60606300E+02</pdfrwt>
<pdfrwt beam="2">  1       22 0.25583025E+00 0.60606300E+02</pdfrwt>
<totfact> 0.28518191E-01</totfact>
</mgrwt>
</event>
<event>
 4    1  0.2489082E+000  0.5261437E+02  0.7957747E-01  0.1431730E+00
         13   -1    0    0    0    0  0.00000000000E+00  0.00000000000E+00  0.99999944179E+02  0.99999999999E+02  0.10566000000E+00 0. -1.
         22   -1    0    0    0    0 -0.00000000000E+00 -0.00000000000E+00 -0.42537690938E+02  0.42537690938E+02  0.00000000000E+00 0.  1.
         13    1    1    2    0    0 -0.10421300367E+02 -0.12635979022E+02 -0.33593522555E+02  0.37373886456E+02  0.10566000000E+00 0.  1.
        996    1    1    2    0    0  0.10421300367E+02  0.12635979022E+02  0.91055775795E+02  0.10516380448E+03  0.50000000000E+02 0.  0.
<mgrwt>
<rscale>  0 0.52614366E+02</rscale>
<asrwt>0</asrwt>
<pdfrwt beam="1">  1       13 0.10000000E+01 0.52614366E+02</pdfrwt>
<pdfrwt beam="2">  1       22 0.42537707E+00 0.52614366E+02</pdfrwt>
<totfact> 0.10947885E-01</totfact>
</mgrwt>
</event>
<event>
 4    1  0.2489082E+000  0.5256325E+02  0.7957747E-01  0.1431987E+00
         13   -1    0    0    0    0  0.00000000000E+00  0.00000000000E+00  0.99999944174E+02  0.99999999995E+02  0.10566000000E+00 0. -1.
         22   -1    0    0    0    0 -0.00000000000E+00 -0.00000000000E+00 -0.15108984967E+02  0.15108984967E+02  0.00000000000E+00 0. -1.
         13    1    1    2    0    0  0.12974880406E+02 -0.97235766530E+01  0.48603178705E+02  0.51236467567E+02  0.10566000000E+00 0.  1.
        996    1    1    2    0    0 -0.12974880406E+02  0.97235766530E+01  0.36287780502E+02  0.63872517394E+02  0.50000000000E+02 0.  0.
<mgrwt>
<rscale>  0 0.52563252E+02</rscale>
<asrwt>0</asrwt>
<pdfrwt beam="1">  1       13 0.10000000E+01 0.52563252E+02</pdfrwt>
<pdfrwt beam="2">  1       22 0.15109009E+00 0.52563252E+02</pdfrwt>
<totfact> 0.74473959E-01</totfact>
</mgrwt>
</event>
<event>
 4    1  0.2489082E+000  0.5229302E+02  0.7957747E-01  0.1433352E+00
         13   -1    0    0    0    0  0.00000000000E+00  0.00000000000E+00  0.99999944180E+02  0.10000000000E+03  0.10566000000E+00 0. -1.
         22   -1    0    0    0    0 -0.00000000000E+00 -0.00000000000E+00 -0.22478568630E+02  0.22478568630E+02  0.00000000000E+00 0.  1.
         13    1    1    2    0    0 -0.13139063490E+02 -0.78692664637E+01 -0.11555872627E+02  0.19186185141E+02  0.10566000000E+00 0.  1.
        996    1    1    2    0    0  0.13139063490E+02  0.78692664637E+01  0.89077248177E+02  0.10329238349E+03  0.50000000000E+02 0.  0.
<mgrwt>
<rscale>  0 0.52293024E+02</rscale>
<asrwt>0</asrwt>
<pdfrwt beam="1">  1       13 0.10000000E+01 0.52293024E+02</pdfrwt>
<pdfrwt beam="2">  1       22 0.22478590E+00 0.52293024E+02</pdfrwt>
<totfact> 0.36301762E-01</totfact>
</mgrwt>
</event>
<event>
 4    1  0.2489082E+000  0.5106544E+02  0.7957747E-01  0.1439678E+00
         13   -1    0    0    0    0  0.00000000000E+00  0.00000000000E+00  0.99999944180E+02  0.10000000000E+03  0.10566000000E+00 0.  1.
         22   -1    0    0    0    0 -0.00000000000E+00 -0.00000000000E+00 -0.30626737760E+02  0.30626737760E+02  0.00000000000E+00 0. -1.
         13    1    1    2    0    0  0.91090179889E+01  0.49704584269E+01 -0.22913502733E+02  0.25153914948E+02  0.10566000000E+00 0. -1.
        996    1    1    2    0    0 -0.91090179889E+01 -0.49704584269E+01  0.92286709153E+02  0.10547282281E+03  0.50000000000E+02 0.  0.
<mgrwt>
<rscale>  0 0.51065445E+02</rscale>
<asrwt>0</asrwt>
<pdfrwt beam="1">  1       13 0.10000000E+01 0.51065445E+02</pdfrwt>
<pdfrwt beam="2">  1       22 0.30626757E+00 0.51065445E+02</pdfrwt>
<totfact> 0.19899928E-01</totfact>
</mgrwt>
</event>
<event>
 4    1  0.2489082E+000  0.5345744E+02  0.7957747E-01  0.1427538E+00
         13   -1    0    0    0    0  0.00000000000E+00  0.00000000000E+00  0.99999944178E+02  0.99999999998E+02  0.10566000000E+00 0. -1.
         22   -1    0    0    0    0 -0.00000000000E+00 -0.00000000000E+00 -0.13729653324E+02  0.13729653324E+02  0.00000000000E+00 0. -1.
         13    1    1    2    0    0 -0.17553104608E+02 -0.70417904714E+01  0.34326356696E+02  0.39191940785E+02  0.10566000000E+00 0.  1.
        996    1    1    2    0    0  0.17553104608E+02  0.70417904714E+01  0.51943934158E+02  0.74537712537E+02  0.50000000000E+02 0.  0.
<mgrwt>
<rscale>  0 0.53457444E+02</rscale>
<asrwt>0</asrwt>
<pdfrwt beam="1">  1       13 0.10000000E+01 0.53457444E+02</pdfrwt>
<pdfrwt beam="2">  1       22 0.13729677E+00 0.53457444E+02</pdfrwt>
<totfact> 0.87289874E-01</totfact>
</mgrwt>
</event>
<event>
 4    1  0.2489082E+000  0.5523752E+02  0.7957747E-01  0.1418979E+00
         13   -1    0    0    0    0  0.00000000000E+00  0.00000000000E+00  0.99999944174E+02  0.99999999994E+02  0.10566000000E+00 0.  1.
         22   -1    0    0    0    0 -0.00000000000E+00 -0.00000000000E+00 -0.16384322245E+02  0.16384322245E+02  0.00000000000E+00 0.  1.
         13    1    1    2    0    0  0.11681831959E+02 -0.20364622915E+02  0.13355041797E+02  0.27010208623E+02  0.10566000000E+00 0. -1.
        996    1    1    2    0    0 -0.11681831959E+02  0.20364622915E+02  0.70260580131E+02  0.89374113617E+02  0.50000000000E+02 0.  0.
<mgrwt>
<rscale>  0 0.55237515E+02</rscale>
<asrwt>0</asrwt>
<pdfrwt beam="1">  1       13 0.10000000E+01 0.55237515E+02</pdfrwt>
<pdfrwt beam="2">  1       22 0.16384346E+00 0.55237515E+02</pdfrwt>
<totfact> 0.65227859E-01</totfact>
</mgrwt>
</event>
<event>
 4    1  0.2489082E+000  0.5377471E+02  0.7957747E-01  0.1425984E+00
         13   -1    0    0    0    0  0.00000000000E+00  0.00000000000E+00  0.99999944177E+02  0.99999999997E+02  0.10566000000E+00 0. -1.
         22   -1    0    0    0    0 -0.00000000000E+00 -0.00000000000E+00 -0.20198672778E+02  0.20198672778E+02  0.00000000000E+00 0. -1.
         13    1    1    2    0    0 -0.10935068860E+01  0.19761662317E+02 -0.44146105032E+01  0.20278535568E+02  0.10566000000E+00 0.  1.
        996    1    1    2    0    0  0.10935068860E+01 -0.19761662317E+02  0.84215881903E+02  0.99920137207E+02  0.50000000000E+02 0.  0.
<mgrwt>
<rscale>  0 0.53774706E+02</rscale>
<asrwt>0</asrwt>
<pdfrwt beam="1">  1       13 0.10000000E+01 0.53774706E+02</pdfrwt>
<pdfrwt beam="2">  1       22 0.20198695E+00 0.53774706E+02</pdfrwt>
<totfact> 0.44617427E-01</totfact>
</mgrwt>
</event>
<event>
 4    1  0.2489082E+000  0.5229857E+02  0.7957747E-01  0.1433324E+00
         13   -1    0    0    0    0  0.00000000000E+00  0.00000000000E+00  0.99999944176E+02  0.99999999996E+02  0.10566000000E+00 0.  1.
         22   -1    0    0    0    0 -0.00000000000E+00 -0.00000000000E+00 -0.14210112501E+02  0.14210112501E+02  0.00000000000E+00 0. -1.
         13    1    1    2    0    0  0.11639696829E+02 -0.99828775548E+01  0.20365749411E+01  0.15469298241E+02  0.10566000000E+00 0. -1.
        996    1    1    2    0    0 -0.11639696829E+02  0.99828775548E+01  0.83753256734E+02  0.98740814257E+02  0.50000000000E+02 0.  0.
<mgrwt>
<rscale>  0 0.52298570E+02</rscale>
<asrwt>0</asrwt>
<pdfrwt beam="1">  1       13 0.10000000E+01 0.52298570E+02</pdfrwt>
<pdfrwt beam="2">  1       22 0.14210136E+00 0.52298570E+02</pdfrwt>
<totfact> 0.82361638E-01</totfact>
</mgrwt>
</event>
<event>
 4    1  0.2489082E+000  0.5190403E+02  0.7957747E-01  0.1435334E+00
         13   -1    0    0    0    0  0.00000000000E+00  0.00000000000E+00  0.99999944175E+02  0.99999999995E+02  0.10566000000E+00 0. -1.
         22   -1    0    0    0    0 -0.00000000000E+00 -0.00000000000E+00 -0.20410338444E+02  0.20410338444E+02  0.00000000000E+00 0.  1.
         13    1    1    2    0    0  0.35108014106E+01  0.13479717658E+02 -0.98087560743E+01  0.17036765375E+02  0.10566000000E+00 0.  1.
        996    1    1    2    0    0 -0.35108014106E+01 -0.13479717658E+02  0.89398361805E+02  0.10337357306E+03  0.50000000000E+02 0.  0.
<mgrwt>
<rscale>  0 0.51904032E+02</rscale>
<asrwt>0</asrwt>
<pdfrwt beam="1">  1       13 0.10000000E+01 0.51904032E+02</pdfrwt>
<pdfrwt beam="2">  1       22 0.20410361E+00 0.51904032E+02</pdfrwt>
<totfact> 0.43610169E-01</totfact>
</mgrwt>
</event>
<event>
 4    1  0.2489082E+000  0.5249916E+02  0.7957747E-01  0.1432310E+00
         13   -1    0    0    0    0  0.00000000000E+00  0.00000000000E+00  0.99999944181E+02  0.10000000000E+03  0.10566000000E+00 0. -1.
         22   -1    0    0    0    0 -0.00000000000E+00 -0.00000000000E+00 -0.12163762313E+02  0.12163762313E+02  0.00000000000E+00 0. -1.
         13    1    1    2    0    0  0.16386640495E+01  0.15920934494E+02  0.12349279431E+02  0.20215767151E+02  0.10566000000E+00 0.  1.
        996    1    1    2    0    0 -0.16386640495E+01 -0.15920934494E+02  0.75486902437E+02  0.91947995163E+02  0.50000000000E+02 0.  0.
<mgrwt>
<rscale>  0 0.52499156E+02</rscale>
<asrwt>0</asrwt>
<pdfrwt beam="1">  1       13 0.10000000E+01 0.52499156E+02</pdfrwt>
<pdfrwt beam="2">  1       22 0.12163787E+00 0.52499156E+02</pdfrwt>
<totfact> 0.10539628E+00</totfact>
</mgrwt>
</event>
<event>
 4    1  0.2489082E+000  0.5392021E+02  0.7957747E-01  0.1425275E+00
         13   -1    0    0    0    0  0.00000000000E+00  0.00000000000E+00  0.99999944176E+02  0.99999999996E+02  0.10566000000E+00 0. -1.
         22   -1    0    0    0    0 -0.00000000000E+00 -0.00000000000E+00 -0.13768775709E+02  0.13768775709E+02  0.00000000000E+00 0.  1.
         13    1    1    2    0    0 -0.19222164361E+02  0.61560978257E+01  0.20808225779E+02  0.28989352654E+02  0.10566000000E+00 0.  1.
        996    1    1    2    0    0  0.19222164361E+02 -0.61560978257E+01  0.65422942687E+02  0.84779423052E+02  0.50000000000E+02 0.  0.
<mgrwt>
<rscale>  0 0.53920211E+02</rscale>
<asrwt>0</asrwt>
<pdfrwt beam="1">  1       13 0.10000000E+01 0.53920211E+02</pdfrwt>
<pdfrwt beam="2">  1       22 0.13768800E+00 0.53920211E+02</pdfrwt>
<totfact> 0.86972955E-01</totfact>
</mgrwt>
</event>
<event>
 4    1  0.2489082E+000  0.5169863E+02  0.7957747E-01  0.1436389E+00
         13   -1    0    0    0    0  0.00000000000E+00  0.00000000000E+00  0.99999944177E+02  0.99999999997E+02  0.10566000000E+00 0. -1.
         22   -1    0    0    0    0 -0.00000000000E+00 -0.00000000000E+00 -0.10921871191E+02  0.10921871191E+02  0.00000000000E+00 0.  1.
         13    1    1    2    0    0 -0.11716002813E+02 -0.59567782482E+01  0.10317962608E+02  0.16709860724E+02  0.10566000000E+00 0.  1.
        996    1    1    2    0    0  0.11716002813E+02  0.59567782482E+01  0.78760110378E+02  0.94212010464E+02  0.50000000000E+02 0.  0.
<mgrwt>
<rscale>  0 0.51698626E+02</rscale>
<asrwt>0</asrwt>
<pdfrwt beam="1">  1       13 0.10000000E+01 0.51698626E+02</pdfrwt>
<pdfrwt beam="2">  1       22 0.10921896E+00 0.51698626E+02</pdfrwt>
<totfact> 0.12379126E+00</totfact>
</mgrwt>
</event>
<event>
 4    1  0.2489082E+000  0.6120910E+02  0.7957747E-01  0.1392827E+00
         13   -1    0    0    0    0  0.00000000000E+00  0.00000000000E+00  0.99999944178E+02  0.99999999998E+02  0.10566000000E+00 0.  1.
         22   -1    0    0    0    0 -0.00000000000E+00 -0.00000000000E+00 -0.44115434234E+02  0.44115434234E+02  0.00000000000E+00 0. -1.
         13    1    1    2    0    0 -0.92040093053E+01  0.34085777622E+02 -0.24576909513E+02  0.43018480548E+02  0.10566000000E+00 0. -1.
        996    1    1    2    0    0  0.92040093053E+01 -0.34085777622E+02  0.80461419457E+02  0.10109695369E+03  0.50000000000E+02 0.  0.
<mgrwt>
<rscale>  0 0.61209101E+02</rscale>
<asrwt>0</asrwt>
<pdfrwt beam="1">  1       13 0.10000000E+01 0.61209101E+02</pdfrwt>
<pdfrwt beam="2">  1       22 0.44115450E+00 0.61209101E+02</pdfrwt>
<totfact> 0.10165482E-01</totfact>
</mgrwt>
</event>
<event>
 4    1  0.2489082E+000  0.5127486E+02  0.7957747E-01  0.1438584E+00
         13   -1    0    0    0    0  0.00000000000E+00  0.00000000000E+00  0.99999944186E+02  0.10000000001E+03  0.10566000000E+00 0.  1.
         22   -1    0    0    0    0 -0.00000000000E+00 -0.00000000000E+00 -0.23258804838E+02  0.23258804838E+02  0.00000000000E+00 0. -1.
         13    1    1    2    0    0 -0.89820395593E+01 -0.69594884955E+01 -0.14605479026E+02  0.18505207278E+02  0.10566000000E+00 0. -1.
        996    1    1    2    0    0  0.89820395593E+01  0.69594884955E+01  0.91346618374E+02  0.10475359757E+03  0.50000000000E+02 0.  0.
<mgrwt>
<rscale>  0 0.51274862E+02</rscale>
<asrwt>0</asrwt>
<pdfrwt beam="1">  1       13 0.10000000E+01 0.51274862E+02</pdfrwt>
<pdfrwt beam="2">  1       22 0.23258826E+00 0.51274862E+02</pdfrwt>
<totfact> 0.33917638E-01</totfact>
</mgrwt>
</event>
<event>
 4    1  0.2489082E+000  0.5509964E+02  0.7957747E-01  0.1419628E+00
         13   -1    0    0    0    0  0.00000000000E+00  0.00000000000E+00  0.99999944169E+02  0.99999999989E+02  0.10566000000E+00 0. -1.
         22   -1    0    0    0    0 -0.00000000000E+00 -0.00000000000E+00 -0.17038117585E+02  0.17038117585E+02  0.00000000000E+00 0.  1.
         13    1    1    2    0    0 -0.17135928133E+02 -0.15566949960E+02  0.90700759008E+01  0.24864581334E+02  0.10566000000E+00 0.  1.
        996    1    1    2    0    0  0.17135928133E+02  0.15566949960E+02  0.73891750683E+02  0.92173536240E+02  0.50000000000E+02 0.  0.
<mgrwt>
<rscale>  0 0.55099637E+02</rscale>
<asrwt>0</asrwt>
<pdfrwt beam="1">  1       13 0.10000000E+01 0.55099637E+02</pdfrwt>
<pdfrwt beam="2">  1       22 0.17038141E+00 0.55099637E+02</pdfrwt>
<totfact> 0.60913328E-01</totfact>
</mgrwt>
</event>
<event>
 4    1  0.2489082E+000  0.5968639E+02  0.7957747E-01  0.1399153E+00
         13   -1    0    0    0    0  0.00000000000E+00  0.00000000000E+00  0.99999944176E+02  0.99999999996E+02  0.10566000000E+00 0. -1.
         22   -1    0    0    0    0 -0.00000000000E+00 -0.00000000000E+00 -0.21699044826E+02  0.21699044826E+02  0.00000000000E+00 0.  1.
         13    1    1    2    0    0  0.19607183313E+02  0.26038879329E+02  0.19879580304E+02  0.38179493858E+02  0.10566000000E+00 0.  1.
        996    1    1    2    0    0 -0.19607183313E+02 -0.26038879329E+02  0.58421319046E+02  0.83519550964E+02  0.50000000000E+02 0.  0.
<mgrwt>
<rscale>  0 0.59686388E+02</rscale>
<asrwt>0</asrwt>
<pdfrwt beam="1">  1       13 0.10000000E+01 0.59686388E+02</pdfrwt>
<pdfrwt beam="2">  1       22 0.21699067E+00 0.59686388E+02</pdfrwt>
<totfact> 0.39312897E-01</totfact>
</mgrwt>
</event>
<event>
 4    1  0.2489082E+000  0.5195947E+02  0.7957747E-01  0.1435050E+00
         13   -1    0    0    0    0  0.00000000000E+00  0.00000000000E+00  0.99999944179E+02  0.99999999999E+02  0.10566000000E+00 0. -1.
         22   -1    0    0    0    0 -0.00000000000E+00 -0.00000000000E+00 -0.13826626106E+02  0.13826626106E+02  0.00000000000E+00 0.  1.
         13    1    1    2    0    0 -0.32701684414E+01  0.13751073842E+02  0.11476147981E+01  0.14181474437E+02  0.10566000000E+00 0.  1.
        996    1    1    2    0    0  0.32701684414E+01 -0.13751073842E+02  0.85025703275E+02  0.99645151667E+02  0.50000000000E+02 0.  0.
<mgrwt>
<rscale>  0 0.51959465E+02</rscale>
<asrwt>0</asrwt>
<pdfrwt beam="1">  1       13 0.10000000E+01 0.51959465E+02</pdfrwt>
<pdfrwt beam="2">  1       22 0.13826650E+00 0.51959465E+02</pdfrwt>
<totfact> 0.86036337E-01</totfact>
</mgrwt>
</event>
<event>
 4    1  0.2489082E+000  0.5145540E+02  0.7957747E-01  0.1437646E+00
         13   -1    0    0    0    0  0.00000000000E+00  0.00000000000E+00  0.99999944178E+02  0.99999999999E+02  0.10566000000E+00 0.  1.
         22   -1    0    0    0    0 -0.00000000000E+00 -0.00000000000E+00 -0.11904627850E+02  0.11904627850E+02  0.00000000000E+00 0.  1.
         13    1    1    2    0    0 -0.10962256498E+02 -0.52427953126E+01  0.30896710315E+01  0.12538548614E+02  0.10566000000E+00 0. -1.
        996    1    1    2    0    0  0.10962256498E+02  0.52427953126E+01  0.85005645297E+02  0.99366079235E+02  0.50000000000E+02 0.  0.
<mgrwt>
<rscale>  0 0.51455398E+02</rscale>
<asrwt>0</asrwt>
<pdfrwt beam="1">  1       13 0.10000000E+01 0.51455398E+02</pdfrwt>
<pdfrwt beam="2">  1       22 0.11904652E+00 0.51455398E+02</pdfrwt>
<totfact> 0.10868063E+00</totfact>
</mgrwt>
</event>
<event>
 4    1  0.2489082E+000  0.5322537E+02  0.7957747E-01  0.1428683E+00
         13   -1    0    0    0    0  0.00000000000E+00  0.00000000000E+00  0.99999944175E+02  0.99999999995E+02  0.10566000000E+00 0.  1.
         22   -1    0    0    0    0 -0.00000000000E+00 -0.00000000000E+00 -0.29140252063E+02  0.29140252063E+02  0.00000000000E+00 0. -1.
         13    1    1    2    0    0 -0.17683349893E+02 -0.44987576971E+01 -0.17954084132E+02  0.25598827811E+02  0.10566000000E+00 0. -1.
        996    1    1    2    0    0  0.17683349893E+02  0.44987576971E+01  0.88813776244E+02  0.10354142425E+03  0.50000000000E+02 0.  0.
<mgrwt>
<rscale>  0 0.53225367E+02</rscale>
<asrwt>0</asrwt>
<pdfrwt beam="1">  1       13 0.10000000E+01 0.53225367E+02</pdfrwt>
<pdfrwt beam="2">  1       22 0.29140272E+00 0.53225367E+02</pdfrwt>
<totfact> 0.21906232E-01</totfact>
</mgrwt>
</event>
<event>
 4    1  0.2489082E+000  0.5717132E+02  0.7957747E-01  0.1410101E+00
         13   -1    0    0    0    0  0.00000000000E+00  0.00000000000E+00  0.99999944185E+02  0.10000000000E+03  0.10566000000E+00 0.  1.
         22   -1    0    0    0    0 -0.00000000000E+00 -0.00000000000E+00 -0.35658980888E+02  0.35658980888E+02  0.00000000000E+00 0. -1.
         13    1    1    2    0    0  0.24701464678E+02  0.12585584379E+02 -0.19703957383E+02  0.34012003646E+02  0.10566000000E+00 0. -1.
        996    1    1    2    0    0 -0.24701464678E+02 -0.12585584379E+02  0.84044920680E+02  0.10164697725E+03  0.50000000000E+02 0.  0.
<mgrwt>
<rscale>  0 0.57171315E+02</rscale>
<asrwt>0</asrwt>
<pdfrwt beam="1">  1       13 0.10000000E+01 0.57171315E+02</pdfrwt>
<pdfrwt beam="2">  1       22 0.35658999E+00 0.57171315E+02</pdfrwt>
<totfact> 0.15286687E-01</totfact>
</mgrwt>
</event>
<event>
 4    1  0.2489082E+000  0.8256958E+02  0.7957747E-01  0.1321914E+00
         13   -1    0    0    0    0  0.00000000000E+00  0.00000000000E+00  0.99999944181E+02  0.10000000000E+03  0.10566000000E+00 0.  1.
         22   -1    0    0    0    0 -0.00000000000E+00 -0.00000000000E+00 -0.68187290512E+02  0.68187290512E+02  0.00000000000E+00 0. -1.
         13    1    1    2    0    0 -0.29312759800E+02  0.58808992686E+02 -0.22386658810E+02  0.69418363310E+02  0.10566000000E+00 0. -1.
        996    1    1    2    0    0  0.29312759800E+02 -0.58808992686E+02  0.54199312479E+02  0.98768927204E+02  0.50000000000E+02 0.  0.
<mgrwt>
<rscale>  0 0.82569580E+02</rscale>
<asrwt>0</asrwt>
<pdfrwt beam="1">  1       13 0.10000000E+01 0.82569580E+02</pdfrwt>
<pdfrwt beam="2">  1       22 0.68187299E+00 0.82569580E+02</pdfrwt>
<totfact> 0.82782054E-02</totfact>
</mgrwt>
</event>
<event>
 4    1  0.2489082E+000  0.5155816E+02  0.7957747E-01  0.1437114E+00
         13   -1    0    0    0    0  0.00000000000E+00  0.00000000000E+00  0.99999944181E+02  0.10000000000E+03  0.10566000000E+00 0.  1.
         22   -1    0    0    0    0 -0.00000000000E+00 -0.00000000000E+00 -0.17789948855E+02  0.17789948855E+02  0.00000000000E+00 0. -1.
         13    1    1    2    0    0 -0.66118656320E+01  0.10701750012E+02 -0.72621802866E+01  0.14525654788E+02  0.10566000000E+00 0. -1.
        996    1    1    2    0    0  0.66118656320E+01 -0.10701750012E+02  0.89472175613E+02  0.10326429407E+03  0.50000000000E+02 0.  0.
<mgrwt>
<rscale>  0 0.51558163E+02</rscale>
<asrwt>0</asrwt>
<pdfrwt beam="1">  1       13 0.10000000E+01 0.51558163E+02</pdfrwt>
<pdfrwt beam="2">  1       22 0.17789972E+00 0.51558163E+02</pdfrwt>
<totfact> 0.56058854E-01</totfact>
</mgrwt>
</event>
<event>
 4    1  0.2489082E+000  0.5820534E+02  0.7957747E-01  0.1405521E+00
         13   -1    0    0    0    0  0.00000000000E+00  0.00000000000E+00  0.99999944173E+02  0.99999999993E+02  0.10566000000E+00 0. -1.
         22   -1    0    0    0    0 -0.00000000000E+00 -0.00000000000E+00 -0.23370750972E+02  0.23370750972E+02  0.00000000000E+00 0.  1.
         13    1    1    2    0    0 -0.23102427380E+02  0.18818578167E+02  0.36454836598E+01  0.30019356259E+02  0.10566000000E+00 0.  1.
        996    1    1    2    0    0  0.23102427380E+02 -0.18818578167E+02  0.72983709541E+02  0.93351394705E+02  0.50000000000E+02 0.  0.
<mgrwt>
<rscale>  0 0.58205335E+02</rscale>
<asrwt>0</asrwt>
<pdfrwt beam="1">  1       13 0.10000000E+01 0.58205335E+02</pdfrwt>
<pdfrwt beam="2">  1       22 0.23370772E+00 0.58205335E+02</pdfrwt>
<totfact> 0.33966644E-01</totfact>
</mgrwt>
</event>
<event>
 4    1  0.2489082E+000  0.5190258E+02  0.7957747E-01  0.1435342E+00
         13   -1    0    0    0    0  0.00000000000E+00  0.00000000000E+00  0.99999944189E+02  0.10000000001E+03  0.10566000000E+00 0.  1.
         22   -1    0    0    0    0 -0.00000000000E+00 -0.00000000000E+00 -0.20372438338E+02  0.20372438338E+02  0.00000000000E+00 0. -1.
         13    1    1    2    0    0 -0.45747638377E+01 -0.13151018086E+02 -0.97632487368E+01  0.17006173315E+02  0.10566000000E+00 0. -1.
        996    1    1    2    0    0  0.45747638377E+01  0.13151018086E+02  0.89390754588E+02  0.10336626503E+03  0.50000000000E+02 0.  0.
<mgrwt>
<rscale>  0 0.51902579E+02</rscale>
<asrwt>0</asrwt>
<pdfrwt beam="1">  1       13 0.10000000E+01 0.51902579E+02</pdfrwt>
<pdfrwt beam="2">  1       22 0.20372461E+00 0.51902579E+02</pdfrwt>
<totfact> 0.43762536E-01</totfact>
</mgrwt>
</event>
<event>
 4    1  0.2489082E+000  0.5126286E+02  0.7957747E-01  0.1438647E+00
         13   -1    0    0    0    0  0.00000000000E+00  0.00000000000E+00  0.99999944185E+02  0.10000000001E+03  0.10566000000E+00 0.  1.
         22   -1    0    0    0    0 -0.00000000000E+00 -0.00000000000E+00 -0.14162642429E+02  0.14162642429E+02  0.00000000000E+00 0. -1.
         13    1    1    2    0    0 -0.11983922852E+00 -0.11307793339E+02 -0.29068368396E+01  0.11676532708E+02  0.10566000000E+00 0. -1.
        996    1    1    2    0    0  0.11983922852E+00  0.11307793339E+02  0.88744138596E+02  0.10248610973E+03  0.50000000000E+02 0.  0.
<mgrwt>
<rscale>  0 0.51262857E+02</rscale>
<asrwt>0</asrwt>
<pdfrwt beam="1">  1       13 0.10000000E+01 0.51262857E+02</pdfrwt>
<pdfrwt beam="2">  1       22 0.14162666E+00 0.51262857E+02</pdfrwt>
<totfact> 0.82631795E-01</totfact>
</mgrwt>
</event>
<event>
 4    1  0.2489082E+000  0.5474565E+02  0.7957747E-01  0.1421306E+00
         13   -1    0    0    0    0  0.00000000000E+00  0.00000000000E+00  0.99999944171E+02  0.99999999991E+02  0.10566000000E+00 0. -1.
         22   -1    0    0    0    0 -0.00000000000E+00 -0.00000000000E+00 -0.39138420689E+02  0.39138420689E+02  0.00000000000E+00 0.  1.
         13    1    1    2    0    0 -0.33091699573E+01 -0.22048480104E+02 -0.27370487801E+02  0.35302136581E+02  0.10566000000E+00 0.  1.
        996    1    1    2    0    0  0.33091699573E+01  0.22048480104E+02  0.88232011282E+02  0.10383628410E+03  0.50000000000E+02 0.  0.
<mgrwt>
<rscale>  0 0.54745649E+02</rscale>
<asrwt>0</asrwt>
<pdfrwt beam="1">  1       13 0.10000000E+01 0.54745649E+02</pdfrwt>
<pdfrwt beam="2">  1       22 0.39138438E+00 0.54745649E+02</pdfrwt>
<totfact> 0.12911003E-01</totfact>
</mgrwt>
</event>
<event>
 4    1  0.2489082E+000  0.5248250E+02  0.7957747E-01  0.1432394E+00
         13   -1    0    0    0    0  0.00000000000E+00  0.00000000000E+00  0.99999944190E+02  0.10000000001E+03  0.10566000000E+00 0. -1.
         22   -1    0    0    0    0 -0.00000000000E+00 -0.00000000000E+00 -0.18202942032E+02  0.18202942032E+02  0.00000000000E+00 0.  1.
         13    1    1    2    0    0 -0.15072989457E+02  0.52170379233E+01 -0.50489016971E+01  0.16730662517E+02  0.10566000000E+00 0.  1.
        996    1    1    2    0    0  0.15072989457E+02 -0.52170379233E+01  0.86845903854E+02  0.10147227953E+03  0.50000000000E+02 0.  0.
<mgrwt>
<rscale>  0 0.52482497E+02</rscale>
<asrwt>0</asrwt>
<pdfrwt beam="1">  1       13 0.10000000E+01 0.52482497E+02</pdfrwt>
<pdfrwt beam="2">  1       22 0.18202965E+00 0.52482497E+02</pdfrwt>
<totfact> 0.53893284E-01</totfact>
</mgrwt>
</event>
<event>
 4    1  0.2489082E+000  0.7561029E+02  0.7957747E-01  0.1341992E+00
         13   -1    0    0    0    0  0.00000000000E+00  0.00000000000E+00  0.99999944170E+02  0.99999999990E+02  0.10566000000E+00 0. -1.
         22   -1    0    0    0    0 -0.00000000000E+00 -0.00000000000E+00 -0.64169851198E+02  0.64169851198E+02  0.00000000000E+00 0.  1.
         13    1    1    2    0    0 -0.13504071434E+01  0.56701778642E+02 -0.29781070369E+02  0.64061209924E+02  0.10566000000E+00 0.  1.
        996    1    1    2    0    0  0.13504071434E+01 -0.56701778642E+02  0.65611163341E+02  0.10010864126E+03  0.50000000000E+02 0.  0.
<mgrwt>
<rscale>  0 0.75610286E+02</rscale>
<asrwt>0</asrwt>
<pdfrwt beam="1">  1       13 0.10000000E+01 0.75610286E+02</pdfrwt>
<pdfrwt beam="2">  1       22 0.64169861E+00 0.75610286E+02</pdfrwt>
<totfact> 0.84031290E-02</totfact>
</mgrwt>
</event>
<event>
 4    1  0.2489082E+000  0.5174387E+02  0.7957747E-01  0.1436156E+00
         13   -1    0    0    0    0  0.00000000000E+00  0.00000000000E+00  0.99999944174E+02  0.99999999995E+02  0.10566000000E+00 0. -1.
         22   -1    0    0    0    0 -0.00000000000E+00 -0.00000000000E+00 -0.30377868320E+02  0.30377868320E+02  0.00000000000E+00 0.  1.
         13    1    1    2    0    0 -0.12524631144E+02  0.45345349695E+01 -0.21672672891E+02  0.25439031171E+02  0.10566000000E+00 0.  1.
        996    1    1    2    0    0  0.12524631144E+02 -0.45345349695E+01  0.91294748745E+02  0.10493883714E+03  0.50000000000E+02 0.  0.
<mgrwt>
<rscale>  0 0.51743873E+02</rscale>
<asrwt>0</asrwt>
<pdfrwt beam="1">  1       13 0.10000000E+01 0.51743873E+02</pdfrwt>
<pdfrwt beam="2">  1       22 0.30377888E+00 0.51743873E+02</pdfrwt>
<totfact> 0.20219700E-01</totfact>
</mgrwt>
</event>
<event>
 4    1  0.2489082E+000  0.5102875E+02  0.7957747E-01  0.1439870E+00
         13   -1    0    0    0    0  0.00000000000E+00  0.00000000000E+00  0.99999944179E+02  0.99999999999E+02  0.10566000000E+00 0.  1.
         22   -1    0    0    0    0 -0.00000000000E+00 -0.00000000000E+00 -0.98945834838E+01  0.98945834838E+01  0.00000000000E+00 0.  1.
         13    1    1    2    0    0 -0.16888075284E+01  0.10053913701E+02  0.69788732079E+01  0.12355123911E+02  0.10566000000E+00 0. -1.
        996    1    1    2    0    0  0.16888075284E+01 -0.10053913701E+02  0.83126487487E+02  0.97539459571E+02  0.50000000000E+02 0.  0.
<mgrwt>
<rscale>  0 0.51028749E+02</rscale>
<asrwt>0</asrwt>
<pdfrwt beam="1">  1       13 0.10000000E+01 0.51028749E+02</pdfrwt>
<pdfrwt beam="2">  1       22 0.98946086E-01 0.51028749E+02</pdfrwt>
<totfact> 0.14281899E+00</totfact>
</mgrwt>
</event>
<event>
 4    1  0.2489082E+000  0.5181061E+02  0.7957747E-01  0.1435813E+00
         13   -1    0    0    0    0  0.00000000000E+00  0.00000000000E+00  0.99999944173E+02  0.99999999993E+02  0.10566000000E+00 0.  1.
         22   -1    0    0    0    0 -0.00000000000E+00 -0.00000000000E+00 -0.16369431836E+02  0.16369431836E+02  0.00000000000E+00 0. -1.
         13    1    1    2    0    0  0.11623888345E+02 -0.70160095818E+01 -0.43582312273E+01  0.14259891801E+02  0.10566000000E+00 0. -1.
        996    1    1    2    0    0 -0.11623888345E+02  0.70160095818E+01  0.87988743564E+02  0.10210954003E+03  0.50000000000E+02 0.  0.
<mgrwt>
<rscale>  0 0.51810609E+02</rscale>
<asrwt>0</asrwt>
<pdfrwt beam="1">  1       13 0.10000000E+01 0.51810609E+02</pdfrwt>
<pdfrwt beam="2">  1       22 0.16369455E+00 0.51810609E+02</pdfrwt>
<totfact> 0.64904323E-01</totfact>
</mgrwt>
</event>
<event>
 4    1  0.2489082E+000  0.5270023E+02  0.7957747E-01  0.1431299E+00
         13   -1    0    0    0    0  0.00000000000E+00  0.00000000000E+00  0.99999944181E+02  0.10000000000E+03  0.10566000000E+00 0.  1.
         22   -1    0    0    0    0 -0.00000000000E+00 -0.00000000000E+00 -0.21687234628E+02  0.21687234628E+02  0.00000000000E+00 0. -1.
         13    1    1    2    0    0 -0.14546222409E+01  0.16589099360E+02 -0.95754206008E+01  0.19209736780E+02  0.10566000000E+00 0. -1.
        996    1    1    2    0    0  0.14546222409E+01 -0.16589099360E+02  0.87888130154E+02  0.10247749785E+03  0.50000000000E+02 0.  0.
<mgrwt>
<rscale>  0 0.52700229E+02</rscale>
<asrwt>0</asrwt>
<pdfrwt beam="1">  1       13 0.10000000E+01 0.52700229E+02</pdfrwt>
<pdfrwt beam="2">  1       22 0.21687256E+00 0.52700229E+02</pdfrwt>
<totfact> 0.38921036E-01</totfact>
</mgrwt>
</event>
<event>
 4    1  0.2489082E+000  0.5452282E+02  0.7957747E-01  0.1422369E+00
         13   -1    0    0    0    0  0.00000000000E+00  0.00000000000E+00  0.99999944179E+02  0.99999999999E+02  0.10566000000E+00 0.  1.
         22   -1    0    0    0    0 -0.00000000000E+00 -0.00000000000E+00 -0.25395488497E+02  0.25395488497E+02  0.00000000000E+00 0. -1.
         13    1    1    2    0    0  0.20043881000E+02  0.84249932368E+01 -0.10639385656E+02  0.24206308429E+02  0.10566000000E+00 0. -1.
        996    1    1    2    0    0 -0.20043881000E+02 -0.84249932368E+01  0.85243841338E+02  0.10118918007E+03  0.50000000000E+02 0.  0.
<mgrwt>
<rscale>  0 0.54522818E+02</rscale>
<asrwt>0</asrwt>
<pdfrwt beam="1">  1       13 0.10000000E+01 0.54522818E+02</pdfrwt>
<pdfrwt beam="2">  1       22 0.25395509E+00 0.54522818E+02</pdfrwt>
<totfact> 0.28692055E-01</totfact>
</mgrwt>
</event>
<event>
 4    1  0.2489082E+000  0.5210806E+02  0.7957747E-01  0.1434292E+00
         13   -1    0    0    0    0  0.00000000000E+00  0.00000000000E+00  0.99999944175E+02  0.99999999995E+02  0.10566000000E+00 0.  1.
         22   -1    0    0    0    0 -0.00000000000E+00 -0.00000000000E+00 -0.11730641565E+02  0.11730641565E+02  0.00000000000E+00 0.  1.
         13    1    1    2    0    0  0.10661498265E+02  0.10078783178E+02  0.31039257660E+02  0.34332143768E+02  0.10566000000E+00 0. -1.
        996    1    1    2    0    0 -0.10661498265E+02 -0.10078783178E+02  0.57230044949E+02  0.77398497792E+02  0.50000000000E+02 0.  0.
<mgrwt>
<rscale>  0 0.52108055E+02</rscale>
<asrwt>0</asrwt>
<pdfrwt beam="1">  1       13 0.10000000E+01 0.52108055E+02</pdfrwt>
<pdfrwt beam="2">  1       22 0.11730666E+00 0.52108055E+02</pdfrwt>
<totfact> 0.11130822E+00</totfact>
</mgrwt>
</event>
<event>
 4    1  0.2489082E+000  0.5142197E+02  0.7957747E-01  0.1437819E+00
         13   -1    0    0    0    0  0.00000000000E+00  0.00000000000E+00  0.99999944174E+02  0.99999999994E+02  0.10566000000E+00 0. -1.
         22   -1    0    0    0    0 -0.00000000000E+00 -0.00000000000E+00 -0.13306173141E+02  0.13306173141E+02  0.00000000000E+00 0.  1.
         13    1    1    2    0    0  0.65659461874E+01  0.10055223639E+02 -0.56496669678E+00  0.12022874996E+02  0.10566000000E+00 0.  1.
        996    1    1    2    0    0 -0.65659461874E+01 -0.10055223639E+02  0.87258737730E+02  0.10128329814E+03  0.50000000000E+02 0.  0.
<mgrwt>
<rscale>  0 0.51421972E+02</rscale>
<asrwt>0</asrwt>
<pdfrwt beam="1">  1       13 0.10000000E+01 0.51421972E+02</pdfrwt>
<pdfrwt beam="2">  1       22 0.13306197E+00 0.51421972E+02</pdfrwt>
<totfact> 0.91379698E-01</totfact>
</mgrwt>
</event>
<event>
 4    1  0.2489082E+000  0.6632650E+02  0.7957747E-01  0.1373050E+00
         13   -1    0    0    0    0  0.00000000000E+00  0.00000000000E+00  0.99999944176E+02  0.99999999996E+02  0.10566000000E+00 0. -1.
         22   -1    0    0    0    0 -0.00000000000E+00 -0.00000000000E+00 -0.72205068648E+02  0.72205068648E+02  0.00000000000E+00 0.  1.
         13    1    1    2    0    0  0.39594048780E+02  0.18207586741E+02 -0.52388105053E+02  0.68144916383E+02  0.10566000000E+00 0.  1.
        996    1    1    2    0    0 -0.39594048780E+02 -0.18207586741E+02  0.80182980581E+02  0.10406015226E+03  0.50000000000E+02 0.  0.
<mgrwt>
<rscale>  0 0.66326502E+02</rscale>
<asrwt>0</asrwt>
<pdfrwt beam="1">  1       13 0.10000000E+01 0.66326502E+02</pdfrwt>
<pdfrwt beam="2">  1       22 0.72205076E+00 0.66326502E+02</pdfrwt>
<totfact> 0.62932094E-02</totfact>
</mgrwt>
</event>
<event>
 4    1  0.2489082E+000  0.5272127E+02  0.7957747E-01  0.1431193E+00
         13   -1    0    0    0    0  0.00000000000E+00  0.00000000000E+00  0.99999944182E+02  0.10000000000E+03  0.10566000000E+00 0.  1.
         22   -1    0    0    0    0 -0.00000000000E+00 -0.00000000000E+00 -0.15004468284E+02  0.15004468284E+02  0.00000000000E+00 0.  1.
         13    1    1    2    0    0  0.15903113698E+02 -0.51597817768E+01  0.22215096203E+01  0.16866494665E+02  0.10566000000E+00 0. -1.
        996    1    1    2    0    0 -0.15903113698E+02  0.51597817768E+01  0.82773966278E+02  0.98137973622E+02  0.50000000000E+02 0.  0.
<mgrwt>
<rscale>  0 0.52721271E+02</rscale>
<asrwt>0</asrwt>
<pdfrwt beam="1">  1       13 0.10000000E+01 0.52721271E+02</pdfrwt>
<pdfrwt beam="2">  1       22 0.15004492E+00 0.52721271E+02</pdfrwt>
<totfact> 0.75365310E-01</totfact>
</mgrwt>
</event>
<event>
 4    1  0.2489082E+000  0.5540249E+02  0.7957747E-01  0.1418205E+00
         13   -1    0    0    0    0  0.00000000000E+00  0.00000000000E+00  0.99999944175E+02  0.99999999995E+02  0.10566000000E+00 0.  1.
         22   -1    0    0    0    0 -0.00000000000E+00 -0.00000000000E+00 -0.32985838257E+02  0.32985838257E+02  0.00000000000E+00 0. -1.
         13    1    1    2    0    0 -0.18946386556E+02  0.14507610526E+02 -0.19116066472E+02  0.30575668236E+02  0.10566000000E+00 0. -1.
        996    1    1    2    0    0  0.18946386556E+02 -0.14507610526E+02  0.86130172391E+02  0.10241017002E+03  0.50000000000E+02 0.  0.
<mgrwt>
<rscale>  0 0.55402494E+02</rscale>
<asrwt>0</asrwt>
<pdfrwt beam="1">  1       13 0.10000000E+01 0.55402494E+02</pdfrwt>
<pdfrwt beam="2">  1       22 0.32985857E+00 0.55402494E+02</pdfrwt>
<totfact> 0.17498144E-01</totfact>
</mgrwt>
</event>
<event>
 4    1  0.2489082E+000  0.5147123E+02  0.7957747E-01  0.1437564E+00
         13   -1    0    0    0    0  0.00000000000E+00  0.00000000000E+00  0.99999944176E+02  0.99999999996E+02  0.10566000000E+00 0.  1.
         22   -1    0    0    0    0 -0.00000000000E+00 -0.00000000000E+00 -0.24684133105E+02  0.24684133105E+02  0.00000000000E+00 0. -1.
         13    1    1    2    0    0 -0.95610212851E+01  0.76075005646E+01 -0.15837216825E+02  0.20002894632E+02  0.10566000000E+00 0. -1.
        996    1    1    2    0    0  0.95610212851E+01 -0.76075005646E+01  0.91153027896E+02  0.10468123847E+03  0.50000000000E+02 0.  0.
<mgrwt>
<rscale>  0 0.51471227E+02</rscale>
<asrwt>0</asrwt>
<pdfrwt beam="1">  1       13 0.10000000E+01 0.51471227E+02</pdfrwt>
<pdfrwt beam="2">  1       22 0.24684154E+00 0.51471227E+02</pdfrwt>
<totfact> 0.30200238E-01</totfact>
</mgrwt>
</event>
<event>
 4    1  0.2489082E+000  0.5142172E+02  0.7957747E-01  0.1437821E+00
         13   -1    0    0    0    0  0.00000000000E+00  0.00000000000E+00  0.99999944176E+02  0.99999999996E+02  0.10566000000E+00 0.  1.
         22   -1    0    0    0    0 -0.00000000000E+00 -0.00000000000E+00 -0.12800109842E+02  0.12800109842E+02  0.00000000000E+00 0. -1.
         13    1    1    2    0    0 -0.31315913816E+01  0.11592494444E+02  0.52550013850E+00  0.12019987789E+02  0.10566000000E+00 0. -1.
        996    1    1    2    0    0  0.31315913816E+01 -0.11592494444E+02  0.86674334196E+02  0.10078012205E+03  0.50000000000E+02 0.  0.
<mgrwt>
<rscale>  0 0.51421715E+02</rscale>
<asrwt>0</asrwt>
<pdfrwt beam="1">  1       13 0.10000000E+01 0.51421715E+02</pdfrwt>
<pdfrwt beam="2">  1       22 0.12800134E+00 0.51421715E+02</pdfrwt>
<totfact> 0.97142612E-01</totfact>
</mgrwt>
</event>
<event>
 4    1  0.2489082E+000  0.5161743E+02  0.7957747E-01  0.1436808E+00
         13   -1    0    0    0    0  0.00000000000E+00  0.00000000000E+00  0.99999944180E+02  0.10000000000E+03  0.10566000000E+00 0. -1.
         22   -1    0    0    0    0 -0.00000000000E+00 -0.00000000000E+00 -0.12908825590E+02  0.12908825590E+02  0.00000000000E+00 0.  1.
         13    1    1    2    0    0 -0.11319158563E+02 -0.60196527395E+01  0.14331201546E+01  0.12900564603E+02  0.10566000000E+00 0.  1.
        996    1    1    2    0    0  0.11319158563E+02  0.60196527395E+01  0.85657998436E+02  0.10000826099E+03  0.50000000000E+02 0.  0.
<mgrwt>
<rscale>  0 0.51617435E+02</rscale>
<asrwt>0</asrwt>
<pdfrwt beam="1">  1       13 0.10000000E+01 0.51617435E+02</pdfrwt>
<pdfrwt beam="2">  1       22 0.12908850E+00 0.51617435E+02</pdfrwt>
<totfact> 0.95903531E-01</totfact>
</mgrwt>
</event>
<event>
 4    1  0.2489082E+000  0.5179564E+02  0.7957747E-01  0.1435890E+00
         13   -1    0    0    0    0  0.00000000000E+00  0.00000000000E+00  0.99999944176E+02  0.99999999996E+02  0.10566000000E+00 0.  1.
         22   -1    0    0    0    0 -0.00000000000E+00 -0.00000000000E+00 -0.10667694232E+02  0.10667694232E+02  0.00000000000E+00 0.  1.
         13    1    1    2    0    0 -0.13470861993E+02  0.11506682709E+01  0.19152778510E+02  0.23444151701E+02  0.10566000000E+00 0. -1.
        996    1    1    2    0    0  0.13470861993E+02 -0.11506682709E+01  0.70179471434E+02  0.87223542527E+02  0.50000000000E+02 0.  0.
<mgrwt>
<rscale>  0 0.51795638E+02</rscale>
<asrwt>0</asrwt>
<pdfrwt beam="1">  1       13 0.10000000E+01 0.51795638E+02</pdfrwt>
<pdfrwt beam="2">  1       22 0.10667719E+00 0.51795638E+02</pdfrwt>
<totfact> 0.12820906E+00</totfact>
</mgrwt>
</event>
<event>
 4    1  0.2489082E+000  0.5103905E+02  0.7957747E-01  0.1439816E+00
         13   -1    0    0    0    0  0.00000000000E+00  0.00000000000E+00  0.99999944172E+02  0.99999999992E+02  0.10566000000E+00 0. -1.
         22   -1    0    0    0    0 -0.00000000000E+00 -0.00000000000E+00 -0.13839360710E+02  0.13839360710E+02  0.00000000000E+00 0. -1.
         13    1    1    2    0    0  0.96831081570E+01 -0.33499380613E+01 -0.33664768776E+01  0.10785592204E+02  0.10566000000E+00 0.  1.
        996    1    1    2    0    0 -0.96831081570E+01  0.33499380613E+01  0.89527060339E+02  0.10305376850E+03  0.50000000000E+02 0.  0.
<mgrwt>
<rscale>  0 0.51039050E+02</rscale>
<asrwt>0</asrwt>
<pdfrwt beam="1">  1       13 0.10000000E+01 0.51039050E+02</pdfrwt>
<pdfrwt beam="2">  1       22 0.13839385E+00 0.51039050E+02</pdfrwt>
<totfact> 0.85740135E-01</totfact>
</mgrwt>
</event>
<event>
 4    1  0.2489082E+000  0.5193114E+02  0.7957747E-01  0.1435195E+00
         13   -1    0    0    0    0  0.00000000000E+00  0.00000000000E+00  0.99999944182E+02  0.10000000000E+03  0.10566000000E+00 0. -1.
         22   -1    0    0    0    0 -0.00000000000E+00 -0.00000000000E+00 -0.13791384979E+02  0.13791384979E+02  0.00000000000E+00 0. -1.
         13    1    1    2    0    0 -0.72091196559E+01  0.12036288193E+02  0.10784488574E+01  0.14071881738E+02  0.10566000000E+00 0.  1.
        996    1    1    2    0    0  0.72091196559E+01 -0.12036288193E+02  0.85130110346E+02  0.99719503243E+02  0.50000000000E+02 0.  0.
<mgrwt>
<rscale>  0 0.51931143E+02</rscale>
<asrwt>0</asrwt>
<pdfrwt beam="1">  1       13 0.10000000E+01 0.51931143E+02</pdfrwt>
<pdfrwt beam="2">  1       22 0.13791409E+00 0.51931143E+02</pdfrwt>
<totfact> 0.86385841E-01</totfact>
</mgrwt>
</event>
<event>
 4    1  0.2489082E+000  0.5654957E+02  0.7957747E-01  0.1412910E+00
         13   -1    0    0    0    0  0.00000000000E+00  0.00000000000E+00  0.99999944170E+02  0.99999999990E+02  0.10566000000E+00 0. -1.
         22   -1    0    0    0    0 -0.00000000000E+00 -0.00000000000E+00 -0.17767944413E+02  0.17767944413E+02  0.00000000000E+00 0. -1.
         13    1    1    2    0    0  0.23342254854E+02 -0.12369026615E+02  0.16896286437E+02  0.31358401433E+02  0.10566000000E+00 0.  1.
        996    1    1    2    0    0 -0.23342254854E+02  0.12369026615E+02  0.65335713321E+02  0.86409542969E+02  0.50000000000E+02 0.  0.
<mgrwt>
<rscale>  0 0.56549568E+02</rscale>
<asrwt>0</asrwt>
<pdfrwt beam="1">  1       13 0.10000000E+01 0.56549568E+02</pdfrwt>
<pdfrwt beam="2">  1       22 0.17767967E+00 0.56549568E+02</pdfrwt>
<totfact> 0.56696283E-01</totfact>
</mgrwt>
</event>
<event>
 4    1  0.2489082E+000  0.5357443E+02  0.7957747E-01  0.1426963E+00
         13   -1    0    0    0    0  0.00000000000E+00  0.00000000000E+00  0.99999944178E+02  0.99999999998E+02  0.10566000000E+00 0. -1.
         22   -1    0    0    0    0 -0.00000000000E+00 -0.00000000000E+00 -0.37463606935E+02  0.37463606935E+02  0.00000000000E+00 0.  1.
         13    1    1    2    0    0  0.23253589968E+01  0.19100060662E+02 -0.26981037648E+02  0.33139208928E+02  0.10566000000E+00 0.  1.
        996    1    1    2    0    0 -0.23253589968E+01 -0.19100060662E+02  0.89517374892E+02  0.10432439801E+03  0.50000000000E+02 0.  0.
<mgrwt>
<rscale>  0 0.53574431E+02</rscale>
<asrwt>0</asrwt>
<pdfrwt beam="1">  1       13 0.10000000E+01 0.53574431E+02</pdfrwt>
<pdfrwt beam="2">  1       22 0.37463624E+00 0.53574431E+02</pdfrwt>
<totfact> 0.13964683E-01</totfact>
</mgrwt>
</event>
<event>
 4    1  0.2489082E+000  0.5323598E+02  0.7957747E-01  0.1428630E+00
         13   -1    0    0    0    0  0.00000000000E+00  0.00000000000E+00  0.99999944180E+02  0.10000000000E+03  0.10566000000E+00 0. -1.
         22   -1    0    0    0    0 -0.00000000000E+00 -0.00000000000E+00 -0.14458173128E+02  0.14458173128E+02  0.00000000000E+00 0.  1.
         13    1    1    2    0    0  0.18248514468E+02 -0.10301004914E+01  0.69952657726E+01  0.19570750996E+02  0.10566000000E+00 0.  1.
        996    1    1    2    0    0 -0.18248514468E+02  0.10301004914E+01  0.78546505279E+02  0.94887422132E+02  0.50000000000E+02 0.  0.
<mgrwt>
<rscale>  0 0.53235978E+02</rscale>
<asrwt>0</asrwt>
<pdfrwt beam="1">  1       13 0.10000000E+01 0.53235978E+02</pdfrwt>
<pdfrwt beam="2">  1       22 0.14458197E+00 0.53235978E+02</pdfrwt>
<totfact> 0.80216245E-01</totfact>
</mgrwt>
</event>
<event>
 4    1  0.2489082E+000  0.5431903E+02  0.7957747E-01  0.1423347E+00
         13   -1    0    0    0    0  0.00000000000E+00  0.00000000000E+00  0.99999944182E+02  0.10000000000E+03  0.10566000000E+00 0. -1.
         22   -1    0    0    0    0 -0.00000000000E+00 -0.00000000000E+00 -0.20979547208E+02  0.20979547208E+02  0.00000000000E+00 0.  1.
         13    1    1    2    0    0 -0.46341544319E+01  0.20714280401E+02 -0.41635228409E+01  0.21631062996E+02  0.10566000000E+00 0.  1.
        996    1    1    2    0    0  0.46341544319E+01 -0.20714280401E+02  0.83183919815E+02  0.99348484214E+02  0.50000000000E+02 0.  0.
<mgrwt>
<rscale>  0 0.54319028E+02</rscale>
<asrwt>0</asrwt>
<pdfrwt beam="1">  1       13 0.10000000E+01 0.54319028E+02</pdfrwt>
<pdfrwt beam="2">  1       22 0.20979569E+00 0.54319028E+02</pdfrwt>
<totfact> 0.41575825E-01</totfact>
</mgrwt>
</event>
<event>
 4    1  0.2489082E+000  0.5570594E+02  0.7957747E-01  0.1416790E+00
         13   -1    0    0    0    0  0.00000000000E+00  0.00000000000E+00  0.99999944184E+02  0.10000000000E+03  0.10566000000E+00 0. -1.
         22   -1    0    0    0    0 -0.00000000000E+00 -0.00000000000E+00 -0.20952189334E+02  0.20952189334E+02  0.00000000000E+00 0.  1.
         13    1    1    2    0    0 -0.19578965830E+02  0.14826206255E+02  0.38493877654E+00  0.24562402912E+02  0.10566000000E+00 0.  1.
        996    1    1    2    0    0  0.19578965830E+02 -0.14826206255E+02  0.78662816073E+02  0.96389786427E+02  0.50000000000E+02 0.  0.
<mgrwt>
<rscale>  0 0.55705945E+02</rscale>
<asrwt>0</asrwt>
<pdfrwt beam="1">  1       13 0.10000000E+01 0.55705945E+02</pdfrwt>
<pdfrwt beam="2">  1       22 0.20952211E+00 0.55705945E+02</pdfrwt>
<totfact> 0.41774336E-01</totfact>
</mgrwt>
</event>
<event>
 4    1  0.2489082E+000  0.5110492E+02  0.7957747E-01  0.1439471E+00
         13   -1    0    0    0    0  0.00000000000E+00  0.00000000000E+00  0.99999944176E+02  0.99999999996E+02  0.10566000000E+00 0. -1.
         22   -1    0    0    0    0 -0.00000000000E+00 -0.00000000000E+00 -0.95111825447E+01  0.95111825447E+01  0.00000000000E+00 0. -1.
         13    1    1    2    0    0 -0.18076993568E+01 -0.10413682658E+02  0.14955912407E+02  0.18314012215E+02  0.10566000000E+00 0.  1.
        996    1    1    2    0    0  0.18076993568E+01  0.10413682658E+02  0.75532849224E+02  0.91197170325E+02  0.50000000000E+02 0.  0.
<mgrwt>
<rscale>  0 0.51104917E+02</rscale>
<asrwt>0</asrwt>
<pdfrwt beam="1">  1       13 0.10000000E+01 0.51104917E+02</pdfrwt>
<pdfrwt beam="2">  1       22 0.95112078E-01 0.51104917E+02</pdfrwt>
<totfact> 0.15118928E+00</totfact>
</mgrwt>
</event>
<event>
 4    1  0.2489082E+000  0.6300418E+02  0.7957747E-01  0.1385640E+00
         13   -1    0    0    0    0  0.00000000000E+00  0.00000000000E+00  0.99999944176E+02  0.99999999996E+02  0.10566000000E+00 0. -1.
         22   -1    0    0    0    0 -0.00000000000E+00 -0.00000000000E+00 -0.43213785368E+02  0.43213785368E+02  0.00000000000E+00 0. -1.
         13    1    1    2    0    0 -0.11733365788E+02 -0.36494578534E+02 -0.20523362509E+02  0.43482705848E+02  0.10566000000E+00 0.  1.
        996    1    1    2    0    0  0.11733365788E+02  0.36494578534E+02  0.77309521318E+02  0.99731079516E+02  0.50000000000E+02 0.  0.
<mgrwt>
<rscale>  0 0.63004176E+02</rscale>
<asrwt>0</asrwt>
<pdfrwt beam="1">  1       13 0.10000000E+01 0.63004176E+02</pdfrwt>
<pdfrwt beam="2">  1       22 0.43213801E+00 0.63004176E+02</pdfrwt>
<totfact> 0.10652020E-01</totfact>
</mgrwt>
</event>
<event>
 4    1  0.2489082E+000  0.5110829E+02  0.7957747E-01  0.1439454E+00
         13   -1    0    0    0    0  0.00000000000E+00  0.00000000000E+00  0.99999944181E+02  0.10000000000E+03  0.10566000000E+00 0. -1.
         22   -1    0    0    0    0 -0.00000000000E+00 -0.00000000000E+00 -0.11000733008E+02  0.11000733008E+02  0.00000000000E+00 0. -1.
         13    1    1    2    0    0 -0.97691927104E+01  0.40767647786E+01  0.30718811093E+01  0.11022919525E+02  0.10566000000E+00 0.  1.
        996    1    1    2    0    0  0.97691927104E+01 -0.40767647786E+01  0.85927330063E+02  0.99977813484E+02  0.50000000000E+02 0.  0.
<mgrwt>
<rscale>  0 0.51108288E+02</rscale>
<asrwt>0</asrwt>
<pdfrwt beam="1">  1       13 0.10000000E+01 0.51108288E+02</pdfrwt>
<pdfrwt beam="2">  1       22 0.11000758E+00 0.51108288E+02</pdfrwt>
<totfact> 0.12230573E+00</totfact>
</mgrwt>
</event>
<event>
 4    1  0.2489082E+000  0.5100776E+02  0.7957747E-01  0.1439981E+00
         13   -1    0    0    0    0  0.00000000000E+00  0.00000000000E+00  0.99999944179E+02  0.99999999999E+02  0.10566000000E+00 0. -1.
         22   -1    0    0    0    0 -0.00000000000E+00 -0.00000000000E+00 -0.94540580001E+01  0.94540580001E+01  0.00000000000E+00 0. -1.
         13    1    1    2    0    0  0.31523868152E+01  0.95840765551E+01  0.19980947405E+02  0.22383956068E+02  0.10566000000E+00 0.  1.
        996    1    1    2    0    0 -0.31523868152E+01 -0.95840765551E+01  0.70564938774E+02  0.87070101931E+02  0.50000000000E+02 0.  0.
<mgrwt>
<rscale>  0 0.51007765E+02</rscale>
<asrwt>0</asrwt>
<pdfrwt beam="1">  1       13 0.10000000E+01 0.51007765E+02</pdfrwt>
<pdfrwt beam="2">  1       22 0.94540833E-01 0.51007765E+02</pdfrwt>
<totfact> 0.15245859E+00</totfact>
</mgrwt>
</event>
<event>
 4    1  0.2489082E+000  0.5127804E+02  0.7957747E-01  0.1438568E+00
         13   -1    0    0    0    0  0.00000000000E+00  0.00000000000E+00  0.99999944178E+02  0.99999999998E+02  0.10566000000E+00 0. -1.
         22   -1    0    0    0    0 -0.00000000000E+00 -0.00000000000E+00 -0.11010654316E+02  0.11010654316E+02  0.00000000000E+00 0. -1.
         13    1    1    2    0    0  0.65813733912E+01  0.92802206354E+01  0.46181451255E+01  0.12279063449E+02  0.10566000000E+00 0.  1.
        996    1    1    2    0    0 -0.65813733912E+01 -0.92802206354E+01  0.84371144736E+02  0.98731590866E+02  0.50000000000E+02 0.  0.
<mgrwt>
<rscale>  0 0.51278036E+02</rscale>
<asrwt>0</asrwt>
<pdfrwt beam="1">  1       13 0.10000000E+01 0.51278036E+02</pdfrwt>
<pdfrwt beam="2">  1       22 0.11010679E+00 0.51278036E+02</pdfrwt>
<totfact> 0.12219055E+00</totfact>
</mgrwt>
</event>
<event>
 4    1  0.2489082E+000  0.5188675E+02  0.7957747E-01  0.1435423E+00
         13   -1    0    0    0    0  0.00000000000E+00  0.00000000000E+00  0.99999944178E+02  0.99999999998E+02  0.10566000000E+00 0.  1.
         22   -1    0    0    0    0 -0.00000000000E+00 -0.00000000000E+00 -0.11008590307E+02  0.11008590307E+02  0.00000000000E+00 0. -1.
         13    1    1    2    0    0 -0.96865074937E+01 -0.99200129724E+01  0.13098066180E+02  0.19073688329E+02  0.10566000000E+00 0. -1.
        996    1    1    2    0    0  0.96865074937E+01  0.99200129724E+01  0.75893287691E+02  0.91934901976E+02  0.50000000000E+02 0.  0.
<mgrwt>
<rscale>  0 0.51886752E+02</rscale>
<asrwt>0</asrwt>
<pdfrwt beam="1">  1       13 0.10000000E+01 0.51886752E+02</pdfrwt>
<pdfrwt beam="2">  1       22 0.11008615E+00 0.51886752E+02</pdfrwt>
<totfact> 0.12239807E+00</totfact>
</mgrwt>
</event>
<event>
 4    1  0.2489082E+000  0.5930141E+02  0.7957747E-01  0.1400787E+00
         13   -1    0    0    0    0  0.00000000000E+00  0.00000000000E+00  0.99999944183E+02  0.10000000000E+03  0.10566000000E+00 0.  1.
         22   -1    0    0    0    0 -0.00000000000E+00 -0.00000000000E+00 -0.39169130507E+02  0.39169130507E+02  0.00000000000E+00 0. -1.
         13    1    1    2    0    0  0.18823239191E+02 -0.25736016842E+02 -0.20948959215E+02  0.38151368950E+02  0.10566000000E+00 0. -1.
        996    1    1    2    0    0 -0.18823239191E+02  0.25736016842E+02  0.81779772891E+02  0.10101776156E+03  0.50000000000E+02 0.  0.
<mgrwt>
<rscale>  0 0.59301407E+02</rscale>
<asrwt>0</asrwt>
<pdfrwt beam="1">  1       13 0.10000000E+01 0.59301407E+02</pdfrwt>
<pdfrwt beam="2">  1       22 0.39169148E+00 0.59301407E+02</pdfrwt>
<totfact> 0.12936384E-01</totfact>
</mgrwt>
</event>
<event>
 4    1  0.2489082E+000  0.5346660E+02  0.7957747E-01  0.1427493E+00
         13   -1    0    0    0    0  0.00000000000E+00  0.00000000000E+00  0.99999944180E+02  0.10000000000E+03  0.10566000000E+00 0.  1.
         22   -1    0    0    0    0 -0.00000000000E+00 -0.00000000000E+00 -0.14099010762E+02  0.14099010762E+02  0.00000000000E+00 0. -1.
         13    1    1    2    0    0 -0.17650128512E+02  0.68666297045E+01  0.10468706550E+02  0.21639838743E+02  0.10566000000E+00 0. -1.
        996    1    1    2    0    0  0.17650128512E+02 -0.68666297045E+01  0.75432226869E+02  0.92459172019E+02  0.50000000000E+02 0.  0.
<mgrwt>
<rscale>  0 0.53466603E+02</rscale>
<asrwt>0</asrwt>
<pdfrwt beam="1">  1       13 0.10000000E+01 0.53466603E+02</pdfrwt>
<pdfrwt beam="2">  1       22 0.14099035E+00 0.53466603E+02</pdfrwt>
<totfact> 0.83621518E-01</totfact>
</mgrwt>
</event>
<event>
 4    1  0.2489082E+000  0.5144871E+02  0.7957747E-01  0.1437681E+00
         13   -1    0    0    0    0  0.00000000000E+00  0.00000000000E+00  0.99999944180E+02  0.10000000000E+03  0.10566000000E+00 0. -1.
         22   -1    0    0    0    0 -0.00000000000E+00 -0.00000000000E+00 -0.12062792176E+02  0.12062792176E+02  0.00000000000E+00 0.  1.
         13    1    1    2    0    0 -0.71358238804E+01  0.98004863930E+01  0.25734452269E+01  0.12393679856E+02  0.10566000000E+00 0.  1.
        996    1    1    2    0    0  0.71358238804E+01 -0.98004863930E+01  0.85363706778E+02  0.99669112321E+02  0.50000000000E+02 0.  0.
<mgrwt>
<rscale>  0 0.51448708E+02</rscale>
<asrwt>0</asrwt>
<pdfrwt beam="1">  1       13 0.10000000E+01 0.51448708E+02</pdfrwt>
<pdfrwt beam="2">  1       22 0.12062817E+00 0.51448708E+02</pdfrwt>
<totfact> 0.10650547E+00</totfact>
</mgrwt>
</event>
<event>
 4    1  0.2489082E+000  0.5941484E+02  0.7957747E-01  0.1400304E+00
         13   -1    0    0    0    0  0.00000000000E+00  0.00000000000E+00  0.99999944183E+02  0.10000000000E+03  0.10566000000E+00 0.  1.
         22   -1    0    0    0    0 -0.00000000000E+00 -0.00000000000E+00 -0.24963553591E+02  0.24963553591E+02  0.00000000000E+00 0. -1.
         13    1    1    2    0    0  0.30701263090E+02  0.93571396333E+01  0.39824875232E+01  0.32341845778E+02  0.10566000000E+00 0. -1.
        996    1    1    2    0    0 -0.30701263090E+02 -0.93571396333E+01  0.71053903069E+02  0.92621707816E+02  0.50000000000E+02 0.  0.
<mgrwt>
<rscale>  0 0.59414843E+02</rscale>
<asrwt>0</asrwt>
<pdfrwt beam="1">  1       13 0.10000000E+01 0.59414843E+02</pdfrwt>
<pdfrwt beam="2">  1       22 0.24963575E+00 0.59414843E+02</pdfrwt>
<totfact> 0.29886262E-01</totfact>
</mgrwt>
</event>
<event>
 4    1  0.2489082E+000  0.5784374E+02  0.7957747E-01  0.1407110E+00
         13   -1    0    0    0    0  0.00000000000E+00  0.00000000000E+00  0.99999944183E+02  0.10000000000E+03  0.10566000000E+00 0. -1.
         22   -1    0    0    0    0 -0.00000000000E+00 -0.00000000000E+00 -0.26966325993E+02  0.26966325993E+02  0.00000000000E+00 0.  1.
         13    1    1    2    0    0 -0.25683341888E+02  0.13647860974E+02 -0.53274410793E+01  0.29568411391E+02  0.10566000000E+00 0.  1.
        996    1    1    2    0    0  0.25683341888E+02 -0.13647860974E+02  0.78361059269E+02  0.97397914605E+02  0.50000000000E+02 0.  0.
<mgrwt>
<rscale>  0 0.57843739E+02</rscale>
<asrwt>0</asrwt>
<pdfrwt beam="1">  1       13 0.10000000E+01 0.57843739E+02</pdfrwt>
<pdfrwt beam="2">  1       22 0.26966346E+00 0.57843739E+02</pdfrwt>
<totfact> 0.25612116E-01</totfact>
</mgrwt>
</event>
<event>
 4    1  0.2489082E+000  0.5431501E+02  0.7957747E-01  0.1423366E+00
         13   -1    0    0    0    0  0.00000000000E+00  0.00000000000E+00  0.99999944180E+02  0.10000000000E+03  0.10566000000E+00 0. -1.
         22   -1    0    0    0    0 -0.00000000000E+00 -0.00000000000E+00 -0.38470865034E+02  0.38470865034E+02  0.00000000000E+00 0.  1.
         13    1    1    2    0    0 -0.41552560729E+01 -0.20805145982E+02 -0.27164293067E+02  0.34467814468E+02  0.10566000000E+00 0.  1.
        996    1    1    2    0    0  0.41552560729E+01  0.20805145982E+02  0.88693372214E+02  0.10400305057E+03  0.50000000000E+02 0.  0.
<mgrwt>
<rscale>  0 0.54315009E+02</rscale>
<asrwt>0</asrwt>
<pdfrwt beam="1">  1       13 0.10000000E+01 0.54315009E+02</pdfrwt>
<pdfrwt beam="2">  1       22 0.38470882E+00 0.54315009E+02</pdfrwt>
<totfact> 0.13320981E-01</totfact>
</mgrwt>
</event>
<event>
 4    1  0.2489082E+000  0.6639162E+02  0.7957747E-01  0.1372812E+00
         13   -1    0    0    0    0  0.00000000000E+00  0.00000000000E+00  0.99999944172E+02  0.99999999992E+02  0.10566000000E+00 0. -1.
         22   -1    0    0    0    0 -0.00000000000E+00 -0.00000000000E+00 -0.54460357895E+02  0.54460357895E+02  0.00000000000E+00 0.  1.
         13    1    1    2    0    0  0.41053326757E+02 -0.14915469442E+02 -0.30682018181E+02  0.53378312732E+02  0.10566000000E+00 0.  1.
        996    1    1    2    0    0 -0.41053326757E+02  0.14915469442E+02  0.76221604458E+02  0.10108204515E+03  0.50000000000E+02 0.  0.
<mgrwt>
<rscale>  0 0.66391617E+02</rscale>
<asrwt>0</asrwt>
<pdfrwt beam="1">  1       13 0.10000000E+01 0.66391617E+02</pdfrwt>
<pdfrwt beam="2">  1       22 0.54460371E+00 0.66391617E+02</pdfrwt>
<totfact> 0.60098590E-02</totfact>
</mgrwt>
</event>
<event>
 4    1  0.2489082E+000  0.6701423E+02  0.7957747E-01  0.1370551E+00
         13   -1    0    0    0    0  0.00000000000E+00  0.00000000000E+00  0.99999944194E+02  0.10000000001E+03  0.10566000000E+00 0. -1.
         22   -1    0    0    0    0 -0.00000000000E+00 -0.00000000000E+00 -0.84307211566E+02  0.84307211566E+02  0.00000000000E+00 0.  1.
         13    1    1    2    0    0  0.44281181726E+02  0.54848671803E+01 -0.65360232737E+02  0.79138347283E+02  0.10566000000E+00 0.  1.
        996    1    1    2    0    0 -0.44281181726E+02 -0.54848671803E+01  0.81052965366E+02  0.10516886430E+03  0.50000000000E+02 0.  0.
<mgrwt>
<rscale>  0 0.67014229E+02</rscale>
<asrwt>0</asrwt>
<pdfrwt beam="1">  1       13 0.10000000E+01 0.67014229E+02</pdfrwt>
<pdfrwt beam="2">  1       22 0.84307216E+00 0.67014229E+02</pdfrwt>
<totfact> 0.20400280E-02</totfact>
</mgrwt>
</event>
<event>
 4    1  0.2489082E+000  0.5180465E+02  0.7957747E-01  0.1435844E+00
         13   -1    0    0    0    0  0.00000000000E+00  0.00000000000E+00  0.99999944172E+02  0.99999999993E+02  0.10566000000E+00 0. -1.
         22   -1    0    0    0    0 -0.00000000000E+00 -0.00000000000E+00 -0.15029958117E+02  0.15029958117E+02  0.00000000000E+00 0.  1.
         13    1    1    2    0    0 -0.13469176819E+02 -0.15174064579E+01 -0.20976250341E+01  0.13716137989E+02  0.10566000000E+00 0.  1.
        996    1    1    2    0    0  0.13469176819E+02  0.15174064579E+01  0.87067611089E+02  0.10131382012E+03  0.50000000000E+02 0.  0.
<mgrwt>
<rscale>  0 0.51804645E+02</rscale>
<asrwt>0</asrwt>
<pdfrwt beam="1">  1       13 0.10000000E+01 0.51804645E+02</pdfrwt>
<pdfrwt beam="2">  1       22 0.15029982E+00 0.51804645E+02</pdfrwt>
<totfact> 0.75012616E-01</totfact>
</mgrwt>
</event>
<event>
 4    1  0.2489082E+000  0.5569217E+02  0.7957747E-01  0.1416854E+00
         13   -1    0    0    0    0  0.00000000000E+00  0.00000000000E+00  0.99999944180E+02  0.10000000000E+03  0.10566000000E+00 0.  1.
         22   -1    0    0    0    0 -0.00000000000E+00 -0.00000000000E+00 -0.26847739091E+02  0.26847739091E+02  0.00000000000E+00 0. -1.
         13    1    1    2    0    0 -0.15276676220E+02  0.19189614843E+02 -0.10230890534E+02  0.26576313501E+02  0.10566000000E+00 0. -1.
        996    1    1    2    0    0  0.15276676220E+02 -0.19189614843E+02  0.83383095623E+02  0.10027142559E+03  0.50000000000E+02 0.  0.
<mgrwt>
<rscale>  0 0.55692173E+02</rscale>
<asrwt>0</asrwt>
<pdfrwt beam="1">  1       13 0.10000000E+01 0.55692173E+02</pdfrwt>
<pdfrwt beam="2">  1       22 0.26847760E+00 0.55692173E+02</pdfrwt>
<totfact> 0.25759865E-01</totfact>
</mgrwt>
</event>
<event>
 4    1  0.2489082E+000  0.5487142E+02  0.7957747E-01  0.1420708E+00
         13   -1    0    0    0    0  0.00000000000E+00  0.00000000000E+00  0.99999944183E+02  0.10000000000E+03  0.10566000000E+00 0.  1.
         22   -1    0    0    0    0 -0.00000000000E+00 -0.00000000000E+00 -0.23925135741E+02  0.23925135741E+02  0.00000000000E+00 0.  1.
         13    1    1    2    0    0  0.83753105325E+01 -0.20993497853E+02  0.63816635448E+02  0.67701158797E+02  0.10566000000E+00 0. -1.
        996    1    1    2    0    0 -0.83753105325E+01  0.20993497853E+02  0.12258172995E+02  0.56223976947E+02  0.50000000000E+02 0.  0.
<mgrwt>
<rscale>  0 0.54871420E+02</rscale>
<asrwt>0</asrwt>
<pdfrwt beam="1">  1       13 0.10000000E+01 0.54871420E+02</pdfrwt>
<pdfrwt beam="2">  1       22 0.23925157E+00 0.54871420E+02</pdfrwt>
<totfact> 0.32281114E-01</totfact>
</mgrwt>
</event>
<event>
 4    1  0.2489082E+000  0.7173810E+02  0.7957747E-01  0.1354280E+00
         13   -1    0    0    0    0  0.00000000000E+00  0.00000000000E+00  0.99999944179E+02  0.99999999999E+02  0.10566000000E+00 0. -1.
         22   -1    0    0    0    0 -0.00000000000E+00 -0.00000000000E+00 -0.39942577308E+02  0.39942577308E+02  0.00000000000E+00 0.  1.
         13    1    1    2    0    0 -0.48761353954E+02  0.16391616342E+02  0.98421192919E+01  0.52375883781E+02  0.10566000000E+00 0.  1.
        996    1    1    2    0    0  0.48761353954E+02 -0.16391616342E+02  0.50215247579E+02  0.87566693526E+02  0.50000000000E+02 0.  0.
<mgrwt>
<rscale>  0 0.71738098E+02</rscale>
<asrwt>0</asrwt>
<pdfrwt beam="1">  1       13 0.10000000E+01 0.71738098E+02</pdfrwt>
<pdfrwt beam="2">  1       22 0.39942594E+00 0.71738098E+02</pdfrwt>
<totfact> 0.12565463E-01</totfact>
</mgrwt>
</event>
<event>
 4    1  0.2489082E+000  0.6801231E+02  0.7957747E-01  0.1366986E+00
         13   -1    0    0    0    0  0.00000000000E+00  0.00000000000E+00  0.99999944172E+02  0.99999999992E+02  0.10566000000E+00 0.  1.
         22   -1    0    0    0    0 -0.00000000000E+00 -0.00000000000E+00 -0.89282794326E+02  0.89282794326E+02  0.00000000000E+00 0. -1.
         13    1    1    2    0    0  0.32573330621E+02  0.32629015754E+02 -0.69945496440E+02  0.83773851368E+02  0.10566000000E+00 0. -1.
        996    1    1    2    0    0 -0.32573330621E+02 -0.32629015754E+02  0.80662646285E+02  0.10550894295E+03  0.50000000000E+02 0.  0.
<mgrwt>
<rscale>  0 0.68012312E+02</rscale>
<asrwt>0</asrwt>
<pdfrwt beam="1">  1       13 0.10000000E+01 0.68012312E+02</pdfrwt>
<pdfrwt beam="2">  1       22 0.89282797E+00 0.68012312E+02</pdfrwt>
<totfact> 0.11459196E-02</totfact>
</mgrwt>
</event>
<event>
 4    1  0.2489082E+000  0.5317916E+02  0.7957747E-01  0.1428911E+00
         13   -1    0    0    0    0  0.00000000000E+00  0.00000000000E+00  0.99999944183E+02  0.10000000000E+03  0.10566000000E+00 0. -1.
         22   -1    0    0    0    0 -0.00000000000E+00 -0.00000000000E+00 -0.22849668928E+02  0.22849668928E+02  0.00000000000E+00 0.  1.
         13    1    1    2    0    0 -0.18442379798E+01 -0.18017274452E+02 -0.10049798567E+02  0.20713111975E+02  0.10566000000E+00 0.  1.
        996    1    1    2    0    0  0.18442379798E+01  0.18017274452E+02  0.87200073822E+02  0.10213655696E+03  0.50000000000E+02 0.  0.
<mgrwt>
<rscale>  0 0.53179163E+02</rscale>
<asrwt>0</asrwt>
<pdfrwt beam="1">  1       13 0.10000000E+01 0.53179163E+02</pdfrwt>
<pdfrwt beam="2">  1       22 0.22849690E+00 0.53179163E+02</pdfrwt>
<totfact> 0.35219423E-01</totfact>
</mgrwt>
</event>
<event>
 4    1  0.2489082E+000  0.5161521E+02  0.7957747E-01  0.1436819E+00
         13   -1    0    0    0    0  0.00000000000E+00  0.00000000000E+00  0.99999944176E+02  0.99999999996E+02  0.10566000000E+00 0. -1.
         22   -1    0    0    0    0 -0.00000000000E+00 -0.00000000000E+00 -0.14167521795E+02  0.14167521795E+02  0.00000000000E+00 0. -1.
         13    1    1    2    0    0 -0.84938243388E+01  0.95908593713E+01 -0.13178250967E+01  0.12879342468E+02  0.10566000000E+00 0.  1.
        996    1    1    2    0    0  0.84938243388E+01 -0.95908593713E+01  0.87150247477E+02  0.10128817932E+03  0.50000000000E+02 0.  0.
<mgrwt>
<rscale>  0 0.51615207E+02</rscale>
<asrwt>0</asrwt>
<pdfrwt beam="1">  1       13 0.10000000E+01 0.51615207E+02</pdfrwt>
<pdfrwt beam="2">  1       22 0.14167546E+00 0.51615207E+02</pdfrwt>
<totfact> 0.82647066E-01</totfact>
</mgrwt>
</event>
<event>
 4    1  0.2489082E+000  0.5151313E+02  0.7957747E-01  0.1437347E+00
         13   -1    0    0    0    0  0.00000000000E+00  0.00000000000E+00  0.99999944175E+02  0.99999999995E+02  0.10566000000E+00 0. -1.
         22   -1    0    0    0    0 -0.00000000000E+00 -0.00000000000E+00 -0.12331747643E+02  0.12331747643E+02  0.00000000000E+00 0.  1.
         13    1    1    2    0    0 -0.68804638392E+01 -0.10308342321E+02  0.22706433354E+01  0.12600384488E+02  0.10566000000E+00 0.  1.
        996    1    1    2    0    0  0.68804638392E+01  0.10308342321E+02  0.85397553196E+02  0.99731363151E+02  0.50000000000E+02 0.  0.
<mgrwt>
<rscale>  0 0.51513131E+02</rscale>
<asrwt>0</asrwt>
<pdfrwt beam="1">  1       13 0.10000000E+01 0.51513131E+02</pdfrwt>
<pdfrwt beam="2">  1       22 0.12331772E+00 0.51513131E+02</pdfrwt>
<totfact> 0.10296441E+00</totfact>
</mgrwt>
</event>
<event>
 4    1  0.2489082E+000  0.5110887E+02  0.7957747E-01  0.1439451E+00
         13   -1    0    0    0    0  0.00000000000E+00  0.00000000000E+00  0.99999944174E+02  0.99999999994E+02  0.10566000000E+00 0. -1.
         22   -1    0    0    0    0 -0.00000000000E+00 -0.00000000000E+00 -0.13337277628E+02  0.13337277628E+02  0.00000000000E+00 0.  1.
         13    1    1    2    0    0 -0.46251363180E+01 -0.95249304799E+01 -0.22095571278E+01  0.10817092647E+02  0.10566000000E+00 0.  1.
        996    1    1    2    0    0  0.46251363180E+01  0.95249304799E+01  0.88872223674E+02  0.10252018497E+03  0.50000000000E+02 0.  0.
<mgrwt>
<rscale>  0 0.51108866E+02</rscale>
<asrwt>0</asrwt>
<pdfrwt beam="1">  1       13 0.10000000E+01 0.51108866E+02</pdfrwt>
<pdfrwt beam="2">  1       22 0.13337302E+00 0.51108866E+02</pdfrwt>
<totfact> 0.90979261E-01</totfact>
</mgrwt>
</event>
<event>
 4    1  0.2489082E+000  0.5338865E+02  0.7957747E-01  0.1427876E+00
         13   -1    0    0    0    0  0.00000000000E+00  0.00000000000E+00  0.99999944181E+02  0.10000000000E+03  0.10566000000E+00 0. -1.
         22   -1    0    0    0    0 -0.00000000000E+00 -0.00000000000E+00 -0.23794816534E+02  0.23794816534E+02  0.00000000000E+00 0.  1.
         13    1    1    2    0    0  0.56621439446E+01  0.17840639749E+02 -0.10877623633E+02  0.21649068355E+02  0.10566000000E+00 0.  1.
        996    1    1    2    0    0 -0.56621439446E+01 -0.17840639749E+02  0.87082751280E+02  0.10214574818E+03  0.50000000000E+02 0.  0.
<mgrwt>
<rscale>  0 0.53388653E+02</rscale>
<asrwt>0</asrwt>
<pdfrwt beam="1">  1       13 0.10000000E+01 0.53388653E+02</pdfrwt>
<pdfrwt beam="2">  1       22 0.23794838E+00 0.53388653E+02</pdfrwt>
<totfact> 0.32553345E-01</totfact>
</mgrwt>
</event>
<event>
 4    1  0.2489082E+000  0.5304308E+02  0.7957747E-01  0.1429587E+00
         13   -1    0    0    0    0  0.00000000000E+00  0.00000000000E+00  0.99999944175E+02  0.99999999996E+02  0.10566000000E+00 0.  1.
         22   -1    0    0    0    0 -0.00000000000E+00 -0.00000000000E+00 -0.13126594512E+02  0.13126594512E+02  0.00000000000E+00 0.  1.
         13    1    1    2    0    0  0.15246890621E+02 -0.90055926282E+01  0.12090059372E+02  0.21441759999E+02  0.10566000000E+00 0. -1.
        996    1    1    2    0    0 -0.15246890621E+02  0.90055926282E+01  0.74783290291E+02  0.91684834509E+02  0.50000000000E+02 0.  0.
<mgrwt>
<rscale>  0 0.53043080E+02</rscale>
<asrwt>0</asrwt>
<pdfrwt beam="1">  1       13 0.10000000E+01 0.53043080E+02</pdfrwt>
<pdfrwt beam="2">  1       22 0.13126619E+00 0.53043080E+02</pdfrwt>
<totfact> 0.93693989E-01</totfact>
</mgrwt>
</event>
<event>
 4    1  0.2489082E+000  0.7016873E+02  0.7957747E-01  0.1359520E+00
         13   -1    0    0    0    0  0.00000000000E+00  0.00000000000E+00  0.99999944180E+02  0.10000000000E+03  0.10566000000E+00 0. -1.
         22   -1    0    0    0    0 -0.00000000000E+00 -0.00000000000E+00 -0.39745979480E+02  0.39745979480E+02  0.00000000000E+00 0.  1.
         13    1    1    2    0    0  0.12999096667E+02 -0.47483405830E+02  0.32448438192E+01  0.49337516343E+02  0.10566000000E+00 0.  1.
        996    1    1    2    0    0 -0.12999096667E+02  0.47483405830E+02  0.57009120880E+02  0.90408463138E+02  0.50000000000E+02 0.  0.
<mgrwt>
<rscale>  0 0.70168728E+02</rscale>
<asrwt>0</asrwt>
<pdfrwt beam="1">  1       13 0.10000000E+01 0.70168728E+02</pdfrwt>
<pdfrwt beam="2">  1       22 0.39745996E+00 0.70168728E+02</pdfrwt>
<totfact> 0.12673472E-01</totfact>
</mgrwt>
</event>
<event>
 4    1  0.2489082E+000  0.5282835E+02  0.7957747E-01  0.1430657E+00
         13   -1    0    0    0    0  0.00000000000E+00  0.00000000000E+00  0.99999944183E+02  0.10000000000E+03  0.10566000000E+00 0. -1.
         22   -1    0    0    0    0 -0.00000000000E+00 -0.00000000000E+00 -0.12326237020E+02  0.12326237020E+02  0.00000000000E+00 0. -1.
         13    1    1    2    0    0  0.39547929870E+01 -0.16588991598E+02  0.16894602324E+02  0.24005703105E+02  0.10566000000E+00 0.  1.
        996    1    1    2    0    0 -0.39547929870E+01  0.16588991598E+02  0.70779104839E+02  0.88320533918E+02  0.50000000000E+02 0.  0.
<mgrwt>
<rscale>  0 0.52828354E+02</rscale>
<asrwt>0</asrwt>
<pdfrwt beam="1">  1       13 0.10000000E+01 0.52828354E+02</pdfrwt>
<pdfrwt beam="2">  1       22 0.12326261E+00 0.52828354E+02</pdfrwt>
<totfact> 0.10333467E+00</totfact>
</mgrwt>
</event>
<event>
 4    1  0.2489082E+000  0.5131219E+02  0.7957747E-01  0.1438390E+00
         13   -1    0    0    0    0  0.00000000000E+00  0.00000000000E+00  0.99999944183E+02  0.10000000000E+03  0.10566000000E+00 0. -1.
         22   -1    0    0    0    0 -0.00000000000E+00 -0.00000000000E+00 -0.99599349242E+01  0.99599349242E+01  0.00000000000E+00 0.  1.
         13    1    1    2    0    0  0.98543581243E+00 -0.11487821622E+02  0.12781206006E+02  0.17213701530E+02  0.10566000000E+00 0.  1.
        996    1    1    2    0    0 -0.98543581243E+00  0.11487821622E+02  0.77258803253E+02  0.92746233397E+02  0.50000000000E+02 0.  0.
<mgrwt>
<rscale>  0 0.51312193E+02</rscale>
<asrwt>0</asrwt>
<pdfrwt beam="1">  1       13 0.10000000E+01 0.51312193E+02</pdfrwt>
<pdfrwt beam="2">  1       22 0.99599601E-01 0.51312193E+02</pdfrwt>
<totfact> 0.14156466E+00</totfact>
</mgrwt>
</event>
<event>
 4    1  0.2489082E+000  0.5167340E+02  0.7957747E-01  0.1436519E+00
         13   -1    0    0    0    0  0.00000000000E+00  0.00000000000E+00  0.99999944177E+02  0.99999999997E+02  0.10566000000E+00 0.  1.
         22   -1    0    0    0    0 -0.00000000000E+00 -0.00000000000E+00 -0.11268720019E+02  0.11268720019E+02  0.00000000000E+00 0.  1.
         13    1    1    2    0    0  0.10757344441E+02  0.73769706384E+01  0.76516420334E+01  0.15122795544E+02  0.10566000000E+00 0. -1.
        996    1    1    2    0    0 -0.10757344441E+02 -0.73769706384E+01  0.81079582124E+02  0.96145924472E+02  0.50000000000E+02 0.  0.
<mgrwt>
<rscale>  0 0.51673399E+02</rscale>
<asrwt>0</asrwt>
<pdfrwt beam="1">  1       13 0.10000000E+01 0.51673399E+02</pdfrwt>
<pdfrwt beam="2">  1       22 0.11268745E+00 0.51673399E+02</pdfrwt>
<totfact> 0.11814445E+00</totfact>
</mgrwt>
</event>
<event>
 4    1  0.2489082E+000  0.5144686E+02  0.7957747E-01  0.1437690E+00
         13   -1    0    0    0    0  0.00000000000E+00  0.00000000000E+00  0.99999944174E+02  0.99999999994E+02  0.10566000000E+00 0. -1.
         22   -1    0    0    0    0 -0.00000000000E+00 -0.00000000000E+00 -0.11905981583E+02  0.11905981583E+02  0.00000000000E+00 0. -1.
         13    1    1    2    0    0 -0.11479693995E+02  0.38724589057E+01  0.30209072300E+01  0.12486647137E+02  0.10566000000E+00 0.  1.
        996    1    1    2    0    0  0.11479693995E+02 -0.38724589057E+01  0.85073055360E+02  0.99419334440E+02  0.50000000000E+02 0.  0.
<mgrwt>
<rscale>  0 0.51446859E+02</rscale>
<asrwt>0</asrwt>
<pdfrwt beam="1">  1       13 0.10000000E+01 0.51446859E+02</pdfrwt>
<pdfrwt beam="2">  1       22 0.11906006E+00 0.51446859E+02</pdfrwt>
<totfact> 0.10865966E+00</totfact>
</mgrwt>
</event>
<event>
 4    1  0.2489082E+000  0.5151643E+02  0.7957747E-01  0.1437330E+00
         13   -1    0    0    0    0  0.00000000000E+00  0.00000000000E+00  0.99999944179E+02  0.99999999999E+02  0.10566000000E+00 0.  1.
         22   -1    0    0    0    0 -0.00000000000E+00 -0.00000000000E+00 -0.16126655149E+02  0.16126655149E+02  0.00000000000E+00 0. -1.
         13    1    1    2    0    0  0.10337257843E+02 -0.68617792333E+01 -0.50196732044E+01  0.13384737468E+02  0.10566000000E+00 0. -1.
        996    1    1    2    0    0 -0.10337257843E+02  0.68617792333E+01  0.88892962234E+02  0.10274191768E+03  0.50000000000E+02 0.  0.
<mgrwt>
<rscale>  0 0.51516433E+02</rscale>
<asrwt>0</asrwt>
<pdfrwt beam="1">  1       13 0.10000000E+01 0.51516433E+02</pdfrwt>
<pdfrwt beam="2">  1       22 0.16126679E+00 0.51516433E+02</pdfrwt>
<totfact> 0.66555076E-01</totfact>
</mgrwt>
</event>
<event>
 4    1  0.2489082E+000  0.5114544E+02  0.7957747E-01  0.1439259E+00
         13   -1    0    0    0    0  0.00000000000E+00  0.00000000000E+00  0.99999944176E+02  0.99999999996E+02  0.10566000000E+00 0. -1.
         22   -1    0    0    0    0 -0.00000000000E+00 -0.00000000000E+00 -0.50093488010E+02  0.50093488010E+02  0.00000000000E+00 0.  1.
         13    1    1    2    0    0 -0.10763560898E+02 -0.44287344620E-01 -0.42844293364E+02  0.44175794758E+02  0.10566000000E+00 0.  1.
        996    1    1    2    0    0  0.10763560898E+02  0.44287344620E-01  0.92750749531E+02  0.10591769325E+03  0.50000000000E+02 0.  0.
<mgrwt>
<rscale>  0 0.51145442E+02</rscale>
<asrwt>0</asrwt>
<pdfrwt beam="1">  1       13 0.10000000E+01 0.51145442E+02</pdfrwt>
<pdfrwt beam="2">  1       22 0.50093502E+00 0.51145442E+02</pdfrwt>
<totfact> 0.73207832E-02</totfact>
</mgrwt>
</event>
<event>
 4    1  0.2489082E+000  0.5510638E+02  0.7957747E-01  0.1419596E+00
         13   -1    0    0    0    0  0.00000000000E+00  0.00000000000E+00  0.99999944176E+02  0.99999999997E+02  0.10566000000E+00 0. -1.
         22   -1    0    0    0    0 -0.00000000000E+00 -0.00000000000E+00 -0.15374947973E+02  0.15374947973E+02  0.00000000000E+00 0. -1.
         13    1    1    2    0    0 -0.74432277432E+01  0.21938823379E+02  0.21875277177E+02  0.31863027572E+02  0.10566000000E+00 0.  1.
        996    1    1    2    0    0  0.74432277432E+01 -0.21938823379E+02  0.62749719027E+02  0.83511920397E+02  0.50000000000E+02 0.  0.
<mgrwt>
<rscale>  0 0.55106384E+02</rscale>
<asrwt>0</asrwt>
<pdfrwt beam="1">  1       13 0.10000000E+01 0.55106384E+02</pdfrwt>
<pdfrwt beam="2">  1       22 0.15374972E+00 0.55106384E+02</pdfrwt>
<totfact> 0.72686363E-01</totfact>
</mgrwt>
</event>
<event>
 4    1  0.2489082E+000  0.5441798E+02  0.7957747E-01  0.1422872E+00
         13   -1    0    0    0    0  0.00000000000E+00  0.00000000000E+00  0.99999944175E+02  0.99999999996E+02  0.10566000000E+00 0.  1.
         22   -1    0    0    0    0 -0.00000000000E+00 -0.00000000000E+00 -0.17878513958E+02  0.17878513958E+02  0.00000000000E+00 0. -1.
         13    1    1    2    0    0 -0.13665283483E+02 -0.16570354139E+02  0.27645970213E+01  0.21655732952E+02  0.10566000000E+00 0. -1.
        996    1    1    2    0    0  0.13665283483E+02  0.16570354139E+02  0.79356833196E+02  0.96222781002E+02  0.50000000000E+02 0.  0.
<mgrwt>
<rscale>  0 0.54417981E+02</rscale>
<asrwt>0</asrwt>
<pdfrwt beam="1">  1       13 0.10000000E+01 0.54417981E+02</pdfrwt>
<pdfrwt beam="2">  1       22 0.17878537E+00 0.54417981E+02</pdfrwt>
<totfact> 0.55859722E-01</totfact>
</mgrwt>
</event>
<event>
 4    1  0.2489082E+000  0.5379751E+02  0.7957747E-01  0.1425873E+00
         13   -1    0    0    0    0  0.00000000000E+00  0.00000000000E+00  0.99999944180E+02  0.10000000000E+03  0.10566000000E+00 0. -1.
         22   -1    0    0    0    0 -0.00000000000E+00 -0.00000000000E+00 -0.28938316487E+02  0.28938316487E+02  0.00000000000E+00 0.  1.
         13    1    1    2    0    0  0.18434217148E+02  0.73723954734E+01 -0.16737707107E+02  0.25967952945E+02  0.10566000000E+00 0.  1.
        996    1    1    2    0    0 -0.18434217148E+02 -0.73723954734E+01  0.87799334800E+02  0.10297036354E+03  0.50000000000E+02 0.  0.
<mgrwt>
<rscale>  0 0.53797515E+02</rscale>
<asrwt>0</asrwt>
<pdfrwt beam="1">  1       13 0.10000000E+01 0.53797515E+02</pdfrwt>
<pdfrwt beam="2">  1       22 0.28938336E+00 0.53797515E+02</pdfrwt>
<totfact> 0.22215436E-01</totfact>
</mgrwt>
</event>
<event>
 4    1  0.2489082E+000  0.5242608E+02  0.7957747E-01  0.1432679E+00
         13   -1    0    0    0    0  0.00000000000E+00  0.00000000000E+00  0.99999944177E+02  0.99999999998E+02  0.10566000000E+00 0. -1.
         22   -1    0    0    0    0 -0.00000000000E+00 -0.00000000000E+00 -0.13309280683E+02  0.13309280683E+02  0.00000000000E+00 0.  1.
         13    1    1    2    0    0 -0.78768723572E+00  0.15744001667E+02  0.55639080201E+01  0.16717125236E+02  0.10566000000E+00 0.  1.
        996    1    1    2    0    0  0.78768723572E+00 -0.15744001667E+02  0.81126755474E+02  0.96592155445E+02  0.50000000000E+02 0.  0.
<mgrwt>
<rscale>  0 0.52426082E+02</rscale>
<asrwt>0</asrwt>
<pdfrwt beam="1">  1       13 0.10000000E+01 0.52426082E+02</pdfrwt>
<pdfrwt beam="2">  1       22 0.13309305E+00 0.52426082E+02</pdfrwt>
<totfact> 0.91543114E-01</totfact>
</mgrwt>
</event>
<event>
 4    1  0.2489082E+000  0.5197165E+02  0.7957747E-01  0.1434988E+00
         13   -1    0    0    0    0  0.00000000000E+00  0.00000000000E+00  0.99999944168E+02  0.99999999988E+02  0.10566000000E+00 0.  1.
         22   -1    0    0    0    0 -0.00000000000E+00 -0.00000000000E+00 -0.77840088629E+02  0.77840088629E+02  0.00000000000E+00 0. -1.
         13    1    1    2    0    0  0.44487752681E+01 -0.13463311506E+02 -0.70331785259E+02  0.71746940979E+02  0.10566000000E+00 0. -1.
        996    1    1    2    0    0 -0.44487752681E+01  0.13463311506E+02  0.92491640799E+02  0.10609314764E+03  0.50000000000E+02 0.  0.
<mgrwt>
<rscale>  0 0.51971650E+02</rscale>
<asrwt>0</asrwt>
<pdfrwt beam="1">  1       13 0.10000000E+01 0.51971650E+02</pdfrwt>
<pdfrwt beam="2">  1       22 0.77840095E+00 0.51971650E+02</pdfrwt>
<totfact> 0.37664093E-02</totfact>
</mgrwt>
</event>
<event>
 4    1  0.2489082E+000  0.5179523E+02  0.7957747E-01  0.1435892E+00
         13   -1    0    0    0    0  0.00000000000E+00  0.00000000000E+00  0.99999944179E+02  0.99999999999E+02  0.10566000000E+00 0. -1.
         22   -1    0    0    0    0 -0.00000000000E+00 -0.00000000000E+00 -0.24721360547E+02  0.24721360547E+02  0.00000000000E+00 0.  1.
         13    1    1    2    0    0  0.12606515846E+02  0.48807215709E+01 -0.15276913549E+02  0.20399532751E+02  0.10566000000E+00 0.  1.
        996    1    1    2    0    0 -0.12606515846E+02 -0.48807215709E+01  0.90555497181E+02  0.10432182780E+03  0.50000000000E+02 0.  0.
<mgrwt>
<rscale>  0 0.51795228E+02</rscale>
<asrwt>0</asrwt>
<pdfrwt beam="1">  1       13 0.10000000E+01 0.51795228E+02</pdfrwt>
<pdfrwt beam="2">  1       22 0.24721382E+00 0.51795228E+02</pdfrwt>
<totfact> 0.30126493E-01</totfact>
</mgrwt>
</event>
<event>
 4    1  0.2489082E+000  0.5109847E+02  0.7957747E-01  0.1439505E+00
         13   -1    0    0    0    0  0.00000000000E+00  0.00000000000E+00  0.99999944188E+02  0.10000000001E+03  0.10566000000E+00 0.  1.
         22   -1    0    0    0    0 -0.00000000000E+00 -0.00000000000E+00 -0.19041337774E+02  0.19041337774E+02  0.00000000000E+00 0. -1.
         13    1    1    2    0    0  0.10537966402E+02  0.70405759108E-01 -0.10117992619E+02  0.14609539060E+02  0.10566000000E+00 0. -1.
        996    1    1    2    0    0 -0.10537966402E+02 -0.70405759108E-01  0.91076599033E+02  0.10443179872E+03  0.50000000000E+02 0.  0.
<mgrwt>
<rscale>  0 0.51098471E+02</rscale>
<asrwt>0</asrwt>
<pdfrwt beam="1">  1       13 0.10000000E+01 0.51098471E+02</pdfrwt>
<pdfrwt beam="2">  1       22 0.19041360E+00 0.51098471E+02</pdfrwt>
<totfact> 0.49532495E-01</totfact>
</mgrwt>
</event>
<event>
 4    1  0.2489082E+000  0.5169263E+02  0.7957747E-01  0.1436420E+00
         13   -1    0    0    0    0  0.00000000000E+00  0.00000000000E+00  0.99999944181E+02  0.10000000000E+03  0.10566000000E+00 0. -1.
         22   -1    0    0    0    0 -0.00000000000E+00 -0.00000000000E+00 -0.11457509614E+02  0.11457509614E+02  0.00000000000E+00 0. -1.
         13    1    1    2    0    0  0.10550427755E+02 -0.77984776115E+01  0.68940904054E+01  0.14821181648E+02  0.10566000000E+00 0.  1.
        996    1    1    2    0    0 -0.10550427755E+02  0.77984776115E+01  0.81648344161E+02  0.96636327968E+02  0.50000000000E+02 0.  0.
<mgrwt>
<rscale>  0 0.51692628E+02</rscale>
<asrwt>0</asrwt>
<pdfrwt beam="1">  1       13 0.10000000E+01 0.51692628E+02</pdfrwt>
<pdfrwt beam="2">  1       22 0.11457534E+00 0.51692628E+02</pdfrwt>
<totfact> 0.11523675E+00</totfact>
</mgrwt>
</event>
<event>
 4    1  0.2489082E+000  0.5270322E+02  0.7957747E-01  0.1431284E+00
         13   -1    0    0    0    0  0.00000000000E+00  0.00000000000E+00  0.99999944185E+02  0.10000000001E+03  0.10566000000E+00 0. -1.
         22   -1    0    0    0    0 -0.00000000000E+00 -0.00000000000E+00 -0.30419516344E+02  0.30419516344E+02  0.00000000000E+00 0.  1.
         13    1    1    2    0    0 -0.31472932614E+01  0.16362280667E+02 -0.20278034827E+02  0.26245752875E+02  0.10566000000E+00 0.  1.
        996    1    1    2    0    0  0.31472932614E+01 -0.16362280667E+02  0.89858462667E+02  0.10417376347E+03  0.50000000000E+02 0.  0.
<mgrwt>
<rscale>  0 0.52703223E+02</rscale>
<asrwt>0</asrwt>
<pdfrwt beam="1">  1       13 0.10000000E+01 0.52703223E+02</pdfrwt>
<pdfrwt beam="2">  1       22 0.30419536E+00 0.52703223E+02</pdfrwt>
<totfact> 0.20193497E-01</totfact>
</mgrwt>
</event>
<event>
 4    1  0.2489082E+000  0.5137132E+02  0.7957747E-01  0.1438082E+00
         13   -1    0    0    0    0  0.00000000000E+00  0.00000000000E+00  0.99999944181E+02  0.10000000000E+03  0.10566000000E+00 0. -1.
         22   -1    0    0    0    0 -0.00000000000E+00 -0.00000000000E+00 -0.14467347736E+02  0.14467347736E+02  0.00000000000E+00 0.  1.
         13    1    1    2    0    0  0.87257255436E+00  0.11758043130E+02 -0.29490297915E+01  0.12154048784E+02  0.10566000000E+00 0.  1.
        996    1    1    2    0    0 -0.87257255436E+00 -0.11758043130E+02  0.88481626237E+02  0.10231329895E+03  0.50000000000E+02 0.  0.
<mgrwt>
<rscale>  0 0.51371324E+02</rscale>
<asrwt>0</asrwt>
<pdfrwt beam="1">  1       13 0.10000000E+01 0.51371324E+02</pdfrwt>
<pdfrwt beam="2">  1       22 0.14467372E+00 0.51371324E+02</pdfrwt>
<totfact> 0.79825286E-01</totfact>
</mgrwt>
</event>
<event>
 4    1  0.2489082E+000  0.5329022E+02  0.7957747E-01  0.1428362E+00
         13   -1    0    0    0    0  0.00000000000E+00  0.00000000000E+00  0.99999944186E+02  0.10000000001E+03  0.10566000000E+00 0.  1.
         22   -1    0    0    0    0 -0.00000000000E+00 -0.00000000000E+00 -0.66556920849E+02  0.66556920849E+02  0.00000000000E+00 0. -1.
         13    1    1    2    0    0 -0.18406512821E+02  0.10238128466E+01 -0.57922734373E+02  0.60785707433E+02  0.10566000000E+00 0. -1.
        996    1    1    2    0    0  0.18406512821E+02 -0.10238128466E+01  0.91365757709E+02  0.10577121342E+03  0.50000000000E+02 0.  0.
<mgrwt>
<rscale>  0 0.53290223E+02</rscale>
<asrwt>0</asrwt>
<pdfrwt beam="1">  1       13 0.10000000E+01 0.53290223E+02</pdfrwt>
<pdfrwt beam="2">  1       22 0.66556930E+00 0.53290223E+02</pdfrwt>
<totfact> 0.86937411E-02</totfact>
</mgrwt>
</event>
<event>
 4    1  0.2489082E+000  0.5477964E+02  0.7957747E-01  0.1421144E+00
         13   -1    0    0    0    0  0.00000000000E+00  0.00000000000E+00  0.99999944179E+02  0.99999999999E+02  0.10566000000E+00 0.  1.
         22   -1    0    0    0    0 -0.00000000000E+00 -0.00000000000E+00 -0.20479985496E+02  0.20479985496E+02  0.00000000000E+00 0. -1.
         13    1    1    2    0    0 -0.22899490200E+01 -0.22261302471E+02 -0.17768797244E+01  0.22449452550E+02  0.10566000000E+00 0. -1.
        996    1    1    2    0    0  0.22899490200E+01  0.22261302471E+02  0.81296838408E+02  0.98030532944E+02  0.50000000000E+02 0.  0.
<mgrwt>
<rscale>  0 0.54779645E+02</rscale>
<asrwt>0</asrwt>
<pdfrwt beam="1">  1       13 0.10000000E+01 0.54779645E+02</pdfrwt>
<pdfrwt beam="2">  1       22 0.20480008E+00 0.54779645E+02</pdfrwt>
<totfact> 0.43547519E-01</totfact>
</mgrwt>
</event>
<event>
 4    1  0.2489082E+000  0.5114034E+02  0.7957747E-01  0.1439286E+00
         13   -1    0    0    0    0  0.00000000000E+00  0.00000000000E+00  0.99999944179E+02  0.99999999999E+02  0.10566000000E+00 0.  1.
         22   -1    0    0    0    0 -0.00000000000E+00 -0.00000000000E+00 -0.10043519514E+02  0.10043519514E+02  0.00000000000E+00 0.  1.
         13    1    1    2    0    0 -0.13176182462E+01  0.10658245301E+02  0.26166318493E+02  0.28284654819E+02  0.10566000000E+00 0. -1.
        996    1    1    2    0    0  0.13176182462E+01 -0.10658245301E+02  0.63790106171E+02  0.81758864694E+02  0.50000000000E+02 0.  0.
<mgrwt>
<rscale>  0 0.51140339E+02</rscale>
<asrwt>0</asrwt>
<pdfrwt beam="1">  1       13 0.10000000E+01 0.51140339E+02</pdfrwt>
<pdfrwt beam="2">  1       22 0.10043545E+00 0.51140339E+02</pdfrwt>
<totfact> 0.13980331E+00</totfact>
</mgrwt>
</event>
<event>
 4    1  0.2489082E+000  0.5101354E+02  0.7957747E-01  0.1439950E+00
         13   -1    0    0    0    0  0.00000000000E+00  0.00000000000E+00  0.99999944176E+02  0.99999999996E+02  0.10566000000E+00 0. -1.
         22   -1    0    0    0    0 -0.00000000000E+00 -0.00000000000E+00 -0.24597719263E+02  0.24597719263E+02  0.00000000000E+00 0.  1.
         13    1    1    2    0    0  0.18506662639E+01 -0.99476672492E+01 -0.16575646844E+02  0.19420202925E+02  0.10566000000E+00 0.  1.
        996    1    1    2    0    0 -0.18506662639E+01  0.99476672492E+01  0.91977871757E+02  0.10517751633E+03  0.50000000000E+02 0.  0.
<mgrwt>
<rscale>  0 0.51013538E+02</rscale>
<asrwt>0</asrwt>
<pdfrwt beam="1">  1       13 0.10000000E+01 0.51013538E+02</pdfrwt>
<pdfrwt beam="2">  1       22 0.24597740E+00 0.51013538E+02</pdfrwt>
<totfact> 0.30386552E-01</totfact>
</mgrwt>
</event>
<event>
 4    1  0.2489082E+000  0.5111216E+02  0.7957747E-01  0.1439434E+00
         13   -1    0    0    0    0  0.00000000000E+00  0.00000000000E+00  0.99999944174E+02  0.99999999995E+02  0.10566000000E+00 0.  1.
         22   -1    0    0    0    0 -0.00000000000E+00 -0.00000000000E+00 -0.10873851943E+02  0.10873851943E+02  0.00000000000E+00 0. -1.
         13    1    1    2    0    0 -0.60280000282E+01 -0.87244514944E+01  0.35270229575E+01  0.11176041034E+02  0.10566000000E+00 0. -1.
        996    1    1    2    0    0  0.60280000282E+01  0.87244514944E+01  0.85599069274E+02  0.99697810903E+02  0.50000000000E+02 0.  0.
<mgrwt>
<rscale>  0 0.51112159E+02</rscale>
<asrwt>0</asrwt>
<pdfrwt beam="1">  1       13 0.10000000E+01 0.51112159E+02</pdfrwt>
<pdfrwt beam="2">  1       22 0.10873877E+00 0.51112159E+02</pdfrwt>
<totfact> 0.12443163E+00</totfact>
</mgrwt>
</event>
<event>
 4    1  0.2489082E+000  0.5136251E+02  0.7957747E-01  0.1438128E+00
         13   -1    0    0    0    0  0.00000000000E+00  0.00000000000E+00  0.99999944185E+02  0.10000000001E+03  0.10566000000E+00 0.  1.
         22   -1    0    0    0    0 -0.00000000000E+00 -0.00000000000E+00 -0.23200810122E+02  0.23200810122E+02  0.00000000000E+00 0. -1.
         13    1    1    2    0    0  0.48871328490E+01  0.10687525327E+02 -0.14367043228E+02  0.18561529038E+02  0.10566000000E+00 0. -1.
        996    1    1    2    0    0 -0.48871328490E+01 -0.10687525327E+02  0.91166177290E+02  0.10463928109E+03  0.50000000000E+02 0.  0.
<mgrwt>
<rscale>  0 0.51362508E+02</rscale>
<asrwt>0</asrwt>
<pdfrwt beam="1">  1       13 0.10000000E+01 0.51362508E+02</pdfrwt>
<pdfrwt beam="2">  1       22 0.23200832E+00 0.51362508E+02</pdfrwt>
<totfact> 0.34087919E-01</totfact>
</mgrwt>
</event>
<event>
 4    1  0.2489082E+000  0.5432977E+02  0.7957747E-01  0.1423295E+00
         13   -1    0    0    0    0  0.00000000000E+00  0.00000000000E+00  0.99999944173E+02  0.99999999993E+02  0.10566000000E+00 0. -1.
         22   -1    0    0    0    0 -0.00000000000E+00 -0.00000000000E+00 -0.18471009179E+02  0.18471009179E+02  0.00000000000E+00 0. -1.
         13    1    1    2    0    0 -0.12352649304E+02  0.17295541581E+02  0.93477943262E+00  0.21274601760E+02  0.10566000000E+00 0.  1.
        996    1    1    2    0    0  0.12352649304E+02 -0.17295541581E+02  0.80594155561E+02  0.97196407413E+02  0.50000000000E+02 0.  0.
<mgrwt>
<rscale>  0 0.54329768E+02</rscale>
<asrwt>0</asrwt>
<pdfrwt beam="1">  1       13 0.10000000E+01 0.54329768E+02</pdfrwt>
<pdfrwt beam="2">  1       22 0.18471032E+00 0.54329768E+02</pdfrwt>
<totfact> 0.52664837E-01</totfact>
</mgrwt>
</event>
<event>
 4    1  0.2489082E+000  0.5157910E+02  0.7957747E-01  0.1437006E+00
         13   -1    0    0    0    0  0.00000000000E+00  0.00000000000E+00  0.99999944180E+02  0.10000000000E+03  0.10566000000E+00 0.  1.
         22   -1    0    0    0    0 -0.00000000000E+00 -0.00000000000E+00 -0.22692794489E+02  0.22692794489E+02  0.00000000000E+00 0.  1.
         13    1    1    2    0    0 -0.23266659235E+01  0.12449501763E+02 -0.13342265837E+02  0.18396485810E+02  0.10566000000E+00 0. -1.
        996    1    1    2    0    0  0.23266659235E+01 -0.12449501763E+02  0.90649415528E+02  0.10429630868E+03  0.50000000000E+02 0.  0.
<mgrwt>
<rscale>  0 0.51579099E+02</rscale>
<asrwt>0</asrwt>
<pdfrwt beam="1">  1       13 0.10000000E+01 0.51579099E+02</pdfrwt>
<pdfrwt beam="2">  1       22 0.22692816E+00 0.51579099E+02</pdfrwt>
<totfact> 0.35598606E-01</totfact>
</mgrwt>
</event>
<event>
 4    1  0.2489082E+000  0.5412516E+02  0.7957747E-01  0.1424282E+00
         13   -1    0    0    0    0  0.00000000000E+00  0.00000000000E+00  0.99999944182E+02  0.10000000000E+03  0.10566000000E+00 0.  1.
         22   -1    0    0    0    0 -0.00000000000E+00 -0.00000000000E+00 -0.15525069699E+02  0.15525069699E+02  0.00000000000E+00 0. -1.
         13    1    1    2    0    0  0.12243074064E+02  0.16722455410E+02  0.88713816294E+01  0.22544310890E+02  0.10566000000E+00 0. -1.
        996    1    1    2    0    0 -0.12243074064E+02 -0.16722455410E+02  0.75603492853E+02  0.92980758811E+02  0.50000000000E+02 0.  0.
<mgrwt>
<rscale>  0 0.54125164E+02</rscale>
<asrwt>0</asrwt>
<pdfrwt beam="1">  1       13 0.10000000E+01 0.54125164E+02</pdfrwt>
<pdfrwt beam="2">  1       22 0.15525093E+00 0.54125164E+02</pdfrwt>
<totfact> 0.71370399E-01</totfact>
</mgrwt>
</event>
<event>
 4    1  0.2489082E+000  0.5117144E+02  0.7957747E-01  0.1439124E+00
         13   -1    0    0    0    0  0.00000000000E+00  0.00000000000E+00  0.99999944178E+02  0.99999999999E+02  0.10566000000E+00 0.  1.
         22   -1    0    0    0    0 -0.00000000000E+00 -0.00000000000E+00 -0.20481435257E+02  0.20481435257E+02  0.00000000000E+00 0. -1.
         13    1    1    2    0    0  0.62009253119E+01  0.89478998998E+01 -0.11642857594E+02  0.15940002645E+02  0.10566000000E+00 0. -1.
        996    1    1    2    0    0 -0.62009253119E+01 -0.89478998998E+01  0.91161366515E+02  0.10454143261E+03  0.50000000000E+02 0.  0.
<mgrwt>
<rscale>  0 0.51171441E+02</rscale>
<asrwt>0</asrwt>
<pdfrwt beam="1">  1       13 0.10000000E+01 0.51171441E+02</pdfrwt>
<pdfrwt beam="2">  1       22 0.20481457E+00 0.51171441E+02</pdfrwt>
<totfact> 0.43269281E-01</totfact>
</mgrwt>
</event>
<event>
 4    1  0.2489082E+000  0.5182604E+02  0.7957747E-01  0.1435734E+00
         13   -1    0    0    0    0  0.00000000000E+00  0.00000000000E+00  0.99999944178E+02  0.99999999998E+02  0.10566000000E+00 0.  1.
         22   -1    0    0    0    0 -0.00000000000E+00 -0.00000000000E+00 -0.11808408503E+02  0.11808408503E+02  0.00000000000E+00 0.  1.
         13    1    1    2    0    0 -0.13635233780E+02 -0.13533388460E+00  0.66023185809E+01  0.15150567322E+02  0.10566000000E+00 0. -1.
        996    1    1    2    0    0  0.13635233780E+02  0.13533388460E+00  0.81589217094E+02  0.96657841180E+02  0.50000000000E+02 0.  0.
<mgrwt>
<rscale>  0 0.51826035E+02</rscale>
<asrwt>0</asrwt>
<pdfrwt beam="1">  1       13 0.10000000E+01 0.51826035E+02</pdfrwt>
<pdfrwt beam="2">  1       22 0.11808433E+00 0.51826035E+02</pdfrwt>
<totfact> 0.11012598E+00</totfact>
</mgrwt>
</event>
<event>
 4    1  0.2489082E+000  0.5475359E+02  0.7957747E-01  0.1421268E+00
         13   -1    0    0    0    0  0.00000000000E+00  0.00000000000E+00  0.99999944181E+02  0.10000000000E+03  0.10566000000E+00 0. -1.
         22   -1    0    0    0    0 -0.00000000000E+00 -0.00000000000E+00 -0.20975809442E+02  0.20975809442E+02  0.00000000000E+00 0.  1.
         13    1    1    2    0    0  0.55719142728E+01 -0.21608083395E+02 -0.28333500943E+01  0.22494322249E+02  0.10566000000E+00 0.  1.
        996    1    1    2    0    0 -0.55719142728E+01  0.21608083395E+02  0.81857484834E+02  0.98481487194E+02  0.50000000000E+02 0.  0.
<mgrwt>
<rscale>  0 0.54753589E+02</rscale>
<asrwt>0</asrwt>
<pdfrwt beam="1">  1       13 0.10000000E+01 0.54753589E+02</pdfrwt>
<pdfrwt beam="2">  1       22 0.20975832E+00 0.54753589E+02</pdfrwt>
<totfact> 0.41619969E-01</totfact>
</mgrwt>
</event>
<event>
 4    1  0.2489082E+000  0.5174305E+02  0.7957747E-01  0.1436161E+00
         13   -1    0    0    0    0  0.00000000000E+00  0.00000000000E+00  0.99999944167E+02  0.99999999987E+02  0.10566000000E+00 0.  1.
         22   -1    0    0    0    0 -0.00000000000E+00 -0.00000000000E+00 -0.45260658377E+02  0.45260658377E+02  0.00000000000E+00 0. -1.
         13    1    1    2    0    0 -0.12366109676E+02 -0.49419448466E+01 -0.37337348276E+02  0.39641294475E+02  0.10566000000E+00 0. -1.
        996    1    1    2    0    0  0.12366109676E+02  0.49419448466E+01  0.92076634066E+02  0.10561936389E+03  0.50000000000E+02 0.  0.
<mgrwt>
<rscale>  0 0.51743053E+02</rscale>
<asrwt>0</asrwt>
<pdfrwt beam="1">  1       13 0.10000000E+01 0.51743053E+02</pdfrwt>
<pdfrwt beam="2">  1       22 0.45260674E+00 0.51743053E+02</pdfrwt>
<totfact> 0.95300887E-02</totfact>
</mgrwt>
</event>
<event>
 4    1  0.2489082E+000  0.5143549E+02  0.7957747E-01  0.1437749E+00
         13   -1    0    0    0    0  0.00000000000E+00  0.00000000000E+00  0.99999944177E+02  0.99999999997E+02  0.10566000000E+00 0. -1.
         22   -1    0    0    0    0 -0.00000000000E+00 -0.00000000000E+00 -0.10113960270E+02  0.10113960270E+02  0.00000000000E+00 0. -1.
         13    1    1    2    0    0 -0.88268283716E+00  0.12034566232E+02  0.19619981713E+02  0.23033991400E+02  0.10566000000E+00 0.  1.
        996    1    1    2    0    0  0.88268283716E+00 -0.12034566232E+02  0.70266002194E+02  0.87079968866E+02  0.50000000000E+02 0.  0.
<mgrwt>
<rscale>  0 0.51435493E+02</rscale>
<asrwt>0</asrwt>
<pdfrwt beam="1">  1       13 0.10000000E+01 0.51435493E+02</pdfrwt>
<pdfrwt beam="2">  1       22 0.10113985E+00 0.51435493E+02</pdfrwt>
<totfact> 0.13849166E+00</totfact>
</mgrwt>
</event>
<event>
 4    1  0.2489082E+000  0.5113446E+02  0.7957747E-01  0.1439317E+00
         13   -1    0    0    0    0  0.00000000000E+00  0.00000000000E+00  0.99999944183E+02  0.10000000000E+03  0.10566000000E+00 0.  1.
         22   -1    0    0    0    0 -0.00000000000E+00 -0.00000000000E+00 -0.13402176890E+02  0.13402176890E+02  0.00000000000E+00 0. -1.
         13    1    1    2    0    0 -0.83183093771E+01  0.67482146419E+01 -0.21984284709E+01  0.10935123389E+02  0.10566000000E+00 0. -1.
        996    1    1    2    0    0  0.83183093771E+01 -0.67482146419E+01  0.88796195764E+02  0.10246705350E+03  0.50000000000E+02 0.  0.
<mgrwt>
<rscale>  0 0.51134457E+02</rscale>
<asrwt>0</asrwt>
<pdfrwt beam="1">  1       13 0.10000000E+01 0.51134457E+02</pdfrwt>
<pdfrwt beam="2">  1       22 0.13402201E+00 0.51134457E+02</pdfrwt>
<totfact> 0.90284349E-01</totfact>
</mgrwt>
</event>
<event>
 4    1  0.2489082E+000  0.5367707E+02  0.7957747E-01  0.1426461E+00
         13   -1    0    0    0    0  0.00000000000E+00  0.00000000000E+00  0.99999944180E+02  0.10000000000E+03  0.10566000000E+00 0. -1.
         22   -1    0    0    0    0 -0.00000000000E+00 -0.00000000000E+00 -0.20990089497E+02  0.20990089497E+02  0.00000000000E+00 0.  1.
         13    1    1    2    0    0 -0.15292308374E+02  0.12139735606E+02 -0.60224516206E+01  0.20433036083E+02  0.10566000000E+00 0.  1.
        996    1    1    2    0    0  0.15292308374E+02 -0.12139735606E+02  0.85032306303E+02  0.10055705341E+03  0.50000000000E+02 0.  0.
<mgrwt>
<rscale>  0 0.53677070E+02</rscale>
<asrwt>0</asrwt>
<pdfrwt beam="1">  1       13 0.10000000E+01 0.53677070E+02</pdfrwt>
<pdfrwt beam="2">  1       22 0.20990112E+00 0.53677070E+02</pdfrwt>
<totfact> 0.41491392E-01</totfact>
</mgrwt>
</event>
<event>
 4    1  0.2489082E+000  0.5870297E+02  0.7957747E-01  0.1403357E+00
         13   -1    0    0    0    0  0.00000000000E+00  0.00000000000E+00  0.99999944176E+02  0.99999999996E+02  0.10566000000E+00 0. -1.
         22   -1    0    0    0    0 -0.00000000000E+00 -0.00000000000E+00 -0.21515123798E+02  0.21515123798E+02  0.00000000000E+00 0.  1.
         13    1    1    2    0    0 -0.11538791949E+02  0.28511304696E+02  0.12509651607E+02  0.33204529247E+02  0.10566000000E+00 0.  1.
        996    1    1    2    0    0  0.11538791949E+02 -0.28511304696E+02  0.65975168771E+02  0.88310594548E+02  0.50000000000E+02 0.  0.
<mgrwt>
<rscale>  0 0.58702966E+02</rscale>
<asrwt>0</asrwt>
<pdfrwt beam="1">  1       13 0.10000000E+01 0.58702966E+02</pdfrwt>
<pdfrwt beam="2">  1       22 0.21515146E+00 0.58702966E+02</pdfrwt>
<totfact> 0.39901604E-01</totfact>
</mgrwt>
</event>
<event>
 4    1  0.2489082E+000  0.5528311E+02  0.7957747E-01  0.1418765E+00
         13   -1    0    0    0    0  0.00000000000E+00  0.00000000000E+00  0.99999944181E+02  0.10000000000E+03  0.10566000000E+00 0. -1.
         22   -1    0    0    0    0 -0.00000000000E+00 -0.00000000000E+00 -0.35716412750E+02  0.35716412750E+02  0.00000000000E+00 0.  1.
         13    1    1    2    0    0  0.10064817479E+02  0.21328888916E+02 -0.22646298986E+02  0.32696912318E+02  0.10566000000E+00 0.  1.
        996    1    1    2    0    0 -0.10064817479E+02 -0.21328888916E+02  0.86929830416E+02  0.10301950043E+03  0.50000000000E+02 0.  0.
<mgrwt>
<rscale>  0 0.55283108E+02</rscale>
<asrwt>0</asrwt>
<pdfrwt beam="1">  1       13 0.10000000E+01 0.55283108E+02</pdfrwt>
<pdfrwt beam="2">  1       22 0.35716431E+00 0.55283108E+02</pdfrwt>
<totfact> 0.15217091E-01</totfact>
</mgrwt>
</event>
<event>
 4    1  0.2489082E+000  0.6026074E+02  0.7957747E-01  0.1396741E+00
         13   -1    0    0    0    0  0.00000000000E+00  0.00000000000E+00  0.99999944184E+02  0.10000000000E+03  0.10566000000E+00 0. -1.
         22   -1    0    0    0    0 -0.00000000000E+00 -0.00000000000E+00 -0.23329743975E+02  0.23329743975E+02  0.00000000000E+00 0.  1.
         13    1    1    2    0    0  0.33498105644E+02  0.30387537927E+01  0.14135443787E+02  0.36485326385E+02  0.10566000000E+00 0.  1.
        996    1    1    2    0    0 -0.33498105644E+02 -0.30387537927E+01  0.62534756422E+02  0.86844417593E+02  0.50000000000E+02 0.  0.
<mgrwt>
<rscale>  0 0.60260743E+02</rscale>
<asrwt>0</asrwt>
<pdfrwt beam="1">  1       13 0.10000000E+01 0.60260743E+02</pdfrwt>
<pdfrwt beam="2">  1       22 0.23329765E+00 0.60260743E+02</pdfrwt>
<totfact> 0.34183862E-01</totfact>
</mgrwt>
</event>
<event>
 4    1  0.2489082E+000  0.5230225E+02  0.7957747E-01  0.1433305E+00
         13   -1    0    0    0    0  0.00000000000E+00  0.00000000000E+00  0.99999944176E+02  0.99999999996E+02  0.10566000000E+00 0.  1.
         22   -1    0    0    0    0 -0.00000000000E+00 -0.00000000000E+00 -0.11791670883E+02  0.11791670883E+02  0.00000000000E+00 0.  1.
         13    1    1    2    0    0 -0.14482989314E+02 -0.50762975178E+01  0.12603961989E+02  0.19859425918E+02  0.10566000000E+00 0. -1.
        996    1    1    2    0    0  0.14482989314E+02  0.50762975178E+01  0.75604311304E+02  0.91932244962E+02  0.50000000000E+02 0.  0.
<mgrwt>
<rscale>  0 0.52302254E+02</rscale>
<asrwt>0</asrwt>
<pdfrwt beam="1">  1       13 0.10000000E+01 0.52302254E+02</pdfrwt>
<pdfrwt beam="2">  1       22 0.11791696E+00 0.52302254E+02</pdfrwt>
<totfact> 0.11048205E+00</totfact>
</mgrwt>
</event>
<event>
 4    1  0.2489082E+000  0.6883742E+02  0.7957747E-01  0.1364092E+00
         13   -1    0    0    0    0  0.00000000000E+00  0.00000000000E+00  0.99999944172E+02  0.99999999992E+02  0.10566000000E+00 0.  1.
         22   -1    0    0    0    0 -0.00000000000E+00 -0.00000000000E+00 -0.33728679397E+02  0.33728679397E+02  0.00000000000E+00 0. -1.
         13    1    1    2    0    0  0.23986433582E+02 -0.40782856892E+02  0.27334363766E+02  0.54642190831E+02  0.10566000000E+00 0. -1.
        996    1    1    2    0    0 -0.23986433582E+02  0.40782856892E+02  0.38936901009E+02  0.79086488558E+02  0.50000000000E+02 0.  0.
<mgrwt>
<rscale>  0 0.68837420E+02</rscale>
<asrwt>0</asrwt>
<pdfrwt beam="1">  1       13 0.10000000E+01 0.68837420E+02</pdfrwt>
<pdfrwt beam="2">  1       22 0.33728698E+00 0.68837420E+02</pdfrwt>
<totfact> 0.17034366E-01</totfact>
</mgrwt>
</event>
<event>
 4    1  0.2489082E+000  0.5579530E+02  0.7957747E-01  0.1416375E+00
         13   -1    0    0    0    0  0.00000000000E+00  0.00000000000E+00  0.99999944180E+02  0.10000000000E+03  0.10566000000E+00 0.  1.
         22   -1    0    0    0    0 -0.00000000000E+00 -0.00000000000E+00 -0.16565457874E+02  0.16565457874E+02  0.00000000000E+00 0.  1.
         13    1    1    2    0    0  0.55400383657E+00 -0.24754979141E+02  0.33719923778E+02  0.41834917666E+02  0.10566000000E+00 0. -1.
        996    1    1    2    0    0 -0.55400383657E+00  0.24754979141E+02  0.49714562527E+02  0.74730540208E+02  0.50000000000E+02 0.  0.
<mgrwt>
<rscale>  0 0.55795304E+02</rscale>
<asrwt>0</asrwt>
<pdfrwt beam="1">  1       13 0.10000000E+01 0.55795304E+02</pdfrwt>
<pdfrwt beam="2">  1       22 0.16565481E+00 0.55795304E+02</pdfrwt>
<totfact> 0.64062163E-01</totfact>
</mgrwt>
</event>
<event>
 4    1  0.2489082E+000  0.6488792E+02  0.7957747E-01  0.1378394E+00
         13   -1    0    0    0    0  0.00000000000E+00  0.00000000000E+00  0.99999944183E+02  0.10000000000E+03  0.10566000000E+00 0. -1.
         22   -1    0    0    0    0 -0.00000000000E+00 -0.00000000000E+00 -0.41666177064E+02  0.41666177064E+02  0.00000000000E+00 0.  1.
         13    1    1    2    0    0  0.35891402321E+02  0.20548692664E+02 -0.14772433776E+02  0.43916710879E+02  0.10566000000E+00 0.  1.
        996    1    1    2    0    0 -0.35891402321E+02 -0.20548692664E+02  0.73106200895E+02  0.97749466188E+02  0.50000000000E+02 0.  0.
<mgrwt>
<rscale>  0 0.64887915E+02</rscale>
<asrwt>0</asrwt>
<pdfrwt beam="1">  1       13 0.10000000E+01 0.64887915E+02</pdfrwt>
<pdfrwt beam="2">  1       22 0.41666193E+00 0.64887915E+02</pdfrwt>
<totfact> 0.11513416E-01</totfact>
</mgrwt>
</event>
<event>
 4    1  0.2489082E+000  0.5120069E+02  0.7957747E-01  0.1438971E+00
         13   -1    0    0    0    0  0.00000000000E+00  0.00000000000E+00  0.99999944181E+02  0.10000000000E+03  0.10566000000E+00 0.  1.
         22   -1    0    0    0    0 -0.00000000000E+00 -0.00000000000E+00 -0.13296163388E+02  0.13296163388E+02  0.00000000000E+00 0.  1.
         13    1    1    2    0    0 -0.78596715839E+01 -0.77289254942E+01 -0.16820988143E+01  0.11151293520E+02  0.10566000000E+00 0. -1.
        996    1    1    2    0    0  0.78596715839E+01  0.77289254942E+01  0.88385879607E+02  0.10214486987E+03  0.50000000000E+02 0.  0.
<mgrwt>
<rscale>  0 0.51200691E+02</rscale>
<asrwt>0</asrwt>
<pdfrwt beam="1">  1       13 0.10000000E+01 0.51200691E+02</pdfrwt>
<pdfrwt beam="2">  1       22 0.13296188E+00 0.51200691E+02</pdfrwt>
<totfact> 0.91444939E-01</totfact>
</mgrwt>
</event>
<event>
 4    1  0.2489082E+000  0.5162494E+02  0.7957747E-01  0.1436769E+00
         13   -1    0    0    0    0  0.00000000000E+00  0.00000000000E+00  0.99999944174E+02  0.99999999994E+02  0.10566000000E+00 0.  1.
         22   -1    0    0    0    0 -0.00000000000E+00 -0.00000000000E+00 -0.14046262146E+02  0.14046262146E+02  0.00000000000E+00 0. -1.
         13    1    1    2    0    0  0.75348919167E+01 -0.10409610566E+02  0.48742672189E+02  0.50408271589E+02  0.10566000000E+00 0. -1.
        996    1    1    2    0    0 -0.75348919167E+01  0.10409610566E+02  0.37211009838E+02  0.63637990552E+02  0.50000000000E+02 0.  0.
<mgrwt>
<rscale>  0 0.51624942E+02</rscale>
<asrwt>0</asrwt>
<pdfrwt beam="1">  1       13 0.10000000E+01 0.51624942E+02</pdfrwt>
<pdfrwt beam="2">  1       22 0.14046286E+00 0.51624942E+02</pdfrwt>
<totfact> 0.83811365E-01</totfact>
</mgrwt>
</event>
<event>
 4    1  0.2489082E+000  0.5991182E+02  0.7957747E-01  0.1398202E+00
         13   -1    0    0    0    0  0.00000000000E+00  0.00000000000E+00  0.99999944171E+02  0.99999999991E+02  0.10566000000E+00 0.  1.
         22   -1    0    0    0    0 -0.00000000000E+00 -0.00000000000E+00 -0.24975223004E+02  0.24975223004E+02  0.00000000000E+00 0. -1.
         13    1    1    2    0    0  0.37297031752E+01  0.32795058169E+02  0.50299139869E+02  0.60161791543E+02  0.10566000000E+00 0. -1.
        996    1    1    2    0    0 -0.37297031752E+01 -0.32795058169E+02  0.24725581298E+02  0.64813431452E+02  0.50000000000E+02 0.  0.
<mgrwt>
<rscale>  0 0.59911823E+02</rscale>
<asrwt>0</asrwt>
<pdfrwt beam="1">  1       13 0.10000000E+01 0.59911823E+02</pdfrwt>
<pdfrwt beam="2">  1       22 0.24975244E+00 0.59911823E+02</pdfrwt>
<totfact> 0.29878799E-01</totfact>
</mgrwt>
</event>
<event>
 4    1  0.2489082E+000  0.5182320E+02  0.7957747E-01  0.1435749E+00
         13   -1    0    0    0    0  0.00000000000E+00  0.00000000000E+00  0.99999944171E+02  0.99999999991E+02  0.10566000000E+00 0. -1.
         22   -1    0    0    0    0 -0.00000000000E+00 -0.00000000000E+00 -0.11118107881E+02  0.11118107881E+02  0.00000000000E+00 0. -1.
         13    1    1    2    0    0 -0.38246737855E+01 -0.13077323473E+02  0.10720856980E+02  0.17337602407E+02  0.10566000000E+00 0.  1.
        996    1    1    2    0    0  0.38246737855E+01  0.13077323473E+02  0.78160979309E+02  0.93780505466E+02  0.50000000000E+02 0.  0.
<mgrwt>
<rscale>  0 0.51823204E+02</rscale>
<asrwt>0</asrwt>
<pdfrwt beam="1">  1       13 0.10000000E+01 0.51823204E+02</pdfrwt>
<pdfrwt beam="2">  1       22 0.11118133E+00 0.51823204E+02</pdfrwt>
<totfact> 0.12058775E+00</totfact>
</mgrwt>
</event>
<event>
 4    1  0.2489082E+000  0.5314782E+02  0.7957747E-01  0.1429067E+00
         13   -1    0    0    0    0  0.00000000000E+00  0.00000000000E+00  0.99999944180E+02  0.10000000000E+03  0.10566000000E+00 0. -1.
         22   -1    0    0    0    0 -0.00000000000E+00 -0.00000000000E+00 -0.30858194341E+02  0.30858194341E+02  0.00000000000E+00 0.  1.
         13    1    1    2    0    0 -0.54763611344E-01 -0.18019085038E+02 -0.20096559288E+02  0.26992096693E+02  0.10566000000E+00 0.  1.
        996    1    1    2    0    0  0.54763611344E-01  0.18019085038E+02  0.89238309127E+02  0.10386609765E+03  0.50000000000E+02 0.  0.
<mgrwt>
<rscale>  0 0.53147817E+02</rscale>
<asrwt>0</asrwt>
<pdfrwt beam="1">  1       13 0.10000000E+01 0.53147817E+02</pdfrwt>
<pdfrwt beam="2">  1       22 0.30858214E+00 0.53147817E+02</pdfrwt>
<totfact> 0.19678740E-01</totfact>
</mgrwt>
</event>
<event>
 4    1  0.2489082E+000  0.5188116E+02  0.7957747E-01  0.1435451E+00
         13   -1    0    0    0    0  0.00000000000E+00  0.00000000000E+00  0.99999944179E+02  0.10000000000E+03  0.10566000000E+00 0. -1.
         22   -1    0    0    0    0 -0.00000000000E+00 -0.00000000000E+00 -0.13272301237E+02  0.13272301237E+02  0.00000000000E+00 0. -1.
         13    1    1    2    0    0  0.13499680887E+02  0.30682070991E+01  0.20931588364E+01  0.14001705496E+02  0.10566000000E+00 0.  1.
        996    1    1    2    0    0 -0.13499680887E+02 -0.30682070991E+01  0.84634484106E+02  0.99270595740E+02  0.50000000000E+02 0.  0.
<mgrwt>
<rscale>  0 0.51881165E+02</rscale>
<asrwt>0</asrwt>
<pdfrwt beam="1">  1       13 0.10000000E+01 0.51881165E+02</pdfrwt>
<pdfrwt beam="2">  1       22 0.13272325E+00 0.51881165E+02</pdfrwt>
<totfact> 0.91841400E-01</totfact>
</mgrwt>
</event>
<event>
 4    1  0.2489082E+000  0.5422370E+02  0.7957747E-01  0.1423806E+00
         13   -1    0    0    0    0  0.00000000000E+00  0.00000000000E+00  0.99999944164E+02  0.99999999984E+02  0.10566000000E+00 0.  1.
         22   -1    0    0    0    0 -0.00000000000E+00 -0.00000000000E+00 -0.67800857100E+02  0.67800857100E+02  0.00000000000E+00 0. -1.
         13    1    1    2    0    0 -0.20630756982E+02  0.38185548632E+01 -0.58489029089E+02  0.62138451725E+02  0.10566000000E+00 0. -1.
        996    1    1    2    0    0  0.20630756982E+02 -0.38185548632E+01  0.90688116154E+02  0.10566240536E+03  0.50000000000E+02 0.  0.
<mgrwt>
<rscale>  0 0.54223699E+02</rscale>
<asrwt>0</asrwt>
<pdfrwt beam="1">  1       13 0.10000000E+01 0.54223699E+02</pdfrwt>
<pdfrwt beam="2">  1       22 0.67800866E+00 0.54223699E+02</pdfrwt>
<totfact> 0.84142048E-02</totfact>
</mgrwt>
</event>
<event>
 4    1  0.2489082E+000  0.5137574E+02  0.7957747E-01  0.1438059E+00
         13   -1    0    0    0    0  0.00000000000E+00  0.00000000000E+00  0.99999944168E+02  0.99999999988E+02  0.10566000000E+00 0. -1.
         22   -1    0    0    0    0 -0.00000000000E+00 -0.00000000000E+00 -0.17387800691E+02  0.17387800691E+02  0.00000000000E+00 0.  1.
         13    1    1    2    0    0  0.11670024714E+02 -0.18102494279E+01 -0.72631132572E+01  0.13864719905E+02  0.10566000000E+00 0.  1.
        996    1    1    2    0    0 -0.11670024714E+02  0.18102494279E+01  0.89875256734E+02  0.10352308077E+03  0.50000000000E+02 0.  0.
<mgrwt>
<rscale>  0 0.51375738E+02</rscale>
<asrwt>0</asrwt>
<pdfrwt beam="1">  1       13 0.10000000E+01 0.51375738E+02</pdfrwt>
<pdfrwt beam="2">  1       22 0.17387824E+00 0.51375738E+02</pdfrwt>
<totfact> 0.58361536E-01</totfact>
</mgrwt>
</event>
<event>
 4    1  0.2489082E+000  0.5125850E+02  0.7957747E-01  0.1438669E+00
         13   -1    0    0    0    0  0.00000000000E+00  0.00000000000E+00  0.99999944175E+02  0.99999999995E+02  0.10566000000E+00 0. -1.
         22   -1    0    0    0    0 -0.00000000000E+00 -0.00000000000E+00 -0.18256144305E+02  0.18256144305E+02  0.00000000000E+00 0.  1.
         13    1    1    2    0    0 -0.11124399951E+02  0.19186925252E+01 -0.87299845377E+01  0.14270860147E+02  0.10566000000E+00 0.  1.
        996    1    1    2    0    0  0.11124399951E+02 -0.19186925252E+01  0.90473784408E+02  0.10398528415E+03  0.50000000000E+02 0.  0.
<mgrwt>
<rscale>  0 0.51258498E+02</rscale>
<asrwt>0</asrwt>
<pdfrwt beam="1">  1       13 0.10000000E+01 0.51258498E+02</pdfrwt>
<pdfrwt beam="2">  1       22 0.18256167E+00 0.51258498E+02</pdfrwt>
<totfact> 0.53487244E-01</totfact>
</mgrwt>
</event>
<event>
 4    1  0.2489082E+000  0.5299443E+02  0.7957747E-01  0.1429829E+00
         13   -1    0    0    0    0  0.00000000000E+00  0.00000000000E+00  0.99999944179E+02  0.10000000000E+03  0.10566000000E+00 0. -1.
         22   -1    0    0    0    0 -0.00000000000E+00 -0.00000000000E+00 -0.21771163396E+02  0.21771163396E+02  0.00000000000E+00 0.  1.
         13    1    1    2    0    0  0.15955748212E+02  0.73364540947E+01 -0.89789305253E+01  0.19724143001E+02  0.10566000000E+00 0.  1.
        996    1    1    2    0    0 -0.15955748212E+02 -0.73364540947E+01  0.87207711309E+02  0.10204702039E+03  0.50000000000E+02 0.  0.
<mgrwt>
<rscale>  0 0.52994429E+02</rscale>
<asrwt>0</asrwt>
<pdfrwt beam="1">  1       13 0.10000000E+01 0.52994429E+02</pdfrwt>
<pdfrwt beam="2">  1       22 0.21771185E+00 0.52994429E+02</pdfrwt>
<totfact> 0.38653158E-01</totfact>
</mgrwt>
</event>
<event>
 4    1  0.2489082E+000  0.5128097E+02  0.7957747E-01  0.1438552E+00
         13   -1    0    0    0    0  0.00000000000E+00  0.00000000000E+00  0.99999944174E+02  0.99999999994E+02  0.10566000000E+00 0. -1.
         22   -1    0    0    0    0 -0.00000000000E+00 -0.00000000000E+00 -0.16674883771E+02  0.16674883771E+02  0.00000000000E+00 0. -1.
         13    1    1    2    0    0  0.95107883385E+01  0.62676378141E+01 -0.65933058146E+01  0.13161353433E+02  0.10566000000E+00 0.  1.
        996    1    1    2    0    0 -0.95107883385E+01 -0.62676378141E+01  0.89918366218E+02  0.10351353033E+03  0.50000000000E+02 0.  0.
<mgrwt>
<rscale>  0 0.51280975E+02</rscale>
<asrwt>0</asrwt>
<pdfrwt beam="1">  1       13 0.10000000E+01 0.51280975E+02</pdfrwt>
<pdfrwt beam="2">  1       22 0.16674907E+00 0.51280975E+02</pdfrwt>
<totfact> 0.62793511E-01</totfact>
</mgrwt>
</event>
<event>
 4    1  0.2489082E+000  0.5189689E+02  0.7957747E-01  0.1435371E+00
         13   -1    0    0    0    0  0.00000000000E+00  0.00000000000E+00  0.99999944175E+02  0.99999999995E+02  0.10566000000E+00 0. -1.
         22   -1    0    0    0    0 -0.00000000000E+00 -0.00000000000E+00 -0.12018047926E+02  0.12018047926E+02  0.00000000000E+00 0. -1.
         13    1    1    2    0    0 -0.10974253815E+02  0.85353981634E+01  0.63464546530E+01  0.15283190744E+02  0.10566000000E+00 0.  1.
        996    1    1    2    0    0  0.10974253815E+02 -0.85353981634E+01  0.81635441596E+02  0.96734857177E+02  0.50000000000E+02 0.  0.
<mgrwt>
<rscale>  0 0.51896891E+02</rscale>
<asrwt>0</asrwt>
<pdfrwt beam="1">  1       13 0.10000000E+01 0.51896891E+02</pdfrwt>
<pdfrwt beam="2">  1       22 0.12018072E+00 0.51896891E+02</pdfrwt>
<totfact> 0.10722196E+00</totfact>
</mgrwt>
</event>
<event>
 4    1  0.2489082E+000  0.5125965E+02  0.7957747E-01  0.1438663E+00
         13   -1    0    0    0    0  0.00000000000E+00  0.00000000000E+00  0.99999944182E+02  0.10000000000E+03  0.10566000000E+00 0. -1.
         22   -1    0    0    0    0 -0.00000000000E+00 -0.00000000000E+00 -0.12525973134E+02  0.12525973134E+02  0.00000000000E+00 0.  1.
         13    1    1    2    0    0 -0.44017356700E+01 -0.10400790297E+02  0.18141686117E+00  0.11295830728E+02  0.10566000000E+00 0.  1.
        996    1    1    2    0    0  0.44017356700E+01  0.10400790297E+02  0.87292554186E+02  0.10123014241E+03  0.50000000000E+02 0.  0.
<mgrwt>
<rscale>  0 0.51259650E+02</rscale>
<asrwt>0</asrwt>
<pdfrwt beam="1">  1       13 0.10000000E+01 0.51259650E+02</pdfrwt>
<pdfrwt beam="2">  1       22 0.12525998E+00 0.51259650E+02</pdfrwt>
<totfact> 0.10044360E+00</totfact>
</mgrwt>
</event>
<event>
 4    1  0.2489082E+000  0.5916162E+02  0.7957747E-01  0.1401384E+00
         13   -1    0    0    0    0  0.00000000000E+00  0.00000000000E+00  0.99999944179E+02  0.99999999999E+02  0.10566000000E+00 0.  1.
         22   -1    0    0    0    0 -0.00000000000E+00 -0.00000000000E+00 -0.22110338203E+02  0.22110338203E+02  0.00000000000E+00 0. -1.
         13    1    1    2    0    0 -0.12476064836E+02  0.29059340642E+02  0.12704916832E+02  0.34081131849E+02  0.10566000000E+00 0. -1.
        996    1    1    2    0    0  0.12476064836E+02 -0.29059340642E+02  0.65184689144E+02  0.88029206353E+02  0.50000000000E+02 0.  0.
<mgrwt>
<rscale>  0 0.59161622E+02</rscale>
<asrwt>0</asrwt>
<pdfrwt beam="1">  1       13 0.10000000E+01 0.59161622E+02</pdfrwt>
<pdfrwt beam="2">  1       22 0.22110360E+00 0.59161622E+02</pdfrwt>
<totfact> 0.37886482E-01</totfact>
</mgrwt>
</event>
<event>
 4    1  0.2489082E+000  0.5105894E+02  0.7957747E-01  0.1439712E+00
         13   -1    0    0    0    0  0.00000000000E+00  0.00000000000E+00  0.99999944175E+02  0.99999999995E+02  0.10566000000E+00 0. -1.
         22   -1    0    0    0    0 -0.00000000000E+00 -0.00000000000E+00 -0.25985721972E+02  0.25985721972E+02  0.00000000000E+00 0.  1.
         13    1    1    2    0    0  0.81935577684E+01 -0.63151556290E+01 -0.17996100255E+02  0.20757802580E+02  0.10566000000E+00 0.  1.
        996    1    1    2    0    0 -0.81935577684E+01  0.63151556290E+01  0.92010322459E+02  0.10522791939E+03  0.50000000000E+02 0.  0.
<mgrwt>
<rscale>  0 0.51058942E+02</rscale>
<asrwt>0</asrwt>
<pdfrwt beam="1">  1       13 0.10000000E+01 0.51058942E+02</pdfrwt>
<pdfrwt beam="2">  1       22 0.25985743E+00 0.51058942E+02</pdfrwt>
<totfact> 0.27279871E-01</totfact>
</mgrwt>
</event>
<event>
 4    1  0.2489082E+000  0.5129686E+02  0.7957747E-01  0.1438470E+00
         13   -1    0    0    0    0  0.00000000000E+00  0.00000000000E+00  0.99999944172E+02  0.99999999992E+02  0.10566000000E+00 0. -1.
         22   -1    0    0    0    0 -0.00000000000E+00 -0.00000000000E+00 -0.15540854218E+02  0.15540854218E+02  0.00000000000E+00 0. -1.
         13    1    1    2    0    0 -0.53140674903E+01  0.10155243848E+02 -0.49311814373E+01  0.12477820535E+02  0.10566000000E+00 0.  1.
        996    1    1    2    0    0  0.53140674903E+01 -0.10155243848E+02  0.89390271391E+02  0.10306303368E+03  0.50000000000E+02 0.  0.
<mgrwt>
<rscale>  0 0.51296864E+02</rscale>
<asrwt>0</asrwt>
<pdfrwt beam="1">  1       13 0.10000000E+01 0.51296864E+02</pdfrwt>
<pdfrwt beam="2">  1       22 0.15540878E+00 0.51296864E+02</pdfrwt>
<totfact> 0.70849055E-01</totfact>
</mgrwt>
</event>
<event>
 4    1  0.2489082E+000  0.8325273E+02  0.7957747E-01  0.1320066E+00
         13   -1    0    0    0    0  0.00000000000E+00  0.00000000000E+00  0.99999944172E+02  0.99999999993E+02  0.10566000000E+00 0.  1.
         22   -1    0    0    0    0 -0.00000000000E+00 -0.00000000000E+00 -0.91503701461E+02  0.91503701461E+02  0.00000000000E+00 0. -1.
         13    1    1    2    0    0 -0.55948708126E+02  0.36066035494E+02 -0.55362890799E+02  0.86579892001E+02  0.10566000000E+00 0. -1.
        996    1    1    2    0    0  0.55948708126E+02 -0.36066035494E+02  0.63859133511E+02  0.10492380945E+03  0.50000000000E+02 0.  0.
<mgrwt>
<rscale>  0 0.83252729E+02</rscale>
<asrwt>0</asrwt>
<pdfrwt beam="1">  1       13 0.10000000E+01 0.83252729E+02</pdfrwt>
<pdfrwt beam="2">  1       22 0.91503704E+00 0.83252729E+02</pdfrwt>
<totfact> 0.83075402E-03</totfact>
</mgrwt>
</event>
<event>
 4    1  0.2489082E+000  0.5144312E+02  0.7957747E-01  0.1437710E+00
         13   -1    0    0    0    0  0.00000000000E+00  0.00000000000E+00  0.99999944182E+02  0.10000000000E+03  0.10566000000E+00 0.  1.
         22   -1    0    0    0    0 -0.00000000000E+00 -0.00000000000E+00 -0.10183907814E+02  0.10183907814E+02  0.00000000000E+00 0.  1.
         13    1    1    2    0    0  0.10353725919E+02  0.62605682050E+01  0.13276939700E+02  0.17963369575E+02  0.10566000000E+00 0. -1.
        996    1    1    2    0    0 -0.10353725919E+02 -0.62605682050E+01  0.76539096668E+02  0.92220538241E+02  0.50000000000E+02 0.  0.
<mgrwt>
<rscale>  0 0.51443118E+02</rscale>
<asrwt>0</asrwt>
<pdfrwt beam="1">  1       13 0.10000000E+01 0.51443118E+02</pdfrwt>
<pdfrwt beam="2">  1       22 0.10183933E+00 0.51443118E+02</pdfrwt>
<totfact> 0.13711333E+00</totfact>
</mgrwt>
</event>
<event>
 4    1  0.2489082E+000  0.5212662E+02  0.7957747E-01  0.1434197E+00
         13   -1    0    0    0    0  0.00000000000E+00  0.00000000000E+00  0.99999944180E+02  0.10000000000E+03  0.10566000000E+00 0. -1.
         22   -1    0    0    0    0 -0.00000000000E+00 -0.00000000000E+00 -0.12159188084E+02  0.12159188084E+02  0.00000000000E+00 0. -1.
         13    1    1    2    0    0  0.10725970220E+02 -0.10106333867E+02  0.78905323127E+01  0.16716940079E+02  0.10566000000E+00 0.  1.
        996    1    1    2    0    0 -0.10725970220E+02  0.10106333867E+02  0.79950223783E+02  0.95442248006E+02  0.50000000000E+02 0.  0.
<mgrwt>
<rscale>  0 0.52126619E+02</rscale>
<asrwt>0</asrwt>
<pdfrwt beam="1">  1       13 0.10000000E+01 0.52126619E+02</pdfrwt>
<pdfrwt beam="2">  1       22 0.12159213E+00 0.52126619E+02</pdfrwt>
<totfact> 0.10537055E+00</totfact>
</mgrwt>
</event>
<event>
 4    1  0.2489082E+000  0.5109163E+02  0.7957747E-01  0.1439541E+00
         13   -1    0    0    0    0  0.00000000000E+00  0.00000000000E+00  0.99999944178E+02  0.99999999998E+02  0.10566000000E+00 0.  1.
         22   -1    0    0    0    0 -0.00000000000E+00 -0.00000000000E+00 -0.10433322820E+02  0.10433322820E+02  0.00000000000E+00 0.  1.
         13    1    1    2    0    0 -0.32749618139E+01 -0.99814687193E+01  0.50083275531E+01  0.11638281728E+02  0.10566000000E+00 0. -1.
        996    1    1    2    0    0  0.32749618139E+01  0.99814687193E+01  0.84558293805E+02  0.98795041090E+02  0.50000000000E+02 0.  0.
<mgrwt>
<rscale>  0 0.51091634E+02</rscale>
<asrwt>0</asrwt>
<pdfrwt beam="1">  1       13 0.10000000E+01 0.51091634E+02</pdfrwt>
<pdfrwt beam="2">  1       22 0.10433348E+00 0.51091634E+02</pdfrwt>
<totfact> 0.13224256E+00</totfact>
</mgrwt>
</event>
<event>
 4    1  0.2489082E+000  0.5128167E+02  0.7957747E-01  0.1438549E+00
         13   -1    0    0    0    0  0.00000000000E+00  0.00000000000E+00  0.99999944179E+02  0.10000000000E+03  0.10566000000E+00 0. -1.
         22   -1    0    0    0    0 -0.00000000000E+00 -0.00000000000E+00 -0.10131192376E+02  0.10131192376E+02  0.00000000000E+00 0. -1.
         13    1    1    2    0    0  0.11022434048E+01 -0.11339954187E+02  0.96993547971E+01  0.14963226557E+02  0.10566000000E+00 0.  1.
        996    1    1    2    0    0 -0.11022434048E+01  0.11339954187E+02  0.80169397007E+02  0.95167965818E+02  0.50000000000E+02 0.  0.
<mgrwt>
<rscale>  0 0.51281668E+02</rscale>
<asrwt>0</asrwt>
<pdfrwt beam="1">  1       13 0.10000000E+01 0.51281668E+02</pdfrwt>
<pdfrwt beam="2">  1       22 0.10131217E+00 0.51281668E+02</pdfrwt>
<totfact> 0.13809824E+00</totfact>
</mgrwt>
</event>
<event>
 4    1  0.2489082E+000  0.5185073E+02  0.7957747E-01  0.1435607E+00
         13   -1    0    0    0    0  0.00000000000E+00  0.00000000000E+00  0.99999944184E+02  0.10000000000E+03  0.10566000000E+00 0. -1.
         22   -1    0    0    0    0 -0.00000000000E+00 -0.00000000000E+00 -0.14966985399E+02  0.14966985399E+02  0.00000000000E+00 0. -1.
         13    1    1    2    0    0  0.12448087386E+01  0.13672914172E+02 -0.17835772468E+01  0.13845231763E+02  0.10566000000E+00 0.  1.
        996    1    1    2    0    0 -0.12448087386E+01 -0.13672914172E+02  0.86816536032E+02  0.10112175364E+03  0.50000000000E+02 0.  0.
<mgrwt>
<rscale>  0 0.51850729E+02</rscale>
<asrwt>0</asrwt>
<pdfrwt beam="1">  1       13 0.10000000E+01 0.51850729E+02</pdfrwt>
<pdfrwt beam="2">  1       22 0.14967009E+00 0.51850729E+02</pdfrwt>
<totfact> 0.75545942E-01</totfact>
</mgrwt>
</event>
<event>
 4    1  0.2489082E+000  0.5324213E+02  0.7957747E-01  0.1428600E+00
         13   -1    0    0    0    0  0.00000000000E+00  0.00000000000E+00  0.99999944176E+02  0.99999999996E+02  0.10566000000E+00 0. -1.
         22   -1    0    0    0    0 -0.00000000000E+00 -0.00000000000E+00 -0.31901199794E+02  0.31901199794E+02  0.00000000000E+00 0.  1.
         13    1    1    2    0    0 -0.18207305718E+02  0.17939817799E+01 -0.21157769724E+02  0.27971176877E+02  0.10566000000E+00 0.  1.
        996    1    1    2    0    0  0.18207305718E+02 -0.17939817799E+01  0.89256514107E+02  0.10393002291E+03  0.50000000000E+02 0.  0.
<mgrwt>
<rscale>  0 0.53242129E+02</rscale>
<asrwt>0</asrwt>
<pdfrwt beam="1">  1       13 0.10000000E+01 0.53242129E+02</pdfrwt>
<pdfrwt beam="2">  1       22 0.31901219E+00 0.53242129E+02</pdfrwt>
<totfact> 0.18528064E-01</totfact>
</mgrwt>
</event>
<event>
 4    1  0.2489082E+000  0.5518214E+02  0.7957747E-01  0.1419239E+00
         13   -1    0    0    0    0  0.00000000000E+00  0.00000000000E+00  0.99999944169E+02  0.99999999989E+02  0.10566000000E+00 0. -1.
         22   -1    0    0    0    0 -0.00000000000E+00 -0.00000000000E+00 -0.75052044780E+02  0.75052044780E+02  0.00000000000E+00 0.  1.
         13    1    1    2    0    0  0.78172356759E+01  0.21999081645E+02 -0.65256672741E+02  0.69307382493E+02  0.10566000000E+00 0.  1.
        996    1    1    2    0    0 -0.78172356759E+01 -0.21999081645E+02  0.90204572130E+02  0.10574466228E+03  0.50000000000E+02 0.  0.
<mgrwt>
<rscale>  0 0.55182142E+02</rscale>
<asrwt>0</asrwt>
<pdfrwt beam="1">  1       13 0.10000000E+01 0.55182142E+02</pdfrwt>
<pdfrwt beam="2">  1       22 0.75052052E+00 0.55182142E+02</pdfrwt>
<totfact> 0.48792682E-02</totfact>
</mgrwt>
</event>
<event>
 4    1  0.2489082E+000  0.7473631E+02  0.7957747E-01  0.1344690E+00
         13   -1    0    0    0    0  0.00000000000E+00  0.00000000000E+00  0.99999944178E+02  0.99999999998E+02  0.10566000000E+00 0.  1.
         22   -1    0    0    0    0 -0.00000000000E+00 -0.00000000000E+00 -0.43577445852E+02  0.43577445852E+02  0.00000000000E+00 0. -1.
         13    1    1    2    0    0 -0.10554948600E+02  0.54535390600E+02  0.12663248658E+02  0.56972667117E+02  0.10566000000E+00 0. -1.
        996    1    1    2    0    0  0.10554948600E+02 -0.54535390600E+02  0.43759249668E+02  0.86604778733E+02  0.50000000000E+02 0.  0.
<mgrwt>
<rscale>  0 0.74736308E+02</rscale>
<asrwt>0</asrwt>
<pdfrwt beam="1">  1       13 0.10000000E+01 0.74736308E+02</pdfrwt>
<pdfrwt beam="2">  1       22 0.43577462E+00 0.74736308E+02</pdfrwt>
<totfact> 0.10517501E-01</totfact>
</mgrwt>
</event>
<event>
 4    1  0.2489082E+000  0.5136585E+02  0.7957747E-01  0.1438111E+00
         13   -1    0    0    0    0  0.00000000000E+00  0.00000000000E+00  0.99999944180E+02  0.10000000000E+03  0.10566000000E+00 0. -1.
         22   -1    0    0    0    0 -0.00000000000E+00 -0.00000000000E+00 -0.22401966165E+02  0.22401966165E+02  0.00000000000E+00 0.  1.
         13    1    1    2    0    0 -0.11366184208E+02  0.30431298042E+01 -0.13445833406E+02  0.17867635055E+02  0.10566000000E+00 0.  1.
        996    1    1    2    0    0  0.11366184208E+02 -0.30431298042E+01  0.91043811421E+02  0.10453433111E+03  0.50000000000E+02 0.  0.
<mgrwt>
<rscale>  0 0.51365852E+02</rscale>
<asrwt>0</asrwt>
<pdfrwt beam="1">  1       13 0.10000000E+01 0.51365852E+02</pdfrwt>
<pdfrwt beam="2">  1       22 0.22401988E+00 0.51365852E+02</pdfrwt>
<totfact> 0.36484729E-01</totfact>
</mgrwt>
</event>
<event>
 4    1  0.2489082E+000  0.5179048E+02  0.7957747E-01  0.1435917E+00
         13   -1    0    0    0    0  0.00000000000E+00  0.00000000000E+00  0.99999944172E+02  0.99999999992E+02  0.10566000000E+00 0. -1.
         22   -1    0    0    0    0 -0.00000000000E+00 -0.00000000000E+00 -0.11226717016E+02  0.11226717016E+02  0.00000000000E+00 0. -1.
         13    1    1    2    0    0  0.13431572270E+02  0.13588360986E+01  0.93973193039E+01  0.16449144152E+02  0.10566000000E+00 0.  1.
        996    1    1    2    0    0 -0.13431572270E+02 -0.13588360986E+01  0.79375907852E+02  0.94777572857E+02  0.50000000000E+02 0.  0.
<mgrwt>
<rscale>  0 0.51790478E+02</rscale>
<asrwt>0</asrwt>
<pdfrwt beam="1">  1       13 0.10000000E+01 0.51790478E+02</pdfrwt>
<pdfrwt beam="2">  1       22 0.11226742E+00 0.51790478E+02</pdfrwt>
<totfact> 0.11883916E+00</totfact>
</mgrwt>
</event>
<event>
 4    1  0.2489082E+000  0.5154808E+02  0.7957747E-01  0.1437166E+00
         13   -1    0    0    0    0  0.00000000000E+00  0.00000000000E+00  0.99999944179E+02  0.10000000000E+03  0.10566000000E+00 0.  1.
         22   -1    0    0    0    0 -0.00000000000E+00 -0.00000000000E+00 -0.11074216236E+02  0.11074216236E+02  0.00000000000E+00 0. -1.
         13    1    1    2    0    0 -0.12467017641E+02  0.13335976135E+01  0.72261807162E+01  0.14471829989E+02  0.10566000000E+00 0. -1.
        996    1    1    2    0    0  0.12467017641E+02 -0.13335976135E+01  0.81699547227E+02  0.96602386247E+02  0.50000000000E+02 0.  0.
<mgrwt>
<rscale>  0 0.51548084E+02</rscale>
<asrwt>0</asrwt>
<pdfrwt beam="1">  1       13 0.10000000E+01 0.51548084E+02</pdfrwt>
<pdfrwt beam="2">  1       22 0.11074241E+00 0.51548084E+02</pdfrwt>
<totfact> 0.12122403E+00</totfact>
</mgrwt>
</event>
<event>
 4    1  0.2489082E+000  0.5568908E+02  0.7957747E-01  0.1416868E+00
         13   -1    0    0    0    0  0.00000000000E+00  0.00000000000E+00  0.99999944180E+02  0.10000000000E+03  0.10566000000E+00 0.  1.
         22   -1    0    0    0    0 -0.00000000000E+00 -0.00000000000E+00 -0.16579843364E+02  0.16579843364E+02  0.00000000000E+00 0. -1.
         13    1    1    2    0    0  0.23204750885E+02 -0.79254810247E+01  0.16675661370E+02  0.29654047941E+02  0.10566000000E+00 0. -1.
        996    1    1    2    0    0 -0.23204750885E+02  0.79254810247E+01  0.66744439446E+02  0.86925795424E+02  0.50000000000E+02 0.  0.
<mgrwt>
<rscale>  0 0.55689081E+02</rscale>
<asrwt>0</asrwt>
<pdfrwt beam="1">  1       13 0.10000000E+01 0.55689081E+02</pdfrwt>
<pdfrwt beam="2">  1       22 0.16579867E+00 0.55689081E+02</pdfrwt>
<totfact> 0.63953296E-01</totfact>
</mgrwt>
</event>
<event>
 4    1  0.2489082E+000  0.5191879E+02  0.7957747E-01  0.1435259E+00
         13   -1    0    0    0    0  0.00000000000E+00  0.00000000000E+00  0.99999944177E+02  0.99999999997E+02  0.10566000000E+00 0.  1.
         22   -1    0    0    0    0 -0.00000000000E+00 -0.00000000000E+00 -0.14667672970E+02  0.14667672970E+02  0.00000000000E+00 0. -1.
         13    1    1    2    0    0 -0.10970076330E+02 -0.86728231516E+01 -0.89823578896E+00  0.14013508756E+02  0.10566000000E+00 0. -1.
        996    1    1    2    0    0  0.10970076330E+02  0.86728231516E+01  0.86230506996E+02  0.10065416421E+03  0.50000000000E+02 0.  0.
<mgrwt>
<rscale>  0 0.51918787E+02</rscale>
<asrwt>0</asrwt>
<pdfrwt beam="1">  1       13 0.10000000E+01 0.51918787E+02</pdfrwt>
<pdfrwt beam="2">  1       22 0.14667697E+00 0.51918787E+02</pdfrwt>
<totfact> 0.78128203E-01</totfact>
</mgrwt>
</event>
<event>
 4    1  0.2489082E+000  0.5391139E+02  0.7957747E-01  0.1425318E+00
         13   -1    0    0    0    0  0.00000000000E+00  0.00000000000E+00  0.99999944177E+02  0.99999999997E+02  0.10566000000E+00 0. -1.
         22   -1    0    0    0    0 -0.00000000000E+00 -0.00000000000E+00 -0.13721221523E+02  0.13721221523E+02  0.00000000000E+00 0. -1.
         13    1    1    2    0    0 -0.18961928925E+02 -0.68471506433E+01  0.22562844306E+02  0.30257748226E+02  0.10566000000E+00 0.  1.
        996    1    1    2    0    0  0.18961928925E+02  0.68471506433E+01  0.63715878348E+02  0.83463473293E+02  0.50000000000E+02 0.  0.
<mgrwt>
<rscale>  0 0.53911392E+02</rscale>
<asrwt>0</asrwt>
<pdfrwt beam="1">  1       13 0.10000000E+01 0.53911392E+02</pdfrwt>
<pdfrwt beam="2">  1       22 0.13721246E+00 0.53911392E+02</pdfrwt>
<totfact> 0.87457448E-01</totfact>
</mgrwt>
</event>
<event>
 4    1  0.2489082E+000  0.5368810E+02  0.7957747E-01  0.1426407E+00
         13   -1    0    0    0    0  0.00000000000E+00  0.00000000000E+00  0.99999944180E+02  0.10000000000E+03  0.10566000000E+00 0.  1.
         22   -1    0    0    0    0 -0.00000000000E+00 -0.00000000000E+00 -0.15500525757E+02  0.15500525757E+02  0.00000000000E+00 0. -1.
         13    1    1    2    0    0  0.35250880685E+01 -0.19235026329E+02  0.61092232890E+01  0.20487709901E+02  0.10566000000E+00 0. -1.
        996    1    1    2    0    0 -0.35250880685E+01  0.19235026329E+02  0.78390195134E+02  0.95012815856E+02  0.50000000000E+02 0.  0.
<mgrwt>
<rscale>  0 0.53688104E+02</rscale>
<asrwt>0</asrwt>
<pdfrwt beam="1">  1       13 0.10000000E+01 0.53688104E+02</pdfrwt>
<pdfrwt beam="2">  1       22 0.15500549E+00 0.53688104E+02</pdfrwt>
<totfact> 0.71500871E-01</totfact>
</mgrwt>
</event>
<event>
 4    1  0.2489082E+000  0.5270930E+02  0.7957747E-01  0.1431253E+00
         13   -1    0    0    0    0  0.00000000000E+00  0.00000000000E+00  0.99999944186E+02  0.10000000001E+03  0.10566000000E+00 0.  1.
         22   -1    0    0    0    0 -0.00000000000E+00 -0.00000000000E+00 -0.53857556200E+02  0.53857556200E+02  0.00000000000E+00 0. -1.
         13    1    1    2    0    0  0.74436878169E+00 -0.16664825097E+02 -0.45320791955E+02  0.48293434625E+02  0.10566000000E+00 0. -1.
        996    1    1    2    0    0 -0.74436878169E+00  0.16664825097E+02  0.91463179940E+02  0.10556412158E+03  0.50000000000E+02 0.  0.
<mgrwt>
<rscale>  0 0.52709302E+02</rscale>
<asrwt>0</asrwt>
<pdfrwt beam="1">  1       13 0.10000000E+01 0.52709302E+02</pdfrwt>
<pdfrwt beam="2">  1       22 0.53857569E+00 0.52709302E+02</pdfrwt>
<totfact> 0.60932854E-02</totfact>
</mgrwt>
</event>
<event>
 4    1  0.2489082E+000  0.5343346E+02  0.7957747E-01  0.1427656E+00
         13   -1    0    0    0    0  0.00000000000E+00  0.00000000000E+00  0.99999944173E+02  0.99999999994E+02  0.10566000000E+00 0. -1.
         22   -1    0    0    0    0 -0.00000000000E+00 -0.00000000000E+00 -0.14332256907E+02  0.14332256907E+02  0.00000000000E+00 0.  1.
         13    1    1    2    0    0 -0.51563381762E+01  0.18125874257E+02  0.90070696022E+01  0.20887163710E+02  0.10566000000E+00 0.  1.
        996    1    1    2    0    0  0.51563381762E+01 -0.18125874257E+02  0.76660617664E+02  0.93445093191E+02  0.50000000000E+02 0.  0.
<mgrwt>
<rscale>  0 0.53433465E+02</rscale>
<asrwt>0</asrwt>
<pdfrwt beam="1">  1       13 0.10000000E+01 0.53433465E+02</pdfrwt>
<pdfrwt beam="2">  1       22 0.14332281E+00 0.53433465E+02</pdfrwt>
<totfact> 0.81407298E-01</totfact>
</mgrwt>
</event>
<event>
 4    1  0.2489082E+000  0.5155251E+02  0.7957747E-01  0.1437143E+00
         13   -1    0    0    0    0  0.00000000000E+00  0.00000000000E+00  0.99999944175E+02  0.99999999995E+02  0.10566000000E+00 0.  1.
         22   -1    0    0    0    0 -0.00000000000E+00 -0.00000000000E+00 -0.10302886621E+02  0.10302886621E+02  0.00000000000E+00 0.  1.
         13    1    1    2    0    0 -0.14061318071E+01 -0.12477326253E+02  0.19923005362E+02  0.23549908360E+02  0.10566000000E+00 0. -1.
        996    1    1    2    0    0  0.14061318071E+01  0.12477326253E+02  0.69774052192E+02  0.86752978256E+02  0.50000000000E+02 0.  0.
<mgrwt>
<rscale>  0 0.51552506E+02</rscale>
<asrwt>0</asrwt>
<pdfrwt beam="1">  1       13 0.10000000E+01 0.51552506E+02</pdfrwt>
<pdfrwt beam="2">  1       22 0.10302912E+00 0.51552506E+02</pdfrwt>
<totfact> 0.13484678E+00</totfact>
</mgrwt>
</event>
<event>
 4    1  0.2489082E+000  0.6011167E+02  0.7957747E-01  0.1397364E+00
         13   -1    0    0    0    0  0.00000000000E+00  0.00000000000E+00  0.99999944181E+02  0.10000000000E+03  0.10566000000E+00 0.  1.
         22   -1    0    0    0    0 -0.00000000000E+00 -0.00000000000E+00 -0.33699047316E+02  0.33699047316E+02  0.00000000000E+00 0. -1.
         13    1    1    2    0    0 -0.11298763274E+02  0.31396664055E+02 -0.11577915706E+02  0.35319567685E+02  0.10566000000E+00 0. -1.
        996    1    1    2    0    0  0.11298763274E+02 -0.31396664055E+02  0.77878812571E+02  0.98379479632E+02  0.50000000000E+02 0.  0.
<mgrwt>
<rscale>  0 0.60111667E+02</rscale>
<asrwt>0</asrwt>
<pdfrwt beam="1">  1       13 0.10000000E+01 0.60111667E+02</pdfrwt>
<pdfrwt beam="2">  1       22 0.33699066E+00 0.60111667E+02</pdfrwt>
<totfact> 0.16929417E-01</totfact>
</mgrwt>
</event>
<event>
 4    1  0.2489082E+000  0.5432314E+02  0.7957747E-01  0.1423327E+00
         13   -1    0    0    0    0  0.00000000000E+00  0.00000000000E+00  0.99999944180E+02  0.10000000000E+03  0.10566000000E+00 0.  1.
         22   -1    0    0    0    0 -0.00000000000E+00 -0.00000000000E+00 -0.14694217060E+02  0.14694217060E+02  0.00000000000E+00 0.  1.
         13    1    1    2    0    0 -0.16851772278E+02  0.12923679258E+02  0.15756146375E+02  0.26443733229E+02  0.10566000000E+00 0. -1.
        996    1    1    2    0    0  0.16851772278E+02 -0.12923679258E+02  0.69549580745E+02  0.88250483831E+02  0.50000000000E+02 0.  0.
<mgrwt>
<rscale>  0 0.54323142E+02</rscale>
<asrwt>0</asrwt>
<pdfrwt beam="1">  1       13 0.10000000E+01 0.54323142E+02</pdfrwt>
<pdfrwt beam="2">  1       22 0.14694241E+00 0.54323142E+02</pdfrwt>
<totfact> 0.78273520E-01</totfact>
</mgrwt>
</event>
<event>
 4    1  0.2489082E+000  0.5101262E+02  0.7957747E-01  0.1439955E+00
         13   -1    0    0    0    0  0.00000000000E+00  0.00000000000E+00  0.99999944180E+02  0.10000000000E+03  0.10566000000E+00 0. -1.
         22   -1    0    0    0    0 -0.00000000000E+00 -0.00000000000E+00 -0.10948999748E+02  0.10948999748E+02  0.00000000000E+00 0.  1.
         13    1    1    2    0    0  0.34074017666E+01  0.95224279492E+01  0.23967472860E+01  0.10394353392E+02  0.10566000000E+00 0.  1.
        996    1    1    2    0    0 -0.34074017666E+01 -0.95224279492E+01  0.86654197146E+02  0.10055464636E+03  0.50000000000E+02 0.  0.
<mgrwt>
<rscale>  0 0.51012616E+02</rscale>
<asrwt>0</asrwt>
<pdfrwt beam="1">  1       13 0.10000000E+01 0.51012616E+02</pdfrwt>
<pdfrwt beam="2">  1       22 0.10949025E+00 0.51012616E+02</pdfrwt>
<totfact> 0.12313774E+00</totfact>
</mgrwt>
</event>
<event>
 4    1  0.2489082E+000  0.6460258E+02  0.7957747E-01  0.1379473E+00
         13   -1    0    0    0    0  0.00000000000E+00  0.00000000000E+00  0.99999944168E+02  0.99999999988E+02  0.10566000000E+00 0. -1.
         22   -1    0    0    0    0 -0.00000000000E+00 -0.00000000000E+00 -0.30691443326E+02  0.30691443326E+02  0.00000000000E+00 0. -1.
         13    1    1    2    0    0 -0.15034679722E+02 -0.38045386338E+02  0.47083499117E+02  0.62372751014E+02  0.10566000000E+00 0.  1.
        996    1    1    2    0    0  0.15034679722E+02  0.38045386338E+02  0.22225001725E+02  0.68318692300E+02  0.50000000000E+02 0.  0.
<mgrwt>
<rscale>  0 0.64602577E+02</rscale>
<asrwt>0</asrwt>
<pdfrwt beam="1">  1       13 0.10000000E+01 0.64602577E+02</pdfrwt>
<pdfrwt beam="2">  1       22 0.30691463E+00 0.64602577E+02</pdfrwt>
<totfact> 0.20133741E-01</totfact>
</mgrwt>
</event>
<event>
 4    1  0.2489082E+000  0.5316084E+02  0.7957747E-01  0.1429002E+00
         13   -1    0    0    0    0  0.00000000000E+00  0.00000000000E+00  0.99999944175E+02  0.99999999995E+02  0.10566000000E+00 0. -1.
         22   -1    0    0    0    0 -0.00000000000E+00 -0.00000000000E+00 -0.25948021590E+02  0.25948021590E+02  0.00000000000E+00 0.  1.
         13    1    1    2    0    0 -0.79116962969E+01 -0.16232071357E+02 -0.14165503871E+02  0.22950985660E+02  0.10566000000E+00 0.  1.
        996    1    1    2    0    0  0.79116962969E+01  0.16232071357E+02  0.88217426455E+02  0.10299703592E+03  0.50000000000E+02 0.  0.
<mgrwt>
<rscale>  0 0.53160842E+02</rscale>
<asrwt>0</asrwt>
<pdfrwt beam="1">  1       13 0.10000000E+01 0.53160842E+02</pdfrwt>
<pdfrwt beam="2">  1       22 0.25948042E+00 0.53160842E+02</pdfrwt>
<totfact> 0.27445499E-01</totfact>
</mgrwt>
</event>
<event>
 4    1  0.2489082E+000  0.5235378E+02  0.7957747E-01  0.1433044E+00
         13   -1    0    0    0    0  0.00000000000E+00  0.00000000000E+00  0.99999944180E+02  0.10000000000E+03  0.10566000000E+00 0.  1.
         22   -1    0    0    0    0 -0.00000000000E+00 -0.00000000000E+00 -0.15279530123E+02  0.15279530123E+02  0.00000000000E+00 0. -1.
         13    1    1    2    0    0 -0.78429296339E+01  0.13394295273E+02 -0.19378780539E+00  0.15523124970E+02  0.10566000000E+00 0. -1.
        996    1    1    2    0    0  0.78429296339E+01 -0.13394295273E+02  0.84914201862E+02  0.99756405153E+02  0.50000000000E+02 0.  0.
<mgrwt>
<rscale>  0 0.52353784E+02</rscale>
<asrwt>0</asrwt>
<pdfrwt beam="1">  1       13 0.10000000E+01 0.52353784E+02</pdfrwt>
<pdfrwt beam="2">  1       22 0.15279554E+00 0.52353784E+02</pdfrwt>
<totfact> 0.73056817E-01</totfact>
</mgrwt>
</event>
<event>
 4    1  0.2489082E+000  0.5149521E+02  0.7957747E-01  0.1437440E+00
         13   -1    0    0    0    0  0.00000000000E+00  0.00000000000E+00  0.99999944184E+02  0.10000000000E+03  0.10566000000E+00 0. -1.
         22   -1    0    0    0    0 -0.00000000000E+00 -0.00000000000E+00 -0.34137206820E+02  0.34137206820E+02  0.00000000000E+00 0.  1.
         13    1    1    2    0    0  0.53939343451E+01 -0.11075280642E+02 -0.26030811488E+02  0.28798796499E+02  0.10566000000E+00 0.  1.
        996    1    1    2    0    0 -0.53939343451E+01  0.11075280642E+02  0.91893548852E+02  0.10533841032E+03  0.50000000000E+02 0.  0.
<mgrwt>
<rscale>  0 0.51495207E+02</rscale>
<asrwt>0</asrwt>
<pdfrwt beam="1">  1       13 0.10000000E+01 0.51495207E+02</pdfrwt>
<pdfrwt beam="2">  1       22 0.34137225E+00 0.51495207E+02</pdfrwt>
<totfact> 0.16404631E-01</totfact>
</mgrwt>
</event>
<event>
 4    1  0.2489082E+000  0.5182876E+02  0.7957747E-01  0.1435720E+00
         13   -1    0    0    0    0  0.00000000000E+00  0.00000000000E+00  0.99999944174E+02  0.99999999994E+02  0.10566000000E+00 0. -1.
         22   -1    0    0    0    0 -0.00000000000E+00 -0.00000000000E+00 -0.19240282635E+02  0.19240282635E+02  0.00000000000E+00 0. -1.
         13    1    1    2    0    0  0.92483175089E+01  0.10034400331E+02 -0.84620020072E+01  0.16057310135E+02  0.10566000000E+00 0.  1.
        996    1    1    2    0    0 -0.92483175089E+01 -0.10034400331E+02  0.89221663547E+02  0.10318297249E+03  0.50000000000E+02 0.  0.
<mgrwt>
<rscale>  0 0.51828762E+02</rscale>
<asrwt>0</asrwt>
<pdfrwt beam="1">  1       13 0.10000000E+01 0.51828762E+02</pdfrwt>
<pdfrwt beam="2">  1       22 0.19240305E+00 0.51828762E+02</pdfrwt>
<totfact> 0.48662386E-01</totfact>
</mgrwt>
</event>
<event>
 4    1  0.2489082E+000  0.5202497E+02  0.7957747E-01  0.1434716E+00
         13   -1    0    0    0    0  0.00000000000E+00  0.00000000000E+00  0.99999944183E+02  0.10000000000E+03  0.10566000000E+00 0.  1.
         22   -1    0    0    0    0 -0.00000000000E+00 -0.00000000000E+00 -0.13493440246E+02  0.13493440246E+02  0.00000000000E+00 0.  1.
         13    1    1    2    0    0  0.86096201211E+01 -0.11509645799E+02  0.23648496266E+01  0.14567126787E+02  0.10566000000E+00 0. -1.
        996    1    1    2    0    0 -0.86096201211E+01  0.11509645799E+02  0.84141654310E+02  0.98926313461E+02  0.50000000000E+02 0.  0.
<mgrwt>
<rscale>  0 0.52024970E+02</rscale>
<asrwt>0</asrwt>
<pdfrwt beam="1">  1       13 0.10000000E+01 0.52024970E+02</pdfrwt>
<pdfrwt beam="2">  1       22 0.13493464E+00 0.52024970E+02</pdfrwt>
<totfact> 0.89483934E-01</totfact>
</mgrwt>
</event>
<event>
 4    1  0.2489082E+000  0.5148303E+02  0.7957747E-01  0.1437503E+00
         13   -1    0    0    0    0  0.00000000000E+00  0.00000000000E+00  0.99999944173E+02  0.99999999994E+02  0.10566000000E+00 0. -1.
         22   -1    0    0    0    0 -0.00000000000E+00 -0.00000000000E+00 -0.11905349025E+02  0.11905349025E+02  0.00000000000E+00 0. -1.
         13    1    1    2    0    0 -0.11408791749E+02  0.45101810583E+01  0.38549123092E+02  0.40454274404E+02  0.10566000000E+00 0.  1.
        996    1    1    2    0    0  0.11408791749E+02 -0.45101810583E+01  0.49545472057E+02  0.71451074615E+02  0.50000000000E+02 0.  0.
<mgrwt>
<rscale>  0 0.51483029E+02</rscale>
<asrwt>0</asrwt>
<pdfrwt beam="1">  1       13 0.10000000E+01 0.51483029E+02</pdfrwt>
<pdfrwt beam="2">  1       22 0.11905374E+00 0.51483029E+02</pdfrwt>
<totfact> 0.10867738E+00</totfact>
</mgrwt>
</event>
<event>
 4    1  0.2489082E+000  0.5544549E+02  0.7957747E-01  0.1418004E+00
         13   -1    0    0    0    0  0.00000000000E+00  0.00000000000E+00  0.99999944179E+02  0.99999999999E+02  0.10566000000E+00 0. -1.
         22   -1    0    0    0    0 -0.00000000000E+00 -0.00000000000E+00 -0.24246687159E+02  0.24246687159E+02  0.00000000000E+00 0.  1.
         13    1    1    2    0    0  0.15043395731E+02 -0.18652030073E+02 -0.67029415255E+01  0.24882575632E+02  0.10566000000E+00 0.  1.
        996    1    1    2    0    0 -0.15043395731E+02  0.18652030073E+02  0.82456198545E+02  0.99364111526E+02  0.50000000000E+02 0.  0.
<mgrwt>
<rscale>  0 0.55445487E+02</rscale>
<asrwt>0</asrwt>
<pdfrwt beam="1">  1       13 0.10000000E+01 0.55445487E+02</pdfrwt>
<pdfrwt beam="2">  1       22 0.24246708E+00 0.55445487E+02</pdfrwt>
<totfact> 0.31473368E-01</totfact>
</mgrwt>
</event>
<event>
 4    1  0.2489082E+000  0.8426989E+02  0.7957747E-01  0.1317353E+00
         13   -1    0    0    0    0  0.00000000000E+00  0.00000000000E+00  0.99999944175E+02  0.99999999996E+02  0.10566000000E+00 0. -1.
         22   -1    0    0    0    0 -0.00000000000E+00 -0.00000000000E+00 -0.77410380405E+02  0.77410380405E+02  0.00000000000E+00 0.  1.
         13    1    1    2    0    0  0.66293856111E+02  0.14371471818E+02 -0.34024931353E+02  0.75888877168E+02  0.10566000000E+00 0.  1.
        996    1    1    2    0    0 -0.66293856111E+02 -0.14371471818E+02  0.56614495124E+02  0.10152150323E+03  0.50000000000E+02 0.  0.
<mgrwt>
<rscale>  0 0.84269891E+02</rscale>
<asrwt>0</asrwt>
<pdfrwt beam="1">  1       13 0.10000000E+01 0.84269891E+02</pdfrwt>
<pdfrwt beam="2">  1       22 0.77410387E+00 0.84269891E+02</pdfrwt>
<totfact> 0.39162600E-02</totfact>
</mgrwt>
</event>
<event>
 4    1  0.2489082E+000  0.5459839E+02  0.7957747E-01  0.1422008E+00
         13   -1    0    0    0    0  0.00000000000E+00  0.00000000000E+00  0.99999944184E+02  0.10000000000E+03  0.10566000000E+00 0. -1.
         22   -1    0    0    0    0 -0.00000000000E+00 -0.00000000000E+00 -0.53869263215E+02  0.53869263215E+02  0.00000000000E+00 0.  1.
         13    1    1    2    0    0  0.15825325912E+02 -0.15183645329E+02 -0.43615963994E+02  0.48819540195E+02  0.10566000000E+00 0.  1.
        996    1    1    2    0    0 -0.15825325912E+02  0.15183645329E+02  0.89746644962E+02  0.10504972302E+03  0.50000000000E+02 0.  0.
<mgrwt>
<rscale>  0 0.54598388E+02</rscale>
<asrwt>0</asrwt>
<pdfrwt beam="1">  1       13 0.10000000E+01 0.54598388E+02</pdfrwt>
<pdfrwt beam="2">  1       22 0.53869276E+00 0.54598388E+02</pdfrwt>
<totfact> 0.60944916E-02</totfact>
</mgrwt>
</event>
<event>
 4    1  0.2489082E+000  0.5472997E+02  0.7957747E-01  0.1421380E+00
         13   -1    0    0    0    0  0.00000000000E+00  0.00000000000E+00  0.99999944182E+02  0.10000000000E+03  0.10566000000E+00 0.  1.
         22   -1    0    0    0    0 -0.00000000000E+00 -0.00000000000E+00 -0.15060658384E+02  0.15060658384E+02  0.00000000000E+00 0.  1.
         13    1    1    2    0    0  0.30631757011E+01 -0.22045098093E+02  0.18206043612E+02  0.28754835825E+02  0.10566000000E+00 0. -1.
        996    1    1    2    0    0 -0.30631757011E+01  0.22045098093E+02  0.66733242186E+02  0.86305822561E+02  0.50000000000E+02 0.  0.
<mgrwt>
<rscale>  0 0.54729968E+02</rscale>
<asrwt>0</asrwt>
<pdfrwt beam="1">  1       13 0.10000000E+01 0.54729968E+02</pdfrwt>
<pdfrwt beam="2">  1       22 0.15060682E+00 0.54729968E+02</pdfrwt>
<totfact> 0.75193952E-01</totfact>
</mgrwt>
</event>
<event>
 4    1  0.2489082E+000  0.5164749E+02  0.7957747E-01  0.1436653E+00
         13   -1    0    0    0    0  0.00000000000E+00  0.00000000000E+00  0.99999944172E+02  0.99999999992E+02  0.10566000000E+00 0.  1.
         22   -1    0    0    0    0 -0.00000000000E+00 -0.00000000000E+00 -0.22749537118E+02  0.22749537118E+02  0.00000000000E+00 0. -1.
         13    1    1    2    0    0  0.77605003541E+01  0.10355556276E+02 -0.13267414298E+02  0.18533708688E+02  0.10566000000E+00 0. -1.
        996    1    1    2    0    0 -0.77605003541E+01 -0.10355556276E+02  0.90517821352E+02  0.10421582842E+03  0.50000000000E+02 0.  0.
<mgrwt>
<rscale>  0 0.51647487E+02</rscale>
<asrwt>0</asrwt>
<pdfrwt beam="1">  1       13 0.10000000E+01 0.51647487E+02</pdfrwt>
<pdfrwt beam="2">  1       22 0.22749559E+00 0.51647487E+02</pdfrwt>
<totfact> 0.35430817E-01</totfact>
</mgrwt>
</event>
<event>
 4    1  0.2489082E+000  0.5499152E+02  0.7957747E-01  0.1420139E+00
         13   -1    0    0    0    0  0.00000000000E+00  0.00000000000E+00  0.99999944175E+02  0.99999999995E+02  0.10566000000E+00 0. -1.
         22   -1    0    0    0    0 -0.00000000000E+00 -0.00000000000E+00 -0.17168428554E+02  0.17168428554E+02  0.00000000000E+00 0.  1.
         13    1    1    2    0    0 -0.87181400584E+01 -0.21167465692E+02  0.78880137409E+01  0.24213622090E+02  0.10566000000E+00 0.  1.
        996    1    1    2    0    0  0.87181400584E+01  0.21167465692E+02  0.74943501880E+02  0.92954806459E+02  0.50000000000E+02 0.  0.
<mgrwt>
<rscale>  0 0.54991523E+02</rscale>
<asrwt>0</asrwt>
<pdfrwt beam="1">  1       13 0.10000000E+01 0.54991523E+02</pdfrwt>
<pdfrwt beam="2">  1       22 0.17168452E+00 0.54991523E+02</pdfrwt>
<totfact> 0.60090619E-01</totfact>
</mgrwt>
</event>
<event>
 4    1  0.2489082E+000  0.5222002E+02  0.7957747E-01  0.1433722E+00
         13   -1    0    0    0    0  0.00000000000E+00  0.00000000000E+00  0.99999944180E+02  0.10000000000E+03  0.10566000000E+00 0. -1.
         22   -1    0    0    0    0 -0.00000000000E+00 -0.00000000000E+00 -0.23607223002E+02  0.23607223002E+02  0.00000000000E+00 0. -1.
         13    1    1    2    0    0  0.54489702909E+01 -0.14044197750E+02 -0.13119323713E+02  0.19976450795E+02  0.10566000000E+00 0.  1.
        996    1    1    2    0    0 -0.54489702909E+01  0.14044197750E+02  0.89512044891E+02  0.10363077221E+03  0.50000000000E+02 0.  0.
<mgrwt>
<rscale>  0 0.52220023E+02</rscale>
<asrwt>0</asrwt>
<pdfrwt beam="1">  1       13 0.10000000E+01 0.52220023E+02</pdfrwt>
<pdfrwt beam="2">  1       22 0.23607244E+00 0.52220023E+02</pdfrwt>
<totfact> 0.32999338E-01</totfact>
</mgrwt>
</event>
<event>
 4    1  0.2489082E+000  0.5472149E+02  0.7957747E-01  0.1421421E+00
         13   -1    0    0    0    0  0.00000000000E+00  0.00000000000E+00  0.99999944171E+02  0.99999999992E+02  0.10566000000E+00 0.  1.
         22   -1    0    0    0    0 -0.00000000000E+00 -0.00000000000E+00 -0.24514706660E+02  0.24514706660E+02  0.00000000000E+00 0. -1.
         13    1    1    2    0    0  0.21686840942E+02 -0.49114560375E+01 -0.88905446177E+01  0.23947743486E+02  0.10566000000E+00 0. -1.
        996    1    1    2    0    0 -0.21686840942E+02  0.49114560375E+01  0.84375782129E+02  0.10056696317E+03  0.50000000000E+02 0.  0.
<mgrwt>
<rscale>  0 0.54721490E+02</rscale>
<asrwt>0</asrwt>
<pdfrwt beam="1">  1       13 0.10000000E+01 0.54721490E+02</pdfrwt>
<pdfrwt beam="2">  1       22 0.24514728E+00 0.54721490E+02</pdfrwt>
<totfact> 0.30766918E-01</totfact>
</mgrwt>
</event>
<event>
 4    1  0.2489082E+000  0.5109727E+02  0.7957747E-01  0.1439511E+00
         13   -1    0    0    0    0  0.00000000000E+00  0.00000000000E+00  0.99999944175E+02  0.99999999995E+02  0.10566000000E+00 0. -1.
         22   -1    0    0    0    0 -0.00000000000E+00 -0.00000000000E+00 -0.10178993703E+02  0.10178993703E+02  0.00000000000E+00 0.  1.
         13    1    1    2    0    0  0.10478899966E+02 -0.10602468923E+01  0.63172507403E+01  0.12282112559E+02  0.10566000000E+00 0.  1.
        996    1    1    2    0    0 -0.10478899966E+02  0.10602468923E+01  0.83503699731E+02  0.97896881139E+02  0.50000000000E+02 0.  0.
<mgrwt>
<rscale>  0 0.51097275E+02</rscale>
<asrwt>0</asrwt>
<pdfrwt beam="1">  1       13 0.10000000E+01 0.51097275E+02</pdfrwt>
<pdfrwt beam="2">  1       22 0.10179019E+00 0.51097275E+02</pdfrwt>
<totfact> 0.13709510E+00</totfact>
</mgrwt>
</event>
<event>
 4    1  0.2489082E+000  0.5183376E+02  0.7957747E-01  0.1435694E+00
         13   -1    0    0    0    0  0.00000000000E+00  0.00000000000E+00  0.99999944172E+02  0.99999999992E+02  0.10566000000E+00 0. -1.
         22   -1    0    0    0    0 -0.00000000000E+00 -0.00000000000E+00 -0.51768866224E+02  0.51768866224E+02  0.00000000000E+00 0.  1.
         13    1    1    2    0    0 -0.11894123747E+02  0.67282126364E+01 -0.43943672094E+02  0.46019523097E+02  0.10566000000E+00 0.  1.
        996    1    1    2    0    0  0.11894123747E+02 -0.67282126364E+01  0.92174750042E+02  0.10574934312E+03  0.50000000000E+02 0.  0.
<mgrwt>
<rscale>  0 0.51833763E+02</rscale>
<asrwt>0</asrwt>
<pdfrwt beam="1">  1       13 0.10000000E+01 0.51833763E+02</pdfrwt>
<pdfrwt beam="2">  1       22 0.51768880E+00 0.51833763E+02</pdfrwt>
<totfact> 0.67054933E-02</totfact>
</mgrwt>
</event>
<event>
 4    1  0.2489082E+000  0.5433208E+02  0.7957747E-01  0.1423284E+00
         13   -1    0    0    0    0  0.00000000000E+00  0.00000000000E+00  0.99999944175E+02  0.99999999995E+02  0.10566000000E+00 0. -1.
         22   -1    0    0    0    0 -0.00000000000E+00 -0.00000000000E+00 -0.14354874461E+02  0.14354874461E+02  0.00000000000E+00 0.  1.
         13    1    1    2    0    0 -0.17249717611E+02 -0.12426690320E+02  0.20598506594E+02  0.29602111883E+02  0.10566000000E+00 0.  1.
        996    1    1    2    0    0  0.17249717611E+02  0.12426690320E+02  0.65046563120E+02  0.84752762573E+02  0.50000000000E+02 0.  0.
<mgrwt>
<rscale>  0 0.54332084E+02</rscale>
<asrwt>0</asrwt>
<pdfrwt beam="1">  1       13 0.10000000E+01 0.54332084E+02</pdfrwt>
<pdfrwt beam="2">  1       22 0.14354898E+00 0.54332084E+02</pdfrwt>
<totfact> 0.81343587E-01</totfact>
</mgrwt>
</event>
<event>
 4    1  0.2489082E+000  0.5891320E+02  0.7957747E-01  0.1402450E+00
         13   -1    0    0    0    0  0.00000000000E+00  0.00000000000E+00  0.99999944172E+02  0.99999999992E+02  0.10566000000E+00 0. -1.
         22   -1    0    0    0    0 -0.00000000000E+00 -0.00000000000E+00 -0.48725570499E+02  0.48725570499E+02  0.00000000000E+00 0.  1.
         13    1    1    2    0    0 -0.28384414418E+02  0.12848748488E+02 -0.33333146272E+02  0.45627569779E+02  0.10566000000E+00 0.  1.
        996    1    1    2    0    0  0.28384414418E+02 -0.12848748488E+02  0.84607519945E+02  0.10309800071E+03  0.50000000000E+02 0.  0.
<mgrwt>
<rscale>  0 0.58913202E+02</rscale>
<asrwt>0</asrwt>
<pdfrwt beam="1">  1       13 0.10000000E+01 0.58913202E+02</pdfrwt>
<pdfrwt beam="2">  1       22 0.48725585E+00 0.58913202E+02</pdfrwt>
<totfact> 0.79267073E-02</totfact>
</mgrwt>
</event>
<event>
 4    1  0.2489082E+000  0.5197752E+02  0.7957747E-01  0.1434958E+00
         13   -1    0    0    0    0  0.00000000000E+00  0.00000000000E+00  0.99999944180E+02  0.10000000000E+03  0.10566000000E+00 0.  1.
         22   -1    0    0    0    0 -0.00000000000E+00 -0.00000000000E+00 -0.11004964173E+02  0.11004964173E+02  0.00000000000E+00 0.  1.
         13    1    1    2    0    0  0.81534606699E+01 -0.11626829306E+02  0.22479554289E+02  0.26589539403E+02  0.10566000000E+00 0. -1.
        996    1    1    2    0    0 -0.81534606699E+01  0.11626829306E+02  0.66515425718E+02  0.84415424770E+02  0.50000000000E+02 0.  0.
<mgrwt>
<rscale>  0 0.51977515E+02</rscale>
<asrwt>0</asrwt>
<pdfrwt beam="1">  1       13 0.10000000E+01 0.51977515E+02</pdfrwt>
<pdfrwt beam="2">  1       22 0.11004989E+00 0.51977515E+02</pdfrwt>
<totfact> 0.12248382E+00</totfact>
</mgrwt>
</event>
<event>
 4    1  0.2489082E+000  0.6178504E+02  0.7957747E-01  0.1390490E+00
         13   -1    0    0    0    0  0.00000000000E+00  0.00000000000E+00  0.99999944166E+02  0.99999999986E+02  0.10566000000E+00 0. -1.
         22   -1    0    0    0    0 -0.00000000000E+00 -0.00000000000E+00 -0.67438700854E+02  0.67438700854E+02  0.00000000000E+00 0.  1.
         13    1    1    2    0    0 -0.36105952654E+02 -0.37082402331E+01 -0.51566914665E+02  0.63059881976E+02  0.10566000000E+00 0.  1.
        996    1    1    2    0    0  0.36105952654E+02  0.37082402331E+01  0.84128157977E+02  0.10437881886E+03  0.50000000000E+02 0.  0.
<mgrwt>
<rscale>  0 0.61785038E+02</rscale>
<asrwt>0</asrwt>
<pdfrwt beam="1">  1       13 0.10000000E+01 0.61785038E+02</pdfrwt>
<pdfrwt beam="2">  1       22 0.67438710E+00 0.61785038E+02</pdfrwt>
<totfact> 0.85220455E-02</totfact>
</mgrwt>
</event>
<event>
 4    1  0.2489082E+000  0.5255942E+02  0.7957747E-01  0.1432006E+00
         13   -1    0    0    0    0  0.00000000000E+00  0.00000000000E+00  0.99999944190E+02  0.10000000001E+03  0.10566000000E+00 0.  1.
         22   -1    0    0    0    0 -0.00000000000E+00 -0.00000000000E+00 -0.27397203003E+02  0.27397203003E+02  0.00000000000E+00 0. -1.
         13    1    1    2    0    0  0.16115381467E+02 -0.16693394500E+01 -0.17020587196E+02  0.23499016289E+02  0.10566000000E+00 0. -1.
        996    1    1    2    0    0 -0.16115381467E+02  0.16693394500E+01  0.89623328382E+02  0.10389818672E+03  0.50000000000E+02 0.  0.
<mgrwt>
<rscale>  0 0.52559416E+02</rscale>
<asrwt>0</asrwt>
<pdfrwt beam="1">  1       13 0.10000000E+01 0.52559416E+02</pdfrwt>
<pdfrwt beam="2">  1       22 0.27397223E+00 0.52559416E+02</pdfrwt>
<totfact> 0.24650189E-01</totfact>
</mgrwt>
</event>
<event>
 4    1  0.2489082E+000  0.5168306E+02  0.7957747E-01  0.1436469E+00
         13   -1    0    0    0    0  0.00000000000E+00  0.00000000000E+00  0.99999944179E+02  0.99999999999E+02  0.10566000000E+00 0.  1.
         22   -1    0    0    0    0 -0.00000000000E+00 -0.00000000000E+00 -0.15253003178E+02  0.15253003178E+02  0.00000000000E+00 0.  1.
         13    1    1    2    0    0 -0.13068456533E+02 -0.59526643996E+00 -0.29949714426E+01  0.13420876136E+02  0.10566000000E+00 0. -1.
        996    1    1    2    0    0  0.13068456533E+02  0.59526643996E+00  0.87741912444E+02  0.10183212704E+03  0.50000000000E+02 0.  0.
<mgrwt>
<rscale>  0 0.51683062E+02</rscale>
<asrwt>0</asrwt>
<pdfrwt beam="1">  1       13 0.10000000E+01 0.51683062E+02</pdfrwt>
<pdfrwt beam="2">  1       22 0.15253027E+00 0.51683062E+02</pdfrwt>
<totfact> 0.73170377E-01</totfact>
</mgrwt>
</event>
<event>
 4    1  0.2489082E+000  0.8648058E+02  0.7957747E-01  0.1311605E+00
         13   -1    0    0    0    0  0.00000000000E+00  0.00000000000E+00  0.99999944174E+02  0.99999999994E+02  0.10566000000E+00 0. -1.
         22   -1    0    0    0    0 -0.00000000000E+00 -0.00000000000E+00 -0.65710201511E+02  0.65710201511E+02  0.00000000000E+00 0.  1.
         13    1    1    2    0    0  0.62523952099E+02 -0.32705441039E+02 -0.49684012235E+01  0.70736034907E+02  0.10566000000E+00 0.  1.
        996    1    1    2    0    0 -0.62523952099E+02  0.32705441039E+02  0.39258143886E+02  0.94974166598E+02  0.50000000000E+02 0.  0.
<mgrwt>
<rscale>  0 0.86480579E+02</rscale>
<asrwt>0</asrwt>
<pdfrwt beam="1">  1       13 0.10000000E+01 0.86480579E+02</pdfrwt>
<pdfrwt beam="2">  1       22 0.65710211E+00 0.86480579E+02</pdfrwt>
<totfact> 0.87230445E-02</totfact>
</mgrwt>
</event>
<event>
 4    1  0.2489082E+000  0.5973813E+02  0.7957747E-01  0.1398934E+00
         13   -1    0    0    0    0  0.00000000000E+00  0.00000000000E+00  0.99999944180E+02  0.10000000000E+03  0.10566000000E+00 0. -1.
         22   -1    0    0    0    0 -0.00000000000E+00 -0.00000000000E+00 -0.73305386643E+02  0.73305386643E+02  0.00000000000E+00 0.  1.
         13    1    1    2    0    0 -0.38105723328E+01  0.32467266357E+02 -0.59820368752E+02  0.68169872582E+02  0.10566000000E+00 0.  1.
        996    1    1    2    0    0  0.38105723328E+01 -0.32467266357E+02  0.86514926289E+02  0.10513551406E+03  0.50000000000E+02 0.  0.
<mgrwt>
<rscale>  0 0.59738127E+02</rscale>
<asrwt>0</asrwt>
<pdfrwt beam="1">  1       13 0.10000000E+01 0.59738127E+02</pdfrwt>
<pdfrwt beam="2">  1       22 0.73305394E+00 0.59738127E+02</pdfrwt>
<totfact> 0.57197140E-02</totfact>
</mgrwt>
</event>
<event>
 4    1  0.2489082E+000  0.5103185E+02  0.7957747E-01  0.1439854E+00
         13   -1    0    0    0    0  0.00000000000E+00  0.00000000000E+00  0.99999944185E+02  0.10000000001E+03  0.10566000000E+00 0.  1.
         22   -1    0    0    0    0 -0.00000000000E+00 -0.00000000000E+00 -0.19069698747E+02  0.19069698747E+02  0.00000000000E+00 0. -1.
         13    1    1    2    0    0 -0.28570437222E+01 -0.98023938789E+01 -0.10320805033E+02  0.14518257649E+02  0.10566000000E+00 0. -1.
        996    1    1    2    0    0  0.28570437222E+01  0.98023938789E+01  0.91251050472E+02  0.10455144110E+03  0.50000000000E+02 0.  0.
<mgrwt>
<rscale>  0 0.51031849E+02</rscale>
<asrwt>0</asrwt>
<pdfrwt beam="1">  1       13 0.10000000E+01 0.51031849E+02</pdfrwt>
<pdfrwt beam="2">  1       22 0.19069721E+00 0.51031849E+02</pdfrwt>
<totfact> 0.49391454E-01</totfact>
</mgrwt>
</event>
<event>
 4    1  0.2489082E+000  0.5099908E+02  0.7957747E-01  0.1440026E+00
         13   -1    0    0    0    0  0.00000000000E+00  0.00000000000E+00  0.99999944183E+02  0.10000000000E+03  0.10566000000E+00 0.  1.
         22   -1    0    0    0    0 -0.00000000000E+00 -0.00000000000E+00 -0.11015647822E+02  0.11015647822E+02  0.00000000000E+00 0. -1.
         13    1    1    2    0    0  0.83647321437E+01 -0.55621358834E+01  0.20899902362E+01  0.10260863640E+02  0.10566000000E+00 0. -1.
        996    1    1    2    0    0 -0.83647321437E+01  0.55621358834E+01  0.86894306125E+02  0.10075478419E+03  0.50000000000E+02 0.  0.
<mgrwt>
<rscale>  0 0.50999079E+02</rscale>
<asrwt>0</asrwt>
<pdfrwt beam="1">  1       13 0.10000000E+01 0.50999079E+02</pdfrwt>
<pdfrwt beam="2">  1       22 0.11015673E+00 0.50999079E+02</pdfrwt>
<totfact> 0.12202809E+00</totfact>
</mgrwt>
</event>
<event>
 4    1  0.2489082E+000  0.5151498E+02  0.7957747E-01  0.1437337E+00
         13   -1    0    0    0    0  0.00000000000E+00  0.00000000000E+00  0.99999944180E+02  0.10000000000E+03  0.10566000000E+00 0. -1.
         22   -1    0    0    0    0 -0.00000000000E+00 -0.00000000000E+00 -0.10454804732E+02  0.10454804732E+02  0.00000000000E+00 0.  1.
         13    1    1    2    0    0  0.11694863625E+02  0.41259632323E+01  0.24690786469E+02  0.27630409123E+02  0.10566000000E+00 0.  1.
        996    1    1    2    0    0 -0.11694863625E+02 -0.41259632323E+01  0.64854352979E+02  0.82824395609E+02  0.50000000000E+02 0.  0.
<mgrwt>
<rscale>  0 0.51514982E+02</rscale>
<asrwt>0</asrwt>
<pdfrwt beam="1">  1       13 0.10000000E+01 0.51514982E+02</pdfrwt>
<pdfrwt beam="2">  1       22 0.10454830E+00 0.51514982E+02</pdfrwt>
<totfact> 0.13197808E+00</totfact>
</mgrwt>
</event>
<event>
 4    1  0.2489082E+000  0.5318968E+02  0.7957747E-01  0.1428859E+00
         13   -1    0    0    0    0  0.00000000000E+00  0.00000000000E+00  0.99999944184E+02  0.10000000000E+03  0.10566000000E+00 0.  1.
         22   -1    0    0    0    0 -0.00000000000E+00 -0.00000000000E+00 -0.14661801149E+02  0.14661801149E+02  0.00000000000E+00 0. -1.
         13    1    1    2    0    0 -0.11593012768E+02  0.13955087106E+02  0.59327911631E+01  0.19087995604E+02  0.10566000000E+00 0. -1.
        996    1    1    2    0    0  0.11593012768E+02 -0.13955087106E+02  0.79405351872E+02  0.95573805549E+02  0.50000000000E+02 0.  0.
<mgrwt>
<rscale>  0 0.53189683E+02</rscale>
<asrwt>0</asrwt>
<pdfrwt beam="1">  1       13 0.10000000E+01 0.53189683E+02</pdfrwt>
<pdfrwt beam="2">  1       22 0.14661825E+00 0.53189683E+02</pdfrwt>
<totfact> 0.78382788E-01</totfact>
</mgrwt>
</event>
<event>
 4    1  0.2489082E+000  0.5103200E+02  0.7957747E-01  0.1439853E+00
         13   -1    0    0    0    0  0.00000000000E+00  0.00000000000E+00  0.99999944177E+02  0.99999999997E+02  0.10566000000E+00 0.  1.
         22   -1    0    0    0    0 -0.00000000000E+00 -0.00000000000E+00 -0.94577789267E+01  0.94577789267E+01  0.00000000000E+00 0.  1.
         13    1    1    2    0    0 -0.91444748779E+01 -0.45435293108E+01  0.11569260895E+02  0.15431268291E+02  0.10566000000E+00 0. -1.
        996    1    1    2    0    0  0.91444748779E+01  0.45435293108E+01  0.78972904355E+02  0.94026510632E+02  0.50000000000E+02 0.  0.
<mgrwt>
<rscale>  0 0.51032001E+02</rscale>
<asrwt>0</asrwt>
<pdfrwt beam="1">  1       13 0.10000000E+01 0.51032001E+02</pdfrwt>
<pdfrwt beam="2">  1       22 0.94578042E-01 0.51032001E+02</pdfrwt>
<totfact> 0.15238222E+00</totfact>
</mgrwt>
</event>
<event>
 4    1  0.2489082E+000  0.5310919E+02  0.7957747E-01  0.1429258E+00
         13   -1    0    0    0    0  0.00000000000E+00  0.00000000000E+00  0.99999944177E+02  0.99999999997E+02  0.10566000000E+00 0.  1.
         22   -1    0    0    0    0 -0.00000000000E+00 -0.00000000000E+00 -0.13604884494E+02  0.13604884494E+02  0.00000000000E+00 0.  1.
         13    1    1    2    0    0 -0.16821411334E+02  0.61339756830E+01  0.98380143267E+01  0.20429959052E+02  0.10566000000E+00 0. -1.
        996    1    1    2    0    0  0.16821411334E+02 -0.61339756830E+01  0.76557045356E+02  0.93174925439E+02  0.50000000000E+02 0.  0.
<mgrwt>
<rscale>  0 0.53109185E+02</rscale>
<asrwt>0</asrwt>
<pdfrwt beam="1">  1       13 0.10000000E+01 0.53109185E+02</pdfrwt>
<pdfrwt beam="2">  1       22 0.13604909E+00 0.53109185E+02</pdfrwt>
<totfact> 0.88515694E-01</totfact>
</mgrwt>
</event>
<event>
 4    1  0.2489082E+000  0.5545790E+02  0.7957747E-01  0.1417946E+00
         13   -1    0    0    0    0  0.00000000000E+00  0.00000000000E+00  0.99999944173E+02  0.99999999993E+02  0.10566000000E+00 0. -1.
         22   -1    0    0    0    0 -0.00000000000E+00 -0.00000000000E+00 -0.19204326021E+02  0.19204326021E+02  0.00000000000E+00 0.  1.
         13    1    1    2    0    0 -0.18434601009E+02 -0.15353968669E+02  0.37620500835E+01  0.24284625859E+02  0.10566000000E+00 0.  1.
        996    1    1    2    0    0  0.18434601009E+02  0.15353968669E+02  0.77033568068E+02  0.94919700155E+02  0.50000000000E+02 0.  0.
<mgrwt>
<rscale>  0 0.55457902E+02</rscale>
<asrwt>0</asrwt>
<pdfrwt beam="1">  1       13 0.10000000E+01 0.55457902E+02</pdfrwt>
<pdfrwt beam="2">  1       22 0.19204349E+00 0.55457902E+02</pdfrwt>
<totfact> 0.49145132E-01</totfact>
</mgrwt>
</event>
<event>
 4    1  0.2489082E+000  0.6011450E+02  0.7957747E-01  0.1397352E+00
         13   -1    0    0    0    0  0.00000000000E+00  0.00000000000E+00  0.99999944180E+02  0.10000000000E+03  0.10566000000E+00 0. -1.
         22   -1    0    0    0    0 -0.00000000000E+00 -0.00000000000E+00 -0.31116592324E+02  0.31116592324E+02  0.00000000000E+00 0.  1.
         13    1    1    2    0    0  0.25824868049E+02 -0.21138339491E+02 -0.72095587903E+01  0.34142965720E+02  0.10566000000E+00 0.  1.
        996    1    1    2    0    0 -0.25824868049E+02  0.21138339491E+02  0.76092910646E+02  0.96973626604E+02  0.50000000000E+02 0.  0.
<mgrwt>
<rscale>  0 0.60114501E+02</rscale>
<asrwt>0</asrwt>
<pdfrwt beam="1">  1       13 0.10000000E+01 0.60114501E+02</pdfrwt>
<pdfrwt beam="2">  1       22 0.31116612E+00 0.60114501E+02</pdfrwt>
<totfact> 0.19536586E-01</totfact>
</mgrwt>
</event>
<event>
 4    1  0.2489082E+000  0.5114970E+02  0.7957747E-01  0.1439237E+00
         13   -1    0    0    0    0  0.00000000000E+00  0.00000000000E+00  0.99999944175E+02  0.99999999995E+02  0.10566000000E+00 0. -1.
         22   -1    0    0    0    0 -0.00000000000E+00 -0.00000000000E+00 -0.10351747404E+02  0.10351747404E+02  0.00000000000E+00 0. -1.
         13    1    1    2    0    0  0.80511019907E+01  0.71743631629E+01  0.61013484539E+01  0.12390695987E+02  0.10566000000E+00 0.  1.
        996    1    1    2    0    0 -0.80511019907E+01 -0.71743631629E+01  0.83546848317E+02  0.97961051412E+02  0.50000000000E+02 0.  0.
<mgrwt>
<rscale>  0 0.51149699E+02</rscale>
<asrwt>0</asrwt>
<pdfrwt beam="1">  1       13 0.10000000E+01 0.51149699E+02</pdfrwt>
<pdfrwt beam="2">  1       22 0.10351772E+00 0.51149699E+02</pdfrwt>
<totfact> 0.13378875E+00</totfact>
</mgrwt>
</event>
<event>
 4    1  0.2489082E+000  0.6357992E+02  0.7957747E-01  0.1383394E+00
         13   -1    0    0    0    0  0.00000000000E+00  0.00000000000E+00  0.99999944168E+02  0.99999999988E+02  0.10566000000E+00 0.  1.
         22   -1    0    0    0    0 -0.00000000000E+00 -0.00000000000E+00 -0.42750964107E+02  0.42750964107E+02  0.00000000000E+00 0. -1.
         13    1    1    2    0    0  0.39128960815E+02 -0.33660309247E+01  0.67749558650E+02  0.78309766952E+02  0.10566000000E+00 0. -1.
        996    1    1    2    0    0 -0.39128960815E+02  0.33660309247E+01 -0.10500578590E+02  0.64441197144E+02  0.50000000000E+02 0.  0.
<mgrwt>
<rscale>  0 0.63579916E+02</rscale>
<asrwt>0</asrwt>
<pdfrwt beam="1">  1       13 0.10000000E+01 0.63579916E+02</pdfrwt>
<pdfrwt beam="2">  1       22 0.42750980E+00 0.63579916E+02</pdfrwt>
<totfact> 0.10905135E-01</totfact>
</mgrwt>
</event>
<event>
 4    1  0.2489082E+000  0.5181101E+02  0.7957747E-01  0.1435811E+00
         13   -1    0    0    0    0  0.00000000000E+00  0.00000000000E+00  0.99999944179E+02  0.99999999999E+02  0.10566000000E+00 0. -1.
         22   -1    0    0    0    0 -0.00000000000E+00 -0.00000000000E+00 -0.12839589593E+02  0.12839589593E+02  0.00000000000E+00 0. -1.
         13    1    1    2    0    0  0.10418064824E+02  0.87088637281E+01  0.28391839738E+01  0.13872725464E+02  0.10566000000E+00 0.  1.
        996    1    1    2    0    0 -0.10418064824E+02 -0.87088637281E+01  0.84321170612E+02  0.98966864129E+02  0.50000000000E+02 0.  0.
<mgrwt>
<rscale>  0 0.51811006E+02</rscale>
<asrwt>0</asrwt>
<pdfrwt beam="1">  1       13 0.10000000E+01 0.51811006E+02</pdfrwt>
<pdfrwt beam="2">  1       22 0.12839614E+00 0.51811006E+02</pdfrwt>
<totfact> 0.96757476E-01</totfact>
</mgrwt>
</event>
<event>
 4    1  0.2489082E+000  0.5404723E+02  0.7957747E-01  0.1424659E+00
         13   -1    0    0    0    0  0.00000000000E+00  0.00000000000E+00  0.99999944188E+02  0.10000000001E+03  0.10566000000E+00 0. -1.
         22   -1    0    0    0    0 -0.00000000000E+00 -0.00000000000E+00 -0.28583800893E+02  0.28583800893E+02  0.00000000000E+00 0.  1.
         13    1    1    2    0    0 -0.13521030390E+02 -0.15436488397E+02 -0.15854764895E+02  0.25932376882E+02  0.10566000000E+00 0.  1.
        996    1    1    2    0    0  0.13521030390E+02  0.15436488397E+02  0.87270908190E+02  0.10265142402E+03  0.50000000000E+02 0.  0.
<mgrwt>
<rscale>  0 0.54047233E+02</rscale>
<asrwt>0</asrwt>
<pdfrwt beam="1">  1       13 0.10000000E+01 0.54047233E+02</pdfrwt>
<pdfrwt beam="2">  1       22 0.28583821E+00 0.54047233E+02</pdfrwt>
<totfact> 0.22753774E-01</totfact>
</mgrwt>
</event>
<event>
 4    1  0.2489082E+000  0.5575032E+02  0.7957747E-01  0.1416584E+00
         13   -1    0    0    0    0  0.00000000000E+00  0.00000000000E+00  0.99999944179E+02  0.10000000000E+03  0.10566000000E+00 0. -1.
         22   -1    0    0    0    0 -0.00000000000E+00 -0.00000000000E+00 -0.18630854245E+02  0.18630854245E+02  0.00000000000E+00 0.  1.
         13    1    1    2    0    0 -0.29081084669E+01 -0.24487562904E+02  0.69031147563E+01  0.25607850148E+02  0.10566000000E+00 0.  1.
        996    1    1    2    0    0  0.29081084669E+01  0.24487562904E+02  0.74465975178E+02  0.93023004096E+02  0.50000000000E+02 0.  0.
<mgrwt>
<rscale>  0 0.55750317E+02</rscale>
<asrwt>0</asrwt>
<pdfrwt beam="1">  1       13 0.10000000E+01 0.55750317E+02</pdfrwt>
<pdfrwt beam="2">  1       22 0.18630877E+00 0.55750317E+02</pdfrwt>
<totfact> 0.51975972E-01</totfact>
</mgrwt>
</event>
<event>
 4    1  0.2489082E+000  0.5372971E+02  0.7957747E-01  0.1426203E+00
         13   -1    0    0    0    0  0.00000000000E+00  0.00000000000E+00  0.99999944177E+02  0.99999999997E+02  0.10566000000E+00 0.  1.
         22   -1    0    0    0    0 -0.00000000000E+00 -0.00000000000E+00 -0.15826059800E+02  0.15826059800E+02  0.00000000000E+00 0.  1.
         13    1    1    2    0    0  0.11217424204E+02  0.16157090992E+02  0.52661012605E+01  0.20362347154E+02  0.10566000000E+00 0. -1.
        996    1    1    2    0    0 -0.11217424204E+02 -0.16157090992E+02  0.78907783116E+02  0.95463712642E+02  0.50000000000E+02 0.  0.
<mgrwt>
<rscale>  0 0.53729714E+02</rscale>
<asrwt>0</asrwt>
<pdfrwt beam="1">  1       13 0.10000000E+01 0.53729714E+02</pdfrwt>
<pdfrwt beam="2">  1       22 0.15826083E+00 0.53729714E+02</pdfrwt>
<totfact> 0.69029627E-01</totfact>
</mgrwt>
</event>
<event>
 4    1  0.2489082E+000  0.5322521E+02  0.7957747E-01  0.1428683E+00
         13   -1    0    0    0    0  0.00000000000E+00  0.00000000000E+00  0.99999944174E+02  0.99999999994E+02  0.10566000000E+00 0. -1.
         22   -1    0    0    0    0 -0.00000000000E+00 -0.00000000000E+00 -0.12840279840E+02  0.12840279840E+02  0.00000000000E+00 0. -1.
         13    1    1    2    0    0 -0.12506843785E+02 -0.13285403098E+02  0.25998086718E+02  0.31762159151E+02  0.10566000000E+00 0.  1.
        996    1    1    2    0    0  0.12506843785E+02  0.13285403098E+02  0.61161577616E+02  0.81078120683E+02  0.50000000000E+02 0.  0.
<mgrwt>
<rscale>  0 0.53225211E+02</rscale>
<asrwt>0</asrwt>
<pdfrwt beam="1">  1       13 0.10000000E+01 0.53225211E+02</pdfrwt>
<pdfrwt beam="2">  1       22 0.12840304E+00 0.53225211E+02</pdfrwt>
<totfact> 0.97044413E-01</totfact>
</mgrwt>
</event>
<event>
 4    1  0.2489082E+000  0.6098338E+02  0.7957747E-01  0.1393751E+00
         13   -1    0    0    0    0  0.00000000000E+00  0.00000000000E+00  0.99999944184E+02  0.10000000000E+03  0.10566000000E+00 0. -1.
         22   -1    0    0    0    0 -0.00000000000E+00 -0.00000000000E+00 -0.23686963423E+02  0.23686963423E+02  0.00000000000E+00 0.  1.
         13    1    1    2    0    0 -0.95094296569E+01  0.33593794308E+02  0.17873192618E+02  0.39222881674E+02  0.10566000000E+00 0.  1.
        996    1    1    2    0    0  0.95094296569E+01 -0.33593794308E+02  0.58439788143E+02  0.84464081754E+02  0.50000000000E+02 0.  0.
<mgrwt>
<rscale>  0 0.60983377E+02</rscale>
<asrwt>0</asrwt>
<pdfrwt beam="1">  1       13 0.10000000E+01 0.60983377E+02</pdfrwt>
<pdfrwt beam="2">  1       22 0.23686985E+00 0.60983377E+02</pdfrwt>
<totfact> 0.33213720E-01</totfact>
</mgrwt>
</event>
<event>
 4    1  0.2489082E+000  0.5101028E+02  0.7957747E-01  0.1439967E+00
         13   -1    0    0    0    0  0.00000000000E+00  0.00000000000E+00  0.99999944175E+02  0.99999999995E+02  0.10566000000E+00 0. -1.
         22   -1    0    0    0    0 -0.00000000000E+00 -0.00000000000E+00 -0.12959083862E+02  0.12959083862E+02  0.00000000000E+00 0.  1.
         13    1    1    2    0    0  0.88552142227E+01 -0.48614879449E+01 -0.20405816385E+01  0.10306503841E+02  0.10566000000E+00 0.  1.
        996    1    1    2    0    0 -0.88552142227E+01  0.48614879449E+01  0.89081441951E+02  0.10265258002E+03  0.50000000000E+02 0.  0.
<mgrwt>
<rscale>  0 0.51010282E+02</rscale>
<asrwt>0</asrwt>
<pdfrwt beam="1">  1       13 0.10000000E+01 0.51010282E+02</pdfrwt>
<pdfrwt beam="2">  1       22 0.12959108E+00 0.51010282E+02</pdfrwt>
<totfact> 0.95192256E-01</totfact>
</mgrwt>
</event>
<event>
 4    1  0.2489082E+000  0.5651416E+02  0.7957747E-01  0.1413071E+00
         13   -1    0    0    0    0  0.00000000000E+00  0.00000000000E+00  0.99999944181E+02  0.10000000000E+03  0.10566000000E+00 0. -1.
         22   -1    0    0    0    0 -0.00000000000E+00 -0.00000000000E+00 -0.17163861049E+02  0.17163861049E+02  0.00000000000E+00 0.  1.
         13    1    1    2    0    0  0.16874932571E+02  0.20225892737E+02  0.25854374136E+02  0.36909482688E+02  0.10566000000E+00 0.  1.
        996    1    1    2    0    0 -0.16874932571E+02 -0.20225892737E+02  0.56981708996E+02  0.80254378363E+02  0.50000000000E+02 0.  0.
<mgrwt>
<rscale>  0 0.56514158E+02</rscale>
<asrwt>0</asrwt>
<pdfrwt beam="1">  1       13 0.10000000E+01 0.56514158E+02</pdfrwt>
<pdfrwt beam="2">  1       22 0.17163884E+00 0.56514158E+02</pdfrwt>
<totfact> 0.60282690E-01</totfact>
</mgrwt>
</event>
<event>
 4    1  0.2489082E+000  0.5447517E+02  0.7957747E-01  0.1422597E+00
         13   -1    0    0    0    0  0.00000000000E+00  0.00000000000E+00  0.99999944170E+02  0.99999999990E+02  0.10566000000E+00 0.  1.
         22   -1    0    0    0    0 -0.00000000000E+00 -0.00000000000E+00 -0.24032073076E+02  0.24032073076E+02  0.00000000000E+00 0.  1.
         13    1    1    2    0    0 -0.18711420273E+02 -0.10836383862E+02 -0.87376805035E+01  0.23321721387E+02  0.10566000000E+00 0. -1.
        996    1    1    2    0    0  0.18711420273E+02  0.10836383862E+02  0.84705551597E+02  0.10071035168E+03  0.50000000000E+02 0.  0.
<mgrwt>
<rscale>  0 0.54475173E+02</rscale>
<asrwt>0</asrwt>
<pdfrwt beam="1">  1       13 0.10000000E+01 0.54475173E+02</pdfrwt>
<pdfrwt beam="2">  1       22 0.24032094E+00 0.54475173E+02</pdfrwt>
<totfact> 0.31980543E-01</totfact>
</mgrwt>
</event>
<event>
 4    1  0.2489082E+000  0.5264588E+02  0.7957747E-01  0.1431571E+00
         13   -1    0    0    0    0  0.00000000000E+00  0.00000000000E+00  0.99999944178E+02  0.99999999999E+02  0.10566000000E+00 0. -1.
         22   -1    0    0    0    0 -0.00000000000E+00 -0.00000000000E+00 -0.12094070680E+02  0.12094070680E+02  0.00000000000E+00 0. -1.
         13    1    1    2    0    0 -0.54096154097E+01  0.15566795215E+02  0.26535403427E+02  0.31236642765E+02  0.10566000000E+00 0.  1.
        996    1    1    2    0    0  0.54096154097E+01 -0.15566795215E+02  0.61370470071E+02  0.80857427914E+02  0.50000000000E+02 0.  0.
<mgrwt>
<rscale>  0 0.52645884E+02</rscale>
<asrwt>0</asrwt>
<pdfrwt beam="1">  1       13 0.10000000E+01 0.52645884E+02</pdfrwt>
<pdfrwt beam="2">  1       22 0.12094095E+00 0.52645884E+02</pdfrwt>
<totfact> 0.10636609E+00</totfact>
</mgrwt>
</event>
<event>
 4    1  0.2489082E+000  0.5670056E+02  0.7957747E-01  0.1412224E+00
         13   -1    0    0    0    0  0.00000000000E+00  0.00000000000E+00  0.99999944177E+02  0.99999999997E+02  0.10566000000E+00 0. -1.
         22   -1    0    0    0    0 -0.00000000000E+00 -0.00000000000E+00 -0.30362720029E+02  0.30362720029E+02  0.00000000000E+00 0.  1.
         13    1    1    2    0    0  0.11638935842E+02  0.24072582783E+02 -0.13325311341E+02  0.29875226455E+02  0.10566000000E+00 0.  1.
        996    1    1    2    0    0 -0.11638935842E+02 -0.24072582783E+02  0.82962535488E+02  0.10048749357E+03  0.50000000000E+02 0.  0.
<mgrwt>
<rscale>  0 0.56700565E+02</rscale>
<asrwt>0</asrwt>
<pdfrwt beam="1">  1       13 0.10000000E+01 0.56700565E+02</pdfrwt>
<pdfrwt beam="2">  1       22 0.30362739E+00 0.56700565E+02</pdfrwt>
<totfact> 0.20363486E-01</totfact>
</mgrwt>
</event>
<event>
 4    1  0.2489082E+000  0.5781349E+02  0.7957747E-01  0.1407243E+00
         13   -1    0    0    0    0  0.00000000000E+00  0.00000000000E+00  0.99999944181E+02  0.10000000000E+03  0.10566000000E+00 0. -1.
         22   -1    0    0    0    0 -0.00000000000E+00 -0.00000000000E+00 -0.26269013952E+02  0.26269013952E+02  0.00000000000E+00 0.  1.
         13    1    1    2    0    0  0.28623692281E+02 -0.48045585700E+01 -0.41028381371E+01  0.29312863860E+02  0.10566000000E+00 0.  1.
        996    1    1    2    0    0 -0.28623692281E+02  0.48045585700E+01  0.77833768365E+02  0.96956150093E+02  0.50000000000E+02 0.  0.
<mgrwt>
<rscale>  0 0.57813489E+02</rscale>
<asrwt>0</asrwt>
<pdfrwt beam="1">  1       13 0.10000000E+01 0.57813489E+02</pdfrwt>
<pdfrwt beam="2">  1       22 0.26269035E+00 0.57813489E+02</pdfrwt>
<totfact> 0.26965890E-01</totfact>
</mgrwt>
</event>
<event>
 4    1  0.2489082E+000  0.5107574E+02  0.7957747E-01  0.1439624E+00
         13   -1    0    0    0    0  0.00000000000E+00  0.00000000000E+00  0.99999944174E+02  0.99999999994E+02  0.10566000000E+00 0. -1.
         22   -1    0    0    0    0 -0.00000000000E+00 -0.00000000000E+00 -0.12252783713E+02  0.12252783713E+02  0.00000000000E+00 0.  1.
         13    1    1    2    0    0  0.93065209714E+01 -0.47032036756E+01 -0.33498961421E+00  0.10433352265E+02  0.10566000000E+00 0.  1.
        996    1    1    2    0    0 -0.93065209714E+01  0.47032036756E+01  0.88082150075E+02  0.10181943144E+03  0.50000000000E+02 0.  0.
<mgrwt>
<rscale>  0 0.51075742E+02</rscale>
<asrwt>0</asrwt>
<pdfrwt beam="1">  1       13 0.10000000E+01 0.51075742E+02</pdfrwt>
<pdfrwt beam="2">  1       22 0.12252808E+00 0.51075742E+02</pdfrwt>
<totfact> 0.10388859E+00</totfact>
</mgrwt>
</event>
<event>
 4    1  0.2489082E+000  0.5943763E+02  0.7957747E-01  0.1400207E+00
         13   -1    0    0    0    0  0.00000000000E+00  0.00000000000E+00  0.99999944176E+02  0.99999999996E+02  0.10566000000E+00 0.  1.
         22   -1    0    0    0    0 -0.00000000000E+00 -0.00000000000E+00 -0.35991897205E+02  0.35991897205E+02  0.00000000000E+00 0. -1.
         13    1    1    2    0    0 -0.10799821004E+02 -0.30268730898E+02 -0.16336364267E+02  0.36051631938E+02  0.10566000000E+00 0. -1.
        996    1    1    2    0    0  0.10799821004E+02  0.30268730898E+02  0.80344411238E+02  0.99940265264E+02  0.50000000000E+02 0.  0.
<mgrwt>
<rscale>  0 0.59437633E+02</rscale>
<asrwt>0</asrwt>
<pdfrwt beam="1">  1       13 0.10000000E+01 0.59437633E+02</pdfrwt>
<pdfrwt beam="2">  1       22 0.35991915E+00 0.59437633E+02</pdfrwt>
<totfact> 0.15068760E-01</totfact>
</mgrwt>
</event>
<event>
 4    1  0.2489082E+000  0.6132930E+02  0.7957747E-01  0.1392336E+00
         13   -1    0    0    0    0  0.00000000000E+00  0.00000000000E+00  0.99999944172E+02  0.99999999993E+02  0.10566000000E+00 0.  1.
         22   -1    0    0    0    0 -0.00000000000E+00 -0.00000000000E+00 -0.23505918748E+02  0.23505918748E+02  0.00000000000E+00 0.  1.
         13    1    1    2    0    0 -0.30731931202E+02  0.17799749679E+02  0.25094344277E+02  0.43485859342E+02  0.10566000000E+00 0. -1.
        996    1    1    2    0    0  0.30731931202E+02 -0.17799749679E+02  0.51399681148E+02  0.80020059398E+02  0.50000000000E+02 0.  0.
<mgrwt>
<rscale>  0 0.61329297E+02</rscale>
<asrwt>0</asrwt>
<pdfrwt beam="1">  1       13 0.10000000E+01 0.61329297E+02</pdfrwt>
<pdfrwt beam="2">  1       22 0.23505940E+00 0.61329297E+02</pdfrwt>
<totfact> 0.33733616E-01</totfact>
</mgrwt>
</event>
<event>
 4    1  0.2489082E+000  0.5199503E+02  0.7957747E-01  0.1434869E+00
         13   -1    0    0    0    0  0.00000000000E+00  0.00000000000E+00  0.99999944173E+02  0.99999999993E+02  0.10566000000E+00 0.  1.
         22   -1    0    0    0    0 -0.00000000000E+00 -0.00000000000E+00 -0.27772758150E+02  0.27772758150E+02  0.00000000000E+00 0. -1.
         13    1    1    2    0    0 -0.11708703688E+02  0.81479476637E+01 -0.18404439591E+02  0.23285561060E+02  0.10566000000E+00 0. -1.
        996    1    1    2    0    0  0.11708703688E+02 -0.81479476637E+01  0.90631625613E+02  0.10448719708E+03  0.50000000000E+02 0.  0.
<mgrwt>
<rscale>  0 0.51995027E+02</rscale>
<asrwt>0</asrwt>
<pdfrwt beam="1">  1       13 0.10000000E+01 0.51995027E+02</pdfrwt>
<pdfrwt beam="2">  1       22 0.27772778E+00 0.51995027E+02</pdfrwt>
<totfact> 0.23986506E-01</totfact>
</mgrwt>
</event>
<event>
 4    1  0.2489082E+000  0.5430152E+02  0.7957747E-01  0.1423431E+00
         13   -1    0    0    0    0  0.00000000000E+00  0.00000000000E+00  0.99999944186E+02  0.10000000001E+03  0.10566000000E+00 0.  1.
         22   -1    0    0    0    0 -0.00000000000E+00 -0.00000000000E+00 -0.34663739097E+02  0.34663739097E+02  0.00000000000E+00 0. -1.
         13    1    1    2    0    0  0.20613080123E+02 -0.48739974942E+01 -0.22813683330E+02  0.31130856636E+02  0.10566000000E+00 0. -1.
        996    1    1    2    0    0 -0.20613080123E+02  0.48739974942E+01  0.88149888419E+02  0.10353288247E+03  0.50000000000E+02 0.  0.
<mgrwt>
<rscale>  0 0.54301519E+02</rscale>
<asrwt>0</asrwt>
<pdfrwt beam="1">  1       13 0.10000000E+01 0.54301519E+02</pdfrwt>
<pdfrwt beam="2">  1       22 0.34663757E+00 0.54301519E+02</pdfrwt>
<totfact> 0.16019051E-01</totfact>
</mgrwt>
</event>
<event>
 4    1  0.2489082E+000  0.5126763E+02  0.7957747E-01  0.1438622E+00
         13   -1    0    0    0    0  0.00000000000E+00  0.00000000000E+00  0.99999944181E+02  0.10000000000E+03  0.10566000000E+00 0.  1.
         22   -1    0    0    0    0 -0.00000000000E+00 -0.00000000000E+00 -0.10297785751E+02  0.10297785751E+02  0.00000000000E+00 0.  1.
         13    1    1    2    0    0  0.11299878743E+02 -0.82636804761E+00  0.81031604348E+01  0.13929914459E+02  0.10566000000E+00 0. -1.
        996    1    1    2    0    0 -0.11299878743E+02  0.82636804761E+00  0.81598997995E+02  0.96367871293E+02  0.50000000000E+02 0.  0.
<mgrwt>
<rscale>  0 0.51267633E+02</rscale>
<asrwt>0</asrwt>
<pdfrwt beam="1">  1       13 0.10000000E+01 0.51267633E+02</pdfrwt>
<pdfrwt beam="2">  1       22 0.10297811E+00 0.51267633E+02</pdfrwt>
<totfact> 0.13485218E+00</totfact>
</mgrwt>
</event>
<event>
 4    1  0.2489082E+000  0.5463441E+02  0.7957747E-01  0.1421836E+00
         13   -1    0    0    0    0  0.00000000000E+00  0.00000000000E+00  0.99999944177E+02  0.99999999997E+02  0.10566000000E+00 0. -1.
         22   -1    0    0    0    0 -0.00000000000E+00 -0.00000000000E+00 -0.19723295998E+02  0.19723295998E+02  0.00000000000E+00 0.  1.
         13    1    1    2    0    0  0.21991888680E+02 -0.11296062318E+01 -0.70833739121E+00  0.22032523320E+02  0.10566000000E+00 0.  1.
        996    1    1    2    0    0 -0.21991888680E+02  0.11296062318E+01  0.80984985570E+02  0.97690772675E+02  0.50000000000E+02 0.  0.
<mgrwt>
<rscale>  0 0.54634414E+02</rscale>
<asrwt>0</asrwt>
<pdfrwt beam="1">  1       13 0.10000000E+01 0.54634414E+02</pdfrwt>
<pdfrwt beam="2">  1       22 0.19723318E+00 0.54634414E+02</pdfrwt>
<totfact> 0.46713994E-01</totfact>
</mgrwt>
</event>
<event>
 4    1  0.2489082E+000  0.5107955E+02  0.7957747E-01  0.1439604E+00
         13   -1    0    0    0    0  0.00000000000E+00  0.00000000000E+00  0.99999944177E+02  0.99999999997E+02  0.10566000000E+00 0.  1.
         22   -1    0    0    0    0 -0.00000000000E+00 -0.00000000000E+00 -0.38935225863E+02  0.38935225863E+02  0.00000000000E+00 0. -1.
         13    1    1    2    0    0 -0.99616218921E+01  0.31442828308E+01 -0.31513799752E+02  0.33200168134E+02  0.10566000000E+00 0. -1.
        996    1    1    2    0    0  0.99616218921E+01 -0.31442828308E+01  0.92578518066E+02  0.10573505773E+03  0.50000000000E+02 0.  0.
<mgrwt>
<rscale>  0 0.51079550E+02</rscale>
<asrwt>0</asrwt>
<pdfrwt beam="1">  1       13 0.10000000E+01 0.51079550E+02</pdfrwt>
<pdfrwt beam="2">  1       22 0.38935243E+00 0.51079550E+02</pdfrwt>
<totfact> 0.12996610E-01</totfact>
</mgrwt>
</event>
<event>
 4    1  0.2489082E+000  0.5448436E+02  0.7957747E-01  0.1422553E+00
         13   -1    0    0    0    0  0.00000000000E+00  0.00000000000E+00  0.99999944177E+02  0.99999999997E+02  0.10566000000E+00 0.  1.
         22   -1    0    0    0    0 -0.00000000000E+00 -0.00000000000E+00 -0.14541696146E+02  0.14541696146E+02  0.00000000000E+00 0.  1.
         13    1    1    2    0    0 -0.16403557061E+02  0.14123338245E+02  0.27457654331E+02  0.34963971640E+02  0.10566000000E+00 0. -1.
        996    1    1    2    0    0  0.16403557061E+02 -0.14123338245E+02  0.58000593700E+02  0.79577724503E+02  0.50000000000E+02 0.  0.
<mgrwt>
<rscale>  0 0.54484359E+02</rscale>
<asrwt>0</asrwt>
<pdfrwt beam="1">  1       13 0.10000000E+01 0.54484359E+02</pdfrwt>
<pdfrwt beam="2">  1       22 0.14541720E+00 0.54484359E+02</pdfrwt>
<totfact> 0.79658069E-01</totfact>
</mgrwt>
</event>
<event>
 4    1  0.2489082E+000  0.5121082E+02  0.7957747E-01  0.1438918E+00
         13   -1    0    0    0    0  0.00000000000E+00  0.00000000000E+00  0.99999944184E+02  0.10000000000E+03  0.10566000000E+00 0. -1.
         22   -1    0    0    0    0 -0.00000000000E+00 -0.00000000000E+00 -0.23909833237E+02  0.23909833237E+02  0.00000000000E+00 0.  1.
         13    1    1    2    0    0 -0.10631444890E+02 -0.30855147022E+01 -0.15457037033E+02  0.19012605800E+02  0.10566000000E+00 0.  1.
        996    1    1    2    0    0  0.10631444890E+02  0.30855147022E+01  0.91547147980E+02  0.10489722744E+03  0.50000000000E+02 0.  0.
<mgrwt>
<rscale>  0 0.51210819E+02</rscale>
<asrwt>0</asrwt>
<pdfrwt beam="1">  1       13 0.10000000E+01 0.51210819E+02</pdfrwt>
<pdfrwt beam="2">  1       22 0.23909854E+00 0.51210819E+02</pdfrwt>
<totfact> 0.32134446E-01</totfact>
</mgrwt>
</event>
<event>
 4    1  0.2489082E+000  0.5474428E+02  0.7957747E-01  0.1421312E+00
         13   -1    0    0    0    0  0.00000000000E+00  0.00000000000E+00  0.99999944177E+02  0.99999999998E+02  0.10566000000E+00 0.  1.
         22   -1    0    0    0    0 -0.00000000000E+00 -0.00000000000E+00 -0.35586402015E+02  0.35586402015E+02  0.00000000000E+00 0. -1.
         13    1    1    2    0    0 -0.22192331467E+02 -0.21062676686E+01 -0.23264683210E+02  0.32220996079E+02  0.10566000000E+00 0. -1.
        996    1    1    2    0    0  0.22192331467E+02  0.21062676686E+01  0.87678225372E+02  0.10336540593E+03  0.50000000000E+02 0.  0.
<mgrwt>
<rscale>  0 0.54744278E+02</rscale>
<asrwt>0</asrwt>
<pdfrwt beam="1">  1       13 0.10000000E+01 0.54744278E+02</pdfrwt>
<pdfrwt beam="2">  1       22 0.35586420E+00 0.54744278E+02</pdfrwt>
<totfact> 0.15306761E-01</totfact>
</mgrwt>
</event>
<event>
 4    1  0.2489082E+000  0.5221273E+02  0.7957747E-01  0.1433759E+00
         13   -1    0    0    0    0  0.00000000000E+00  0.00000000000E+00  0.99999944177E+02  0.99999999997E+02  0.10566000000E+00 0. -1.
         22   -1    0    0    0    0 -0.00000000000E+00 -0.00000000000E+00 -0.11598931601E+02  0.11598931601E+02  0.00000000000E+00 0. -1.
         13    1    1    2    0    0 -0.13625155499E+02  0.63658861413E+01  0.12966506309E+02  0.19857261106E+02  0.10566000000E+00 0.  1.
        996    1    1    2    0    0  0.13625155499E+02 -0.63658861413E+01  0.75434506268E+02  0.91741670492E+02  0.50000000000E+02 0.  0.
<mgrwt>
<rscale>  0 0.52212732E+02</rscale>
<asrwt>0</asrwt>
<pdfrwt beam="1">  1       13 0.10000000E+01 0.52212732E+02</pdfrwt>
<pdfrwt beam="2">  1       22 0.11598956E+00 0.52212732E+02</pdfrwt>
<totfact> 0.11325607E+00</totfact>
</mgrwt>
</event>
<event>
 4    1  0.2489082E+000  0.5340138E+02  0.7957747E-01  0.1427814E+00
         13   -1    0    0    0    0  0.00000000000E+00  0.00000000000E+00  0.99999944175E+02  0.99999999996E+02  0.10566000000E+00 0. -1.
         22   -1    0    0    0    0 -0.00000000000E+00 -0.00000000000E+00 -0.61380271021E+02  0.61380271021E+02  0.00000000000E+00 0.  1.
         13    1    1    2    0    0  0.76114623162E+01 -0.17139794156E+02 -0.52509001620E+02  0.55757630128E+02  0.10566000000E+00 0.  1.
        996    1    1    2    0    0 -0.76114623162E+01  0.17139794156E+02  0.91128674774E+02  0.10562264089E+03  0.50000000000E+02 0.  0.
<mgrwt>
<rscale>  0 0.53401375E+02</rscale>
<asrwt>0</asrwt>
<pdfrwt beam="1">  1       13 0.10000000E+01 0.53401375E+02</pdfrwt>
<pdfrwt beam="2">  1       22 0.61380282E+00 0.53401375E+02</pdfrwt>
<totfact> 0.69390340E-02</totfact>
</mgrwt>
</event>
<event>
 4    1  0.2489082E+000  0.5377427E+02  0.7957747E-01  0.1425986E+00
         13   -1    0    0    0    0  0.00000000000E+00  0.00000000000E+00  0.99999944180E+02  0.10000000000E+03  0.10566000000E+00 0. -1.
         22   -1    0    0    0    0 -0.00000000000E+00 -0.00000000000E+00 -0.14039937246E+02  0.14039937246E+02  0.00000000000E+00 0.  1.
         13    1    1    2    0    0  0.60184368621E+01  0.18853406901E+02  0.33536261964E+02  0.38940525993E+02  0.10566000000E+00 0.  1.
        996    1    1    2    0    0 -0.60184368621E+01 -0.18853406901E+02  0.52423744970E+02  0.75099411254E+02  0.50000000000E+02 0.  0.
<mgrwt>
<rscale>  0 0.53774274E+02</rscale>
<asrwt>0</asrwt>
<pdfrwt beam="1">  1       13 0.10000000E+01 0.53774274E+02</pdfrwt>
<pdfrwt beam="2">  1       22 0.14039961E+00 0.53774274E+02</pdfrwt>
<totfact> 0.84246608E-01</totfact>
</mgrwt>
</event>
<event>
 4    1  0.2489082E+000  0.5240520E+02  0.7957747E-01  0.1432784E+00
         13   -1    0    0    0    0  0.00000000000E+00  0.00000000000E+00  0.99999944179E+02  0.99999999999E+02  0.10566000000E+00 0. -1.
         22   -1    0    0    0    0 -0.00000000000E+00 -0.00000000000E+00 -0.15571675780E+02  0.15571675780E+02  0.00000000000E+00 0. -1.
         13    1    1    2    0    0  0.15576976406E+02 -0.19139544817E+01 -0.58340413455E+00  0.15705315665E+02  0.10566000000E+00 0.  1.
        996    1    1    2    0    0 -0.15576976406E+02  0.19139544817E+01  0.85011672533E+02  0.99866360115E+02  0.50000000000E+02 0.  0.
<mgrwt>
<rscale>  0 0.52405204E+02</rscale>
<asrwt>0</asrwt>
<pdfrwt beam="1">  1       13 0.10000000E+01 0.52405204E+02</pdfrwt>
<pdfrwt beam="2">  1       22 0.15571699E+00 0.52405204E+02</pdfrwt>
<totfact> 0.70770407E-01</totfact>
</mgrwt>
</event>
<event>
 4    1  0.2489082E+000  0.5278726E+02  0.7957747E-01  0.1430863E+00
         13   -1    0    0    0    0  0.00000000000E+00  0.00000000000E+00  0.99999944183E+02  0.10000000000E+03  0.10566000000E+00 0. -1.
         22   -1    0    0    0    0 -0.00000000000E+00 -0.00000000000E+00 -0.15075741533E+02  0.15075741533E+02  0.00000000000E+00 0. -1.
         13    1    1    2    0    0  0.16457411216E+02 -0.39558651809E+01  0.23758207268E+01  0.17092423510E+02  0.10566000000E+00 0.  1.
        996    1    1    2    0    0 -0.16457411216E+02  0.39558651809E+01  0.82548381923E+02  0.97983318026E+02  0.50000000000E+02 0.  0.
<mgrwt>
<rscale>  0 0.52787264E+02</rscale>
<asrwt>0</asrwt>
<pdfrwt beam="1">  1       13 0.10000000E+01 0.52787264E+02</pdfrwt>
<pdfrwt beam="2">  1       22 0.15075765E+00 0.52787264E+02</pdfrwt>
<totfact> 0.74782039E-01</totfact>
</mgrwt>
</event>
<event>
 4    1  0.2489082E+000  0.5743784E+02  0.7957747E-01  0.1408910E+00
         13   -1    0    0    0    0  0.00000000000E+00  0.00000000000E+00  0.99999944191E+02  0.10000000001E+03  0.10566000000E+00 0. -1.
         22   -1    0    0    0    0 -0.00000000000E+00 -0.00000000000E+00 -0.18424325823E+02  0.18424325823E+02  0.00000000000E+00 0. -1.
         13    1    1    2    0    0  0.17600023349E+02  0.22121133561E+02  0.30138682736E+02  0.41321383483E+02  0.10566000000E+00 0.  1.
        996    1    1    2    0    0 -0.17600023349E+02 -0.22121133561E+02  0.51436935633E+02  0.77102942351E+02  0.50000000000E+02 0.  0.
<mgrwt>
<rscale>  0 0.57437839E+02</rscale>
<asrwt>0</asrwt>
<pdfrwt beam="1">  1       13 0.10000000E+01 0.57437839E+02</pdfrwt>
<pdfrwt beam="2">  1       22 0.18424349E+00 0.57437839E+02</pdfrwt>
<totfact> 0.53191799E-01</totfact>
</mgrwt>
</event>
<event>
 4    1  0.2489082E+000  0.5463703E+02  0.7957747E-01  0.1421823E+00
         13   -1    0    0    0    0  0.00000000000E+00  0.00000000000E+00  0.99999944183E+02  0.10000000000E+03  0.10566000000E+00 0.  1.
         22   -1    0    0    0    0 -0.00000000000E+00 -0.00000000000E+00 -0.47102462970E+02  0.47102462970E+02  0.00000000000E+00 0. -1.
         13    1    1    2    0    0  0.21972475845E+02 -0.15542431845E+01 -0.36323825387E+02  0.42481017189E+02  0.10566000000E+00 0. -1.
        996    1    1    2    0    0 -0.21972475845E+02  0.15542431845E+01  0.89221306599E+02  0.10462144578E+03  0.50000000000E+02 0.  0.
<mgrwt>
<rscale>  0 0.54637033E+02</rscale>
<asrwt>0</asrwt>
<pdfrwt beam="1">  1       13 0.10000000E+01 0.54637033E+02</pdfrwt>
<pdfrwt beam="2">  1       22 0.47102478E+00 0.54637033E+02</pdfrwt>
<totfact> 0.86514530E-02</totfact>
</mgrwt>
</event>
<event>
 4    1  0.2489082E+000  0.5122958E+02  0.7957747E-01  0.1438820E+00
         13   -1    0    0    0    0  0.00000000000E+00  0.00000000000E+00  0.99999944173E+02  0.99999999993E+02  0.10566000000E+00 0.  1.
         22   -1    0    0    0    0 -0.00000000000E+00 -0.00000000000E+00 -0.11274793497E+02  0.11274793497E+02  0.00000000000E+00 0. -1.
         13    1    1    2    0    0  0.10889019068E+02 -0.24288529743E+01  0.32461761497E+01  0.11619762763E+02  0.10566000000E+00 0. -1.
        996    1    1    2    0    0 -0.10889019068E+02  0.24288529743E+01  0.85478974527E+02  0.99655030727E+02  0.50000000000E+02 0.  0.
<mgrwt>
<rscale>  0 0.51229582E+02</rscale>
<asrwt>0</asrwt>
<pdfrwt beam="1">  1       13 0.10000000E+01 0.51229582E+02</pdfrwt>
<pdfrwt beam="2">  1       22 0.11274818E+00 0.51229582E+02</pdfrwt>
<totfact> 0.11792789E+00</totfact>
</mgrwt>
</event>
<event>
 4    1  0.2489082E+000  0.5149505E+02  0.7957747E-01  0.1437441E+00
         13   -1    0    0    0    0  0.00000000000E+00  0.00000000000E+00  0.99999944176E+02  0.99999999996E+02  0.10566000000E+00 0. -1.
         22   -1    0    0    0    0 -0.00000000000E+00 -0.00000000000E+00 -0.10243721453E+02  0.10243721453E+02  0.00000000000E+00 0. -1.
         13    1    1    2    0    0  0.14125922961E+01 -0.12237017836E+02  0.20922250302E+02  0.24279451069E+02  0.10566000000E+00 0.  1.
        996    1    1    2    0    0 -0.14125922961E+01  0.12237017836E+02  0.68833972422E+02  0.85964270380E+02  0.50000000000E+02 0.  0.
<mgrwt>
<rscale>  0 0.51495049E+02</rscale>
<asrwt>0</asrwt>
<pdfrwt beam="1">  1       13 0.10000000E+01 0.51495049E+02</pdfrwt>
<pdfrwt beam="2">  1       22 0.10243747E+00 0.51495049E+02</pdfrwt>
<totfact> 0.13596578E+00</totfact>
</mgrwt>
</event>
<event>
 4    1  0.2489082E+000  0.5100574E+02  0.7957747E-01  0.1439991E+00
         13   -1    0    0    0    0  0.00000000000E+00  0.00000000000E+00  0.99999944174E+02  0.99999999994E+02  0.10566000000E+00 0. -1.
         22   -1    0    0    0    0 -0.00000000000E+00 -0.00000000000E+00 -0.10224123071E+02  0.10224123071E+02  0.00000000000E+00 0. -1.
         13    1    1    2    0    0 -0.93176779956E+01  0.38427493136E+01  0.49143272758E+01  0.11213724721E+02  0.10566000000E+00 0.  1.
        996    1    1    2    0    0  0.93176779956E+01 -0.38427493136E+01  0.84861493828E+02  0.99010398344E+02  0.50000000000E+02 0.  0.
<mgrwt>
<rscale>  0 0.51005743E+02</rscale>
<asrwt>0</asrwt>
<pdfrwt beam="1">  1       13 0.10000000E+01 0.51005743E+02</pdfrwt>
<pdfrwt beam="2">  1       22 0.10224148E+00 0.51005743E+02</pdfrwt>
<totfact> 0.13618491E+00</totfact>
</mgrwt>
</event>
<event>
 4    1  0.2489082E+000  0.5119562E+02  0.7957747E-01  0.1438997E+00
         13   -1    0    0    0    0  0.00000000000E+00  0.00000000000E+00  0.99999944175E+02  0.99999999995E+02  0.10566000000E+00 0. -1.
         22   -1    0    0    0    0 -0.00000000000E+00 -0.00000000000E+00 -0.38244222837E+02  0.38244222837E+02  0.00000000000E+00 0.  1.
         13    1    1    2    0    0 -0.94474500780E+01 -0.56336044844E+01 -0.30672054038E+02  0.32584933258E+02  0.10566000000E+00 0.  1.
        996    1    1    2    0    0  0.94474500780E+01  0.56336044844E+01  0.92427775375E+02  0.10565928957E+03  0.50000000000E+02 0.  0.
<mgrwt>
<rscale>  0 0.51195623E+02</rscale>
<asrwt>0</asrwt>
<pdfrwt beam="1">  1       13 0.10000000E+01 0.51195623E+02</pdfrwt>
<pdfrwt beam="2">  1       22 0.38244240E+00 0.51195623E+02</pdfrwt>
<totfact> 0.13428870E-01</totfact>
</mgrwt>
</event>
<event>
 4    1  0.2489082E+000  0.5279516E+02  0.7957747E-01  0.1430823E+00
         13   -1    0    0    0    0  0.00000000000E+00  0.00000000000E+00  0.99999944176E+02  0.99999999996E+02  0.10566000000E+00 0.  1.
         22   -1    0    0    0    0 -0.00000000000E+00 -0.00000000000E+00 -0.14245289969E+02  0.14245289969E+02  0.00000000000E+00 0. -1.
         13    1    1    2    0    0 -0.16950253932E+02  0.13231882451E+00  0.48373644980E+01  0.17627815405E+02  0.10566000000E+00 0. -1.
        996    1    1    2    0    0  0.16950253932E+02 -0.13231882451E+00  0.80917289709E+02  0.96617474560E+02  0.50000000000E+02 0.  0.
<mgrwt>
<rscale>  0 0.52795157E+02</rscale>
<asrwt>0</asrwt>
<pdfrwt beam="1">  1       13 0.10000000E+01 0.52795157E+02</pdfrwt>
<pdfrwt beam="2">  1       22 0.14245314E+00 0.52795157E+02</pdfrwt>
<totfact> 0.82114304E-01</totfact>
</mgrwt>
</event>
<event>
 4    1  0.2489082E+000  0.5118067E+02  0.7957747E-01  0.1439075E+00
         13   -1    0    0    0    0  0.00000000000E+00  0.00000000000E+00  0.99999944179E+02  0.99999999999E+02  0.10566000000E+00 0.  1.
         22   -1    0    0    0    0 -0.00000000000E+00 -0.00000000000E+00 -0.10310635490E+02  0.10310635490E+02  0.00000000000E+00 0.  1.
         13    1    1    2    0    0  0.12692742960E+00 -0.10929068581E+02  0.67365466699E+01  0.12839504496E+02  0.10566000000E+00 0. -1.
        996    1    1    2    0    0 -0.12692742960E+00  0.10929068581E+02  0.82952762019E+02  0.97471130994E+02  0.50000000000E+02 0.  0.
<mgrwt>
<rscale>  0 0.51180667E+02</rscale>
<asrwt>0</asrwt>
<pdfrwt beam="1">  1       13 0.10000000E+01 0.51180667E+02</pdfrwt>
<pdfrwt beam="2">  1       22 0.10310661E+00 0.51180667E+02</pdfrwt>
<totfact> 0.13457875E+00</totfact>
</mgrwt>
</event>
<event>
 4    1  0.2489082E+000  0.5420904E+02  0.7957747E-01  0.1423877E+00
         13   -1    0    0    0    0  0.00000000000E+00  0.00000000000E+00  0.99999944185E+02  0.10000000001E+03  0.10566000000E+00 0. -1.
         22   -1    0    0    0    0 -0.00000000000E+00 -0.00000000000E+00 -0.24789142762E+02  0.24789142762E+02  0.00000000000E+00 0.  1.
         13    1    1    2    0    0 -0.39815537338E+01  0.20561293718E+02 -0.10458332233E+02  0.23409558872E+02  0.10566000000E+00 0.  1.
        996    1    1    2    0    0  0.39815537338E+01 -0.20561293718E+02  0.85669133655E+02  0.10137958390E+03  0.50000000000E+02 0.  0.
<mgrwt>
<rscale>  0 0.54209036E+02</rscale>
<asrwt>0</asrwt>
<pdfrwt beam="1">  1       13 0.10000000E+01 0.54209036E+02</pdfrwt>
<pdfrwt beam="2">  1       22 0.24789164E+00 0.54209036E+02</pdfrwt>
<totfact> 0.30076987E-01</totfact>
</mgrwt>
</event>
<event>
 4    1  0.2489082E+000  0.5165361E+02  0.7957747E-01  0.1436621E+00
         13   -1    0    0    0    0  0.00000000000E+00  0.00000000000E+00  0.99999944177E+02  0.99999999998E+02  0.10566000000E+00 0.  1.
         22   -1    0    0    0    0 -0.00000000000E+00 -0.00000000000E+00 -0.27356900504E+02  0.27356900504E+02  0.00000000000E+00 0. -1.
         13    1    1    2    0    0  0.71994394572E+01 -0.10782567575E+02 -0.18502055027E+02  0.22592762032E+02  0.10566000000E+00 0. -1.
        996    1    1    2    0    0 -0.71994394572E+01  0.10782567575E+02  0.91145098700E+02  0.10476413847E+03  0.50000000000E+02 0.  0.
<mgrwt>
<rscale>  0 0.51653613E+02</rscale>
<asrwt>0</asrwt>
<pdfrwt beam="1">  1       13 0.10000000E+01 0.51653613E+02</pdfrwt>
<pdfrwt beam="2">  1       22 0.27356921E+00 0.51653613E+02</pdfrwt>
<totfact> 0.24688503E-01</totfact>
</mgrwt>
</event>
<event>
 4    1  0.2489082E+000  0.5705475E+02  0.7957747E-01  0.1410624E+00
         13   -1    0    0    0    0  0.00000000000E+00  0.00000000000E+00  0.99999944177E+02  0.99999999997E+02  0.10566000000E+00 0. -1.
         22   -1    0    0    0    0 -0.00000000000E+00 -0.00000000000E+00 -0.39527439407E+02  0.39527439407E+02  0.00000000000E+00 0.  1.
         13    1    1    2    0    0 -0.16143308365E+02  0.22240464990E+02 -0.24740350544E+02  0.36977571540E+02  0.10566000000E+00 0.  1.
        996    1    1    2    0    0  0.16143308365E+02 -0.22240464990E+02  0.85212855314E+02  0.10254986786E+03  0.50000000000E+02 0.  0.
<mgrwt>
<rscale>  0 0.57054752E+02</rscale>
<asrwt>0</asrwt>
<pdfrwt beam="1">  1       13 0.10000000E+01 0.57054752E+02</pdfrwt>
<pdfrwt beam="2">  1       22 0.39527456E+00 0.57054752E+02</pdfrwt>
<totfact> 0.12697128E-01</totfact>
</mgrwt>
</event>
<event>
 4    1  0.2489082E+000  0.5366946E+02  0.7957747E-01  0.1426498E+00
         13   -1    0    0    0    0  0.00000000000E+00  0.00000000000E+00  0.99999944182E+02  0.10000000000E+03  0.10566000000E+00 0.  1.
         22   -1    0    0    0    0 -0.00000000000E+00 -0.00000000000E+00 -0.13628452915E+02  0.13628452915E+02  0.00000000000E+00 0. -1.
         13    1    1    2    0    0  0.15917909440E+02  0.11270793100E+02  0.30098536202E+02  0.35865633462E+02  0.10566000000E+00 0. -1.
        996    1    1    2    0    0 -0.15917909440E+02 -0.11270793100E+02  0.56272955065E+02  0.77762819456E+02  0.50000000000E+02 0.  0.
<mgrwt>
<rscale>  0 0.53669457E+02</rscale>
<asrwt>0</asrwt>
<pdfrwt beam="1">  1       13 0.10000000E+01 0.53669457E+02</pdfrwt>
<pdfrwt beam="2">  1       22 0.13628477E+00 0.53669457E+02</pdfrwt>
<totfact> 0.88372514E-01</totfact>
</mgrwt>
</event>
<event>
 4    1  0.2489082E+000  0.5792297E+02  0.7957747E-01  0.1406761E+00
         13   -1    0    0    0    0  0.00000000000E+00  0.00000000000E+00  0.99999944189E+02  0.10000000001E+03  0.10566000000E+00 0.  1.
         22   -1    0    0    0    0 -0.00000000000E+00 -0.00000000000E+00 -0.19127670526E+02  0.19127670526E+02  0.00000000000E+00 0.  1.
         13    1    1    2    0    0  0.17338517314E+02 -0.23546686673E+02  0.22523358067E+02  0.36910478981E+02  0.10566000000E+00 0. -1.
        996    1    1    2    0    0 -0.17338517314E+02  0.23546686673E+02  0.58348915596E+02  0.82217191555E+02  0.50000000000E+02 0.  0.
<mgrwt>
<rscale>  0 0.57922972E+02</rscale>
<asrwt>0</asrwt>
<pdfrwt beam="1">  1       13 0.10000000E+01 0.57922972E+02</pdfrwt>
<pdfrwt beam="2">  1       22 0.19127693E+00 0.57922972E+02</pdfrwt>
<totfact> 0.49712448E-01</totfact>
</mgrwt>
</event>
<event>
 4    1  0.2489082E+000  0.5135439E+02  0.7957747E-01  0.1438170E+00
         13   -1    0    0    0    0  0.00000000000E+00  0.00000000000E+00  0.99999944181E+02  0.10000000000E+03  0.10566000000E+00 0. -1.
         22   -1    0    0    0    0 -0.00000000000E+00 -0.00000000000E+00 -0.27480214207E+02  0.27480214207E+02  0.00000000000E+00 0.  1.
         13    1    1    2    0    0 -0.12029462944E+01  0.11654453826E+02 -0.19124376365E+02  0.22428248018E+02  0.10566000000E+00 0.  1.
        996    1    1    2    0    0  0.12029462944E+01 -0.11654453826E+02  0.91644106339E+02  0.10505196619E+03  0.50000000000E+02 0.  0.
<mgrwt>
<rscale>  0 0.51354390E+02</rscale>
<asrwt>0</asrwt>
<pdfrwt beam="1">  1       13 0.10000000E+01 0.51354390E+02</pdfrwt>
<pdfrwt beam="2">  1       22 0.27480234E+00 0.51354390E+02</pdfrwt>
<totfact> 0.24462482E-01</totfact>
</mgrwt>
</event>
<event>
 4    1  0.2489082E+000  0.5174132E+02  0.7957747E-01  0.1436169E+00
         13   -1    0    0    0    0  0.00000000000E+00  0.00000000000E+00  0.99999944180E+02  0.10000000000E+03  0.10566000000E+00 0. -1.
         22   -1    0    0    0    0 -0.00000000000E+00 -0.00000000000E+00 -0.10657191985E+02  0.10657191985E+02  0.00000000000E+00 0. -1.
         13    1    1    2    0    0  0.11477863667E+02 -0.67396740951E+01  0.22295094485E+02  0.25966265873E+02  0.10566000000E+00 0.  1.
        996    1    1    2    0    0 -0.11477863667E+02  0.67396740951E+01  0.67047657710E+02  0.84690926112E+02  0.50000000000E+02 0.  0.
<mgrwt>
<rscale>  0 0.51741324E+02</rscale>
<asrwt>0</asrwt>
<pdfrwt beam="1">  1       13 0.10000000E+01 0.51741324E+02</pdfrwt>
<pdfrwt beam="2">  1       22 0.10657217E+00 0.51741324E+02</pdfrwt>
<totfact> 0.12837901E+00</totfact>
</mgrwt>
</event>
<event>
 4    1  0.2489082E+000  0.5316762E+02  0.7957747E-01  0.1428969E+00
         13   -1    0    0    0    0  0.00000000000E+00  0.00000000000E+00  0.99999944184E+02  0.10000000000E+03  0.10566000000E+00 0. -1.
         22   -1    0    0    0    0 -0.00000000000E+00 -0.00000000000E+00 -0.12689752714E+02  0.12689752714E+02  0.00000000000E+00 0. -1.
         13    1    1    2    0    0  0.15284895807E+02 -0.96523326043E+01  0.22124963215E+02  0.28571326988E+02  0.10566000000E+00 0.  1.
        996    1    1    2    0    0 -0.15284895807E+02  0.96523326043E+01  0.65185228255E+02  0.84118425730E+02  0.50000000000E+02 0.  0.
<mgrwt>
<rscale>  0 0.53167618E+02</rscale>
<asrwt>0</asrwt>
<pdfrwt beam="1">  1       13 0.10000000E+01 0.53167618E+02</pdfrwt>
<pdfrwt beam="2">  1       22 0.12689777E+00 0.53167618E+02</pdfrwt>
<totfact> 0.98841261E-01</totfact>
</mgrwt>
</event>
<event>
 4    1  0.2489082E+000  0.5281670E+02  0.7957747E-01  0.1430715E+00
         13   -1    0    0    0    0  0.00000000000E+00  0.00000000000E+00  0.99999944179E+02  0.99999999999E+02  0.10566000000E+00 0.  1.
         22   -1    0    0    0    0 -0.00000000000E+00 -0.00000000000E+00 -0.16264219543E+02  0.16264219543E+02  0.00000000000E+00 0. -1.
         13    1    1    2    0    0  0.12932036939E+02  0.11061939640E+02 -0.28637191906E+00  0.17020495319E+02  0.10566000000E+00 0. -1.
        996    1    1    2    0    0 -0.12932036939E+02 -0.11061939640E+02  0.84022096555E+02  0.99243724223E+02  0.50000000000E+02 0.  0.
<mgrwt>
<rscale>  0 0.52816703E+02</rscale>
<asrwt>0</asrwt>
<pdfrwt beam="1">  1       13 0.10000000E+01 0.52816703E+02</pdfrwt>
<pdfrwt beam="2">  1       22 0.16264243E+00 0.52816703E+02</pdfrwt>
<totfact> 0.65759227E-01</totfact>
</mgrwt>
</event>
<event>
 4    1  0.2489082E+000  0.6214456E+02  0.7957747E-01  0.1389046E+00
         13   -1    0    0    0    0  0.00000000000E+00  0.00000000000E+00  0.99999944183E+02  0.10000000000E+03  0.10566000000E+00 0. -1.
         22   -1    0    0    0    0 -0.00000000000E+00 -0.00000000000E+00 -0.28350517776E+02  0.28350517776E+02  0.00000000000E+00 0. -1.
         13    1    1    2    0    0 -0.29812933179E+02 -0.21751682844E+02  0.50304364862E+01  0.37245981617E+02  0.10566000000E+00 0.  1.
        996    1    1    2    0    0  0.29812933179E+02  0.21751682844E+02  0.66618989921E+02  0.91104536163E+02  0.50000000000E+02 0.  0.
<mgrwt>
<rscale>  0 0.62144563E+02</rscale>
<asrwt>0</asrwt>
<pdfrwt beam="1">  1       13 0.10000000E+01 0.62144563E+02</pdfrwt>
<pdfrwt beam="2">  1       22 0.28350538E+00 0.62144563E+02</pdfrwt>
<totfact> 0.23350853E-01</totfact>
</mgrwt>
</event>
<event>
 4    1  0.2489082E+000  0.5151395E+02  0.7957747E-01  0.1437343E+00
         13   -1    0    0    0    0  0.00000000000E+00  0.00000000000E+00  0.99999944175E+02  0.99999999995E+02  0.10566000000E+00 0. -1.
         22   -1    0    0    0    0 -0.00000000000E+00 -0.00000000000E+00 -0.11043662955E+02  0.11043662955E+02  0.00000000000E+00 0. -1.
         13    1    1    2    0    0 -0.11436592904E+02 -0.47844632345E+01  0.69858700055E+01  0.14230259641E+02  0.10566000000E+00 0.  1.
        996    1    1    2    0    0  0.11436592904E+02  0.47844632345E+01  0.81970411214E+02  0.96813403309E+02  0.50000000000E+02 0.  0.
<mgrwt>
<rscale>  0 0.51513947E+02</rscale>
<asrwt>0</asrwt>
<pdfrwt beam="1">  1       13 0.10000000E+01 0.51513947E+02</pdfrwt>
<pdfrwt beam="2">  1       22 0.11043688E+00 0.51513947E+02</pdfrwt>
<totfact> 0.12171439E+00</totfact>
</mgrwt>
</event>
<event>
 4    1  0.2489082E+000  0.5427805E+02  0.7957747E-01  0.1423544E+00
         13   -1    0    0    0    0  0.00000000000E+00  0.00000000000E+00  0.99999944178E+02  0.99999999998E+02  0.10566000000E+00 0. -1.
         22   -1    0    0    0    0 -0.00000000000E+00 -0.00000000000E+00 -0.19843458675E+02  0.19843458675E+02  0.00000000000E+00 0.  1.
         13    1    1    2    0    0  0.16678961788E+02  0.12958362417E+02 -0.21717703800E+01  0.21232867764E+02  0.10566000000E+00 0.  1.
        996    1    1    2    0    0 -0.16678961788E+02 -0.12958362417E+02  0.82328255883E+02  0.98610590910E+02  0.50000000000E+02 0.  0.
<mgrwt>
<rscale>  0 0.54278052E+02</rscale>
<asrwt>0</asrwt>
<pdfrwt beam="1">  1       13 0.10000000E+01 0.54278052E+02</pdfrwt>
<pdfrwt beam="2">  1       22 0.19843481E+00 0.54278052E+02</pdfrwt>
<totfact> 0.46160850E-01</totfact>
</mgrwt>
</event>
<event>
 4    1  0.2489082E+000  0.5184797E+02  0.7957747E-01  0.1435622E+00
         13   -1    0    0    0    0  0.00000000000E+00  0.00000000000E+00  0.99999944174E+02  0.99999999995E+02  0.10566000000E+00 0.  1.
         22   -1    0    0    0    0 -0.00000000000E+00 -0.00000000000E+00 -0.14329631720E+02  0.14329631720E+02  0.00000000000E+00 0. -1.
         13    1    1    2    0    0 -0.10512152567E+02 -0.88151367139E+01 -0.53912591285E+00  0.13730033054E+02  0.10566000000E+00 0. -1.
        996    1    1    2    0    0  0.10512152567E+02  0.88151367139E+01  0.86209438368E+02  0.10059959866E+03  0.50000000000E+02 0.  0.
<mgrwt>
<rscale>  0 0.51847970E+02</rscale>
<asrwt>0</asrwt>
<pdfrwt beam="1">  1       13 0.10000000E+01 0.51847970E+02</pdfrwt>
<pdfrwt beam="2">  1       22 0.14329656E+00 0.51847970E+02</pdfrwt>
<totfact> 0.81166759E-01</totfact>
</mgrwt>
</event>
<event>
 4    1  0.2489082E+000  0.5238567E+02  0.7957747E-01  0.1432883E+00
         13   -1    0    0    0    0  0.00000000000E+00  0.00000000000E+00  0.99999944179E+02  0.99999999999E+02  0.10566000000E+00 0.  1.
         22   -1    0    0    0    0 -0.00000000000E+00 -0.00000000000E+00 -0.16352428483E+02  0.16352428483E+02  0.00000000000E+00 0.  1.
         13    1    1    2    0    0 -0.86646362804E+01 -0.13007033141E+02 -0.22005564526E+01  0.15783296415E+02  0.10566000000E+00 0. -1.
        996    1    1    2    0    0  0.86646362804E+01  0.13007033141E+02  0.85848072149E+02  0.10056913207E+03  0.50000000000E+02 0.  0.
<mgrwt>
<rscale>  0 0.52385674E+02</rscale>
<asrwt>0</asrwt>
<pdfrwt beam="1">  1       13 0.10000000E+01 0.52385674E+02</pdfrwt>
<pdfrwt beam="2">  1       22 0.16352452E+00 0.52385674E+02</pdfrwt>
<totfact> 0.65094389E-01</totfact>
</mgrwt>
</event>
<event>
 4    1  0.2489082E+000  0.5862616E+02  0.7957747E-01  0.1403689E+00
         13   -1    0    0    0    0  0.00000000000E+00  0.00000000000E+00  0.99999944177E+02  0.99999999997E+02  0.10566000000E+00 0.  1.
         22   -1    0    0    0    0 -0.00000000000E+00 -0.00000000000E+00 -0.20942665057E+02  0.20942665057E+02  0.00000000000E+00 0. -1.
         13    1    1    2    0    0  0.26043561292E+02 -0.16085989389E+02  0.14937220356E+02  0.34061090050E+02  0.10566000000E+00 0. -1.
        996    1    1    2    0    0 -0.26043561292E+02  0.16085989389E+02  0.64120058763E+02  0.86881575004E+02  0.50000000000E+02 0.  0.
<mgrwt>
<rscale>  0 0.58626156E+02</rscale>
<asrwt>0</asrwt>
<pdfrwt beam="1">  1       13 0.10000000E+01 0.58626156E+02</pdfrwt>
<pdfrwt beam="2">  1       22 0.20942687E+00 0.58626156E+02</pdfrwt>
<totfact> 0.42004045E-01</totfact>
</mgrwt>
</event>
<event>
 4    1  0.2489082E+000  0.5102165E+02  0.7957747E-01  0.1439908E+00
         13   -1    0    0    0    0  0.00000000000E+00  0.00000000000E+00  0.99999944180E+02  0.10000000000E+03  0.10566000000E+00 0. -1.
         22   -1    0    0    0    0 -0.00000000000E+00 -0.00000000000E+00 -0.10150152646E+02  0.10150152646E+02  0.00000000000E+00 0. -1.
         13    1    1    2    0    0  0.34371645158E+01 -0.95600668723E+01  0.29068913315E+02  0.30793211328E+02  0.10566000000E+00 0.  1.
        996    1    1    2    0    0 -0.34371645158E+01  0.95600668723E+01  0.60780878219E+02  0.79356941319E+02  0.50000000000E+02 0.  0.
<mgrwt>
<rscale>  0 0.51021652E+02</rscale>
<asrwt>0</asrwt>
<pdfrwt beam="1">  1       13 0.10000000E+01 0.51021652E+02</pdfrwt>
<pdfrwt beam="2">  1       22 0.10150178E+00 0.51021652E+02</pdfrwt>
<totfact> 0.13763667E+00</totfact>
</mgrwt>
</event>
<event>
 4    1  0.2489082E+000  0.5199644E+02  0.7957747E-01  0.1434861E+00
         13   -1    0    0    0    0  0.00000000000E+00  0.00000000000E+00  0.99999944185E+02  0.10000000000E+03  0.10566000000E+00 0. -1.
         22   -1    0    0    0    0 -0.00000000000E+00 -0.00000000000E+00 -0.21715600175E+02  0.21715600175E+02  0.00000000000E+00 0.  1.
         13    1    1    2    0    0  0.12953282341E+02 -0.59868717133E+01 -0.11254391356E+02  0.18174230249E+02  0.10566000000E+00 0.  1.
        996    1    1    2    0    0 -0.12953282341E+02  0.59868717133E+01  0.89538735366E+02  0.10354136993E+03  0.50000000000E+02 0.  0.
<mgrwt>
<rscale>  0 0.51996444E+02</rscale>
<asrwt>0</asrwt>
<pdfrwt beam="1">  1       13 0.10000000E+01 0.51996444E+02</pdfrwt>
<pdfrwt beam="2">  1       22 0.21715622E+00 0.51996444E+02</pdfrwt>
<totfact> 0.38777077E-01</totfact>
</mgrwt>
</event>
<event>
 4    1  0.2489082E+000  0.6001700E+02  0.7957747E-01  0.1397760E+00
         13   -1    0    0    0    0  0.00000000000E+00  0.00000000000E+00  0.99999944179E+02  0.99999999999E+02  0.10566000000E+00 0. -1.
         22   -1    0    0    0    0 -0.00000000000E+00 -0.00000000000E+00 -0.21722452826E+02  0.21722452826E+02  0.00000000000E+00 0.  1.
         13    1    1    2    0    0 -0.16414100678E+02  0.28855114678E+02  0.27670440011E+02  0.43216949899E+02  0.10566000000E+00 0.  1.
        996    1    1    2    0    0  0.16414100678E+02 -0.28855114678E+02  0.50607051342E+02  0.78505502926E+02  0.50000000000E+02 0.  0.
<mgrwt>
<rscale>  0 0.60017000E+02</rscale>
<asrwt>0</asrwt>
<pdfrwt beam="1">  1       13 0.10000000E+01 0.60017000E+02</pdfrwt>
<pdfrwt beam="2">  1       22 0.21722475E+00 0.60017000E+02</pdfrwt>
<totfact> 0.39250640E-01</totfact>
</mgrwt>
</event>
<event>
 4    1  0.2489082E+000  0.6740133E+02  0.7957747E-01  0.1369160E+00
         13   -1    0    0    0    0  0.00000000000E+00  0.00000000000E+00  0.99999944175E+02  0.99999999995E+02  0.10566000000E+00 0.  1.
         22   -1    0    0    0    0 -0.00000000000E+00 -0.00000000000E+00 -0.47784848124E+02  0.47784848124E+02  0.00000000000E+00 0. -1.
         13    1    1    2    0    0  0.61109938761E+01  0.44783875542E+02 -0.19625536754E+02  0.49275882657E+02  0.10566000000E+00 0. -1.
        996    1    1    2    0    0 -0.61109938761E+01 -0.44783875542E+02  0.71840632805E+02  0.98508965462E+02  0.50000000000E+02 0.  0.
<mgrwt>
<rscale>  0 0.67401333E+02</rscale>
<asrwt>0</asrwt>
<pdfrwt beam="1">  1       13 0.10000000E+01 0.67401333E+02</pdfrwt>
<pdfrwt beam="2">  1       22 0.47784863E+00 0.67401333E+02</pdfrwt>
<totfact> 0.83806400E-02</totfact>
</mgrwt>
</event>
<event>
 4    1  0.2489082E+000  0.5128336E+02  0.7957747E-01  0.1438540E+00
         13   -1    0    0    0    0  0.00000000000E+00  0.00000000000E+00  0.99999944180E+02  0.10000000000E+03  0.10566000000E+00 0.  1.
         22   -1    0    0    0    0 -0.00000000000E+00 -0.00000000000E+00 -0.40553321835E+02  0.40553321835E+02  0.00000000000E+00 0. -1.
         13    1    1    2    0    0  0.29547049335E+01 -0.11011472157E+02 -0.32956537602E+02  0.34873017292E+02  0.10566000000E+00 0. -1.
        996    1    1    2    0    0 -0.29547049335E+01  0.11011472157E+02  0.92403159946E+02  0.10568030454E+03  0.50000000000E+02 0.  0.
<mgrwt>
<rscale>  0 0.51283358E+02</rscale>
<asrwt>0</asrwt>
<pdfrwt beam="1">  1       13 0.10000000E+01 0.51283358E+02</pdfrwt>
<pdfrwt beam="2">  1       22 0.40553338E+00 0.51283358E+02</pdfrwt>
<totfact> 0.12039766E-01</totfact>
</mgrwt>
</event>
<event>
 4    1  0.2489082E+000  0.5196194E+02  0.7957747E-01  0.1435038E+00
         13   -1    0    0    0    0  0.00000000000E+00  0.00000000000E+00  0.99999944177E+02  0.99999999998E+02  0.10566000000E+00 0.  1.
         22   -1    0    0    0    0 -0.00000000000E+00 -0.00000000000E+00 -0.16604883732E+02  0.16604883732E+02  0.00000000000E+00 0. -1.
         13    1    1    2    0    0 -0.34550423774E+01  0.13715172237E+02 -0.42024382147E+01  0.14755165818E+02  0.10566000000E+00 0. -1.
        996    1    1    2    0    0  0.34550423774E+01 -0.13715172237E+02  0.87597498660E+02  0.10184971791E+03  0.50000000000E+02 0.  0.
<mgrwt>
<rscale>  0 0.51961941E+02</rscale>
<asrwt>0</asrwt>
<pdfrwt beam="1">  1       13 0.10000000E+01 0.51961941E+02</pdfrwt>
<pdfrwt beam="2">  1       22 0.16604907E+00 0.51961941E+02</pdfrwt>
<totfact> 0.63338892E-01</totfact>
</mgrwt>
</event>
<event>
 4    1  0.2489082E+000  0.5224522E+02  0.7957747E-01  0.1433594E+00
         13   -1    0    0    0    0  0.00000000000E+00  0.00000000000E+00  0.99999944182E+02  0.10000000000E+03  0.10566000000E+00 0.  1.
         22   -1    0    0    0    0 -0.00000000000E+00 -0.00000000000E+00 -0.16443705366E+02  0.16443705366E+02  0.00000000000E+00 0. -1.
         13    1    1    2    0    0  0.15033356507E+02  0.18871447147E+01 -0.29008680472E+01  0.15426902557E+02  0.10566000000E+00 0. -1.
        996    1    1    2    0    0 -0.15033356507E+02 -0.18871447147E+01  0.86457106864E+02  0.10101680281E+03  0.50000000000E+02 0.  0.
<mgrwt>
<rscale>  0 0.52245221E+02</rscale>
<asrwt>0</asrwt>
<pdfrwt beam="1">  1       13 0.10000000E+01 0.52245221E+02</pdfrwt>
<pdfrwt beam="2">  1       22 0.16443729E+00 0.52245221E+02</pdfrwt>
<totfact> 0.64453918E-01</totfact>
</mgrwt>
</event>
<event>
 4    1  0.2489082E+000  0.5106988E+02  0.7957747E-01  0.1439655E+00
         13   -1    0    0    0    0  0.00000000000E+00  0.00000000000E+00  0.99999944182E+02  0.10000000000E+03  0.10566000000E+00 0.  1.
         22   -1    0    0    0    0 -0.00000000000E+00 -0.00000000000E+00 -0.15786782187E+02  0.15786782187E+02  0.00000000000E+00 0.  1.
         13    1    1    2    0    0  0.10396606973E+02 -0.20871129757E+00 -0.60839375043E+01  0.12048172332E+02  0.10566000000E+00 0. -1.
        996    1    1    2    0    0 -0.10396606973E+02  0.20871129757E+00  0.90297099500E+02  0.10373860986E+03  0.50000000000E+02 0.  0.
<mgrwt>
<rscale>  0 0.51069883E+02</rscale>
<asrwt>0</asrwt>
<pdfrwt beam="1">  1       13 0.10000000E+01 0.51069883E+02</pdfrwt>
<pdfrwt beam="2">  1       22 0.15786806E+00 0.51069883E+02</pdfrwt>
<totfact> 0.68957399E-01</totfact>
</mgrwt>
</event>
<event>
 4    1  0.2489082E+000  0.5115853E+02  0.7957747E-01  0.1439191E+00
         13   -1    0    0    0    0  0.00000000000E+00  0.00000000000E+00  0.99999944181E+02  0.10000000000E+03  0.10566000000E+00 0. -1.
         22   -1    0    0    0    0 -0.00000000000E+00 -0.00000000000E+00 -0.10072896136E+02  0.10072896136E+02  0.00000000000E+00 0. -1.
         13    1    1    2    0    0 -0.57473195880E+01 -0.91740784700E+01  0.79078166847E+01  0.13406719471E+02  0.10566000000E+00 0.  1.
        996    1    1    2    0    0  0.57473195880E+01  0.91740784700E+01  0.82019231361E+02  0.96666176666E+02  0.50000000000E+02 0.  0.
<mgrwt>
<rscale>  0 0.51158532E+02</rscale>
<asrwt>0</asrwt>
<pdfrwt beam="1">  1       13 0.10000000E+01 0.51158532E+02</pdfrwt>
<pdfrwt beam="2">  1       22 0.10072921E+00 0.51158532E+02</pdfrwt>
<totfact> 0.13921860E+00</totfact>
</mgrwt>
</event>
<event>
 4    1  0.2489082E+000  0.5122913E+02  0.7957747E-01  0.1438822E+00
         13   -1    0    0    0    0  0.00000000000E+00  0.00000000000E+00  0.99999944184E+02  0.10000000000E+03  0.10566000000E+00 0.  1.
         22   -1    0    0    0    0 -0.00000000000E+00 -0.00000000000E+00 -0.12076345228E+02  0.12076345228E+02  0.00000000000E+00 0.  1.
         13    1    1    2    0    0  0.87893099396E+01  0.68681988034E+01  0.10260757056E+01  0.11202147982E+02  0.10566000000E+00 0. -1.
        996    1    1    2    0    0 -0.87893099396E+01 -0.68681988034E+01  0.86897523250E+02  0.10087419725E+03  0.50000000000E+02 0.  0.
<mgrwt>
<rscale>  0 0.51229134E+02</rscale>
<asrwt>0</asrwt>
<pdfrwt beam="1">  1       13 0.10000000E+01 0.51229134E+02</pdfrwt>
<pdfrwt beam="2">  1       22 0.12076370E+00 0.51229134E+02</pdfrwt>
<totfact> 0.10626940E+00</totfact>
</mgrwt>
</event>
<event>
 4    1  0.2489082E+000  0.5119584E+02  0.7957747E-01  0.1438996E+00
         13   -1    0    0    0    0  0.00000000000E+00  0.00000000000E+00  0.99999944179E+02  0.99999999999E+02  0.10566000000E+00 0.  1.
         22   -1    0    0    0    0 -0.00000000000E+00 -0.00000000000E+00 -0.29416242713E+02  0.29416242713E+02  0.00000000000E+00 0. -1.
         13    1    1    2    0    0  0.67150948884E+01  0.87133232902E+01 -0.21447049929E+02  0.24103975125E+02  0.10566000000E+00 0. -1.
        996    1    1    2    0    0 -0.67150948884E+01 -0.87133232902E+01  0.92030751395E+02  0.10531226759E+03  0.50000000000E+02 0.  0.
<mgrwt>
<rscale>  0 0.51195845E+02</rscale>
<asrwt>0</asrwt>
<pdfrwt beam="1">  1       13 0.10000000E+01 0.51195845E+02</pdfrwt>
<pdfrwt beam="2">  1       22 0.29416262E+00 0.51195845E+02</pdfrwt>
<totfact> 0.21459158E-01</totfact>
</mgrwt>
</event>
<event>
 4    1  0.2489082E+000  0.5202513E+02  0.7957747E-01  0.1434715E+00
         13   -1    0    0    0    0  0.00000000000E+00  0.00000000000E+00  0.99999944177E+02  0.99999999997E+02  0.10566000000E+00 0. -1.
         22   -1    0    0    0    0 -0.00000000000E+00 -0.00000000000E+00 -0.17689354992E+02  0.17689354992E+02  0.00000000000E+00 0. -1.
         13    1    1    2    0    0  0.12340928563E+02 -0.73699168524E+01 -0.56907570246E+01  0.15459950574E+02  0.10566000000E+00 0.  1.
        996    1    1    2    0    0 -0.12340928563E+02  0.73699168524E+01  0.88001346210E+02  0.10222940441E+03  0.50000000000E+02 0.  0.
<mgrwt>
<rscale>  0 0.52025130E+02</rscale>
<asrwt>0</asrwt>
<pdfrwt beam="1">  1       13 0.10000000E+01 0.52025130E+02</pdfrwt>
<pdfrwt beam="2">  1       22 0.17689378E+00 0.52025130E+02</pdfrwt>
<totfact> 0.56678819E-01</totfact>
</mgrwt>
</event>
<event>
 4    1  0.2489082E+000  0.5120075E+02  0.7957747E-01  0.1438971E+00
         13   -1    0    0    0    0  0.00000000000E+00  0.00000000000E+00  0.99999944181E+02  0.10000000000E+03  0.10566000000E+00 0. -1.
         22   -1    0    0    0    0 -0.00000000000E+00 -0.00000000000E+00 -0.64679560561E+02  0.64679560561E+02  0.00000000000E+00 0.  1.
         13    1    1    2    0    0  0.81468746975E+01 -0.74259520802E+01 -0.57568337359E+02  0.58614340924E+02  0.10566000000E+00 0.  1.
        996    1    1    2    0    0 -0.81468746975E+01  0.74259520802E+01  0.92888720980E+02  0.10606521964E+03  0.50000000000E+02 0.  0.
<mgrwt>
<rscale>  0 0.51200745E+02</rscale>
<asrwt>0</asrwt>
<pdfrwt beam="1">  1       13 0.10000000E+01 0.51200745E+02</pdfrwt>
<pdfrwt beam="2">  1       22 0.64679570E+00 0.51200745E+02</pdfrwt>
<totfact> 0.85601277E-02</totfact>
</mgrwt>
</event>
<event>
 4    1  0.2489082E+000  0.5189231E+02  0.7957747E-01  0.1435394E+00
         13   -1    0    0    0    0  0.00000000000E+00  0.00000000000E+00  0.99999944173E+02  0.99999999993E+02  0.10566000000E+00 0.  1.
         22   -1    0    0    0    0 -0.00000000000E+00 -0.00000000000E+00 -0.17482819802E+02  0.17482819802E+02  0.00000000000E+00 0. -1.
         13    1    1    2    0    0  0.29278237666E+01 -0.13573479415E+02 -0.58001087408E+01  0.15048718247E+02  0.10566000000E+00 0. -1.
        996    1    1    2    0    0 -0.29278237666E+01  0.13573479415E+02  0.88317233112E+02  0.10243410155E+03  0.50000000000E+02 0.  0.
<mgrwt>
<rscale>  0 0.51892307E+02</rscale>
<asrwt>0</asrwt>
<pdfrwt beam="1">  1       13 0.10000000E+01 0.51892307E+02</pdfrwt>
<pdfrwt beam="2">  1       22 0.17482843E+00 0.51892307E+02</pdfrwt>
<totfact> 0.57858954E-01</totfact>
</mgrwt>
</event>
<event>
 4    1  0.2489082E+000  0.5355024E+02  0.7957747E-01  0.1427082E+00
         13   -1    0    0    0    0  0.00000000000E+00  0.00000000000E+00  0.99999944177E+02  0.99999999997E+02  0.10566000000E+00 0.  1.
         22   -1    0    0    0    0 -0.00000000000E+00 -0.00000000000E+00 -0.19354373645E+02  0.19354373645E+02  0.00000000000E+00 0. -1.
         13    1    1    2    0    0  0.14857456377E+02  0.12119586381E+02 -0.36202567272E+01  0.19512708854E+02  0.10566000000E+00 0. -1.
        996    1    1    2    0    0 -0.14857456377E+02 -0.12119586381E+02  0.84265827259E+02  0.99841664788E+02  0.50000000000E+02 0.  0.
<mgrwt>
<rscale>  0 0.53550242E+02</rscale>
<asrwt>0</asrwt>
<pdfrwt beam="1">  1       13 0.10000000E+01 0.53550242E+02</pdfrwt>
<pdfrwt beam="2">  1       22 0.19354396E+00 0.53550242E+02</pdfrwt>
<totfact> 0.48284917E-01</totfact>
</mgrwt>
</event>
<event>
 4    1  0.2489082E+000  0.5396872E+02  0.7957747E-01  0.1425040E+00
         13   -1    0    0    0    0  0.00000000000E+00  0.00000000000E+00  0.99999944171E+02  0.99999999991E+02  0.10566000000E+00 0.  1.
         22   -1    0    0    0    0 -0.00000000000E+00 -0.00000000000E+00 -0.14527003729E+02  0.14527003729E+02  0.00000000000E+00 0.  1.
         13    1    1    2    0    0 -0.15684575189E+02 -0.12908034437E+02  0.12812915226E+02  0.24016769402E+02  0.10566000000E+00 0. -1.
        996    1    1    2    0    0  0.15684575189E+02  0.12908034437E+02  0.72660025216E+02  0.90510234318E+02  0.50000000000E+02 0.  0.
<mgrwt>
<rscale>  0 0.53968725E+02</rscale>
<asrwt>0</asrwt>
<pdfrwt beam="1">  1       13 0.10000000E+01 0.53968725E+02</pdfrwt>
<pdfrwt beam="2">  1       22 0.14527028E+00 0.53968725E+02</pdfrwt>
<totfact> 0.79709431E-01</totfact>
</mgrwt>
</event>
<event>
 4    1  0.2489082E+000  0.5160905E+02  0.7957747E-01  0.1436851E+00
         13   -1    0    0    0    0  0.00000000000E+00  0.00000000000E+00  0.99999944176E+02  0.99999999996E+02  0.10566000000E+00 0.  1.
         22   -1    0    0    0    0 -0.00000000000E+00 -0.00000000000E+00 -0.14623548969E+02  0.14623548969E+02  0.00000000000E+00 0. -1.
         13    1    1    2    0    0  0.11463685652E+02 -0.56637155745E+01 -0.21969149762E+01  0.12974257678E+02  0.10566000000E+00 0. -1.
        996    1    1    2    0    0 -0.11463685652E+02  0.56637155745E+01  0.87573310183E+02  0.10164929129E+03  0.50000000000E+02 0.  0.
<mgrwt>
<rscale>  0 0.51609047E+02</rscale>
<asrwt>0</asrwt>
<pdfrwt beam="1">  1       13 0.10000000E+01 0.51609047E+02</pdfrwt>
<pdfrwt beam="2">  1       22 0.14623573E+00 0.51609047E+02</pdfrwt>
<totfact> 0.78466942E-01</totfact>
</mgrwt>
</event>
<event>
 4    1  0.2489082E+000  0.5753941E+02  0.7957747E-01  0.1408458E+00
         13   -1    0    0    0    0  0.00000000000E+00  0.00000000000E+00  0.99999944176E+02  0.99999999996E+02  0.10566000000E+00 0.  1.
         22   -1    0    0    0    0 -0.00000000000E+00 -0.00000000000E+00 -0.26665839399E+02  0.26665839399E+02  0.00000000000E+00 0.  1.
         13    1    1    2    0    0  0.29347942905E+01  0.28322612938E+02 -0.55659855159E+01  0.29013355200E+02  0.10566000000E+00 0. -1.
        996    1    1    2    0    0 -0.29347942905E+01 -0.28322612938E+02  0.78900090293E+02  0.97652484195E+02  0.50000000000E+02 0.  0.
<mgrwt>
<rscale>  0 0.57539408E+02</rscale>
<asrwt>0</asrwt>
<pdfrwt beam="1">  1       13 0.10000000E+01 0.57539408E+02</pdfrwt>
<pdfrwt beam="2">  1       22 0.26665860E+00 0.57539408E+02</pdfrwt>
<totfact> 0.26171677E-01</totfact>
</mgrwt>
</event>
<event>
 4    1  0.2489082E+000  0.5223180E+02  0.7957747E-01  0.1433663E+00
         13   -1    0    0    0    0  0.00000000000E+00  0.00000000000E+00  0.99999944179E+02  0.99999999999E+02  0.10566000000E+00 0.  1.
         22   -1    0    0    0    0 -0.00000000000E+00 -0.00000000000E+00 -0.16677546272E+02  0.16677546272E+02  0.00000000000E+00 0.  1.
         13    1    1    2    0    0  0.15088377210E+02 -0.70837872119E+00  0.55457283355E+02  0.57477668432E+02  0.10566000000E+00 0. -1.
        996    1    1    2    0    0 -0.15088377210E+02  0.70837872119E+00  0.27865114552E+02  0.59199877840E+02  0.50000000000E+02 0.  0.
<mgrwt>
<rscale>  0 0.52231800E+02</rscale>
<asrwt>0</asrwt>
<pdfrwt beam="1">  1       13 0.10000000E+01 0.52231800E+02</pdfrwt>
<pdfrwt beam="2">  1       22 0.16677570E+00 0.52231800E+02</pdfrwt>
<totfact> 0.62893398E-01</totfact>
</mgrwt>
</event>
<event>
 4    1  0.2489082E+000  0.5576766E+02  0.7957747E-01  0.1416503E+00
         13   -1    0    0    0    0  0.00000000000E+00  0.00000000000E+00  0.99999944182E+02  0.10000000000E+03  0.10566000000E+00 0.  1.
         22   -1    0    0    0    0 -0.00000000000E+00 -0.00000000000E+00 -0.16240278008E+02  0.16240278008E+02  0.00000000000E+00 0. -1.
         13    1    1    2    0    0 -0.77332158572E+01  0.23456971434E+02  0.22696997206E+02  0.33543955977E+02  0.10566000000E+00 0. -1.
        996    1    1    2    0    0  0.77332158572E+01 -0.23456971434E+02  0.61062668969E+02  0.82696322034E+02  0.50000000000E+02 0.  0.
<mgrwt>
<rscale>  0 0.55767662E+02</rscale>
<asrwt>0</asrwt>
<pdfrwt beam="1">  1       13 0.10000000E+01 0.55767662E+02</pdfrwt>
<pdfrwt beam="2">  1       22 0.16240301E+00 0.55767662E+02</pdfrwt>
<totfact> 0.66294109E-01</totfact>
</mgrwt>
</event>
<event>
 4    1  0.2489082E+000  0.5163517E+02  0.7957747E-01  0.1436716E+00
         13   -1    0    0    0    0  0.00000000000E+00  0.00000000000E+00  0.99999944183E+02  0.10000000000E+03  0.10566000000E+00 0.  1.
         22   -1    0    0    0    0 -0.00000000000E+00 -0.00000000000E+00 -0.11502230055E+02  0.11502230055E+02  0.00000000000E+00 0. -1.
         13    1    1    2    0    0 -0.73032615457E+01 -0.10623213014E+02  0.60994808298E+01  0.14262016491E+02  0.10566000000E+00 0. -1.
        996    1    1    2    0    0  0.73032615457E+01  0.10623213014E+02  0.82398233298E+02  0.97240213567E+02  0.50000000000E+02 0.  0.
<mgrwt>
<rscale>  0 0.51635165E+02</rscale>
<asrwt>0</asrwt>
<pdfrwt beam="1">  1       13 0.10000000E+01 0.51635165E+02</pdfrwt>
<pdfrwt beam="2">  1       22 0.11502255E+00 0.51635165E+02</pdfrwt>
<totfact> 0.11454701E+00</totfact>
</mgrwt>
</event>
<event>
 4    1  0.2489082E+000  0.5203808E+02  0.7957747E-01  0.1434649E+00
         13   -1    0    0    0    0  0.00000000000E+00  0.00000000000E+00  0.99999944181E+02  0.10000000000E+03  0.10566000000E+00 0.  1.
         22   -1    0    0    0    0 -0.00000000000E+00 -0.00000000000E+00 -0.38241622026E+02  0.38241622026E+02  0.00000000000E+00 0. -1.
         13    1    1    2    0    0  0.96572887083E+01 -0.10709744200E+02 -0.29699525744E+02  0.33015675663E+02  0.10566000000E+00 0. -1.
        996    1    1    2    0    0 -0.96572887083E+01  0.10709744200E+02  0.91457847899E+02  0.10522594636E+03  0.50000000000E+02 0.  0.
<mgrwt>
<rscale>  0 0.52038081E+02</rscale>
<asrwt>0</asrwt>
<pdfrwt beam="1">  1       13 0.10000000E+01 0.52038081E+02</pdfrwt>
<pdfrwt beam="2">  1       22 0.38241639E+00 0.52038081E+02</pdfrwt>
<totfact> 0.13440434E-01</totfact>
</mgrwt>
</event>
<event>
 4    1  0.2489082E+000  0.5105979E+02  0.7957747E-01  0.1439708E+00
         13   -1    0    0    0    0  0.00000000000E+00  0.00000000000E+00  0.99999944167E+02  0.99999999987E+02  0.10566000000E+00 0.  1.
         22   -1    0    0    0    0 -0.00000000000E+00 -0.00000000000E+00 -0.18412134213E+02  0.18412134213E+02  0.00000000000E+00 0. -1.
         13    1    1    2    0    0 -0.73559731971E+01 -0.72795521962E+01 -0.94617952553E+01  0.14022801266E+02  0.10566000000E+00 0. -1.
        996    1    1    2    0    0  0.73559731971E+01  0.72795521962E+01  0.91049605209E+02  0.10438933293E+03  0.50000000000E+02 0.  0.
<mgrwt>
<rscale>  0 0.51059791E+02</rscale>
<asrwt>0</asrwt>
<pdfrwt beam="1">  1       13 0.10000000E+01 0.51059791E+02</pdfrwt>
<pdfrwt beam="2">  1       22 0.18412157E+00 0.51059791E+02</pdfrwt>
<totfact> 0.52652104E-01</totfact>
</mgrwt>
</event>
<event>
 4    1  0.2489082E+000  0.5510018E+02  0.7957747E-01  0.1419626E+00
         13   -1    0    0    0    0  0.00000000000E+00  0.00000000000E+00  0.99999944167E+02  0.99999999987E+02  0.10566000000E+00 0.  1.
         22   -1    0    0    0    0 -0.00000000000E+00 -0.00000000000E+00 -0.46173359707E+02  0.46173359707E+02  0.00000000000E+00 0. -1.
         13    1    1    2    0    0  0.21174158499E+02  0.93640298933E+01 -0.34809950345E+02  0.41806385290E+02  0.10566000000E+00 0. -1.
        996    1    1    2    0    0 -0.21174158499E+02 -0.93640298933E+01  0.88636534805E+02  0.10436697440E+03  0.50000000000E+02 0.  0.
<mgrwt>
<rscale>  0 0.55100182E+02</rscale>
<asrwt>0</asrwt>
<pdfrwt beam="1">  1       13 0.10000000E+01 0.55100182E+02</pdfrwt>
<pdfrwt beam="2">  1       22 0.46173375E+00 0.55100182E+02</pdfrwt>
<totfact> 0.90981294E-02</totfact>
</mgrwt>
</event>
<event>
 4    1  0.2489082E+000  0.5102919E+02  0.7957747E-01  0.1439868E+00
         13   -1    0    0    0    0  0.00000000000E+00  0.00000000000E+00  0.99999944174E+02  0.99999999994E+02  0.10566000000E+00 0. -1.
         22   -1    0    0    0    0 -0.00000000000E+00 -0.00000000000E+00 -0.38890050478E+02  0.38890050478E+02  0.00000000000E+00 0.  1.
         13    1    1    2    0    0 -0.86233175614E+01  0.54420704292E+01 -0.31523169117E+02  0.33131542245E+02  0.10566000000E+00 0.  1.
        996    1    1    2    0    0  0.86233175614E+01 -0.54420704292E+01  0.92633062813E+02  0.10575850823E+03  0.50000000000E+02 0.  0.
<mgrwt>
<rscale>  0 0.51029185E+02</rscale>
<asrwt>0</asrwt>
<pdfrwt beam="1">  1       13 0.10000000E+01 0.51029185E+02</pdfrwt>
<pdfrwt beam="2">  1       22 0.38890068E+00 0.51029185E+02</pdfrwt>
<totfact> 0.13023778E-01</totfact>
</mgrwt>
</event>
<event>
 4    1  0.2489082E+000  0.5279546E+02  0.7957747E-01  0.1430822E+00
         13   -1    0    0    0    0  0.00000000000E+00  0.00000000000E+00  0.99999944181E+02  0.10000000000E+03  0.10566000000E+00 0.  1.
         22   -1    0    0    0    0 -0.00000000000E+00 -0.00000000000E+00 -0.15629250933E+02  0.15629250933E+02  0.00000000000E+00 0.  1.
         13    1    1    2    0    0 -0.15578710995E+02 -0.66831023859E+01  0.10429714107E+01  0.16984082170E+02  0.10566000000E+00 0. -1.
        996    1    1    2    0    0  0.15578710995E+02  0.66831023859E+01  0.83327721838E+02  0.98645168764E+02  0.50000000000E+02 0.  0.
<mgrwt>
<rscale>  0 0.52795455E+02</rscale>
<asrwt>0</asrwt>
<pdfrwt beam="1">  1       13 0.10000000E+01 0.52795455E+02</pdfrwt>
<pdfrwt beam="2">  1       22 0.15629274E+00 0.52795455E+02</pdfrwt>
<totfact> 0.70384234E-01</totfact>
</mgrwt>
</event>
<event>
 4    1  0.2489082E+000  0.5102767E+02  0.7957747E-01  0.1439876E+00
         13   -1    0    0    0    0  0.00000000000E+00  0.00000000000E+00  0.99999944182E+02  0.10000000000E+03  0.10566000000E+00 0.  1.
         22   -1    0    0    0    0 -0.00000000000E+00 -0.00000000000E+00 -0.22344714621E+02  0.22344714621E+02  0.00000000000E+00 0. -1.
         13    1    1    2    0    0  0.40345095666E+01  0.93565700650E+01 -0.14075249734E+02  0.17376607550E+02  0.10566000000E+00 0. -1.
        996    1    1    2    0    0 -0.40345095666E+01 -0.93565700650E+01  0.91730479295E+02  0.10496810707E+03  0.50000000000E+02 0.  0.
<mgrwt>
<rscale>  0 0.51027666E+02</rscale>
<asrwt>0</asrwt>
<pdfrwt beam="1">  1       13 0.10000000E+01 0.51027666E+02</pdfrwt>
<pdfrwt beam="2">  1       22 0.22344736E+00 0.51027666E+02</pdfrwt>
<totfact> 0.36644109E-01</totfact>
</mgrwt>
</event>
<event>
 4    1  0.2489082E+000  0.5355532E+02  0.7957747E-01  0.1427057E+00
         13   -1    0    0    0    0  0.00000000000E+00  0.00000000000E+00  0.99999944179E+02  0.99999999999E+02  0.10566000000E+00 0. -1.
         22   -1    0    0    0    0 -0.00000000000E+00 -0.00000000000E+00 -0.18077921794E+02  0.18077921794E+02  0.00000000000E+00 0. -1.
         13    1    1    2    0    0  0.18191182805E+02 -0.61035316059E+01 -0.11682731035E+01  0.19223637949E+02  0.10566000000E+00 0.  1.
        996    1    1    2    0    0 -0.18191182805E+02  0.61035316059E+01  0.83090295489E+02  0.98854283844E+02  0.50000000000E+02 0.  0.
<mgrwt>
<rscale>  0 0.53555319E+02</rscale>
<asrwt>0</asrwt>
<pdfrwt beam="1">  1       13 0.10000000E+01 0.53555319E+02</pdfrwt>
<pdfrwt beam="2">  1       22 0.18077945E+00 0.53555319E+02</pdfrwt>
<totfact> 0.54673732E-01</totfact>
</mgrwt>
</event>
<event>
 4    1  0.2489082E+000  0.5173533E+02  0.7957747E-01  0.1436200E+00
         13   -1    0    0    0    0  0.00000000000E+00  0.00000000000E+00  0.99999944175E+02  0.99999999995E+02  0.10566000000E+00 0.  1.
         22   -1    0    0    0    0 -0.00000000000E+00 -0.00000000000E+00 -0.38081652881E+02  0.38081652881E+02  0.00000000000E+00 0. -1.
         13    1    1    2    0    0 -0.15646651800E+01  0.13194570394E+02 -0.29884153420E+02  0.32705024915E+02  0.10566000000E+00 0. -1.
        996    1    1    2    0    0  0.15646651800E+01 -0.13194570394E+02  0.91802444714E+02  0.10537662796E+03  0.50000000000E+02 0.  0.
<mgrwt>
<rscale>  0 0.51735335E+02</rscale>
<asrwt>0</asrwt>
<pdfrwt beam="1">  1       13 0.10000000E+01 0.51735335E+02</pdfrwt>
<pdfrwt beam="2">  1       22 0.38081670E+00 0.51735335E+02</pdfrwt>
<totfact> 0.13538953E-01</totfact>
</mgrwt>
</event>
<event>
 4    1  0.2489082E+000  0.5158591E+02  0.7957747E-01  0.1436971E+00
         13   -1    0    0    0    0  0.00000000000E+00  0.00000000000E+00  0.99999944176E+02  0.99999999996E+02  0.10566000000E+00 0.  1.
         22   -1    0    0    0    0 -0.00000000000E+00 -0.00000000000E+00 -0.18461455024E+02  0.18461455024E+02  0.00000000000E+00 0.  1.
         13    1    1    2    0    0  0.38000962427E+01 -0.12110538427E+02 -0.80869928767E+01  0.15050464786E+02  0.10566000000E+00 0. -1.
        996    1    1    2    0    0 -0.38000962427E+01  0.12110538427E+02  0.89625482028E+02  0.10341099023E+03  0.50000000000E+02 0.  0.
<mgrwt>
<rscale>  0 0.51585908E+02</rscale>
<asrwt>0</asrwt>
<pdfrwt beam="1">  1       13 0.10000000E+01 0.51585908E+02</pdfrwt>
<pdfrwt beam="2">  1       22 0.18461478E+00 0.51585908E+02</pdfrwt>
<totfact> 0.52450107E-01</totfact>
</mgrwt>
</event>
<event>
 4    1  0.2489082E+000  0.5099996E+02  0.7957747E-01  0.1440021E+00
         13   -1    0    0    0    0  0.00000000000E+00  0.00000000000E+00  0.99999944179E+02  0.99999999999E+02  0.10566000000E+00 0. -1.
         22   -1    0    0    0    0 -0.00000000000E+00 -0.00000000000E+00 -0.99272645732E+01  0.99272645732E+01  0.00000000000E+00 0. -1.
         13    1    1    2    0    0  0.10048715282E+02 -0.13785511330E+00  0.27033884516E+02  0.28841597718E+02  0.10566000000E+00 0.  1.
        996    1    1    2    0    0 -0.10048715282E+02  0.13785511330E+00  0.63038795089E+02  0.81085666854E+02  0.50000000000E+02 0.  0.
<mgrwt>
<rscale>  0 0.50999958E+02</rscale>
<asrwt>0</asrwt>
<pdfrwt beam="1">  1       13 0.10000000E+01 0.50999958E+02</pdfrwt>
<pdfrwt beam="2">  1       22 0.99272897E-01 0.50999958E+02</pdfrwt>
<totfact> 0.14213032E+00</totfact>
</mgrwt>
</event>
<event>
 4    1  0.2489082E+000  0.5360121E+02  0.7957747E-01  0.1426832E+00
         13   -1    0    0    0    0  0.00000000000E+00  0.00000000000E+00  0.99999944179E+02  0.99999999999E+02  0.10566000000E+00 0. -1.
         22   -1    0    0    0    0 -0.00000000000E+00 -0.00000000000E+00 -0.31883199547E+02  0.31883199547E+02  0.00000000000E+00 0.  1.
         13    1    1    2    0    0  0.18138679426E+01 -0.19230170166E+02 -0.20594820400E+02  0.28235568931E+02  0.10566000000E+00 0.  1.
        996    1    1    2    0    0 -0.18138679426E+01  0.19230170166E+02  0.88711565033E+02  0.10364763061E+03  0.50000000000E+02 0.  0.
<mgrwt>
<rscale>  0 0.53601209E+02</rscale>
<asrwt>0</asrwt>
<pdfrwt beam="1">  1       13 0.10000000E+01 0.53601209E+02</pdfrwt>
<pdfrwt beam="2">  1       22 0.31883219E+00 0.53601209E+02</pdfrwt>
<totfact> 0.18554738E-01</totfact>
</mgrwt>
</event>
<event>
 4    1  0.2489082E+000  0.5660672E+02  0.7957747E-01  0.1412650E+00
         13   -1    0    0    0    0  0.00000000000E+00  0.00000000000E+00  0.99999944178E+02  0.99999999998E+02  0.10566000000E+00 0.  1.
         22   -1    0    0    0    0 -0.00000000000E+00 -0.00000000000E+00 -0.24464696025E+02  0.24464696025E+02  0.00000000000E+00 0. -1.
         13    1    1    2    0    0 -0.21428356302E+02 -0.15657159621E+02 -0.40031802384E+01  0.26839480570E+02  0.10566000000E+00 0. -1.
        996    1    1    2    0    0  0.21428356302E+02  0.15657159621E+02  0.79538428392E+02  0.97625215453E+02  0.50000000000E+02 0.  0.
<mgrwt>
<rscale>  0 0.56606723E+02</rscale>
<asrwt>0</asrwt>
<pdfrwt beam="1">  1       13 0.10000000E+01 0.56606723E+02</pdfrwt>
<pdfrwt beam="2">  1       22 0.24464717E+00 0.56606723E+02</pdfrwt>
<totfact> 0.30977173E-01</totfact>
</mgrwt>
</event>
<event>
 4    1  0.2489082E+000  0.5348687E+02  0.7957747E-01  0.1427393E+00
         13   -1    0    0    0    0  0.00000000000E+00  0.00000000000E+00  0.99999944183E+02  0.10000000000E+03  0.10566000000E+00 0. -1.
         22   -1    0    0    0    0 -0.00000000000E+00 -0.00000000000E+00 -0.15638110979E+02  0.15638110979E+02  0.00000000000E+00 0.  1.
         13    1    1    2    0    0  0.18607335809E+02  0.38225664951E+01  0.45038040808E+01  0.19522816799E+02  0.10566000000E+00 0.  1.
        996    1    1    2    0    0 -0.18607335809E+02 -0.38225664951E+01  0.79858029123E+02  0.96115294183E+02  0.50000000000E+02 0.  0.
<mgrwt>
<rscale>  0 0.53486867E+02</rscale>
<asrwt>0</asrwt>
<pdfrwt beam="1">  1       13 0.10000000E+01 0.53486867E+02</pdfrwt>
<pdfrwt beam="2">  1       22 0.15638135E+00 0.53486867E+02</pdfrwt>
<totfact> 0.70412129E-01</totfact>
</mgrwt>
</event>
<event>
 4    1  0.2489082E+000  0.5183073E+02  0.7957747E-01  0.1435710E+00
         13   -1    0    0    0    0  0.00000000000E+00  0.00000000000E+00  0.99999944183E+02  0.10000000000E+03  0.10566000000E+00 0.  1.
         22   -1    0    0    0    0 -0.00000000000E+00 -0.00000000000E+00 -0.21578711711E+02  0.21578711711E+02  0.00000000000E+00 0.  1.
         13    1    1    2    0    0 -0.11653503738E+02  0.71147983182E+01 -0.11458591625E+02  0.17825122455E+02  0.10566000000E+00 0. -1.
        996    1    1    2    0    0  0.11653503738E+02 -0.71147983182E+01  0.89879824096E+02  0.10375358926E+03  0.50000000000E+02 0.  0.
<mgrwt>
<rscale>  0 0.51830729E+02</rscale>
<asrwt>0</asrwt>
<pdfrwt beam="1">  1       13 0.10000000E+01 0.51830729E+02</pdfrwt>
<pdfrwt beam="2">  1       22 0.21578734E+00 0.51830729E+02</pdfrwt>
<totfact> 0.39237972E-01</totfact>
</mgrwt>
</event>
<event>
 4    1  0.2489082E+000  0.5304663E+02  0.7957747E-01  0.1429569E+00
         13   -1    0    0    0    0  0.00000000000E+00  0.00000000000E+00  0.99999944182E+02  0.10000000000E+03  0.10566000000E+00 0.  1.
         22   -1    0    0    0    0 -0.00000000000E+00 -0.00000000000E+00 -0.20293403200E+02  0.20293403200E+02  0.00000000000E+00 0. -1.
         13    1    1    2    0    0 -0.84026252371E+01  0.15599399916E+02 -0.66665141055E+01  0.18931427917E+02  0.10566000000E+00 0. -1.
        996    1    1    2    0    0  0.84026252371E+01 -0.15599399916E+02  0.86373055087E+02  0.10136197529E+03  0.50000000000E+02 0.  0.
<mgrwt>
<rscale>  0 0.53046634E+02</rscale>
<asrwt>0</asrwt>
<pdfrwt beam="1">  1       13 0.10000000E+01 0.53046634E+02</pdfrwt>
<pdfrwt beam="2">  1       22 0.20293425E+00 0.53046634E+02</pdfrwt>
<totfact> 0.44171977E-01</totfact>
</mgrwt>
</event>
<event>
 4    1  0.2489082E+000  0.5341820E+02  0.7957747E-01  0.1427731E+00
         13   -1    0    0    0    0  0.00000000000E+00  0.00000000000E+00  0.99999944184E+02  0.10000000000E+03  0.10566000000E+00 0.  1.
         22   -1    0    0    0    0 -0.00000000000E+00 -0.00000000000E+00 -0.19416230431E+02  0.19416230431E+02  0.00000000000E+00 0.  1.
         13    1    1    2    0    0 -0.18029809995E+02  0.53319419039E+01 -0.41455709157E+01  0.19253586034E+02  0.10566000000E+00 0. -1.
        996    1    1    2    0    0  0.18029809995E+02 -0.53319419039E+01  0.84729284669E+02  0.10016264440E+03  0.50000000000E+02 0.  0.
<mgrwt>
<rscale>  0 0.53418196E+02</rscale>
<asrwt>0</asrwt>
<pdfrwt beam="1">  1       13 0.10000000E+01 0.53418196E+02</pdfrwt>
<pdfrwt beam="2">  1       22 0.19416253E+00 0.53418196E+02</pdfrwt>
<totfact> 0.47990150E-01</totfact>
</mgrwt>
</event>
<event>
 4    1  0.2489082E+000  0.6227201E+02  0.7957747E-01  0.1388537E+00
         13   -1    0    0    0    0  0.00000000000E+00  0.00000000000E+00  0.99999944181E+02  0.10000000000E+03  0.10566000000E+00 0.  1.
         22   -1    0    0    0    0 -0.00000000000E+00 -0.00000000000E+00 -0.42433009558E+02  0.42433009558E+02  0.00000000000E+00 0. -1.
         13    1    1    2    0    0  0.34942882688E+02  0.12521922045E+02 -0.20632839846E+02  0.42467974126E+02  0.10566000000E+00 0. -1.
        996    1    1    2    0    0 -0.34942882688E+02 -0.12521922045E+02  0.78199774469E+02  0.99965035433E+02  0.50000000000E+02 0.  0.
<mgrwt>
<rscale>  0 0.62272013E+02</rscale>
<asrwt>0</asrwt>
<pdfrwt beam="1">  1       13 0.10000000E+01 0.62272013E+02</pdfrwt>
<pdfrwt beam="2">  1       22 0.42433026E+00 0.62272013E+02</pdfrwt>
<totfact> 0.11070565E-01</totfact>
</mgrwt>
</event>
<event>
 4    1  0.2489082E+000  0.5159780E+02  0.7957747E-01  0.1436909E+00
         13   -1    0    0    0    0  0.00000000000E+00  0.00000000000E+00  0.99999944176E+02  0.99999999997E+02  0.10566000000E+00 0. -1.
         22   -1    0    0    0    0 -0.00000000000E+00 -0.00000000000E+00 -0.15321500075E+02  0.15321500075E+02  0.00000000000E+00 0.  1.
         13    1    1    2    0    0 -0.64334156232E+01  0.10997456227E+02 -0.34491055589E+01  0.13200014138E+02  0.10566000000E+00 0.  1.
        996    1    1    2    0    0  0.64334156232E+01 -0.10997456227E+02  0.88127549661E+02  0.10212148593E+03  0.50000000000E+02 0.  0.
<mgrwt>
<rscale>  0 0.51597799E+02</rscale>
<asrwt>0</asrwt>
<pdfrwt beam="1">  1       13 0.10000000E+01 0.51597799E+02</pdfrwt>
<pdfrwt beam="2">  1       22 0.15321524E+00 0.51597799E+02</pdfrwt>
<totfact> 0.72609840E-01</totfact>
</mgrwt>
</event>
<event>
 4    1  0.2489082E+000  0.5484640E+02  0.7957747E-01  0.1420827E+00
         13   -1    0    0    0    0  0.00000000000E+00  0.00000000000E+00  0.99999944176E+02  0.99999999996E+02  0.10566000000E+00 0.  1.
         22   -1    0    0    0    0 -0.00000000000E+00 -0.00000000000E+00 -0.15797647252E+02  0.15797647252E+02  0.00000000000E+00 0. -1.
         13    1    1    2    0    0 -0.15232659785E+02  0.16616076442E+02  0.13353361206E+02  0.26200216411E+02  0.10566000000E+00 0. -1.
        996    1    1    2    0    0  0.15232659785E+02 -0.16616076442E+02  0.70848935717E+02  0.89597430838E+02  0.50000000000E+02 0.  0.
<mgrwt>
<rscale>  0 0.54846403E+02</rscale>
<asrwt>0</asrwt>
<pdfrwt beam="1">  1       13 0.10000000E+01 0.54846403E+02</pdfrwt>
<pdfrwt beam="2">  1       22 0.15797671E+00 0.54846403E+02</pdfrwt>
<totfact> 0.69388849E-01</totfact>
</mgrwt>
</event>
<event>
 4    1  0.2489082E+000  0.5991298E+02  0.7957747E-01  0.1398197E+00
         13   -1    0    0    0    0  0.00000000000E+00  0.00000000000E+00  0.99999944170E+02  0.99999999990E+02  0.10566000000E+00 0. -1.
         22   -1    0    0    0    0 -0.00000000000E+00 -0.00000000000E+00 -0.72783418629E+02  0.72783418629E+02  0.00000000000E+00 0.  1.
         13    1    1    2    0    0 -0.32790742955E+02  0.37857351863E+01 -0.59110729850E+02  0.67702689473E+02  0.10566000000E+00 0.  1.
        996    1    1    2    0    0  0.32790742955E+02 -0.37857351863E+01  0.86327255392E+02  0.10508072915E+03  0.50000000000E+02 0.  0.
<mgrwt>
<rscale>  0 0.59912975E+02</rscale>
<asrwt>0</asrwt>
<pdfrwt beam="1">  1       13 0.10000000E+01 0.59912975E+02</pdfrwt>
<pdfrwt beam="2">  1       22 0.72783426E+00 0.59912975E+02</pdfrwt>
<totfact> 0.59886907E-02</totfact>
</mgrwt>
</event>
<event>
 4    1  0.2489082E+000  0.5422155E+02  0.7957747E-01  0.1423817E+00
         13   -1    0    0    0    0  0.00000000000E+00  0.00000000000E+00  0.99999944179E+02  0.99999999999E+02  0.10566000000E+00 0.  1.
         22   -1    0    0    0    0 -0.00000000000E+00 -0.00000000000E+00 -0.14155128362E+02  0.14155128362E+02  0.00000000000E+00 0.  1.
         13    1    1    2    0    0  0.42472714877E+01  0.20541106150E+02  0.22118643110E+02  0.30483141144E+02  0.10566000000E+00 0. -1.
        996    1    1    2    0    0 -0.42472714877E+01 -0.20541106150E+02  0.63726172707E+02  0.83671987217E+02  0.50000000000E+02 0.  0.
<mgrwt>
<rscale>  0 0.54221549E+02</rscale>
<asrwt>0</asrwt>
<pdfrwt beam="1">  1       13 0.10000000E+01 0.54221549E+02</pdfrwt>
<pdfrwt beam="2">  1       22 0.14155152E+00 0.54221549E+02</pdfrwt>
<totfact> 0.83209093E-01</totfact>
</mgrwt>
</event>
<event>
 4    1  0.2489082E+000  0.5212693E+02  0.7957747E-01  0.1434196E+00
         13   -1    0    0    0    0  0.00000000000E+00  0.00000000000E+00  0.99999944191E+02  0.10000000001E+03  0.10566000000E+00 0.  1.
         22   -1    0    0    0    0 -0.00000000000E+00 -0.00000000000E+00 -0.26759113990E+02  0.26759113990E+02  0.00000000000E+00 0. -1.
         13    1    1    2    0    0 -0.14559834928E+02  0.22865322318E+01 -0.17027919145E+02  0.22520617603E+02  0.10566000000E+00 0. -1.
        996    1    1    2    0    0  0.14559834928E+02 -0.22865322318E+01  0.90268749347E+02  0.10423849640E+03  0.50000000000E+02 0.  0.
<mgrwt>
<rscale>  0 0.52126932E+02</rscale>
<asrwt>0</asrwt>
<pdfrwt beam="1">  1       13 0.10000000E+01 0.52126932E+02</pdfrwt>
<pdfrwt beam="2">  1       22 0.26759134E+00 0.52126932E+02</pdfrwt>
<totfact> 0.25795644E-01</totfact>
</mgrwt>
</event>
<event>
 4    1  0.2489082E+000  0.5331887E+02  0.7957747E-01  0.1428220E+00
         13   -1    0    0    0    0  0.00000000000E+00  0.00000000000E+00  0.99999944168E+02  0.99999999988E+02  0.10566000000E+00 0. -1.
         22   -1    0    0    0    0 -0.00000000000E+00 -0.00000000000E+00 -0.21842214959E+02  0.21842214959E+02  0.00000000000E+00 0.  1.
         13    1    1    2    0    0  0.18387444516E+02 -0.21918222195E+01 -0.82781704301E+01  0.20284020070E+02  0.10566000000E+00 0.  1.
        996    1    1    2    0    0 -0.18387444516E+02  0.21918222195E+01  0.86435899639E+02  0.10155819488E+03  0.50000000000E+02 0.  0.
<mgrwt>
<rscale>  0 0.53318873E+02</rscale>
<asrwt>0</asrwt>
<pdfrwt beam="1">  1       13 0.10000000E+01 0.53318873E+02</pdfrwt>
<pdfrwt beam="2">  1       22 0.21842237E+00 0.53318873E+02</pdfrwt>
<totfact> 0.38433115E-01</totfact>
</mgrwt>
</event>
<event>
 4    1  0.2489082E+000  0.5460046E+02  0.7957747E-01  0.1421998E+00
         13   -1    0    0    0    0  0.00000000000E+00  0.00000000000E+00  0.99999944183E+02  0.10000000000E+03  0.10566000000E+00 0. -1.
         22   -1    0    0    0    0 -0.00000000000E+00 -0.00000000000E+00 -0.21637789931E+02  0.21637789931E+02  0.00000000000E+00 0.  1.
         13    1    1    2    0    0  0.18162044399E+02  0.12302464687E+02 -0.45100625886E+01  0.22395587126E+02  0.10566000000E+00 0.  1.
        996    1    1    2    0    0 -0.18162044399E+02 -0.12302464687E+02  0.82872216840E+02  0.99242202808E+02  0.50000000000E+02 0.  0.
<mgrwt>
<rscale>  0 0.54600462E+02</rscale>
<asrwt>0</asrwt>
<pdfrwt beam="1">  1       13 0.10000000E+01 0.54600462E+02</pdfrwt>
<pdfrwt beam="2">  1       22 0.21637812E+00 0.54600462E+02</pdfrwt>
<totfact> 0.39215435E-01</totfact>
</mgrwt>
</event>
<event>
 4    1  0.2489082E+000  0.5103114E+02  0.7957747E-01  0.1439858E+00
         13   -1    0    0    0    0  0.00000000000E+00  0.00000000000E+00  0.99999944180E+02  0.10000000000E+03  0.10566000000E+00 0.  1.
         22   -1    0    0    0    0 -0.00000000000E+00 -0.00000000000E+00 -0.10828329190E+02  0.10828329190E+02  0.00000000000E+00 0. -1.
         13    1    1    2    0    0 -0.85519586025E+01  0.55714907022E+01  0.29298482444E+01  0.10619448166E+02  0.10566000000E+00 0. -1.
        996    1    1    2    0    0  0.85519586025E+01 -0.55714907022E+01  0.86241766746E+02  0.10020888102E+03  0.50000000000E+02 0.  0.
<mgrwt>
<rscale>  0 0.51031142E+02</rscale>
<asrwt>0</asrwt>
<pdfrwt beam="1">  1       13 0.10000000E+01 0.51031142E+02</pdfrwt>
<pdfrwt beam="2">  1       22 0.10828354E+00 0.51031142E+02</pdfrwt>
<totfact> 0.12518322E+00</totfact>
</mgrwt>
</event>
<event>
 4    1  0.2489082E+000  0.5149955E+02  0.7957747E-01  0.1437417E+00
         13   -1    0    0    0    0  0.00000000000E+00  0.00000000000E+00  0.99999944176E+02  0.99999999996E+02  0.10566000000E+00 0. -1.
         22   -1    0    0    0    0 -0.00000000000E+00 -0.00000000000E+00 -0.10877619063E+02  0.10877619063E+02  0.00000000000E+00 0. -1.
         13    1    1    2    0    0  0.12868294660E+01  0.12269790493E+02  0.77243760643E+01  0.14556127179E+02  0.10566000000E+00 0.  1.
        996    1    1    2    0    0 -0.12868294660E+01 -0.12269790493E+02  0.81397949049E+02  0.96321491881E+02  0.50000000000E+02 0.  0.
<mgrwt>
<rscale>  0 0.51499550E+02</rscale>
<asrwt>0</asrwt>
<pdfrwt beam="1">  1       13 0.10000000E+01 0.51499550E+02</pdfrwt>
<pdfrwt beam="2">  1       22 0.10877644E+00 0.51499550E+02</pdfrwt>
<totfact> 0.12448121E+00</totfact>
</mgrwt>
</event>
<event>
 4    1  0.2489082E+000  0.5186548E+02  0.7957747E-01  0.1435532E+00
         13   -1    0    0    0    0  0.00000000000E+00  0.00000000000E+00  0.99999944183E+02  0.10000000000E+03  0.10566000000E+00 0.  1.
         22   -1    0    0    0    0 -0.00000000000E+00 -0.00000000000E+00 -0.12276300494E+02  0.12276300494E+02  0.00000000000E+00 0.  1.
         13    1    1    2    0    0 -0.12339932724E+02 -0.61444045751E+01  0.38011026310E+02  0.40433611419E+02  0.10566000000E+00 0. -1.
        996    1    1    2    0    0  0.12339932724E+02  0.61444045751E+01  0.49712617379E+02  0.71842689078E+02  0.50000000000E+02 0.  0.
<mgrwt>
<rscale>  0 0.51865476E+02</rscale>
<asrwt>0</asrwt>
<pdfrwt beam="1">  1       13 0.10000000E+01 0.51865476E+02</pdfrwt>
<pdfrwt beam="2">  1       22 0.12276325E+00 0.51865476E+02</pdfrwt>
<totfact> 0.10376506E+00</totfact>
</mgrwt>
</event>
<event>
 4    1  0.2489082E+000  0.5101994E+02  0.7957747E-01  0.1439917E+00
         13   -1    0    0    0    0  0.00000000000E+00  0.00000000000E+00  0.99999944188E+02  0.10000000001E+03  0.10566000000E+00 0. -1.
         22   -1    0    0    0    0 -0.00000000000E+00 -0.00000000000E+00 -0.34887268839E+02  0.34887268839E+02  0.00000000000E+00 0.  1.
         13    1    1    2    0    0  0.63496899869E+01 -0.79193077611E+01 -0.27410319116E+02  0.29229621216E+02  0.10566000000E+00 0.  1.
        996    1    1    2    0    0 -0.63496899869E+01  0.79193077611E+01  0.92522994465E+02  0.10565764763E+03  0.50000000000E+02 0.  0.
<mgrwt>
<rscale>  0 0.51019937E+02</rscale>
<asrwt>0</asrwt>
<pdfrwt beam="1">  1       13 0.10000000E+01 0.51019937E+02</pdfrwt>
<pdfrwt beam="2">  1       22 0.34887287E+00 0.51019937E+02</pdfrwt>
<totfact> 0.15786613E-01</totfact>
</mgrwt>
</event>
<event>
 4    1  0.2489082E+000  0.5154544E+02  0.7957747E-01  0.1437180E+00
         13   -1    0    0    0    0  0.00000000000E+00  0.00000000000E+00  0.99999944177E+02  0.99999999998E+02  0.10566000000E+00 0. -1.
         22   -1    0    0    0    0 -0.00000000000E+00 -0.00000000000E+00 -0.10355600616E+02  0.10355600616E+02  0.00000000000E+00 0. -1.
         13    1    1    2    0    0  0.12206747035E+02 -0.28155784783E+01  0.13629700645E+02  0.18512483871E+02  0.10566000000E+00 0.  1.
        996    1    1    2    0    0 -0.12206747035E+02  0.28155784783E+01  0.76014642916E+02  0.91843116743E+02  0.50000000000E+02 0.  0.
<mgrwt>
<rscale>  0 0.51545438E+02</rscale>
<asrwt>0</asrwt>
<pdfrwt beam="1">  1       13 0.10000000E+01 0.51545438E+02</pdfrwt>
<pdfrwt beam="2">  1       22 0.10355626E+00 0.51545438E+02</pdfrwt>
<totfact> 0.13384282E+00</totfact>
</mgrwt>
</event>
<event>
 4    1  0.2489082E+000  0.5100421E+02  0.7957747E-01  0.1439999E+00
         13   -1    0    0    0    0  0.00000000000E+00  0.00000000000E+00  0.99999944176E+02  0.99999999996E+02  0.10566000000E+00 0. -1.
         22   -1    0    0    0    0 -0.00000000000E+00 -0.00000000000E+00 -0.14454378688E+02  0.14454378688E+02  0.00000000000E+00 0.  1.
         13    1    1    2    0    0 -0.56997964852E+01 -0.83030957775E+01 -0.44496049240E+01  0.11010868607E+02  0.10566000000E+00 0.  1.
        996    1    1    2    0    0  0.56997964852E+01  0.83030957775E+01  0.89995170412E+02  0.10344351008E+03  0.50000000000E+02 0.  0.
<mgrwt>
<rscale>  0 0.51004206E+02</rscale>
<asrwt>0</asrwt>
<pdfrwt beam="1">  1       13 0.10000000E+01 0.51004206E+02</pdfrwt>
<pdfrwt beam="2">  1       22 0.14454403E+00 0.51004206E+02</pdfrwt>
<totfact> 0.79880937E-01</totfact>
</mgrwt>
</event>
<event>
 4    1  0.2489082E+000  0.5202270E+02  0.7957747E-01  0.1434727E+00
         13   -1    0    0    0    0  0.00000000000E+00  0.00000000000E+00  0.99999944178E+02  0.99999999998E+02  0.10566000000E+00 0. -1.
         22   -1    0    0    0    0 -0.00000000000E+00 -0.00000000000E+00 -0.15867791612E+02  0.15867791612E+02  0.00000000000E+00 0.  1.
         13    1    1    2    0    0  0.14265969805E+02  0.16862331748E+01 -0.27260283395E+01  0.14622026923E+02  0.10566000000E+00 0.  1.
        996    1    1    2    0    0 -0.14265969805E+02 -0.16862331748E+01  0.86858180905E+02  0.10124576469E+03  0.50000000000E+02 0.  0.
<mgrwt>
<rscale>  0 0.52022700E+02</rscale>
<asrwt>0</asrwt>
<pdfrwt beam="1">  1       13 0.10000000E+01 0.52022700E+02</pdfrwt>
<pdfrwt beam="2">  1       22 0.15867815E+00 0.52022700E+02</pdfrwt>
<totfact> 0.68490879E-01</totfact>
</mgrwt>
</event>
<event>
 4    1  0.2489082E+000  0.5211023E+02  0.7957747E-01  0.1434281E+00
         13   -1    0    0    0    0  0.00000000000E+00  0.00000000000E+00  0.99999944186E+02  0.10000000001E+03  0.10566000000E+00 0.  1.
         22   -1    0    0    0    0 -0.00000000000E+00 -0.00000000000E+00 -0.17400400569E+02  0.17400400569E+02  0.00000000000E+00 0. -1.
         13    1    1    2    0    0 -0.14630136108E+02 -0.11978086087E+01 -0.49708344920E+01  0.15498257566E+02  0.10566000000E+00 0. -1.
        996    1    1    2    0    0  0.14630136108E+02  0.11978086087E+01  0.87570378109E+02  0.10190214301E+03  0.50000000000E+02 0.  0.
<mgrwt>
<rscale>  0 0.52110226E+02</rscale>
<asrwt>0</asrwt>
<pdfrwt beam="1">  1       13 0.10000000E+01 0.52110226E+02</pdfrwt>
<pdfrwt beam="2">  1       22 0.17400424E+00 0.52110226E+02</pdfrwt>
<totfact> 0.58369424E-01</totfact>
</mgrwt>
</event>
<event>
 4    1  0.2489082E+000  0.5190303E+02  0.7957747E-01  0.1435339E+00
         13   -1    0    0    0    0  0.00000000000E+00  0.00000000000E+00  0.99999944180E+02  0.10000000000E+03  0.10566000000E+00 0. -1.
         22   -1    0    0    0    0 -0.00000000000E+00 -0.00000000000E+00 -0.10956347567E+02  0.10956347567E+02  0.00000000000E+00 0. -1.
         13    1    1    2    0    0  0.99231240993E+01 -0.97701854828E+01  0.14316077295E+02  0.19972134323E+02  0.10566000000E+00 0.  1.
        996    1    1    2    0    0 -0.99231240993E+01  0.97701854828E+01  0.74727519319E+02  0.90984213245E+02  0.50000000000E+02 0.  0.
<mgrwt>
<rscale>  0 0.51903034E+02</rscale>
<asrwt>0</asrwt>
<pdfrwt beam="1">  1       13 0.10000000E+01 0.51903034E+02</pdfrwt>
<pdfrwt beam="2">  1       22 0.10956372E+00 0.51903034E+02</pdfrwt>
<totfact> 0.12327168E+00</totfact>
</mgrwt>
</event>
<event>
 4    1  0.2489082E+000  0.5118646E+02  0.7957747E-01  0.1439045E+00
         13   -1    0    0    0    0  0.00000000000E+00  0.00000000000E+00  0.99999944169E+02  0.99999999989E+02  0.10566000000E+00 0. -1.
         22   -1    0    0    0    0 -0.00000000000E+00 -0.00000000000E+00 -0.45332998257E+02  0.45332998257E+02  0.00000000000E+00 0.  1.
         13    1    1    2    0    0  0.10608074708E+01 -0.10905422782E+02 -0.37956755488E+02  0.39506708414E+02  0.10566000000E+00 0.  1.
        996    1    1    2    0    0 -0.10608074708E+01  0.10905422782E+02  0.92623701399E+02  0.10582628983E+03  0.50000000000E+02 0.  0.
<mgrwt>
<rscale>  0 0.51186459E+02</rscale>
<asrwt>0</asrwt>
<pdfrwt beam="1">  1       13 0.10000000E+01 0.51186459E+02</pdfrwt>
<pdfrwt beam="2">  1       22 0.45333014E+00 0.51186459E+02</pdfrwt>
<totfact> 0.94909533E-02</totfact>
</mgrwt>
</event>
<event>
 4    1  0.2489082E+000  0.5108791E+02  0.7957747E-01  0.1439560E+00
         13   -1    0    0    0    0  0.00000000000E+00  0.00000000000E+00  0.99999944182E+02  0.10000000000E+03  0.10566000000E+00 0. -1.
         22   -1    0    0    0    0 -0.00000000000E+00 -0.00000000000E+00 -0.17819827638E+02  0.17819827638E+02  0.00000000000E+00 0.  1.
         13    1    1    2    0    0 -0.76590004952E+01  0.71633804972E+01 -0.86590773070E+01  0.13600187226E+02  0.10566000000E+00 0.  1.
        996    1    1    2    0    0  0.76590004952E+01 -0.71633804972E+01  0.90839193850E+02  0.10421964041E+03  0.50000000000E+02 0.  0.
<mgrwt>
<rscale>  0 0.51087908E+02</rscale>
<asrwt>0</asrwt>
<pdfrwt beam="1">  1       13 0.10000000E+01 0.51087908E+02</pdfrwt>
<pdfrwt beam="2">  1       22 0.17819851E+00 0.51087908E+02</pdfrwt>
<totfact> 0.55840685E-01</totfact>
</mgrwt>
</event>
<event>
 4    1  0.2489082E+000  0.5263089E+02  0.7957747E-01  0.1431647E+00
         13   -1    0    0    0    0  0.00000000000E+00  0.00000000000E+00  0.99999944182E+02  0.10000000000E+03  0.10566000000E+00 0.  1.
         22   -1    0    0    0    0 -0.00000000000E+00 -0.00000000000E+00 -0.12020709763E+02  0.12020709763E+02  0.00000000000E+00 0.  1.
         13    1    1    2    0    0  0.13809542694E+02 -0.89054537913E+01  0.16839622385E+02  0.23528591602E+02  0.10566000000E+00 0. -1.
        996    1    1    2    0    0 -0.13809542694E+02  0.89054537913E+01  0.71139612033E+02  0.88492118163E+02  0.50000000000E+02 0.  0.
<mgrwt>
<rscale>  0 0.52630890E+02</rscale>
<asrwt>0</asrwt>
<pdfrwt beam="1">  1       13 0.10000000E+01 0.52630890E+02</pdfrwt>
<pdfrwt beam="2">  1       22 0.12020734E+00 0.52630890E+02</pdfrwt>
<totfact> 0.10736052E+00</totfact>
</mgrwt>
</event>
<event>
 4    1  0.2489082E+000  0.5131587E+02  0.7957747E-01  0.1438371E+00
         13   -1    0    0    0    0  0.00000000000E+00  0.00000000000E+00  0.99999944182E+02  0.10000000000E+03  0.10566000000E+00 0. -1.
         22   -1    0    0    0    0 -0.00000000000E+00 -0.00000000000E+00 -0.17392453665E+02  0.17392453665E+02  0.00000000000E+00 0. -1.
         13    1    1    2    0    0 -0.82573259093E+01  0.80706133748E+01 -0.74494091815E+01  0.13741291519E+02  0.10566000000E+00 0.  1.
        996    1    1    2    0    0  0.82573259093E+01 -0.80706133748E+01  0.90056899699E+02  0.10365116215E+03  0.50000000000E+02 0.  0.
<mgrwt>
<rscale>  0 0.51315867E+02</rscale>
<asrwt>0</asrwt>
<pdfrwt beam="1">  1       13 0.10000000E+01 0.51315867E+02</pdfrwt>
<pdfrwt beam="2">  1       22 0.17392477E+00 0.51315867E+02</pdfrwt>
<totfact> 0.58327150E-01</totfact>
</mgrwt>
</event>
<event>
 4    1  0.2489082E+000  0.5121867E+02  0.7957747E-01  0.1438877E+00
         13   -1    0    0    0    0  0.00000000000E+00  0.00000000000E+00  0.99999944173E+02  0.99999999993E+02  0.10566000000E+00 0. -1.
         22   -1    0    0    0    0 -0.00000000000E+00 -0.00000000000E+00 -0.10438785782E+02  0.10438785782E+02  0.00000000000E+00 0. -1.
         13    1    1    2    0    0  0.28455903499E+01  0.10735699831E+02  0.65396029828E+01  0.12889150729E+02  0.10566000000E+00 0.  1.
        996    1    1    2    0    0 -0.28455903499E+01 -0.10735699831E+02  0.83021555408E+02  0.97549635046E+02  0.50000000000E+02 0.  0.
<mgrwt>
<rscale>  0 0.51218675E+02</rscale>
<asrwt>0</asrwt>
<pdfrwt beam="1">  1       13 0.10000000E+01 0.51218675E+02</pdfrwt>
<pdfrwt beam="2">  1       22 0.10438811E+00 0.51218675E+02</pdfrwt>
<totfact> 0.13218147E+00</totfact>
</mgrwt>
</event>
<event>
 4    1  0.2489082E+000  0.5375622E+02  0.7957747E-01  0.1426074E+00
         13   -1    0    0    0    0  0.00000000000E+00  0.00000000000E+00  0.99999944175E+02  0.99999999995E+02  0.10566000000E+00 0.  1.
         22   -1    0    0    0    0 -0.00000000000E+00 -0.00000000000E+00 -0.16555271282E+02  0.16555271282E+02  0.00000000000E+00 0. -1.
         13    1    1    2    0    0 -0.16051288886E+02 -0.11492909648E+02  0.32458601531E+01  0.20006939278E+02  0.10566000000E+00 0. -1.
        996    1    1    2    0    0  0.16051288886E+02  0.11492909648E+02  0.80198812740E+02  0.96548332000E+02  0.50000000000E+02 0.  0.
<mgrwt>
<rscale>  0 0.53756217E+02</rscale>
<asrwt>0</asrwt>
<pdfrwt beam="1">  1       13 0.10000000E+01 0.53756217E+02</pdfrwt>
<pdfrwt beam="2">  1       22 0.16555295E+00 0.53756217E+02</pdfrwt>
<totfact> 0.63888902E-01</totfact>
</mgrwt>
</event>
<event>
 4    1  0.2489082E+000  0.5778785E+02  0.7957747E-01  0.1407357E+00
         13   -1    0    0    0    0  0.00000000000E+00  0.00000000000E+00  0.99999944188E+02  0.10000000001E+03  0.10566000000E+00 0.  1.
         22   -1    0    0    0    0 -0.00000000000E+00 -0.00000000000E+00 -0.23225660367E+02  0.23225660367E+02  0.00000000000E+00 0.  1.
         13    1    1    2    0    0 -0.27533015231E+02 -0.90204500347E+01  0.24461631921E+01  0.29076284579E+02  0.10566000000E+00 0. -1.
        996    1    1    2    0    0  0.27533015231E+02  0.90204500347E+01  0.74328120629E+02  0.94149375796E+02  0.50000000000E+02 0.  0.
<mgrwt>
<rscale>  0 0.57787849E+02</rscale>
<asrwt>0</asrwt>
<pdfrwt beam="1">  1       13 0.10000000E+01 0.57787849E+02</pdfrwt>
<pdfrwt beam="2">  1       22 0.23225682E+00 0.57787849E+02</pdfrwt>
<totfact> 0.34361680E-01</totfact>
</mgrwt>
</event>
<event>
 4    1  0.2489082E+000  0.5209518E+02  0.7957747E-01  0.1434358E+00
         13   -1    0    0    0    0  0.00000000000E+00  0.00000000000E+00  0.99999944185E+02  0.10000000001E+03  0.10566000000E+00 0. -1.
         22   -1    0    0    0    0 -0.00000000000E+00 -0.00000000000E+00 -0.11133609068E+02  0.11133609068E+02  0.00000000000E+00 0.  1.
         13    1    1    2    0    0  0.13121687393E+02 -0.64597673224E+01  0.20400344171E+02  0.25101642979E+02  0.10566000000E+00 0.  1.
        996    1    1    2    0    0 -0.13121687393E+02  0.64597673224E+01  0.68465990946E+02  0.86031966095E+02  0.50000000000E+02 0.  0.
<mgrwt>
<rscale>  0 0.52095175E+02</rscale>
<asrwt>0</asrwt>
<pdfrwt beam="1">  1       13 0.10000000E+01 0.52095175E+02</pdfrwt>
<pdfrwt beam="2">  1       22 0.11133634E+00 0.52095175E+02</pdfrwt>
<totfact> 0.12041260E+00</totfact>
</mgrwt>
</event>
<event>
 4    1  0.2489082E+000  0.5778302E+02  0.7957747E-01  0.1407378E+00
         13   -1    0    0    0    0  0.00000000000E+00  0.00000000000E+00  0.99999944175E+02  0.99999999995E+02  0.10566000000E+00 0. -1.
         22   -1    0    0    0    0 -0.00000000000E+00 -0.00000000000E+00 -0.23466707611E+02  0.23466707611E+02  0.00000000000E+00 0. -1.
         13    1    1    2    0    0  0.32569090786E+01  0.28779676415E+02  0.18265126861E+01  0.29021105147E+02  0.10566000000E+00 0.  1.
        996    1    1    2    0    0 -0.32569090786E+01 -0.28779676415E+02  0.74706723878E+02  0.94445602459E+02  0.50000000000E+02 0.  0.
<mgrwt>
<rscale>  0 0.57783019E+02</rscale>
<asrwt>0</asrwt>
<pdfrwt beam="1">  1       13 0.10000000E+01 0.57783019E+02</pdfrwt>
<pdfrwt beam="2">  1       22 0.23466729E+00 0.57783019E+02</pdfrwt>
<totfact> 0.33674616E-01</totfact>
</mgrwt>
</event>
<event>
 4    1  0.2489082E+000  0.5156380E+02  0.7957747E-01  0.1437085E+00
         13   -1    0    0    0    0  0.00000000000E+00  0.00000000000E+00  0.99999944177E+02  0.99999999997E+02  0.10566000000E+00 0.  1.
         22   -1    0    0    0    0 -0.00000000000E+00 -0.00000000000E+00 -0.10313823184E+02  0.10313823184E+02  0.00000000000E+00 0.  1.
         13    1    1    2    0    0  0.12536231565E+02 -0.12917558131E+01  0.15719594285E+02  0.20148015869E+02  0.10566000000E+00 0. -1.
        996    1    1    2    0    0 -0.12536231565E+02  0.12917558131E+01  0.73966526708E+02  0.90165807312E+02  0.50000000000E+02 0.  0.
<mgrwt>
<rscale>  0 0.51563803E+02</rscale>
<asrwt>0</asrwt>
<pdfrwt beam="1">  1       13 0.10000000E+01 0.51563803E+02</pdfrwt>
<pdfrwt beam="2">  1       22 0.10313848E+00 0.51563803E+02</pdfrwt>
<totfact> 0.13464167E+00</totfact>
</mgrwt>
</event>
<event>
 4    1  0.2489082E+000  0.5424564E+02  0.7957747E-01  0.1423700E+00
         13   -1    0    0    0    0  0.00000000000E+00  0.00000000000E+00  0.99999944170E+02  0.99999999990E+02  0.10566000000E+00 0. -1.
         22   -1    0    0    0    0 -0.00000000000E+00 -0.00000000000E+00 -0.21547417740E+02  0.21547417740E+02  0.00000000000E+00 0.  1.
         13    1    1    2    0    0  0.19969228457E+02  0.66196274503E+01 -0.53616237911E+01  0.21710544131E+02  0.10566000000E+00 0.  1.
        996    1    1    2    0    0 -0.19969228457E+02 -0.66196274503E+01  0.83814150221E+02  0.99836873599E+02  0.50000000000E+02 0.  0.
<mgrwt>
<rscale>  0 0.54245641E+02</rscale>
<asrwt>0</asrwt>
<pdfrwt beam="1">  1       13 0.10000000E+01 0.54245641E+02</pdfrwt>
<pdfrwt beam="2">  1       22 0.21547440E+00 0.54245641E+02</pdfrwt>
<totfact> 0.39507935E-01</totfact>
</mgrwt>
</event>
<event>
 4    1  0.2489082E+000  0.5272420E+02  0.7957747E-01  0.1431178E+00
         13   -1    0    0    0    0  0.00000000000E+00  0.00000000000E+00  0.99999944183E+02  0.10000000000E+03  0.10566000000E+00 0. -1.
         22   -1    0    0    0    0 -0.00000000000E+00 -0.00000000000E+00 -0.16534705835E+02  0.16534705835E+02  0.00000000000E+00 0.  1.
         13    1    1    2    0    0  0.93889079074E+01  0.13845194157E+02 -0.12250324956E+01  0.16773576291E+02  0.10566000000E+00 0.  1.
        996    1    1    2    0    0 -0.93889079074E+01 -0.13845194157E+02  0.84690270844E+02  0.99761129547E+02  0.50000000000E+02 0.  0.
<mgrwt>
<rscale>  0 0.52724197E+02</rscale>
<asrwt>0</asrwt>
<pdfrwt beam="1">  1       13 0.10000000E+01 0.52724197E+02</pdfrwt>
<pdfrwt beam="2">  1       22 0.16534729E+00 0.52724197E+02</pdfrwt>
<totfact> 0.63900588E-01</totfact>
</mgrwt>
</event>
<event>
 4    1  0.2489082E+000  0.5724859E+02  0.7957747E-01  0.1409755E+00
         13   -1    0    0    0    0  0.00000000000E+00  0.00000000000E+00  0.99999944182E+02  0.10000000000E+03  0.10566000000E+00 0.  1.
         22   -1    0    0    0    0 -0.00000000000E+00 -0.00000000000E+00 -0.66957904019E+02  0.66957904019E+02  0.00000000000E+00 0. -1.
         13    1    1    2    0    0 -0.24751058704E+02  0.12836909521E+02 -0.55159522444E+02  0.61806029101E+02  0.10566000000E+00 0. -1.
        996    1    1    2    0    0  0.24751058704E+02 -0.12836909521E+02  0.88201562606E+02  0.10515187492E+03  0.50000000000E+02 0.  0.
<mgrwt>
<rscale>  0 0.57248591E+02</rscale>
<asrwt>0</asrwt>
<pdfrwt beam="1">  1       13 0.10000000E+01 0.57248591E+02</pdfrwt>
<pdfrwt beam="2">  1       22 0.66957913E+00 0.57248591E+02</pdfrwt>
<totfact> 0.86357059E-02</totfact>
</mgrwt>
</event>
<event>
 4    1  0.2489082E+000  0.5105227E+02  0.7957747E-01  0.1439747E+00
         13   -1    0    0    0    0  0.00000000000E+00  0.00000000000E+00  0.99999944174E+02  0.99999999995E+02  0.10566000000E+00 0.  1.
         22   -1    0    0    0    0 -0.00000000000E+00 -0.00000000000E+00 -0.11298592850E+02  0.11298592850E+02  0.00000000000E+00 0.  1.
         13    1    1    2    0    0  0.32145244735E+01  0.97980339216E+01  0.17387260244E+01  0.10457961969E+02  0.10566000000E+00 0. -1.
        996    1    1    2    0    0 -0.32145244735E+01 -0.97980339216E+01  0.86962625300E+02  0.10084063088E+03  0.50000000000E+02 0.  0.
<mgrwt>
<rscale>  0 0.51052274E+02</rscale>
<asrwt>0</asrwt>
<pdfrwt beam="1">  1       13 0.10000000E+01 0.51052274E+02</pdfrwt>
<pdfrwt beam="2">  1       22 0.11298618E+00 0.51052274E+02</pdfrwt>
<totfact> 0.11750723E+00</totfact>
</mgrwt>
</event>
<event>
 4    1  0.2489082E+000  0.5458745E+02  0.7957747E-01  0.1422060E+00
         13   -1    0    0    0    0  0.00000000000E+00  0.00000000000E+00  0.99999944182E+02  0.10000000000E+03  0.10566000000E+00 0. -1.
         22   -1    0    0    0    0 -0.00000000000E+00 -0.00000000000E+00 -0.32937698325E+02  0.32937698325E+02  0.00000000000E+00 0.  1.
         13    1    1    2    0    0 -0.12055559505E+02 -0.18288071296E+02 -0.20338490434E+02  0.29890724713E+02  0.10566000000E+00 0.  1.
        996    1    1    2    0    0  0.12055559505E+02  0.18288071296E+02  0.87400736292E+02  0.10304697361E+03  0.50000000000E+02 0.  0.
<mgrwt>
<rscale>  0 0.54587453E+02</rscale>
<asrwt>0</asrwt>
<pdfrwt beam="1">  1       13 0.10000000E+01 0.54587453E+02</pdfrwt>
<pdfrwt beam="2">  1       22 0.32937717E+00 0.54587453E+02</pdfrwt>
<totfact> 0.17527929E-01</totfact>
</mgrwt>
</event>
<event>
 4    1  0.2489082E+000  0.5102536E+02  0.7957747E-01  0.1439888E+00
         13   -1    0    0    0    0  0.00000000000E+00  0.00000000000E+00  0.99999944175E+02  0.99999999995E+02  0.10566000000E+00 0. -1.
         22   -1    0    0    0    0 -0.00000000000E+00 -0.00000000000E+00 -0.12365796708E+02  0.12365796708E+02  0.00000000000E+00 0. -1.
         13    1    1    2    0    0  0.24625285663E+01  0.98754110368E+01 -0.86030924015E+00  0.10214650562E+02  0.10566000000E+00 0.  1.
        996    1    1    2    0    0 -0.24625285663E+01 -0.98754110368E+01  0.88494456707E+02  0.10215114614E+03  0.50000000000E+02 0.  0.
<mgrwt>
<rscale>  0 0.51025364E+02</rscale>
<asrwt>0</asrwt>
<pdfrwt beam="1">  1       13 0.10000000E+01 0.51025364E+02</pdfrwt>
<pdfrwt beam="2">  1       22 0.12365821E+00 0.51025364E+02</pdfrwt>
<totfact> 0.10241423E+00</totfact>
</mgrwt>
</event>
<event>
 4    1  0.2489082E+000  0.5236476E+02  0.7957747E-01  0.1432989E+00
         13   -1    0    0    0    0  0.00000000000E+00  0.00000000000E+00  0.99999944177E+02  0.99999999997E+02  0.10566000000E+00 0. -1.
         22   -1    0    0    0    0 -0.00000000000E+00 -0.00000000000E+00 -0.22916371276E+02  0.22916371276E+02  0.00000000000E+00 0.  1.
         13    1    1    2    0    0  0.14730306991E+02 -0.50086278330E+01 -0.11954684228E+02  0.19621262341E+02  0.10566000000E+00 0.  1.
        996    1    1    2    0    0 -0.14730306991E+02  0.50086278330E+01  0.89038257129E+02  0.10329510893E+03  0.50000000000E+02 0.  0.
<mgrwt>
<rscale>  0 0.52364762E+02</rscale>
<asrwt>0</asrwt>
<pdfrwt beam="1">  1       13 0.10000000E+01 0.52364762E+02</pdfrwt>
<pdfrwt beam="2">  1       22 0.22916393E+00 0.52364762E+02</pdfrwt>
<totfact> 0.34973807E-01</totfact>
</mgrwt>
</event>
<event>
 4    1  0.2489082E+000  0.5530034E+02  0.7957747E-01  0.1418684E+00
         13   -1    0    0    0    0  0.00000000000E+00  0.00000000000E+00  0.99999944177E+02  0.99999999998E+02  0.10566000000E+00 0.  1.
         22   -1    0    0    0    0 -0.00000000000E+00 -0.00000000000E+00 -0.37688681669E+02  0.37688681669E+02  0.00000000000E+00 0. -1.
         13    1    1    2    0    0  0.16615244403E+02  0.16794691538E+02 -0.24962520015E+02  0.34369558915E+02  0.10566000000E+00 0. -1.
        996    1    1    2    0    0 -0.16615244403E+02 -0.16794691538E+02  0.87273782523E+02  0.10331912275E+03  0.50000000000E+02 0.  0.
<mgrwt>
<rscale>  0 0.55300344E+02</rscale>
<asrwt>0</asrwt>
<pdfrwt beam="1">  1       13 0.10000000E+01 0.55300344E+02</pdfrwt>
<pdfrwt beam="2">  1       22 0.37688699E+00 0.55300344E+02</pdfrwt>
<totfact> 0.13836330E-01</totfact>
</mgrwt>
</event>
<event>
 4    1  0.2489082E+000  0.5947183E+02  0.7957747E-01  0.1400062E+00
         13   -1    0    0    0    0  0.00000000000E+00  0.00000000000E+00  0.99999944182E+02  0.10000000000E+03  0.10566000000E+00 0. -1.
         22   -1    0    0    0    0 -0.00000000000E+00 -0.00000000000E+00 -0.73286499397E+02  0.73286499397E+02  0.00000000000E+00 0.  1.
         13    1    1    2    0    0 -0.32182700863E+02 -0.10827882323E+01 -0.60025531330E+02  0.68117356383E+02  0.10566000000E+00 0.  1.
        996    1    1    2    0    0  0.32182700863E+02  0.10827882323E+01  0.86738976115E+02  0.10516914302E+03  0.50000000000E+02 0.  0.
<mgrwt>
<rscale>  0 0.59471831E+02</rscale>
<asrwt>0</asrwt>
<pdfrwt beam="1">  1       13 0.10000000E+01 0.59471831E+02</pdfrwt>
<pdfrwt beam="2">  1       22 0.73286507E+00 0.59471831E+02</pdfrwt>
<totfact> 0.57293762E-02</totfact>
</mgrwt>
</event>
<event>
 4    1  0.2489082E+000  0.5172746E+02  0.7957747E-01  0.1436241E+00
         13   -1    0    0    0    0  0.00000000000E+00  0.00000000000E+00  0.99999944176E+02  0.99999999996E+02  0.10566000000E+00 0.  1.
         22   -1    0    0    0    0 -0.00000000000E+00 -0.00000000000E+00 -0.11029497616E+02  0.11029497616E+02  0.00000000000E+00 0.  1.
         13    1    1    2    0    0 -0.11243547871E+02 -0.70222717479E+01  0.99138576404E+01  0.16553712773E+02  0.10566000000E+00 0. -1.
        996    1    1    2    0    0  0.11243547871E+02  0.70222717479E+01  0.79056588920E+02  0.94475784839E+02  0.50000000000E+02 0.  0.
<mgrwt>
<rscale>  0 0.51727456E+02</rscale>
<asrwt>0</asrwt>
<pdfrwt beam="1">  1       13 0.10000000E+01 0.51727456E+02</pdfrwt>
<pdfrwt beam="2">  1       22 0.11029522E+00 0.51727456E+02</pdfrwt>
<totfact> 0.12200778E+00</totfact>
</mgrwt>
</event>
<event>
 4    1  0.2489082E+000  0.9223142E+02  0.7957747E-01  0.1297536E+00
         13   -1    0    0    0    0  0.00000000000E+00  0.00000000000E+00  0.99999944169E+02  0.99999999989E+02  0.10566000000E+00 0. -1.
         22   -1    0    0    0    0 -0.00000000000E+00 -0.00000000000E+00 -0.72025395066E+02  0.72025395066E+02  0.00000000000E+00 0.  1.
         13    1    1    2    0    0  0.48819801514E+02 -0.60193541096E+02  0.12403717806E+02  0.78488844997E+02  0.10566000000E+00 0.  1.
        996    1    1    2    0    0 -0.48819801514E+02  0.60193541096E+02  0.15570831296E+02  0.93536550058E+02  0.50000000000E+02 0.  0.
<mgrwt>
<rscale>  0 0.92231423E+02</rscale>
<asrwt>0</asrwt>
<pdfrwt beam="1">  1       13 0.10000000E+01 0.92231423E+02</pdfrwt>
<pdfrwt beam="2">  1       22 0.72025403E+00 0.92231423E+02</pdfrwt>
<totfact> 0.63869682E-02</totfact>
</mgrwt>
</event>
<event>
 4    1  0.2489082E+000  0.5367644E+02  0.7957747E-01  0.1426464E+00
         13   -1    0    0    0    0  0.00000000000E+00  0.00000000000E+00  0.99999944168E+02  0.99999999988E+02  0.10566000000E+00 0.  1.
         22   -1    0    0    0    0 -0.00000000000E+00 -0.00000000000E+00 -0.21680195348E+02  0.21680195348E+02  0.00000000000E+00 0.  1.
         13    1    1    2    0    0  0.16915375236E+02 -0.97483749424E+01 -0.71177371003E+01  0.20780617866E+02  0.10566000000E+00 0. -1.
        996    1    1    2    0    0 -0.16915375236E+02  0.97483749424E+01  0.85437485920E+02  0.10089957747E+03  0.50000000000E+02 0.  0.
<mgrwt>
<rscale>  0 0.53676445E+02</rscale>
<asrwt>0</asrwt>
<pdfrwt beam="1">  1       13 0.10000000E+01 0.53676445E+02</pdfrwt>
<pdfrwt beam="2">  1       22 0.21680217E+00 0.53676445E+02</pdfrwt>
<totfact> 0.39009142E-01</totfact>
</mgrwt>
</event>
<event>
 4    1  0.2489082E+000  0.5375281E+02  0.7957747E-01  0.1426091E+00
         13   -1    0    0    0    0  0.00000000000E+00  0.00000000000E+00  0.99999944181E+02  0.10000000000E+03  0.10566000000E+00 0. -1.
         22   -1    0    0    0    0 -0.00000000000E+00 -0.00000000000E+00 -0.13566294439E+02  0.13566294439E+02  0.00000000000E+00 0. -1.
         13    1    1    2    0    0  0.17612709465E+02 -0.88970443291E+01  0.19792714701E+02  0.27948661001E+02  0.10566000000E+00 0.  1.
        996    1    1    2    0    0 -0.17612709465E+02  0.88970443291E+01  0.66640935041E+02  0.85617633438E+02  0.50000000000E+02 0.  0.
<mgrwt>
<rscale>  0 0.53752813E+02</rscale>
<asrwt>0</asrwt>
<pdfrwt beam="1">  1       13 0.10000000E+01 0.53752813E+02</pdfrwt>
<pdfrwt beam="2">  1       22 0.13566319E+00 0.53752813E+02</pdfrwt>
<totfact> 0.89037851E-01</totfact>
</mgrwt>
</event>
<event>
 4    1  0.2489082E+000  0.5211811E+02  0.7957747E-01  0.1434241E+00
         13   -1    0    0    0    0  0.00000000000E+00  0.00000000000E+00  0.99999944179E+02  0.99999999999E+02  0.10566000000E+00 0. -1.
         22   -1    0    0    0    0 -0.00000000000E+00 -0.00000000000E+00 -0.15795464467E+02  0.15795464467E+02  0.00000000000E+00 0. -1.
         13    1    1    2    0    0  0.24563690873E+01  0.14500485636E+02 -0.22182417575E+01  0.14873788802E+02  0.10566000000E+00 0.  1.
        996    1    1    2    0    0 -0.24563690873E+01 -0.14500485636E+02  0.86422721470E+02  0.10092167566E+03  0.50000000000E+02 0.  0.
<mgrwt>
<rscale>  0 0.52118114E+02</rscale>
<asrwt>0</asrwt>
<pdfrwt beam="1">  1       13 0.10000000E+01 0.52118114E+02</pdfrwt>
<pdfrwt beam="2">  1       22 0.15795488E+00 0.52118114E+02</pdfrwt>
<totfact> 0.69038754E-01</totfact>
</mgrwt>
</event>
<event>
 4    1  0.2489082E+000  0.5365323E+02  0.7957747E-01  0.1426577E+00
         13   -1    0    0    0    0  0.00000000000E+00  0.00000000000E+00  0.99999944186E+02  0.10000000001E+03  0.10566000000E+00 0. -1.
         22   -1    0    0    0    0 -0.00000000000E+00 -0.00000000000E+00 -0.30498706080E+02  0.30498706080E+02  0.00000000000E+00 0.  1.
         13    1    1    2    0    0 -0.19439008233E+02  0.89133801151E+00 -0.18875678557E+02  0.27110365722E+02  0.10566000000E+00 0.  1.
        996    1    1    2    0    0  0.19439008233E+02 -0.89133801151E+00  0.88376916663E+02  0.10338834036E+03  0.50000000000E+02 0.  0.
<mgrwt>
<rscale>  0 0.53653234E+02</rscale>
<asrwt>0</asrwt>
<pdfrwt beam="1">  1       13 0.10000000E+01 0.53653234E+02</pdfrwt>
<pdfrwt beam="2">  1       22 0.30498725E+00 0.53653234E+02</pdfrwt>
<totfact> 0.20120744E-01</totfact>
</mgrwt>
</event>
<event>
 4    1  0.2489082E+000  0.5244213E+02  0.7957747E-01  0.1432597E+00
         13   -1    0    0    0    0  0.00000000000E+00  0.00000000000E+00  0.99999944181E+02  0.10000000000E+03  0.10566000000E+00 0.  1.
         22   -1    0    0    0    0 -0.00000000000E+00 -0.00000000000E+00 -0.16550887580E+02  0.16550887580E+02  0.00000000000E+00 0. -1.
         13    1    1    2    0    0  0.95725323482E+01 -0.12591403438E+02 -0.23532117337E+01  0.15991422250E+02  0.10566000000E+00 0. -1.
        996    1    1    2    0    0 -0.95725323482E+01  0.12591403438E+02  0.85802268335E+02  0.10055946533E+03  0.50000000000E+02 0.  0.
<mgrwt>
<rscale>  0 0.52442128E+02</rscale>
<asrwt>0</asrwt>
<pdfrwt beam="1">  1       13 0.10000000E+01 0.52442128E+02</pdfrwt>
<pdfrwt beam="2">  1       22 0.16550911E+00 0.52442128E+02</pdfrwt>
<totfact> 0.63757473E-01</totfact>
</mgrwt>
</event>
<event>
 4    1  0.2489082E+000  0.5147231E+02  0.7957747E-01  0.1437558E+00
         13   -1    0    0    0    0  0.00000000000E+00  0.00000000000E+00  0.99999944177E+02  0.99999999997E+02  0.10566000000E+00 0.  1.
         22   -1    0    0    0    0 -0.00000000000E+00 -0.00000000000E+00 -0.10697470760E+02  0.10697470760E+02  0.00000000000E+00 0.  1.
         13    1    1    2    0    0  0.67082269613E+01  0.10217528590E+02  0.84813976041E+01  0.14877616368E+02  0.10566000000E+00 0. -1.
        996    1    1    2    0    0 -0.67082269613E+01 -0.10217528590E+02  0.80821075813E+02  0.95819854388E+02  0.50000000000E+02 0.  0.
<mgrwt>
<rscale>  0 0.51472305E+02</rscale>
<asrwt>0</asrwt>
<pdfrwt beam="1">  1       13 0.10000000E+01 0.51472305E+02</pdfrwt>
<pdfrwt beam="2">  1       22 0.10697496E+00 0.51472305E+02</pdfrwt>
<totfact> 0.12758593E+00</totfact>
</mgrwt>
</event>
<event>
 4    1  0.2489082E+000  0.5166901E+02  0.7957747E-01  0.1436542E+00
         13   -1    0    0    0    0  0.00000000000E+00  0.00000000000E+00  0.99999944181E+02  0.10000000000E+03  0.10566000000E+00 0.  1.
         22   -1    0    0    0    0 -0.00000000000E+00 -0.00000000000E+00 -0.15304984989E+02  0.15304984989E+02  0.00000000000E+00 0. -1.
         13    1    1    2    0    0  0.77742776250E+01  0.10452120314E+02 -0.31399225584E+01  0.13399869005E+02  0.10566000000E+00 0. -1.
        996    1    1    2    0    0 -0.77742776250E+01 -0.10452120314E+02  0.87834881751E+02  0.10190511598E+03  0.50000000000E+02 0.  0.
<mgrwt>
<rscale>  0 0.51669006E+02</rscale>
<asrwt>0</asrwt>
<pdfrwt beam="1">  1       13 0.10000000E+01 0.51669006E+02</pdfrwt>
<pdfrwt beam="2">  1       22 0.15305009E+00 0.51669006E+02</pdfrwt>
<totfact> 0.72751977E-01</totfact>
</mgrwt>
</event>
<event>
 4    1  0.2489082E+000  0.5350395E+02  0.7957747E-01  0.1427309E+00
         13   -1    0    0    0    0  0.00000000000E+00  0.00000000000E+00  0.99999944181E+02  0.10000000000E+03  0.10566000000E+00 0.  1.
         22   -1    0    0    0    0 -0.00000000000E+00 -0.00000000000E+00 -0.13264005766E+02  0.13264005766E+02  0.00000000000E+00 0. -1.
         13    1    1    2    0    0 -0.18960431299E+02 -0.17819150196E+01  0.18474606858E+02  0.26532912368E+02  0.10566000000E+00 0. -1.
        996    1    1    2    0    0  0.18960431299E+02  0.17819150196E+01  0.68261331558E+02  0.86731093399E+02  0.50000000000E+02 0.  0.
<mgrwt>
<rscale>  0 0.53503955E+02</rscale>
<asrwt>0</asrwt>
<pdfrwt beam="1">  1       13 0.10000000E+01 0.53503955E+02</pdfrwt>
<pdfrwt beam="2">  1       22 0.13264030E+00 0.53503955E+02</pdfrwt>
<totfact> 0.92249130E-01</totfact>
</mgrwt>
</event>
<event>
 4    1  0.2489082E+000  0.5226250E+02  0.7957747E-01  0.1433507E+00
         13   -1    0    0    0    0  0.00000000000E+00  0.00000000000E+00  0.99999944180E+02  0.10000000000E+03  0.10566000000E+00 0. -1.
         22   -1    0    0    0    0 -0.00000000000E+00 -0.00000000000E+00 -0.12551607999E+02  0.12551607999E+02  0.00000000000E+00 0.  1.
         13    1    1    2    0    0 -0.12187442711E+02 -0.91013553629E+01  0.73073116054E+01  0.16875319144E+02  0.10566000000E+00 0.  1.
        996    1    1    2    0    0  0.12187442711E+02  0.91013553629E+01  0.80141024576E+02  0.95676288856E+02  0.50000000000E+02 0.  0.
<mgrwt>
<rscale>  0 0.52262495E+02</rscale>
<asrwt>0</asrwt>
<pdfrwt beam="1">  1       13 0.10000000E+01 0.52262495E+02</pdfrwt>
<pdfrwt beam="2">  1       22 0.12551632E+00 0.52262495E+02</pdfrwt>
<totfact> 0.10034666E+00</totfact>
</mgrwt>
</event>
<event>
 4    1  0.2489082E+000  0.5101749E+02  0.7957747E-01  0.1439929E+00
         13   -1    0    0    0    0  0.00000000000E+00  0.00000000000E+00  0.99999944190E+02  0.10000000001E+03  0.10566000000E+00 0. -1.
         22   -1    0    0    0    0 -0.00000000000E+00 -0.00000000000E+00 -0.25929058478E+02  0.25929058478E+02  0.00000000000E+00 0.  1.
         13    1    1    2    0    0 -0.92737553067E+01 -0.40965898240E+01 -0.18005291613E+02  0.20663646237E+02  0.10566000000E+00 0.  1.
        996    1    1    2    0    0  0.92737553067E+01  0.40965898240E+01  0.92076177325E+02  0.10526541225E+03  0.50000000000E+02 0.  0.
<mgrwt>
<rscale>  0 0.51017493E+02</rscale>
<asrwt>0</asrwt>
<pdfrwt beam="1">  1       13 0.10000000E+01 0.51017493E+02</pdfrwt>
<pdfrwt beam="2">  1       22 0.25929079E+00 0.51017493E+02</pdfrwt>
<totfact> 0.27395408E-01</totfact>
</mgrwt>
</event>
<event>
 4    1  0.2489082E+000  0.5400953E+02  0.7957747E-01  0.1424842E+00
         13   -1    0    0    0    0  0.00000000000E+00  0.00000000000E+00  0.99999944168E+02  0.99999999988E+02  0.10566000000E+00 0.  1.
         22   -1    0    0    0    0 -0.00000000000E+00 -0.00000000000E+00 -0.78619006012E+02  0.78619006012E+02  0.00000000000E+00 0. -1.
         13    1    1    2    0    0  0.82903484391E+01  0.18662777369E+02 -0.69754158425E+02  0.72682067375E+02  0.10566000000E+00 0. -1.
        996    1    1    2    0    0 -0.82903484391E+01 -0.18662777369E+02  0.91135096581E+02  0.10593693862E+03  0.50000000000E+02 0.  0.
<mgrwt>
<rscale>  0 0.54009528E+02</rscale>
<asrwt>0</asrwt>
<pdfrwt beam="1">  1       13 0.10000000E+01 0.54009528E+02</pdfrwt>
<pdfrwt beam="2">  1       22 0.78619012E+00 0.54009528E+02</pdfrwt>
<totfact> 0.35058338E-02</totfact>
</mgrwt>
</event>
<event>
 4    1  0.2489082E+000  0.5165459E+02  0.7957747E-01  0.1436616E+00
         13   -1    0    0    0    0  0.00000000000E+00  0.00000000000E+00  0.99999944180E+02  0.10000000000E+03  0.10566000000E+00 0. -1.
         22   -1    0    0    0    0 -0.00000000000E+00 -0.00000000000E+00 -0.11359841768E+02  0.11359841768E+02  0.00000000000E+00 0.  1.
         13    1    1    2    0    0 -0.12658483249E+02 -0.28211756253E+01  0.69653282116E+01  0.14721521362E+02  0.10566000000E+00 0.  1.
        996    1    1    2    0    0  0.12658483249E+02  0.28211756253E+01  0.81674774200E+02  0.96638320405E+02  0.50000000000E+02 0.  0.
<mgrwt>
<rscale>  0 0.51654586E+02</rscale>
<asrwt>0</asrwt>
<pdfrwt beam="1">  1       13 0.10000000E+01 0.51654586E+02</pdfrwt>
<pdfrwt beam="2">  1       22 0.11359867E+00 0.51654586E+02</pdfrwt>
<totfact> 0.11672028E+00</totfact>
</mgrwt>
</event>
<event>
 4    1  0.2489082E+000  0.5107854E+02  0.7957747E-01  0.1439610E+00
         13   -1    0    0    0    0  0.00000000000E+00  0.00000000000E+00  0.99999944178E+02  0.99999999998E+02  0.10566000000E+00 0.  1.
         22   -1    0    0    0    0 -0.00000000000E+00 -0.00000000000E+00 -0.98895788316E+01  0.98895788316E+01  0.00000000000E+00 0. -1.
         13    1    1    2    0    0  0.21763368513E+00  0.10438846180E+02  0.78595993932E+01  0.13069098693E+02  0.10566000000E+00 0. -1.
        996    1    1    2    0    0 -0.21763368513E+00 -0.10438846180E+02  0.82250765953E+02  0.96820480136E+02  0.50000000000E+02 0.  0.
<mgrwt>
<rscale>  0 0.51078536E+02</rscale>
<asrwt>0</asrwt>
<pdfrwt beam="1">  1       13 0.10000000E+01 0.51078536E+02</pdfrwt>
<pdfrwt beam="2">  1       22 0.98896040E-01 0.51078536E+02</pdfrwt>
<totfact> 0.14294081E+00</totfact>
</mgrwt>
</event>
<event>
 4    1  0.2489082E+000  0.5203984E+02  0.7957747E-01  0.1434640E+00
         13   -1    0    0    0    0  0.00000000000E+00  0.00000000000E+00  0.99999944182E+02  0.10000000000E+03  0.10566000000E+00 0.  1.
         22   -1    0    0    0    0 -0.00000000000E+00 -0.00000000000E+00 -0.16180520768E+02  0.16180520768E+02  0.00000000000E+00 0. -1.
         13    1    1    2    0    0  0.89250836326E+01 -0.11335233368E+02 -0.32087233028E+01  0.14780111726E+02  0.10566000000E+00 0. -1.
        996    1    1    2    0    0 -0.89250836326E+01  0.11335233368E+02  0.87028146717E+02  0.10140040904E+03  0.50000000000E+02 0.  0.
<mgrwt>
<rscale>  0 0.52039837E+02</rscale>
<asrwt>0</asrwt>
<pdfrwt beam="1">  1       13 0.10000000E+01 0.52039837E+02</pdfrwt>
<pdfrwt beam="2">  1       22 0.16180544E+00 0.52039837E+02</pdfrwt>
<totfact> 0.66244270E-01</totfact>
</mgrwt>
</event>
<event>
 4    1  0.2489082E+000  0.5136068E+02  0.7957747E-01  0.1438138E+00
         13   -1    0    0    0    0  0.00000000000E+00  0.00000000000E+00  0.99999944176E+02  0.99999999996E+02  0.10566000000E+00 0.  1.
         22   -1    0    0    0    0 -0.00000000000E+00 -0.00000000000E+00 -0.99645332607E+01  0.99645332607E+01  0.00000000000E+00 0.  1.
         13    1    1    2    0    0  0.11650107846E+02  0.14815046468E+01  0.18063114110E+02  0.21545466443E+02  0.10566000000E+00 0. -1.
        996    1    1    2    0    0 -0.11650107846E+02 -0.14815046468E+01  0.71972296805E+02  0.88419066814E+02  0.50000000000E+02 0.  0.
<mgrwt>
<rscale>  0 0.51360684E+02</rscale>
<asrwt>0</asrwt>
<pdfrwt beam="1">  1       13 0.10000000E+01 0.51360684E+02</pdfrwt>
<pdfrwt beam="2">  1       22 0.99645584E-01 0.51360684E+02</pdfrwt>
<totfact> 0.14148684E+00</totfact>
</mgrwt>
</event>
<event>
 4    1  0.2489082E+000  0.5468436E+02  0.7957747E-01  0.1421597E+00
         13   -1    0    0    0    0  0.00000000000E+00  0.00000000000E+00  0.99999944176E+02  0.99999999997E+02  0.10566000000E+00 0. -1.
         22   -1    0    0    0    0 -0.00000000000E+00 -0.00000000000E+00 -0.19506362864E+02  0.19506362864E+02  0.00000000000E+00 0.  1.
         13    1    1    2    0    0 -0.39202859890E+01 -0.21794748531E+02 -0.60028646722E-01  0.22144852071E+02  0.10566000000E+00 0.  1.
        996    1    1    2    0    0  0.39202859890E+01  0.21794748531E+02  0.80553609959E+02  0.97361510790E+02  0.50000000000E+02 0.  0.
<mgrwt>
<rscale>  0 0.54684364E+02</rscale>
<asrwt>0</asrwt>
<pdfrwt beam="1">  1       13 0.10000000E+01 0.54684364E+02</pdfrwt>
<pdfrwt beam="2">  1       22 0.19506385E+00 0.54684364E+02</pdfrwt>
<totfact> 0.47686245E-01</totfact>
</mgrwt>
</event>
<event>
 4    1  0.2489082E+000  0.6733859E+02  0.7957747E-01  0.1369384E+00
         13   -1    0    0    0    0  0.00000000000E+00  0.00000000000E+00  0.99999944177E+02  0.99999999997E+02  0.10566000000E+00 0. -1.
         22   -1    0    0    0    0 -0.00000000000E+00 -0.00000000000E+00 -0.44156039623E+02  0.44156039623E+02  0.00000000000E+00 0.  1.
         13    1    1    2    0    0  0.70885479232E+01 -0.44544791912E+02 -0.13910417165E+02  0.47201661707E+02  0.10566000000E+00 0.  1.
        996    1    1    2    0    0 -0.70885479232E+01  0.44544791912E+02  0.69754321719E+02  0.96954377914E+02  0.50000000000E+02 0.  0.
<mgrwt>
<rscale>  0 0.67338592E+02</rscale>
<asrwt>0</asrwt>
<pdfrwt beam="1">  1       13 0.10000000E+01 0.67338592E+02</pdfrwt>
<pdfrwt beam="2">  1       22 0.44156055E+00 0.67338592E+02</pdfrwt>
<totfact> 0.10175570E-01</totfact>
</mgrwt>
</event>
<event>
 4    1  0.2489082E+000  0.5163032E+02  0.7957747E-01  0.1436741E+00
         13   -1    0    0    0    0  0.00000000000E+00  0.00000000000E+00  0.99999944174E+02  0.99999999994E+02  0.10566000000E+00 0. -1.
         22   -1    0    0    0    0 -0.00000000000E+00 -0.00000000000E+00 -0.13919655464E+02  0.13919655464E+02  0.00000000000E+00 0.  1.
         13    1    1    2    0    0 -0.12668432864E+02 -0.22805391012E+01 -0.75500142952E+00  0.12894620623E+02  0.10566000000E+00 0.  1.
        996    1    1    2    0    0  0.12668432864E+02  0.22805391012E+01  0.86835290140E+02  0.10102503484E+03  0.50000000000E+02 0.  0.
<mgrwt>
<rscale>  0 0.51630321E+02</rscale>
<asrwt>0</asrwt>
<pdfrwt beam="1">  1       13 0.10000000E+01 0.51630321E+02</pdfrwt>
<pdfrwt beam="2">  1       22 0.13919679E+00 0.51630321E+02</pdfrwt>
<totfact> 0.85050400E-01</totfact>
</mgrwt>
</event>
<event>
 4    1  0.2489082E+000  0.5522887E+02  0.7957747E-01  0.1419020E+00
         13   -1    0    0    0    0  0.00000000000E+00  0.00000000000E+00  0.99999944179E+02  0.99999999999E+02  0.10566000000E+00 0. -1.
         22   -1    0    0    0    0 -0.00000000000E+00 -0.00000000000E+00 -0.16069431589E+02  0.16069431589E+02  0.00000000000E+00 0. -1.
         13    1    1    2    0    0  0.22521734863E+02  0.65574106922E+01  0.35859483638E+02  0.42850226452E+02  0.10566000000E+00 0.  1.
        996    1    1    2    0    0 -0.22521734863E+02 -0.65574106922E+01  0.48071028952E+02  0.73219205136E+02  0.50000000000E+02 0.  0.
<mgrwt>
<rscale>  0 0.55228871E+02</rscale>
<asrwt>0</asrwt>
<pdfrwt beam="1">  1       13 0.10000000E+01 0.55228871E+02</pdfrwt>
<pdfrwt beam="2">  1       22 0.16069455E+00 0.55228871E+02</pdfrwt>
<totfact> 0.67443357E-01</totfact>
</mgrwt>
</event>
<event>
 4    1  0.2489082E+000  0.5337912E+02  0.7957747E-01  0.1427923E+00
         13   -1    0    0    0    0  0.00000000000E+00  0.00000000000E+00  0.99999944181E+02  0.10000000000E+03  0.10566000000E+00 0.  1.
         22   -1    0    0    0    0 -0.00000000000E+00 -0.00000000000E+00 -0.74599355547E+02  0.74599355547E+02  0.00000000000E+00 0. -1.
         13    1    1    2    0    0 -0.14961689984E+02  0.11201726187E+02 -0.66086400264E+02  0.68678630596E+02  0.10566000000E+00 0. -1.
        996    1    1    2    0    0  0.14961689984E+02 -0.11201726187E+02  0.91486988897E+02  0.10592072495E+03  0.50000000000E+02 0.  0.
<mgrwt>
<rscale>  0 0.53379124E+02</rscale>
<asrwt>0</asrwt>
<pdfrwt beam="1">  1       13 0.10000000E+01 0.53379124E+02</pdfrwt>
<pdfrwt beam="2">  1       22 0.74599363E+00 0.53379124E+02</pdfrwt>
<totfact> 0.50866977E-02</totfact>
</mgrwt>
</event>
<event>
 4    1  0.2489082E+000  0.5314356E+02  0.7957747E-01  0.1429088E+00
         13   -1    0    0    0    0  0.00000000000E+00  0.00000000000E+00  0.99999944177E+02  0.99999999997E+02  0.10566000000E+00 0.  1.
         22   -1    0    0    0    0 -0.00000000000E+00 -0.00000000000E+00 -0.15421917064E+02  0.15421917064E+02  0.00000000000E+00 0. -1.
         13    1    1    2    0    0 -0.14408244315E+02 -0.10800032920E+02  0.32922592505E+01  0.18305418605E+02  0.10566000000E+00 0. -1.
        996    1    1    2    0    0  0.14408244315E+02  0.10800032920E+02  0.81285767863E+02  0.97116498456E+02  0.50000000000E+02 0.  0.
<mgrwt>
<rscale>  0 0.53143562E+02</rscale>
<asrwt>0</asrwt>
<pdfrwt beam="1">  1       13 0.10000000E+01 0.53143562E+02</pdfrwt>
<pdfrwt beam="2">  1       22 0.15421941E+00 0.53143562E+02</pdfrwt>
<totfact> 0.72039716E-01</totfact>
</mgrwt>
</event>
<event>
 4    1  0.2489082E+000  0.5282425E+02  0.7957747E-01  0.1430678E+00
         13   -1    0    0    0    0  0.00000000000E+00  0.00000000000E+00  0.99999944181E+02  0.10000000000E+03  0.10566000000E+00 0. -1.
         22   -1    0    0    0    0 -0.00000000000E+00 -0.00000000000E+00 -0.29814567348E+02  0.29814567348E+02  0.00000000000E+00 0.  1.
         13    1    1    2    0    0  0.15582093181E+02 -0.68992286592E+01 -0.19395610219E+02  0.25818633655E+02  0.10566000000E+00 0.  1.
        996    1    1    2    0    0 -0.15582093181E+02  0.68992286592E+01  0.89580987051E+02  0.10399593369E+03  0.50000000000E+02 0.  0.
<mgrwt>
<rscale>  0 0.52824246E+02</rscale>
<asrwt>0</asrwt>
<pdfrwt beam="1">  1       13 0.10000000E+01 0.52824246E+02</pdfrwt>
<pdfrwt beam="2">  1       22 0.29814587E+00 0.52824246E+02</pdfrwt>
<totfact> 0.20967784E-01</totfact>
</mgrwt>
</event>
<event>
 4    1  0.2489082E+000  0.5228408E+02  0.7957747E-01  0.1433397E+00
         13   -1    0    0    0    0  0.00000000000E+00  0.00000000000E+00  0.99999944181E+02  0.10000000000E+03  0.10566000000E+00 0.  1.
         22   -1    0    0    0    0 -0.00000000000E+00 -0.00000000000E+00 -0.22957494614E+02  0.22957494614E+02  0.00000000000E+00 0. -1.
         13    1    1    2    0    0  0.11369876081E+02  0.10215243869E+02 -0.12179900413E+02  0.19544473068E+02  0.10566000000E+00 0. -1.
        996    1    1    2    0    0 -0.11369876081E+02 -0.10215243869E+02  0.89222349981E+02  0.10341302155E+03  0.50000000000E+02 0.  0.
<mgrwt>
<rscale>  0 0.52284083E+02</rscale>
<asrwt>0</asrwt>
<pdfrwt beam="1">  1       13 0.10000000E+01 0.52284083E+02</pdfrwt>
<pdfrwt beam="2">  1       22 0.22957516E+00 0.52284083E+02</pdfrwt>
<totfact> 0.34847535E-01</totfact>
</mgrwt>
</event>
<event>
 4    1  0.2489082E+000  0.5644893E+02  0.7957747E-01  0.1413368E+00
         13   -1    0    0    0    0  0.00000000000E+00  0.00000000000E+00  0.99999944179E+02  0.99999999999E+02  0.10566000000E+00 0.  1.
         22   -1    0    0    0    0 -0.00000000000E+00 -0.00000000000E+00 -0.20976588465E+02  0.20976588465E+02  0.00000000000E+00 0.  1.
         13    1    1    2    0    0  0.20104426232E+02  0.16801604596E+02  0.31234378884E+01  0.26386528749E+02  0.10566000000E+00 0. -1.
        996    1    1    2    0    0 -0.20104426232E+02 -0.16801604596E+02  0.75899917825E+02  0.94590059715E+02  0.50000000000E+02 0.  0.
<mgrwt>
<rscale>  0 0.56448932E+02</rscale>
<asrwt>0</asrwt>
<pdfrwt beam="1">  1       13 0.10000000E+01 0.56448932E+02</pdfrwt>
<pdfrwt beam="2">  1       22 0.20976611E+00 0.56448932E+02</pdfrwt>
<totfact> 0.41732149E-01</totfact>
</mgrwt>
</event>
<event>
 4    1  0.2489082E+000  0.5131057E+02  0.7957747E-01  0.1438398E+00
         13   -1    0    0    0    0  0.00000000000E+00  0.00000000000E+00  0.99999944179E+02  0.99999999999E+02  0.10566000000E+00 0. -1.
         22   -1    0    0    0    0 -0.00000000000E+00 -0.00000000000E+00 -0.16130621318E+02  0.16130621318E+02  0.00000000000E+00 0.  1.
         13    1    1    2    0    0  0.10445369162E+02  0.48650906361E+01 -0.57376943846E+01  0.12872728720E+02  0.10566000000E+00 0.  1.
        996    1    1    2    0    0 -0.10445369162E+02 -0.48650906361E+01  0.89607017246E+02  0.10325789260E+03  0.50000000000E+02 0.  0.
<mgrwt>
<rscale>  0 0.51310572E+02</rscale>
<asrwt>0</asrwt>
<pdfrwt beam="1">  1       13 0.10000000E+01 0.51310572E+02</pdfrwt>
<pdfrwt beam="2">  1       22 0.16130645E+00 0.51310572E+02</pdfrwt>
<totfact> 0.66499561E-01</totfact>
</mgrwt>
</event>
<event>
 4    1  0.2489082E+000  0.5108117E+02  0.7957747E-01  0.1439596E+00
         13   -1    0    0    0    0  0.00000000000E+00  0.00000000000E+00  0.99999944179E+02  0.99999999999E+02  0.10566000000E+00 0. -1.
         22   -1    0    0    0    0 -0.00000000000E+00 -0.00000000000E+00 -0.51035570681E+02  0.51035570681E+02  0.00000000000E+00 0.  1.
         13    1    1    2    0    0 -0.74467357792E+01 -0.73370028387E+01 -0.43857643918E+02  0.45086467798E+02  0.10566000000E+00 0.  1.
        996    1    1    2    0    0  0.74467357792E+01  0.73370028387E+01  0.92822017416E+02  0.10594910288E+03  0.50000000000E+02 0.  0.
<mgrwt>
<rscale>  0 0.51081166E+02</rscale>
<asrwt>0</asrwt>
<pdfrwt beam="1">  1       13 0.10000000E+01 0.51081166E+02</pdfrwt>
<pdfrwt beam="2">  1       22 0.51035584E+00 0.51081166E+02</pdfrwt>
<totfact> 0.69600055E-02</totfact>
</mgrwt>
</event>
<event>
 4    1  0.2489082E+000  0.5235502E+02  0.7957747E-01  0.1433038E+00
         13   -1    0    0    0    0  0.00000000000E+00  0.00000000000E+00  0.99999944175E+02  0.99999999996E+02  0.10566000000E+00 0. -1.
         22   -1    0    0    0    0 -0.00000000000E+00 -0.00000000000E+00 -0.15952508783E+02  0.15952508783E+02  0.00000000000E+00 0.  1.
         13    1    1    2    0    0  0.87171168359E+01 -0.12847557507E+02 -0.15604817392E+01  0.15604298354E+02  0.10566000000E+00 0.  1.
        996    1    1    2    0    0 -0.87171168359E+01  0.12847557507E+02  0.85607917132E+02  0.10034821042E+03  0.50000000000E+02 0.  0.
<mgrwt>
<rscale>  0 0.52355018E+02</rscale>
<asrwt>0</asrwt>
<pdfrwt beam="1">  1       13 0.10000000E+01 0.52355018E+02</pdfrwt>
<pdfrwt beam="2">  1       22 0.15952532E+00 0.52355018E+02</pdfrwt>
<totfact> 0.67916417E-01</totfact>
</mgrwt>
</event>
<event>
 4    1  0.2489082E+000  0.5245004E+02  0.7957747E-01  0.1432558E+00
         13   -1    0    0    0    0  0.00000000000E+00  0.00000000000E+00  0.99999944184E+02  0.10000000000E+03  0.10566000000E+00 0.  1.
         22   -1    0    0    0    0 -0.00000000000E+00 -0.00000000000E+00 -0.24860172766E+02  0.24860172766E+02  0.00000000000E+00 0. -1.
         13    1    1    2    0    0  0.25327899346E+01  0.15639431435E+02 -0.14190940212E+02  0.21269715292E+02  0.10566000000E+00 0. -1.
        996    1    1    2    0    0 -0.25327899346E+01 -0.15639431435E+02  0.89330711630E+02  0.10359045748E+03  0.50000000000E+02 0.  0.
<mgrwt>
<rscale>  0 0.52450041E+02</rscale>
<asrwt>0</asrwt>
<pdfrwt beam="1">  1       13 0.10000000E+01 0.52450041E+02</pdfrwt>
<pdfrwt beam="2">  1       22 0.24860194E+00 0.52450041E+02</pdfrwt>
<totfact> 0.29827390E-01</totfact>
</mgrwt>
</event>
<event>
 4    1  0.2489082E+000  0.5313314E+02  0.7957747E-01  0.1429139E+00
         13   -1    0    0    0    0  0.00000000000E+00  0.00000000000E+00  0.99999944172E+02  0.99999999992E+02  0.10566000000E+00 0.  1.
         22   -1    0    0    0    0 -0.00000000000E+00 -0.00000000000E+00 -0.15313959240E+02  0.15313959240E+02  0.00000000000E+00 0.  1.
         13    1    1    2    0    0 -0.13138451578E+02  0.12268338151E+02  0.35419701127E+01  0.18321783405E+02  0.10566000000E+00 0. -1.
        996    1    1    2    0    0  0.13138451578E+02 -0.12268338151E+02  0.81144014819E+02  0.96992175828E+02  0.50000000000E+02 0.  0.
<mgrwt>
<rscale>  0 0.53133144E+02</rscale>
<asrwt>0</asrwt>
<pdfrwt beam="1">  1       13 0.10000000E+01 0.53133144E+02</pdfrwt>
<pdfrwt beam="2">  1       22 0.15313983E+00 0.53133144E+02</pdfrwt>
<totfact> 0.72894621E-01</totfact>
</mgrwt>
</event>
<event>
 4    1  0.2489082E+000  0.5545989E+02  0.7957747E-01  0.1417936E+00
         13   -1    0    0    0    0  0.00000000000E+00  0.00000000000E+00  0.99999944168E+02  0.99999999988E+02  0.10566000000E+00 0. -1.
         22   -1    0    0    0    0 -0.00000000000E+00 -0.00000000000E+00 -0.37080841932E+02  0.37080841932E+02  0.00000000000E+00 0.  1.
         13    1    1    2    0    0 -0.96403149076E+01  0.21974151406E+02 -0.24023919720E+02  0.33955248258E+02  0.10566000000E+00 0.  1.
        996    1    1    2    0    0  0.96403149076E+01 -0.21974151406E+02  0.86943021955E+02  0.10312559366E+03  0.50000000000E+02 0.  0.
<mgrwt>
<rscale>  0 0.55459886E+02</rscale>
<asrwt>0</asrwt>
<pdfrwt beam="1">  1       13 0.10000000E+01 0.55459886E+02</pdfrwt>
<pdfrwt beam="2">  1       22 0.37080860E+00 0.55459886E+02</pdfrwt>
<totfact> 0.14245764E-01</totfact>
</mgrwt>
</event>
<event>
 4    1  0.2489082E+000  0.5925525E+02  0.7957747E-01  0.1400984E+00
         13   -1    0    0    0    0  0.00000000000E+00  0.00000000000E+00  0.99999944173E+02  0.99999999993E+02  0.10566000000E+00 0.  1.
         22   -1    0    0    0    0 -0.00000000000E+00 -0.00000000000E+00 -0.32337320387E+02  0.32337320387E+02  0.00000000000E+00 0. -1.
         13    1    1    2    0    0  0.31178053822E+02  0.62541056106E+01 -0.11182321999E+02  0.33708164685E+02  0.10566000000E+00 0. -1.
        996    1    1    2    0    0 -0.31178053822E+02 -0.62541056106E+01  0.78844945785E+02  0.98629155694E+02  0.50000000000E+02 0.  0.
<mgrwt>
<rscale>  0 0.59255252E+02</rscale>
<asrwt>0</asrwt>
<pdfrwt beam="1">  1       13 0.10000000E+01 0.59255252E+02</pdfrwt>
<pdfrwt beam="2">  1       22 0.32337339E+00 0.59255252E+02</pdfrwt>
<totfact> 0.18202334E-01</totfact>
</mgrwt>
</event>
<event>
 4    1  0.2489082E+000  0.6626741E+02  0.7957747E-01  0.1373266E+00
         13   -1    0    0    0    0  0.00000000000E+00  0.00000000000E+00  0.99999944172E+02  0.99999999992E+02  0.10566000000E+00 0.  1.
         22   -1    0    0    0    0 -0.00000000000E+00 -0.00000000000E+00 -0.57676009714E+02  0.57676009714E+02  0.00000000000E+00 0. -1.
         13    1    1    2    0    0  0.41994094506E+02  0.11307791253E+02 -0.35011889008E+02  0.55832012792E+02  0.10566000000E+00 0. -1.
        996    1    1    2    0    0 -0.41994094506E+02 -0.11307791253E+02  0.77335823466E+02  0.10184399691E+03  0.50000000000E+02 0.  0.
<mgrwt>
<rscale>  0 0.66267414E+02</rscale>
<asrwt>0</asrwt>
<pdfrwt beam="1">  1       13 0.10000000E+01 0.66267414E+02</pdfrwt>
<pdfrwt beam="2">  1       22 0.57676022E+00 0.66267414E+02</pdfrwt>
<totfact> 0.58086388E-02</totfact>
</mgrwt>
</event>
<event>
 4    1  0.2489082E+000  0.5137233E+02  0.7957747E-01  0.1438077E+00
         13   -1    0    0    0    0  0.00000000000E+00  0.00000000000E+00  0.99999944183E+02  0.10000000000E+03  0.10566000000E+00 0. -1.
         22   -1    0    0    0    0 -0.00000000000E+00 -0.00000000000E+00 -0.28233567158E+02  0.28233567158E+02  0.00000000000E+00 0.  1.
         13    1    1    2    0    0  0.79695160540E+01 -0.86949919982E+01 -0.19911756597E+02  0.23143147729E+02  0.10566000000E+00 0.  1.
        996    1    1    2    0    0 -0.79695160540E+01  0.86949919982E+01  0.91678133622E+02  0.10509041943E+03  0.50000000000E+02 0.  0.
<mgrwt>
<rscale>  0 0.51372328E+02</rscale>
<asrwt>0</asrwt>
<pdfrwt beam="1">  1       13 0.10000000E+01 0.51372328E+02</pdfrwt>
<pdfrwt beam="2">  1       22 0.28233587E+00 0.51372328E+02</pdfrwt>
<totfact> 0.23214070E-01</totfact>
</mgrwt>
</event>
<event>
 4    1  0.2489082E+000  0.5283300E+02  0.7957747E-01  0.1430634E+00
         13   -1    0    0    0    0  0.00000000000E+00  0.00000000000E+00  0.99999944175E+02  0.99999999996E+02  0.10566000000E+00 0.  1.
         22   -1    0    0    0    0 -0.00000000000E+00 -0.00000000000E+00 -0.24907872776E+02  0.24907872776E+02  0.00000000000E+00 0.  1.
         13    1    1    2    0    0  0.45321429814E+01 -0.16455551031E+02 -0.13497316036E+02  0.21760381062E+02  0.10566000000E+00 0. -1.
        996    1    1    2    0    0 -0.45321429814E+01  0.16455551031E+02  0.88589387436E+02  0.10314749171E+03  0.50000000000E+02 0.  0.
<mgrwt>
<rscale>  0 0.52832996E+02</rscale>
<asrwt>0</asrwt>
<pdfrwt beam="1">  1       13 0.10000000E+01 0.52832996E+02</pdfrwt>
<pdfrwt beam="2">  1       22 0.24907894E+00 0.52832996E+02</pdfrwt>
<totfact> 0.29732817E-01</totfact>
</mgrwt>
</event>
<event>
 4    1  0.2489082E+000  0.5127652E+02  0.7957747E-01  0.1438576E+00
         13   -1    0    0    0    0  0.00000000000E+00  0.00000000000E+00  0.99999944187E+02  0.10000000001E+03  0.10566000000E+00 0. -1.
         22   -1    0    0    0    0 -0.00000000000E+00 -0.00000000000E+00 -0.17555231939E+02  0.17555231939E+02  0.00000000000E+00 0.  1.
         13    1    1    2    0    0 -0.49907921986E+01 -0.10216316304E+02 -0.77800971207E+01  0.13777597789E+02  0.10566000000E+00 0.  1.
        996    1    1    2    0    0  0.49907921986E+01  0.10216316304E+02  0.90224809369E+02  0.10377763416E+03  0.50000000000E+02 0.  0.
<mgrwt>
<rscale>  0 0.51276516E+02</rscale>
<asrwt>0</asrwt>
<pdfrwt beam="1">  1       13 0.10000000E+01 0.51276516E+02</pdfrwt>
<pdfrwt beam="2">  1       22 0.17555255E+00 0.51276516E+02</pdfrwt>
<totfact> 0.57368290E-01</totfact>
</mgrwt>
</event>
<event>
 4    1  0.2489082E+000  0.5186178E+02  0.7957747E-01  0.1435551E+00
         13   -1    0    0    0    0  0.00000000000E+00  0.00000000000E+00  0.99999944171E+02  0.99999999991E+02  0.10566000000E+00 0.  1.
         22   -1    0    0    0    0 -0.00000000000E+00 -0.00000000000E+00 -0.27158183196E+02  0.27158183196E+02  0.00000000000E+00 0. -1.
         13    1    1    2    0    0 -0.92990393432E+01 -0.10157377983E+02 -0.17934308034E+02  0.22611833824E+02  0.10566000000E+00 0. -1.
        996    1    1    2    0    0  0.92990393432E+01  0.10157377983E+02  0.90776069010E+02  0.10454634936E+03  0.50000000000E+02 0.  0.
<mgrwt>
<rscale>  0 0.51861782E+02</rscale>
<asrwt>0</asrwt>
<pdfrwt beam="1">  1       13 0.10000000E+01 0.51861782E+02</pdfrwt>
<pdfrwt beam="2">  1       22 0.27158204E+00 0.51861782E+02</pdfrwt>
<totfact> 0.25049750E-01</totfact>
</mgrwt>
</event>
<event>
 4    1  0.2489082E+000  0.5113272E+02  0.7957747E-01  0.1439326E+00
         13   -1    0    0    0    0  0.00000000000E+00  0.00000000000E+00  0.99999944175E+02  0.99999999995E+02  0.10566000000E+00 0.  1.
         22   -1    0    0    0    0 -0.00000000000E+00 -0.00000000000E+00 -0.15659282403E+02  0.15659282403E+02  0.00000000000E+00 0. -1.
         13    1    1    2    0    0  0.54159084125E+01 -0.92316131309E+01 -0.56896447941E+01  0.12121797179E+02  0.10566000000E+00 0. -1.
        996    1    1    2    0    0 -0.54159084125E+01  0.92316131309E+01  0.90030306566E+02  0.10353748522E+03  0.50000000000E+02 0.  0.
<mgrwt>
<rscale>  0 0.51132717E+02</rscale>
<asrwt>0</asrwt>
<pdfrwt beam="1">  1       13 0.10000000E+01 0.51132717E+02</pdfrwt>
<pdfrwt beam="2">  1       22 0.15659306E+00 0.51132717E+02</pdfrwt>
<totfact> 0.69921695E-01</totfact>
</mgrwt>
</event>
<event>
 4    1  0.2489082E+000  0.5321074E+02  0.7957747E-01  0.1428755E+00
         13   -1    0    0    0    0  0.00000000000E+00  0.00000000000E+00  0.99999944175E+02  0.99999999995E+02  0.10566000000E+00 0. -1.
         22   -1    0    0    0    0 -0.00000000000E+00 -0.00000000000E+00 -0.13496665795E+02  0.13496665795E+02  0.00000000000E+00 0.  1.
         13    1    1    2    0    0 -0.17388405657E+02 -0.53875886708E+01  0.11489326706E+02  0.21526694014E+02  0.10566000000E+00 0.  1.
        996    1    1    2    0    0  0.17388405657E+02  0.53875886708E+01  0.75013951674E+02  0.91969971777E+02  0.50000000000E+02 0.  0.
<mgrwt>
<rscale>  0 0.53210739E+02</rscale>
<asrwt>0</asrwt>
<pdfrwt beam="1">  1       13 0.10000000E+01 0.53210739E+02</pdfrwt>
<pdfrwt beam="2">  1       22 0.13496690E+00 0.53210739E+02</pdfrwt>
<totfact> 0.89673513E-01</totfact>
</mgrwt>
</event>
<event>
 4    1  0.2489082E+000  0.5237368E+02  0.7957747E-01  0.1432943E+00
         13   -1    0    0    0    0  0.00000000000E+00  0.00000000000E+00  0.99999944179E+02  0.99999999999E+02  0.10566000000E+00 0.  1.
         22   -1    0    0    0    0 -0.00000000000E+00 -0.00000000000E+00 -0.24387699175E+02  0.24387699175E+02  0.00000000000E+00 0. -1.
         13    1    1    2    0    0  0.14016157023E+02 -0.68227038957E+01 -0.13764597788E+02  0.20796087672E+02  0.10566000000E+00 0. -1.
        996    1    1    2    0    0 -0.14016157023E+02  0.68227038957E+01  0.89376842792E+02  0.10359161150E+03  0.50000000000E+02 0.  0.
<mgrwt>
<rscale>  0 0.52373676E+02</rscale>
<asrwt>0</asrwt>
<pdfrwt beam="1">  1       13 0.10000000E+01 0.52373676E+02</pdfrwt>
<pdfrwt beam="2">  1       22 0.24387720E+00 0.52373676E+02</pdfrwt>
<totfact> 0.30969924E-01</totfact>
</mgrwt>
</event>
<event>
 4    1  0.2489082E+000  0.5099433E+02  0.7957747E-01  0.1440051E+00
         13   -1    0    0    0    0  0.00000000000E+00  0.00000000000E+00  0.99999944177E+02  0.99999999997E+02  0.10566000000E+00 0.  1.
         22   -1    0    0    0    0 -0.00000000000E+00 -0.00000000000E+00 -0.10188045747E+02  0.10188045747E+02  0.00000000000E+00 0.  1.
         13    1    1    2    0    0 -0.58798355137E+01  0.81147784774E+01  0.49362319541E+01  0.11171376162E+02  0.10566000000E+00 0. -1.
        996    1    1    2    0    0  0.58798355137E+01 -0.81147784774E+01  0.84875666476E+02  0.99016669582E+02  0.50000000000E+02 0.  0.
<mgrwt>
<rscale>  0 0.50994334E+02</rscale>
<asrwt>0</asrwt>
<pdfrwt beam="1">  1       13 0.10000000E+01 0.50994334E+02</pdfrwt>
<pdfrwt beam="2">  1       22 0.10188071E+00 0.50994334E+02</pdfrwt>
<totfact> 0.13688372E+00</totfact>
</mgrwt>
</event>
<event>
 4    1  0.2489082E+000  0.5218808E+02  0.7957747E-01  0.1433885E+00
         13   -1    0    0    0    0  0.00000000000E+00  0.00000000000E+00  0.99999944185E+02  0.10000000000E+03  0.10566000000E+00 0. -1.
         22   -1    0    0    0    0 -0.00000000000E+00 -0.00000000000E+00 -0.17334414870E+02  0.17334414870E+02  0.00000000000E+00 0.  1.
         13    1    1    2    0    0  0.17065168772E+01  0.14855407947E+02 -0.46079612993E+01  0.15647358131E+02  0.10566000000E+00 0.  1.
        996    1    1    2    0    0 -0.17065168772E+01 -0.14855407947E+02  0.87273490614E+02  0.10168705674E+03  0.50000000000E+02 0.  0.
<mgrwt>
<rscale>  0 0.52188077E+02</rscale>
<asrwt>0</asrwt>
<pdfrwt beam="1">  1       13 0.10000000E+01 0.52188077E+02</pdfrwt>
<pdfrwt beam="2">  1       22 0.17334438E+00 0.52188077E+02</pdfrwt>
<totfact> 0.58771491E-01</totfact>
</mgrwt>
</event>
<event>
 4    1  0.2489082E+000  0.5109450E+02  0.7957747E-01  0.1439526E+00
         13   -1    0    0    0    0  0.00000000000E+00  0.00000000000E+00  0.99999944176E+02  0.99999999996E+02  0.10566000000E+00 0.  1.
         22   -1    0    0    0    0 -0.00000000000E+00 -0.00000000000E+00 -0.10647333867E+02  0.10647333867E+02  0.00000000000E+00 0. -1.
         13    1    1    2    0    0  0.63417849764E+01 -0.83922239344E+01  0.41697385099E+01  0.11315721034E+02  0.10566000000E+00 0. -1.
        996    1    1    2    0    0 -0.63417849764E+01  0.83922239344E+01  0.85182871799E+02  0.99331612829E+02  0.50000000000E+02 0.  0.
<mgrwt>
<rscale>  0 0.51094497E+02</rscale>
<asrwt>0</asrwt>
<pdfrwt beam="1">  1       13 0.10000000E+01 0.51094497E+02</pdfrwt>
<pdfrwt beam="2">  1       22 0.10647359E+00 0.51094497E+02</pdfrwt>
<totfact> 0.12835756E+00</totfact>
</mgrwt>
</event>
<event>
 4    1  0.2489082E+000  0.5303003E+02  0.7957747E-01  0.1429651E+00
         13   -1    0    0    0    0  0.00000000000E+00  0.00000000000E+00  0.99999944177E+02  0.99999999997E+02  0.10566000000E+00 0. -1.
         22   -1    0    0    0    0 -0.00000000000E+00 -0.00000000000E+00 -0.19155136893E+02  0.19155136893E+02  0.00000000000E+00 0.  1.
         13    1    1    2    0    0 -0.12595618006E+02  0.12390897955E+02 -0.49007243972E+01  0.18336090334E+02  0.10566000000E+00 0.  1.
        996    1    1    2    0    0  0.12595618006E+02 -0.12390897955E+02  0.85745531681E+02  0.10081904656E+03  0.50000000000E+02 0.  0.
<mgrwt>
<rscale>  0 0.53030029E+02</rscale>
<asrwt>0</asrwt>
<pdfrwt beam="1">  1       13 0.10000000E+01 0.53030029E+02</pdfrwt>
<pdfrwt beam="2">  1       22 0.19155159E+00 0.53030029E+02</pdfrwt>
<totfact> 0.49167957E-01</totfact>
</mgrwt>
</event>
<event>
 4    1  0.2489082E+000  0.5100756E+02  0.7957747E-01  0.1439982E+00
         13   -1    0    0    0    0  0.00000000000E+00  0.00000000000E+00  0.99999944180E+02  0.10000000000E+03  0.10566000000E+00 0.  1.
         22   -1    0    0    0    0 -0.00000000000E+00 -0.00000000000E+00 -0.93357777276E+01  0.93357777276E+01  0.00000000000E+00 0.  1.
         13    1    1    2    0    0 -0.50975497036E+00  0.10075273676E+02  0.15815604824E+02  0.18759411232E+02  0.10566000000E+00 0. -1.
        996    1    1    2    0    0  0.50975497036E+00 -0.10075273676E+02  0.74848561628E+02  0.90576366496E+02  0.50000000000E+02 0.  0.
<mgrwt>
<rscale>  0 0.51007558E+02</rscale>
<asrwt>0</asrwt>
<pdfrwt beam="1">  1       13 0.10000000E+01 0.51007558E+02</pdfrwt>
<pdfrwt beam="2">  1       22 0.93358030E-01 0.51007558E+02</pdfrwt>
<totfact> 0.15521759E+00</totfact>
</mgrwt>
</event>
<event>
 4    1  0.2489082E+000  0.5110160E+02  0.7957747E-01  0.1439489E+00
         13   -1    0    0    0    0  0.00000000000E+00  0.00000000000E+00  0.99999944180E+02  0.10000000000E+03  0.10566000000E+00 0.  1.
         22   -1    0    0    0    0 -0.00000000000E+00 -0.00000000000E+00 -0.96047501737E+01  0.96047501737E+01  0.00000000000E+00 0. -1.
         13    1    1    2    0    0  0.86501566349E+01  0.60454815646E+01  0.11530413054E+02  0.15631207452E+02  0.10566000000E+00 0. -1.
        996    1    1    2    0    0 -0.86501566349E+01 -0.60454815646E+01  0.78864780952E+02  0.93973542722E+02  0.50000000000E+02 0.  0.
<mgrwt>
<rscale>  0 0.51101595E+02</rscale>
<asrwt>0</asrwt>
<pdfrwt beam="1">  1       13 0.10000000E+01 0.51101595E+02</pdfrwt>
<pdfrwt beam="2">  1       22 0.96047754E-01 0.51101595E+02</pdfrwt>
<totfact> 0.14908494E+00</totfact>
</mgrwt>
</event>
<event>
 4    1  0.2489082E+000  0.8028010E+02  0.7957747E-01  0.1328258E+00
         13   -1    0    0    0    0  0.00000000000E+00  0.00000000000E+00  0.99999944181E+02  0.10000000000E+03  0.10566000000E+00 0.  1.
         22   -1    0    0    0    0 -0.00000000000E+00 -0.00000000000E+00 -0.70009424845E+02  0.70009424845E+02  0.00000000000E+00 0. -1.
         13    1    1    2    0    0 -0.55059480193E+02 -0.30221655091E+02 -0.30179901568E+02  0.69683085596E+02  0.10566000000E+00 0. -1.
        996    1    1    2    0    0  0.55059480193E+02  0.30221655091E+02  0.60170420904E+02  0.10032633925E+03  0.50000000000E+02 0.  0.
<mgrwt>
<rscale>  0 0.80280102E+02</rscale>
<asrwt>0</asrwt>
<pdfrwt beam="1">  1       13 0.10000000E+01 0.80280102E+02</pdfrwt>
<pdfrwt beam="2">  1       22 0.70009433E+00 0.80280102E+02</pdfrwt>
<totfact> 0.74573224E-02</totfact>
</mgrwt>
</event>
<event>
 4    1  0.2489082E+000  0.5100583E+02  0.7957747E-01  0.1439991E+00
         13   -1    0    0    0    0  0.00000000000E+00  0.00000000000E+00  0.99999944177E+02  0.99999999997E+02  0.10566000000E+00 0. -1.
         22   -1    0    0    0    0 -0.00000000000E+00 -0.00000000000E+00 -0.29028880695E+02  0.29028880695E+02  0.00000000000E+00 0. -1.
         13    1    1    2    0    0 -0.26165566708E+00  0.10076041000E+02 -0.21319039783E+02  0.23581935612E+02  0.10566000000E+00 0.  1.
        996    1    1    2    0    0  0.26165566708E+00 -0.10076041000E+02  0.92290103265E+02  0.10544694508E+03  0.50000000000E+02 0.  0.
<mgrwt>
<rscale>  0 0.51005834E+02</rscale>
<asrwt>0</asrwt>
<pdfrwt beam="1">  1       13 0.10000000E+01 0.51005834E+02</pdfrwt>
<pdfrwt beam="2">  1       22 0.29028901E+00 0.51005834E+02</pdfrwt>
<totfact> 0.21999681E-01</totfact>
</mgrwt>
</event>
<event>
 4    1  0.2489082E+000  0.5323693E+02  0.7957747E-01  0.1428625E+00
         13   -1    0    0    0    0  0.00000000000E+00  0.00000000000E+00  0.99999944175E+02  0.99999999995E+02  0.10566000000E+00 0.  1.
         22   -1    0    0    0    0 -0.00000000000E+00 -0.00000000000E+00 -0.18665694442E+02  0.18665694442E+02  0.00000000000E+00 0.  1.
         13    1    1    2    0    0  0.68608785835E+01 -0.16944009410E+02  0.57501752295E+02  0.60337664778E+02  0.10566000000E+00 0. -1.
        996    1    1    2    0    0 -0.68608785835E+01  0.16944009410E+02  0.23832497439E+02  0.58328029660E+02  0.50000000000E+02 0.  0.
<mgrwt>
<rscale>  0 0.53236934E+02</rscale>
<asrwt>0</asrwt>
<pdfrwt beam="1">  1       13 0.10000000E+01 0.53236934E+02</pdfrwt>
<pdfrwt beam="2">  1       22 0.18665717E+00 0.53236934E+02</pdfrwt>
<totfact> 0.51570120E-01</totfact>
</mgrwt>
</event>
<event>
 4    1  0.2489082E+000  0.5250840E+02  0.7957747E-01  0.1432263E+00
         13   -1    0    0    0    0  0.00000000000E+00  0.00000000000E+00  0.99999944179E+02  0.99999999999E+02  0.10566000000E+00 0. -1.
         22   -1    0    0    0    0 -0.00000000000E+00 -0.00000000000E+00 -0.55624409491E+02  0.55624409491E+02  0.00000000000E+00 0.  1.
         13    1    1    2    0    0 -0.15528501089E+02 -0.39997241180E+01 -0.47317598050E+02  0.49960968649E+02  0.10566000000E+00 0.  1.
        996    1    1    2    0    0  0.15528501089E+02  0.39997241180E+01  0.91693132738E+02  0.10566344084E+03  0.50000000000E+02 0.  0.
<mgrwt>
<rscale>  0 0.52508401E+02</rscale>
<asrwt>0</asrwt>
<pdfrwt beam="1">  1       13 0.10000000E+01 0.52508401E+02</pdfrwt>
<pdfrwt beam="2">  1       22 0.55624422E+00 0.52508401E+02</pdfrwt>
<totfact> 0.58723939E-02</totfact>
</mgrwt>
</event>
<event>
 4    1  0.2489082E+000  0.5209477E+02  0.7957747E-01  0.1434360E+00
         13   -1    0    0    0    0  0.00000000000E+00  0.00000000000E+00  0.99999944176E+02  0.99999999996E+02  0.10566000000E+00 0. -1.
         22   -1    0    0    0    0 -0.00000000000E+00 -0.00000000000E+00 -0.16032056581E+02  0.16032056581E+02  0.00000000000E+00 0.  1.
         13    1    1    2    0    0  0.14621876239E+02 -0.25604104288E+00 -0.27391713651E+01  0.14878811967E+02  0.10566000000E+00 0.  1.
        996    1    1    2    0    0 -0.14621876239E+02  0.25604104288E+00  0.86707058960E+02  0.10115324461E+03  0.50000000000E+02 0.  0.
<mgrwt>
<rscale>  0 0.52094768E+02</rscale>
<asrwt>0</asrwt>
<pdfrwt beam="1">  1       13 0.10000000E+01 0.52094768E+02</pdfrwt>
<pdfrwt beam="2">  1       22 0.16032080E+00 0.52094768E+02</pdfrwt>
<totfact> 0.67306670E-01</totfact>
</mgrwt>
</event>
<event>
 4    1  0.2489082E+000  0.5203924E+02  0.7957747E-01  0.1434643E+00
         13   -1    0    0    0    0  0.00000000000E+00  0.00000000000E+00  0.99999944174E+02  0.99999999994E+02  0.10566000000E+00 0.  1.
         22   -1    0    0    0    0 -0.00000000000E+00 -0.00000000000E+00 -0.11668091107E+02  0.11668091107E+02  0.00000000000E+00 0.  1.
         13    1    1    2    0    0 -0.61978066898E+01 -0.13025719949E+02  0.97279601391E+01  0.17399039067E+02  0.10566000000E+00 0. -1.
        996    1    1    2    0    0  0.61978066898E+01  0.13025719949E+02  0.78603892928E+02  0.94269052034E+02  0.50000000000E+02 0.  0.
<mgrwt>
<rscale>  0 0.52039237E+02</rscale>
<asrwt>0</asrwt>
<pdfrwt beam="1">  1       13 0.10000000E+01 0.52039237E+02</pdfrwt>
<pdfrwt beam="2">  1       22 0.11668116E+00 0.52039237E+02</pdfrwt>
<totfact> 0.11219722E+00</totfact>
</mgrwt>
</event>
<event>
 4    1  0.2489082E+000  0.5151411E+02  0.7957747E-01  0.1437342E+00
         13   -1    0    0    0    0  0.00000000000E+00  0.00000000000E+00  0.99999944186E+02  0.10000000001E+03  0.10566000000E+00 0.  1.
         22   -1    0    0    0    0 -0.00000000000E+00 -0.00000000000E+00 -0.26833560659E+02  0.26833560659E+02  0.00000000000E+00 0. -1.
         13    1    1    2    0    0 -0.64968104531E+01  0.10559134122E+02 -0.18155063850E+02  0.21984571111E+02  0.10566000000E+00 0. -1.
        996    1    1    2    0    0  0.64968104531E+01 -0.10559134122E+02  0.91321447378E+02  0.10484898955E+03  0.50000000000E+02 0.  0.
<mgrwt>
<rscale>  0 0.51514113E+02</rscale>
<asrwt>0</asrwt>
<pdfrwt beam="1">  1       13 0.10000000E+01 0.51514113E+02</pdfrwt>
<pdfrwt beam="2">  1       22 0.26833581E+00 0.51514113E+02</pdfrwt>
<totfact> 0.25632309E-01</totfact>
</mgrwt>
</event>
<event>
 4    1  0.2489082E+000  0.5130091E+02  0.7957747E-01  0.1438449E+00
         13   -1    0    0    0    0  0.00000000000E+00  0.00000000000E+00  0.99999944181E+02  0.10000000000E+03  0.10566000000E+00 0. -1.
         22   -1    0    0    0    0 -0.00000000000E+00 -0.00000000000E+00 -0.50235522616E+02  0.50235522616E+02  0.00000000000E+00 0.  1.
         13    1    1    2    0    0  0.96171512185E+01 -0.62684355962E+01 -0.42850403006E+02  0.44361594699E+02  0.10566000000E+00 0.  1.
        996    1    1    2    0    0 -0.96171512185E+01  0.62684355962E+01  0.92614824572E+02  0.10587392792E+03  0.50000000000E+02 0.  0.
<mgrwt>
<rscale>  0 0.51300905E+02</rscale>
<asrwt>0</asrwt>
<pdfrwt beam="1">  1       13 0.10000000E+01 0.51300905E+02</pdfrwt>
<pdfrwt beam="2">  1       22 0.50235537E+00 0.51300905E+02</pdfrwt>
<totfact> 0.72646110E-02</totfact>
</mgrwt>
</event>
<event>
 4    1  0.2489082E+000  0.5123815E+02  0.7957747E-01  0.1438775E+00
         13   -1    0    0    0    0  0.00000000000E+00  0.00000000000E+00  0.99999944176E+02  0.99999999996E+02  0.10566000000E+00 0.  1.
         22   -1    0    0    0    0 -0.00000000000E+00 -0.00000000000E+00 -0.15894818442E+02  0.15894818442E+02  0.00000000000E+00 0. -1.
         13    1    1    2    0    0 -0.70488533560E+01 -0.86983803343E+01 -0.56523425452E+01  0.12542260337E+02  0.10566000000E+00 0. -1.
        996    1    1    2    0    0  0.70488533560E+01  0.86983803343E+01  0.89757468280E+02  0.10335255810E+03  0.50000000000E+02 0.  0.
<mgrwt>
<rscale>  0 0.51238151E+02</rscale>
<asrwt>0</asrwt>
<pdfrwt beam="1">  1       13 0.10000000E+01 0.51238151E+02</pdfrwt>
<pdfrwt beam="2">  1       22 0.15894842E+00 0.51238151E+02</pdfrwt>
<totfact> 0.68184930E-01</totfact>
</mgrwt>
</event>
<event>
 4    1  0.2489082E+000  0.5346483E+02  0.7957747E-01  0.1427501E+00
         13   -1    0    0    0    0  0.00000000000E+00  0.00000000000E+00  0.99999944182E+02  0.10000000000E+03  0.10566000000E+00 0. -1.
         22   -1    0    0    0    0 -0.00000000000E+00 -0.00000000000E+00 -0.17099057067E+02  0.17099057067E+02  0.00000000000E+00 0.  1.
         13    1    1    2    0    0  0.18783218647E+02 -0.23829775993E+01  0.58375438034E+00  0.18943067814E+02  0.10566000000E+00 0.  1.
        996    1    1    2    0    0 -0.18783218647E+02  0.23829775993E+01  0.82317132735E+02  0.98155989255E+02  0.50000000000E+02 0.  0.
<mgrwt>
<rscale>  0 0.53464828E+02</rscale>
<asrwt>0</asrwt>
<pdfrwt beam="1">  1       13 0.10000000E+01 0.53464828E+02</pdfrwt>
<pdfrwt beam="2">  1       22 0.17099080E+00 0.53464828E+02</pdfrwt>
<totfact> 0.60350036E-01</totfact>
</mgrwt>
</event>
<event>
 4    1  0.2489082E+000  0.5564300E+02  0.7957747E-01  0.1417082E+00
         13   -1    0    0    0    0  0.00000000000E+00  0.00000000000E+00  0.99999944186E+02  0.10000000001E+03  0.10566000000E+00 0.  1.
         22   -1    0    0    0    0 -0.00000000000E+00 -0.00000000000E+00 -0.18547445611E+02  0.18547445611E+02  0.00000000000E+00 0.  1.
         13    1    1    2    0    0  0.16658361346E+02 -0.17850565373E+02  0.66254762248E+01  0.25299244773E+02  0.10566000000E+00 0. -1.
        996    1    1    2    0    0 -0.16658361346E+02  0.17850565373E+02  0.74827022350E+02  0.93248200844E+02  0.50000000000E+02 0.  0.
<mgrwt>
<rscale>  0 0.55643002E+02</rscale>
<asrwt>0</asrwt>
<pdfrwt beam="1">  1       13 0.10000000E+01 0.55643002E+02</pdfrwt>
<pdfrwt beam="2">  1       22 0.18547468E+00 0.55643002E+02</pdfrwt>
<totfact> 0.52392142E-01</totfact>
</mgrwt>
</event>
<event>
 4    1  0.2489082E+000  0.5143108E+02  0.7957747E-01  0.1437772E+00
         13   -1    0    0    0    0  0.00000000000E+00  0.00000000000E+00  0.99999944177E+02  0.99999999997E+02  0.10566000000E+00 0.  1.
         22   -1    0    0    0    0 -0.00000000000E+00 -0.00000000000E+00 -0.10075719493E+02  0.10075719493E+02  0.00000000000E+00 0.  1.
         13    1    1    2    0    0  0.18011086575E+01  0.11912663688E+02  0.17615892456E+02  0.21342126876E+02  0.10566000000E+00 0. -1.
        996    1    1    2    0    0 -0.18011086575E+01 -0.11912663688E+02  0.72308332228E+02  0.88733592614E+02  0.50000000000E+02 0.  0.
<mgrwt>
<rscale>  0 0.51431076E+02</rscale>
<asrwt>0</asrwt>
<pdfrwt beam="1">  1       13 0.10000000E+01 0.51431076E+02</pdfrwt>
<pdfrwt beam="2">  1       22 0.10075745E+00 0.51431076E+02</pdfrwt>
<totfact> 0.13925394E+00</totfact>
</mgrwt>
</event>
<event>
 4    1  0.2489082E+000  0.5122228E+02  0.7957747E-01  0.1438858E+00
         13   -1    0    0    0    0  0.00000000000E+00  0.00000000000E+00  0.99999944175E+02  0.99999999995E+02  0.10566000000E+00 0. -1.
         22   -1    0    0    0    0 -0.00000000000E+00 -0.00000000000E+00 -0.34556832716E+02  0.34556832716E+02  0.00000000000E+00 0.  1.
         13    1    1    2    0    0  0.11019598925E+02 -0.15134063944E+01 -0.26816314602E+02  0.29031842040E+02  0.10566000000E+00 0.  1.
        996    1    1    2    0    0 -0.11019598925E+02  0.15134063944E+01  0.92259426060E+02  0.10552499067E+03  0.50000000000E+02 0.  0.
<mgrwt>
<rscale>  0 0.51222280E+02</rscale>
<asrwt>0</asrwt>
<pdfrwt beam="1">  1       13 0.10000000E+01 0.51222280E+02</pdfrwt>
<pdfrwt beam="2">  1       22 0.34556851E+00 0.51222280E+02</pdfrwt>
<totfact> 0.16053945E-01</totfact>
</mgrwt>
</event>
<event>
 4    1  0.2489082E+000  0.5552506E+02  0.7957747E-01  0.1417632E+00
         13   -1    0    0    0    0  0.00000000000E+00  0.00000000000E+00  0.99999944182E+02  0.10000000000E+03  0.10566000000E+00 0. -1.
         22   -1    0    0    0    0 -0.00000000000E+00 -0.00000000000E+00 -0.26030090550E+02  0.26030090550E+02  0.00000000000E+00 0.  1.
         13    1    1    2    0    0 -0.16410328559E+02 -0.17712527705E+02 -0.93589286842E+01  0.25896587251E+02  0.10566000000E+00 0.  1.
        996    1    1    2    0    0  0.16410328559E+02  0.17712527705E+02  0.83328782316E+02  0.10013350330E+03  0.50000000000E+02 0.  0.
<mgrwt>
<rscale>  0 0.55525062E+02</rscale>
<asrwt>0</asrwt>
<pdfrwt beam="1">  1       13 0.10000000E+01 0.55525062E+02</pdfrwt>
<pdfrwt beam="2">  1       22 0.26030111E+00 0.55525062E+02</pdfrwt>
<totfact> 0.27369237E-01</totfact>
</mgrwt>
</event>
<event>
 4    1  0.2489082E+000  0.5173337E+02  0.7957747E-01  0.1436210E+00
         13   -1    0    0    0    0  0.00000000000E+00  0.00000000000E+00  0.99999944177E+02  0.99999999997E+02  0.10566000000E+00 0. -1.
         22   -1    0    0    0    0 -0.00000000000E+00 -0.00000000000E+00 -0.16313697537E+02  0.16313697537E+02  0.00000000000E+00 0.  1.
         13    1    1    2    0    0  0.11788141545E+02  0.61140271680E+01 -0.45434723594E+01  0.14035523304E+02  0.10566000000E+00 0.  1.
        996    1    1    2    0    0 -0.11788141545E+02 -0.61140271680E+01  0.88229718999E+02  0.10227817423E+03  0.50000000000E+02 0.  0.
<mgrwt>
<rscale>  0 0.51733370E+02</rscale>
<asrwt>0</asrwt>
<pdfrwt beam="1">  1       13 0.10000000E+01 0.51733370E+02</pdfrwt>
<pdfrwt beam="2">  1       22 0.16313721E+00 0.51733370E+02</pdfrwt>
<totfact> 0.65277123E-01</totfact>
</mgrwt>
</event>
<event>
 4    1  0.2489082E+000  0.5719832E+02  0.7957747E-01  0.1409980E+00
         13   -1    0    0    0    0  0.00000000000E+00  0.00000000000E+00  0.99999944171E+02  0.99999999992E+02  0.10566000000E+00 0. -1.
         22   -1    0    0    0    0 -0.00000000000E+00 -0.00000000000E+00 -0.21747108453E+02  0.21747108453E+02  0.00000000000E+00 0.  1.
         13    1    1    2    0    0  0.40125708432E+01  0.27487211215E+02  0.40727772564E+01  0.28075722319E+02  0.10566000000E+00 0.  1.
        996    1    1    2    0    0 -0.40125708432E+01 -0.27487211215E+02  0.74180058462E+02  0.93671386125E+02  0.50000000000E+02 0.  0.
<mgrwt>
<rscale>  0 0.57198317E+02</rscale>
<asrwt>0</asrwt>
<pdfrwt beam="1">  1       13 0.10000000E+01 0.57198317E+02</pdfrwt>
<pdfrwt beam="2">  1       22 0.21747130E+00 0.57198317E+02</pdfrwt>
<totfact> 0.38998916E-01</totfact>
</mgrwt>
</event>
<event>
 4    1  0.2489082E+000  0.5334223E+02  0.7957747E-01  0.1428105E+00
         13   -1    0    0    0    0  0.00000000000E+00  0.00000000000E+00  0.99999944182E+02  0.10000000000E+03  0.10566000000E+00 0. -1.
         22   -1    0    0    0    0 -0.00000000000E+00 -0.00000000000E+00 -0.16652535146E+02  0.16652535146E+02  0.00000000000E+00 0.  1.
         13    1    1    2    0    0 -0.21041131974E+01  0.18465264982E+02  0.10946262932E+01  0.18617268166E+02  0.10566000000E+00 0.  1.
        996    1    1    2    0    0  0.21041131974E+01 -0.18465264982E+02  0.82252782743E+02  0.98035266982E+02  0.50000000000E+02 0.  0.
<mgrwt>
<rscale>  0 0.53342228E+02</rscale>
<asrwt>0</asrwt>
<pdfrwt beam="1">  1       13 0.10000000E+01 0.53342228E+02</pdfrwt>
<pdfrwt beam="2">  1       22 0.16652558E+00 0.53342228E+02</pdfrwt>
<totfact> 0.63192560E-01</totfact>
</mgrwt>
</event>
<event>
 4    1  0.2489082E+000  0.5146482E+02  0.7957747E-01  0.1437597E+00
         13   -1    0    0    0    0  0.00000000000E+00  0.00000000000E+00  0.99999944175E+02  0.99999999995E+02  0.10566000000E+00 0.  1.
         22   -1    0    0    0    0 -0.00000000000E+00 -0.00000000000E+00 -0.20079625588E+02  0.20079625588E+02  0.00000000000E+00 0. -1.
         13    1    1    2    0    0 -0.26391544242E+01  0.11902226574E+02 -0.10466412719E+02  0.16068139056E+02  0.10566000000E+00 0. -1.
        996    1    1    2    0    0  0.26391544242E+01 -0.11902226574E+02  0.90386731305E+02  0.10401148653E+03  0.50000000000E+02 0.  0.
<mgrwt>
<rscale>  0 0.51464824E+02</rscale>
<asrwt>0</asrwt>
<pdfrwt beam="1">  1       13 0.10000000E+01 0.51464824E+02</pdfrwt>
<pdfrwt beam="2">  1       22 0.20079648E+00 0.51464824E+02</pdfrwt>
<totfact> 0.44929718E-01</totfact>
</mgrwt>
</event>
<event>
 4    1  0.2489082E+000  0.5401923E+02  0.7957747E-01  0.1424795E+00
         13   -1    0    0    0    0  0.00000000000E+00  0.00000000000E+00  0.99999944184E+02  0.10000000000E+03  0.10566000000E+00 0.  1.
         22   -1    0    0    0    0 -0.00000000000E+00 -0.00000000000E+00 -0.34975009397E+02  0.34975009397E+02  0.00000000000E+00 0. -1.
         13    1    1    2    0    0 -0.21400193146E+00  0.20445811163E+02 -0.23574404668E+02  0.31206420981E+02  0.10566000000E+00 0. -1.
        996    1    1    2    0    0  0.21400193146E+00 -0.20445811163E+02  0.88599339455E+02  0.10376858842E+03  0.50000000000E+02 0.  0.
<mgrwt>
<rscale>  0 0.54019228E+02</rscale>
<asrwt>0</asrwt>
<pdfrwt beam="1">  1       13 0.10000000E+01 0.54019228E+02</pdfrwt>
<pdfrwt beam="2">  1       22 0.34975028E+00 0.54019228E+02</pdfrwt>
<totfact> 0.15766322E-01</totfact>
</mgrwt>
</event>
<event>
 4    1  0.2489082E+000  0.5228424E+02  0.7957747E-01  0.1433396E+00
         13   -1    0    0    0    0  0.00000000000E+00  0.00000000000E+00  0.99999944173E+02  0.99999999993E+02  0.10566000000E+00 0.  1.
         22   -1    0    0    0    0 -0.00000000000E+00 -0.00000000000E+00 -0.17366557600E+02  0.17366557600E+02  0.00000000000E+00 0.  1.
         13    1    1    2    0    0 -0.12871432868E+02  0.82442735209E+01 -0.43378302187E+01  0.15889297184E+02  0.10566000000E+00 0. -1.
        996    1    1    2    0    0  0.12871432868E+02 -0.82442735209E+01  0.86971216791E+02  0.10147726041E+03  0.50000000000E+02 0.  0.
<mgrwt>
<rscale>  0 0.52284241E+02</rscale>
<asrwt>0</asrwt>
<pdfrwt beam="1">  1       13 0.10000000E+01 0.52284241E+02</pdfrwt>
<pdfrwt beam="2">  1       22 0.17366581E+00 0.52284241E+02</pdfrwt>
<totfact> 0.58590197E-01</totfact>
</mgrwt>
</event>
<event>
 4    1  0.2489082E+000  0.5162445E+02  0.7957747E-01  0.1436772E+00
         13   -1    0    0    0    0  0.00000000000E+00  0.00000000000E+00  0.99999944183E+02  0.10000000000E+03  0.10566000000E+00 0. -1.
         22   -1    0    0    0    0 -0.00000000000E+00 -0.00000000000E+00 -0.55471843754E+02  0.55471843754E+02  0.00000000000E+00 0.  1.
         13    1    1    2    0    0 -0.11339330598E+02 -0.60417864711E+01 -0.47905672274E+02  0.49598872993E+02  0.10566000000E+00 0.  1.
        996    1    1    2    0    0  0.11339330598E+02  0.60417864711E+01  0.92433772703E+02  0.10587297076E+03  0.50000000000E+02 0.  0.
<mgrwt>
<rscale>  0 0.51624448E+02</rscale>
<asrwt>0</asrwt>
<pdfrwt beam="1">  1       13 0.10000000E+01 0.51624448E+02</pdfrwt>
<pdfrwt beam="2">  1       22 0.55471856E+00 0.51624448E+02</pdfrwt>
<totfact> 0.58811847E-02</totfact>
</mgrwt>
</event>
<event>
 4    1  0.2489082E+000  0.5117665E+02  0.7957747E-01  0.1439096E+00
         13   -1    0    0    0    0  0.00000000000E+00  0.00000000000E+00  0.99999944178E+02  0.99999999998E+02  0.10566000000E+00 0. -1.
         22   -1    0    0    0    0 -0.00000000000E+00 -0.00000000000E+00 -0.34498746962E+02  0.34498746962E+02  0.00000000000E+00 0.  1.
         13    1    1    2    0    0  0.71613005830E+00  0.10887434830E+02 -0.26812899465E+02  0.28948088386E+02  0.10566000000E+00 0.  1.
        996    1    1    2    0    0 -0.71613005830E+00 -0.10887434830E+02  0.92314096681E+02  0.10555065857E+03  0.50000000000E+02 0.  0.
<mgrwt>
<rscale>  0 0.51176646E+02</rscale>
<asrwt>0</asrwt>
<pdfrwt beam="1">  1       13 0.10000000E+01 0.51176646E+02</pdfrwt>
<pdfrwt beam="2">  1       22 0.34498765E+00 0.51176646E+02</pdfrwt>
<totfact> 0.16100287E-01</totfact>
</mgrwt>
</event>
<event>
 4    1  0.2489082E+000  0.5504480E+02  0.7957747E-01  0.1419887E+00
         13   -1    0    0    0    0  0.00000000000E+00  0.00000000000E+00  0.99999944170E+02  0.99999999990E+02  0.10566000000E+00 0.  1.
         22   -1    0    0    0    0 -0.00000000000E+00 -0.00000000000E+00 -0.20323675124E+02  0.20323675124E+02  0.00000000000E+00 0. -1.
         13    1    1    2    0    0  0.22421856101E+02 -0.52144529321E+01 -0.55274964193E+00  0.23027089408E+02  0.10566000000E+00 0. -1.
        996    1    1    2    0    0 -0.22421856101E+02  0.52144529321E+01  0.80229018688E+02  0.97296585706E+02  0.50000000000E+02 0.  0.
<mgrwt>
<rscale>  0 0.55044801E+02</rscale>
<asrwt>0</asrwt>
<pdfrwt beam="1">  1       13 0.10000000E+01 0.55044801E+02</pdfrwt>
<pdfrwt beam="2">  1       22 0.20323697E+00 0.55044801E+02</pdfrwt>
<totfact> 0.44199249E-01</totfact>
</mgrwt>
</event>
<event>
 4    1  0.2489082E+000  0.5296930E+02  0.7957747E-01  0.1429954E+00
         13   -1    0    0    0    0  0.00000000000E+00  0.00000000000E+00  0.99999944172E+02  0.99999999992E+02  0.10566000000E+00 0.  1.
         22   -1    0    0    0    0 -0.00000000000E+00 -0.00000000000E+00 -0.41525959892E+02  0.41525959892E+02  0.00000000000E+00 0. -1.
         13    1    1    2    0    0  0.34508548227E+01  0.17141722318E+02 -0.32126797260E+02  0.36577169235E+02  0.10566000000E+00 0. -1.
        996    1    1    2    0    0 -0.34508548227E+01 -0.17141722318E+02  0.90600781540E+02  0.10494879065E+03  0.50000000000E+02 0.  0.
<mgrwt>
<rscale>  0 0.52969303E+02</rscale>
<asrwt>0</asrwt>
<pdfrwt beam="1">  1       13 0.10000000E+01 0.52969303E+02</pdfrwt>
<pdfrwt beam="2">  1       22 0.41525976E+00 0.52969303E+02</pdfrwt>
<totfact> 0.11504952E-01</totfact>
</mgrwt>
</event>
<event>
 4    1  0.2489082E+000  0.5126712E+02  0.7957747E-01  0.1438624E+00
         13   -1    0    0    0    0  0.00000000000E+00  0.00000000000E+00  0.99999944181E+02  0.10000000000E+03  0.10566000000E+00 0.  1.
         22   -1    0    0    0    0 -0.00000000000E+00 -0.00000000000E+00 -0.14180004289E+02  0.14180004289E+02  0.00000000000E+00 0. -1.
         13    1    1    2    0    0  0.89219582510E+00 -0.11292540438E+02 -0.29172138153E+01  0.11697811052E+02  0.10566000000E+00 0. -1.
        996    1    1    2    0    0 -0.89219582510E+00  0.11292540438E+02  0.88737153707E+02  0.10248219324E+03  0.50000000000E+02 0.  0.
<mgrwt>
<rscale>  0 0.51267119E+02</rscale>
<asrwt>0</asrwt>
<pdfrwt beam="1">  1       13 0.10000000E+01 0.51267119E+02</pdfrwt>
<pdfrwt beam="2">  1       22 0.14180028E+00 0.51267119E+02</pdfrwt>
<totfact> 0.82467931E-01</totfact>
</mgrwt>
</event>
<event>
 4    1  0.2489082E+000  0.5101820E+02  0.7957747E-01  0.1439926E+00
         13   -1    0    0    0    0  0.00000000000E+00  0.00000000000E+00  0.99999944179E+02  0.99999999999E+02  0.10566000000E+00 0. -1.
         22   -1    0    0    0    0 -0.00000000000E+00 -0.00000000000E+00 -0.16417501873E+02  0.16417501873E+02  0.00000000000E+00 0. -1.
         13    1    1    2    0    0  0.17660733993E+01 -0.99868669631E+01 -0.70917783076E+01  0.12375823633E+02  0.10566000000E+00 0.  1.
        996    1    1    2    0    0 -0.17660733993E+01  0.99868669631E+01  0.90674220614E+02  0.10404167824E+03  0.50000000000E+02 0.  0.
<mgrwt>
<rscale>  0 0.51018198E+02</rscale>
<asrwt>0</asrwt>
<pdfrwt beam="1">  1       13 0.10000000E+01 0.51018198E+02</pdfrwt>
<pdfrwt beam="2">  1       22 0.16417525E+00 0.51018198E+02</pdfrwt>
<totfact> 0.64474835E-01</totfact>
</mgrwt>
</event>
<event>
 4    1  0.2489082E+000  0.5531402E+02  0.7957747E-01  0.1418620E+00
         13   -1    0    0    0    0  0.00000000000E+00  0.00000000000E+00  0.99999944180E+02  0.10000000000E+03  0.10566000000E+00 0. -1.
         22   -1    0    0    0    0 -0.00000000000E+00 -0.00000000000E+00 -0.39700375630E+02  0.39700375630E+02  0.00000000000E+00 0.  1.
         13    1    1    2    0    0  0.23503479395E+01 -0.23539673430E+02 -0.27284161941E+02  0.36112006556E+02  0.10566000000E+00 0.  1.
        996    1    1    2    0    0 -0.23503479395E+01  0.23539673430E+02  0.87583730491E+02  0.10358836907E+03  0.50000000000E+02 0.  0.
<mgrwt>
<rscale>  0 0.55314016E+02</rscale>
<asrwt>0</asrwt>
<pdfrwt beam="1">  1       13 0.10000000E+01 0.55314016E+02</pdfrwt>
<pdfrwt beam="2">  1       22 0.39700392E+00 0.55314016E+02</pdfrwt>
<totfact> 0.12576906E-01</totfact>
</mgrwt>
</event>
<event>
 4    1  0.2489082E+000  0.5293509E+02  0.7957747E-01  0.1430124E+00
         13   -1    0    0    0    0  0.00000000000E+00  0.00000000000E+00  0.99999944174E+02  0.99999999994E+02  0.10566000000E+00 0. -1.
         22   -1    0    0    0    0 -0.00000000000E+00 -0.00000000000E+00 -0.60596054809E+02  0.60596054809E+02  0.00000000000E+00 0.  1.
         13    1    1    2    0    0  0.41818079621E+01  0.16871180078E+02 -0.52078331006E+02  0.54902531449E+02  0.10566000000E+00 0.  1.
        996    1    1    2    0    0 -0.41818079621E+01 -0.16871180078E+02  0.91482220371E+02  0.10569352335E+03  0.50000000000E+02 0.  0.
<mgrwt>
<rscale>  0 0.52935095E+02</rscale>
<asrwt>0</asrwt>
<pdfrwt beam="1">  1       13 0.10000000E+01 0.52935095E+02</pdfrwt>
<pdfrwt beam="2">  1       22 0.60596066E+00 0.52935095E+02</pdfrwt>
<totfact> 0.65869913E-02</totfact>
</mgrwt>
</event>
<event>
 4    1  0.2489082E+000  0.8534028E+02  0.7957747E-01  0.1314545E+00
         13   -1    0    0    0    0  0.00000000000E+00  0.00000000000E+00  0.99999944176E+02  0.99999999996E+02  0.10566000000E+00 0.  1.
         22   -1    0    0    0    0 -0.00000000000E+00 -0.00000000000E+00 -0.61321771294E+02  0.61321771294E+02  0.00000000000E+00 0. -1.
         13    1    1    2    0    0 -0.45788329749E+02 -0.51830419669E+02  0.42209694174E+01  0.69287742719E+02  0.10566000000E+00 0. -1.
        996    1    1    2    0    0  0.45788329749E+02  0.51830419669E+02  0.34457203465E+02  0.92034028570E+02  0.50000000000E+02 0.  0.
<mgrwt>
<rscale>  0 0.85340281E+02</rscale>
<asrwt>0</asrwt>
<pdfrwt beam="1">  1       13 0.10000000E+01 0.85340281E+02</pdfrwt>
<pdfrwt beam="2">  1       22 0.61321782E+00 0.85340281E+02</pdfrwt>
<totfact> 0.69258386E-02</totfact>
</mgrwt>
</event>
<event>
 4    1  0.2489082E+000  0.5611304E+02  0.7957747E-01  0.1414907E+00
         13   -1    0    0    0    0  0.00000000000E+00  0.00000000000E+00  0.99999944179E+02  0.99999999999E+02  0.10566000000E+00 0. -1.
         22   -1    0    0    0    0 -0.00000000000E+00 -0.00000000000E+00 -0.16640506602E+02  0.16640506602E+02  0.00000000000E+00 0. -1.
         13    1    1    2    0    0  0.25441268015E+02  0.11895991318E+01  0.25540162017E+02  0.36069160015E+02  0.10566000000E+00 0.  1.
        996    1    1    2    0    0 -0.25441268015E+02 -0.11895991318E+01  0.57819275560E+02  0.80571346585E+02  0.50000000000E+02 0.  0.
<mgrwt>
<rscale>  0 0.56113040E+02</rscale>
<asrwt>0</asrwt>
<pdfrwt beam="1">  1       13 0.10000000E+01 0.56113040E+02</pdfrwt>
<pdfrwt beam="2">  1       22 0.16640530E+00 0.56113040E+02</pdfrwt>
<totfact> 0.63597154E-01</totfact>
</mgrwt>
</event>
<event>
 4    1  0.2489082E+000  0.5377561E+02  0.7957747E-01  0.1425979E+00
         13   -1    0    0    0    0  0.00000000000E+00  0.00000000000E+00  0.99999944174E+02  0.99999999994E+02  0.10566000000E+00 0. -1.
         22   -1    0    0    0    0 -0.00000000000E+00 -0.00000000000E+00 -0.19914926166E+02  0.19914926166E+02  0.00000000000E+00 0.  1.
         13    1    1    2    0    0 -0.12282403069E+01  0.19756212614E+02 -0.39131567079E+01  0.20177722135E+02  0.10566000000E+00 0.  1.
        996    1    1    2    0    0  0.12282403069E+01 -0.19756212614E+02  0.83998174716E+02  0.99737204025E+02  0.50000000000E+02 0.  0.
<mgrwt>
<rscale>  0 0.53775613E+02</rscale>
<asrwt>0</asrwt>
<pdfrwt beam="1">  1       13 0.10000000E+01 0.53775613E+02</pdfrwt>
<pdfrwt beam="2">  1       22 0.19914949E+00 0.53775613E+02</pdfrwt>
<totfact> 0.45812879E-01</totfact>
</mgrwt>
</event>
<event>
 4    1  0.2489082E+000  0.5108251E+02  0.7957747E-01  0.1439589E+00
         13   -1    0    0    0    0  0.00000000000E+00  0.00000000000E+00  0.99999944181E+02  0.10000000000E+03  0.10566000000E+00 0. -1.
         22   -1    0    0    0    0 -0.00000000000E+00 -0.00000000000E+00 -0.20045368880E+02  0.20045368880E+02  0.00000000000E+00 0.  1.
         13    1    1    2    0    0  0.82265717105E+01 -0.64611754519E+01 -0.11341857000E+02  0.15429586987E+02  0.10566000000E+00 0.  1.
        996    1    1    2    0    0 -0.82265717105E+01  0.64611754519E+01  0.91296432302E+02  0.10461578189E+03  0.50000000000E+02 0.  0.
<mgrwt>
<rscale>  0 0.51082514E+02</rscale>
<asrwt>0</asrwt>
<pdfrwt beam="1">  1       13 0.10000000E+01 0.51082514E+02</pdfrwt>
<pdfrwt beam="2">  1       22 0.20045391E+00 0.51082514E+02</pdfrwt>
<totfact> 0.45041828E-01</totfact>
</mgrwt>
</event>
<event>
 4    1  0.2489082E+000  0.5103093E+02  0.7957747E-01  0.1439859E+00
         13   -1    0    0    0    0  0.00000000000E+00  0.00000000000E+00  0.99999944182E+02  0.10000000000E+03  0.10566000000E+00 0.  1.
         22   -1    0    0    0    0 -0.00000000000E+00 -0.00000000000E+00 -0.19210074689E+02  0.19210074689E+02  0.00000000000E+00 0. -1.
         13    1    1    2    0    0  0.74329496112E+01  0.69933232878E+01 -0.10488825484E+02  0.14634955914E+02  0.10566000000E+00 0. -1.
        996    1    1    2    0    0 -0.74329496112E+01 -0.69933232878E+01  0.91278694977E+02  0.10457511878E+03  0.50000000000E+02 0.  0.
<mgrwt>
<rscale>  0 0.51030925E+02</rscale>
<asrwt>0</asrwt>
<pdfrwt beam="1">  1       13 0.10000000E+01 0.51030925E+02</pdfrwt>
<pdfrwt beam="2">  1       22 0.19210097E+00 0.51030925E+02</pdfrwt>
<totfact> 0.48731097E-01</totfact>
</mgrwt>
</event>
<event>
 4    1  0.2489082E+000  0.5478264E+02  0.7957747E-01  0.1421130E+00
         13   -1    0    0    0    0  0.00000000000E+00  0.00000000000E+00  0.99999944186E+02  0.10000000001E+03  0.10566000000E+00 0.  1.
         22   -1    0    0    0    0 -0.00000000000E+00 -0.00000000000E+00 -0.22332648567E+02  0.22332648567E+02  0.00000000000E+00 0. -1.
         13    1    1    2    0    0 -0.14484843158E+02 -0.17068301894E+02 -0.52111694987E+01  0.22984887697E+02  0.10566000000E+00 0. -1.
        996    1    1    2    0    0  0.14484843158E+02  0.17068301894E+02  0.82878465118E+02  0.99347760876E+02  0.50000000000E+02 0.  0.
<mgrwt>
<rscale>  0 0.54782640E+02</rscale>
<asrwt>0</asrwt>
<pdfrwt beam="1">  1       13 0.10000000E+01 0.54782640E+02</pdfrwt>
<pdfrwt beam="2">  1       22 0.22332670E+00 0.54782640E+02</pdfrwt>
<totfact> 0.36911787E-01</totfact>
</mgrwt>
</event>
<event>
 4    1  0.2489082E+000  0.5844030E+02  0.7957747E-01  0.1404496E+00
         13   -1    0    0    0    0  0.00000000000E+00  0.00000000000E+00  0.99999944177E+02  0.99999999997E+02  0.10566000000E+00 0. -1.
         22   -1    0    0    0    0 -0.00000000000E+00 -0.00000000000E+00 -0.32930682792E+02  0.32930682792E+02  0.00000000000E+00 0.  1.
         13    1    1    2    0    0 -0.29719780413E+02 -0.56571028814E+01 -0.13720817607E+02  0.33219574962E+02  0.10566000000E+00 0.  1.
        996    1    1    2    0    0  0.29719780413E+02  0.56571028814E+01  0.80790078992E+02  0.99711107828E+02  0.50000000000E+02 0.  0.
<mgrwt>
<rscale>  0 0.58440296E+02</rscale>
<asrwt>0</asrwt>
<pdfrwt beam="1">  1       13 0.10000000E+01 0.58440296E+02</pdfrwt>
<pdfrwt beam="2">  1       22 0.32930702E+00 0.58440296E+02</pdfrwt>
<totfact> 0.17606130E-01</totfact>
</mgrwt>
</event>
<event>
 4    1  0.2489082E+000  0.6100618E+02  0.7957747E-01  0.1393657E+00
         13   -1    0    0    0    0  0.00000000000E+00  0.00000000000E+00  0.99999944183E+02  0.10000000000E+03  0.10566000000E+00 0.  1.
         22   -1    0    0    0    0 -0.00000000000E+00 -0.00000000000E+00 -0.26852235999E+02  0.26852235999E+02  0.00000000000E+00 0. -1.
         13    1    1    2    0    0 -0.34739035844E+02 -0.38669050679E+01  0.48718779901E+01  0.35291641013E+02  0.10566000000E+00 0. -1.
        996    1    1    2    0    0  0.34739035844E+02  0.38669050679E+01  0.68275830194E+02  0.91560594989E+02  0.50000000000E+02 0.  0.
<mgrwt>
<rscale>  0 0.61006176E+02</rscale>
<asrwt>0</asrwt>
<pdfrwt beam="1">  1       13 0.10000000E+01 0.61006176E+02</pdfrwt>
<pdfrwt beam="2">  1       22 0.26852256E+00 0.61006176E+02</pdfrwt>
<totfact> 0.25931347E-01</totfact>
</mgrwt>
</event>
<event>
 4    1  0.2489082E+000  0.5261293E+02  0.7957747E-01  0.1431737E+00
         13   -1    0    0    0    0  0.00000000000E+00  0.00000000000E+00  0.99999944176E+02  0.99999999996E+02  0.10566000000E+00 0. -1.
         22   -1    0    0    0    0 -0.00000000000E+00 -0.00000000000E+00 -0.11917795670E+02  0.11917795670E+02  0.00000000000E+00 0.  1.
         13    1    1    2    0    0 -0.44606795854E+01 -0.15755077043E+02  0.19014123454E+02  0.25093189709E+02  0.10566000000E+00 0.  1.
        996    1    1    2    0    0  0.44606795854E+01  0.15755077043E+02  0.69068025052E+02  0.86824605957E+02  0.50000000000E+02 0.  0.
<mgrwt>
<rscale>  0 0.52612927E+02</rscale>
<asrwt>0</asrwt>
<pdfrwt beam="1">  1       13 0.10000000E+01 0.52612927E+02</pdfrwt>
<pdfrwt beam="2">  1       22 0.11917820E+00 0.52612927E+02</pdfrwt>
<totfact> 0.10877887E+00</totfact>
</mgrwt>
</event>
<event>
 4    1  0.2489082E+000  0.5586501E+02  0.7957747E-01  0.1416052E+00
         13   -1    0    0    0    0  0.00000000000E+00  0.00000000000E+00  0.99999944189E+02  0.10000000001E+03  0.10566000000E+00 0. -1.
         22   -1    0    0    0    0 -0.00000000000E+00 -0.00000000000E+00 -0.17191984871E+02  0.17191984871E+02  0.00000000000E+00 0. -1.
         13    1    1    2    0    0 -0.18226075513E+02  0.16991469099E+02  0.14072049447E+02  0.28617015750E+02  0.10566000000E+00 0.  1.
        996    1    1    2    0    0  0.18226075513E+02 -0.16991469099E+02  0.68735909870E+02  0.88574969130E+02  0.50000000000E+02 0.  0.
<mgrwt>
<rscale>  0 0.55865015E+02</rscale>
<asrwt>0</asrwt>
<pdfrwt beam="1">  1       13 0.10000000E+01 0.55865015E+02</pdfrwt>
<pdfrwt beam="2">  1       22 0.17192008E+00 0.55865015E+02</pdfrwt>
<totfact> 0.60039839E-01</totfact>
</mgrwt>
</event>
<event>
 4    1  0.2489082E+000  0.5310437E+02  0.7957747E-01  0.1429282E+00
         13   -1    0    0    0    0  0.00000000000E+00  0.00000000000E+00  0.99999944174E+02  0.99999999995E+02  0.10566000000E+00 0.  1.
         22   -1    0    0    0    0 -0.00000000000E+00 -0.00000000000E+00 -0.16117334190E+02  0.16117334190E+02  0.00000000000E+00 0. -1.
         13    1    1    2    0    0  0.17739612341E+02  0.23195479715E+01  0.13052945101E+01  0.17938481168E+02  0.10566000000E+00 0. -1.
        996    1    1    2    0    0 -0.17739612341E+02 -0.23195479715E+01  0.82577315474E+02  0.98178853017E+02  0.50000000000E+02 0.  0.
<mgrwt>
<rscale>  0 0.53104370E+02</rscale>
<asrwt>0</asrwt>
<pdfrwt beam="1">  1       13 0.10000000E+01 0.53104370E+02</pdfrwt>
<pdfrwt beam="2">  1       22 0.16117358E+00 0.53104370E+02</pdfrwt>
<totfact> 0.66829861E-01</totfact>
</mgrwt>
</event>
<event>
 4    1  0.2489082E+000  0.5301285E+02  0.7957747E-01  0.1429737E+00
         13   -1    0    0    0    0  0.00000000000E+00  0.00000000000E+00  0.99999944181E+02  0.10000000000E+03  0.10566000000E+00 0. -1.
         22   -1    0    0    0    0 -0.00000000000E+00 -0.00000000000E+00 -0.36478477129E+02  0.36478477129E+02  0.00000000000E+00 0.  1.
         13    1    1    2    0    0 -0.60286323334E+01 -0.16553477504E+02 -0.26609468066E+02  0.31912959437E+02  0.10566000000E+00 0.  1.
        996    1    1    2    0    0  0.60286323334E+01  0.16553477504E+02  0.90130935117E+02  0.10456551769E+03  0.50000000000E+02 0.  0.
<mgrwt>
<rscale>  0 0.53012848E+02</rscale>
<asrwt>0</asrwt>
<pdfrwt beam="1">  1       13 0.10000000E+01 0.53012848E+02</pdfrwt>
<pdfrwt beam="2">  1       22 0.36478495E+00 0.53012848E+02</pdfrwt>
<totfact> 0.14631923E-01</totfact>
</mgrwt>
</event>
