<event>
 5    1  0.1218060E-008  0.3806399E+03  0.7957747E-01  0.3448377E+00
         13   -1    0    0    0    0  0.00000000000E+00  0.00000000000E+00  0.14999999963E+04  0.15000000000E+04  0.10566000000E+00 0. -1.
        994   -1    0    0    0    0 -0.00000000000E+00 -0.00000000000E+00  0.11368683772E-12  0.17120000000E+03  0.17120000000E+03 0.  0.
         13    1    1    2    0    0  0.10346681971E+02 -0.22977519864E+02  0.86253651160E+02  0.89859466666E+02  0.10566000000E+00 0. -1.
        994    1    1    2    0    0 -0.18140400861E+02 -0.18625040955E+01  0.49205932826E+01  0.17223877410E+03  0.17120000000E+03 0.  0.
        998    1    1    2    0    0  0.77937188894E+01  0.24840023960E+02  0.14088257518E+04  0.14091017592E+04  0.10000000000E+02 0. -1.
</event>
<event>
 5    1  0.1218060E-008  0.3851578E+03  0.7957747E-01  0.3429003E+00
         13   -1    0    0    0    0  0.00000000000E+00  0.00000000000E+00  0.14999999963E+04  0.15000000000E+04  0.10566000000E+00 0. -1.
        994   -1    0    0    0    0 -0.00000000000E+00 -0.00000000000E+00  0.11368683772E-12  0.17120000000E+03  0.17120000000E+03 0.  0.
         13    1    1    2    0    0  0.66673779612E+01 -0.91968396707E+01  0.40811231488E+02  0.42362761577E+02  0.10566000000E+00 0. -1.
        994    1    1    2    0    0 -0.11996493594E+02  0.49884580716E+01  0.21068743917E+01  0.17170521102E+03  0.17120000000E+03 0.  0.
        998    1    1    2    0    0  0.53291156329E+01  0.42083815992E+01  0.14570818904E+04  0.14571320274E+04  0.10000000000E+02 0. -1.
</event>
<event>
 5    1  0.1218060E-008  0.3849502E+03  0.7957747E-01  0.3429883E+00
         13   -1    0    0    0    0  0.00000000000E+00  0.00000000000E+00  0.14999999963E+04  0.15000000000E+04  0.10566000000E+00 0.  1.
        994   -1    0    0    0    0 -0.00000000000E+00 -0.00000000000E+00  0.11368683772E-12  0.17120000000E+03  0.17120000000E+03 0.  0.
         13    1    1    2    0    0  0.16011723856E+02  0.10622450743E+02  0.11460616289E+03  0.11620583245E+03  0.10566000000E+00 0.  1.
        994    1    1    2    0    0 -0.15059298909E+02  0.59268112547E+01  0.25168066694E+01  0.17198163824E+03  0.17120000000E+03 0.  0.
        998    1    1    2    0    0 -0.95242494663E+00 -0.16549261998E+02  0.13828770267E+04  0.13830125293E+04  0.10000000000E+02 0.  1.
</event>
<event>
 5    1  0.1218060E-008  0.3764729E+03  0.7957747E-01  0.3466662E+00
         13   -1    0    0    0    0  0.00000000000E+00  0.00000000000E+00  0.14999999963E+04  0.15000000000E+04  0.10566000000E+00 0. -1.
        994   -1    0    0    0    0 -0.00000000000E+00 -0.00000000000E+00  0.11368683772E-12  0.17120000000E+03  0.17120000000E+03 0.  0.
         13    1    1    2    0    0 -0.31124044627E+02  0.15759210372E+02  0.37498221846E+02  0.51217054495E+02  0.10566000000E+00 0. -1.
        994    1    1    2    0    0  0.13857137451E+02 -0.66433696067E+01  0.15248429139E+02  0.17256334840E+03  0.17120000000E+03 0.  0.
        998    1    1    2    0    0  0.17266907176E+02 -0.91158407650E+01  0.14472533453E+04  0.14474195971E+04  0.10000000000E+02 0. -1.
</event>
<event>
 5    1  0.1218060E-008  0.3791037E+03  0.7957747E-01  0.3455071E+00
         13   -1    0    0    0    0  0.00000000000E+00  0.00000000000E+00  0.14999999963E+04  0.15000000000E+04  0.10566000000E+00 0.  1.
        994   -1    0    0    0    0 -0.00000000000E+00 -0.00000000000E+00  0.11368683772E-12  0.17120000000E+03  0.17120000000E+03 0.  0.
         13    1    1    2    0    0 -0.29834838950E+02 -0.15884139040E+02  0.11515797324E+03  0.12001580501E+03  0.10566000000E+00 0.  1.
        994    1    1    2    0    0  0.34253744429E+02  0.55955687621E+01  0.86358131461E+01  0.17489610249E+03  0.17120000000E+03 0.  0.
        998    1    1    2    0    0 -0.44189054794E+01  0.10288570278E+02  0.13762062099E+04  0.13762880925E+04  0.10000000000E+02 0.  1.
</event>
<event>
 5    1  0.1218060E-008  0.3695203E+03  0.7957747E-01  0.3498098E+00
         13   -1    0    0    0    0  0.00000000000E+00  0.00000000000E+00  0.14999999963E+04  0.15000000000E+04  0.10566000000E+00 0.  1.
        994   -1    0    0    0    0 -0.00000000000E+00 -0.00000000000E+00  0.11368683772E-12  0.17120000000E+03  0.17120000000E+03 0.  0.
         13    1    1    2    0    0  0.79138593251E+02  0.10233334324E+03  0.45947343796E+03  0.47733728268E+03  0.10566000000E+00 0.  1.
        994    1    1    2    0    0 -0.83008452165E+02 -0.11608901289E+03  0.85565573230E+02  0.23874247500E+03  0.17120000000E+03 0.  0.
        998    1    1    2    0    0  0.38698589142E+01  0.13755669654E+02  0.95496098509E+03  0.95512024233E+03  0.10000000000E+02 0.  1.
</event>
<event>
 5    1  0.1218060E-008  0.3795971E+03  0.7957747E-01  0.3452915E+00
         13   -1    0    0    0    0  0.00000000000E+00  0.00000000000E+00  0.14999999963E+04  0.15000000000E+04  0.10566000000E+00 0. -1.
        994   -1    0    0    0    0 -0.00000000000E+00 -0.00000000000E+00  0.11368683772E-12  0.17120000000E+03  0.17120000000E+03 0.  0.
         13    1    1    2    0    0  0.20989688910E+02 -0.31610996983E+01  0.48231393904E+02  0.52695712480E+02  0.10566000000E+00 0. -1.
        994    1    1    2    0    0 -0.24583461955E+02  0.81027475994E+01  0.65826347170E+01  0.17327080597E+03  0.17120000000E+03 0.  0.
        998    1    1    2    0    0  0.35937730444E+01 -0.49416479011E+01  0.14451859677E+04  0.14452334816E+04  0.10000000000E+02 0. -1.
</event>
<event>
 5    1  0.1218060E-008  0.3720969E+03  0.7957747E-01  0.3486309E+00
         13   -1    0    0    0    0  0.00000000000E+00  0.00000000000E+00  0.14999999963E+04  0.15000000000E+04  0.10566000000E+00 0.  1.
        994   -1    0    0    0    0 -0.00000000000E+00 -0.00000000000E+00  0.11368683772E-12  0.17120000000E+03  0.17120000000E+03 0.  0.
         13    1    1    2    0    0 -0.11998345213E+02  0.15541665834E+02  0.11108840737E+02  0.22559281268E+02  0.10566000000E+00 0.  1.
        994    1    1    2    0    0 -0.10877720633E+02 -0.67752307897E+01  0.12630518743E+02  0.17214295966E+03  0.17120000000E+03 0.  0.
        998    1    1    2    0    0  0.22876065846E+02 -0.87664350448E+01  0.14762606368E+04  0.14764977591E+04  0.10000000000E+02 0.  1.
</event>
<event>
 5    1  0.1218060E-008  0.3847212E+03  0.7957747E-01  0.3430855E+00
         13   -1    0    0    0    0  0.00000000000E+00  0.00000000000E+00  0.14999999963E+04  0.15000000000E+04  0.10566000000E+00 0. -1.
        994   -1    0    0    0    0 -0.00000000000E+00 -0.00000000000E+00  0.11368683772E-12  0.17120000000E+03  0.17120000000E+03 0.  0.
         13    1    1    2    0    0  0.12137526165E+02  0.13026912592E+02  0.99724903230E+02  0.10130196188E+03  0.10566000000E+00 0. -1.
        994    1    1    2    0    0 -0.57645108362E+01  0.87065294728E+01  0.21275790709E+01  0.17153133776E+03  0.17120000000E+03 0.  0.
        998    1    1    2    0    0 -0.63730153292E+01 -0.21733442064E+02  0.13981475140E+04  0.13983667004E+04  0.10000000000E+02 0. -1.
</event>
<event>
 5    1  0.1218060E-008  0.2591412E+03  0.7957747E-01  0.4239178E+00
         13   -1    0    0    0    0  0.00000000000E+00  0.00000000000E+00  0.14999999963E+04  0.15000000000E+04  0.10566000000E+00 0. -1.
        994   -1    0    0    0    0 -0.00000000000E+00 -0.00000000000E+00  0.11368683772E-12  0.17120000000E+03  0.17120000000E+03 0.  0.
         13    1    1    2    0    0  0.19797099762E+02 -0.15360440377E+03  0.50917209597E+03  0.53220529168E+03  0.10566000000E+00 0. -1.
        994    1    1    2    0    0  0.17197086021E+02  0.71258526559E+02  0.48695930568E+02  0.19249480780E+03  0.17120000000E+03 0.  0.
        998    1    1    2    0    0 -0.36994185783E+02  0.82345877214E+02  0.94213196975E+03  0.94649990052E+03  0.10000000000E+02 0. -1.
</event>
<event>
 5    1  0.1218060E-008  0.3832213E+03  0.7957747E-01  0.3437251E+00
         13   -1    0    0    0    0  0.00000000000E+00  0.00000000000E+00  0.14999999963E+04  0.15000000000E+04  0.10566000000E+00 0.  1.
        994   -1    0    0    0    0 -0.00000000000E+00 -0.00000000000E+00  0.11368683772E-12  0.17120000000E+03  0.17120000000E+03 0.  0.
         13    1    1    2    0    0 -0.19863007540E+02  0.77065561102E+02  0.13124168072E+03  0.15348625247E+03  0.10566000000E+00 0.  1.
        994    1    1    2    0    0  0.74985158781E+02 -0.10599292287E+03  0.82886913253E+02  0.23029753391E+03  0.17120000000E+03 0.  0.
        998    1    1    2    0    0 -0.55122151240E+02  0.28927361764E+02  0.12858714023E+04  0.12874162136E+04  0.10000000000E+02 0.  1.
</event>
<event>
 5    1  0.1218060E-008  0.3813226E+03  0.7957747E-01  0.3445420E+00
         13   -1    0    0    0    0  0.00000000000E+00  0.00000000000E+00  0.14999999963E+04  0.15000000000E+04  0.10566000000E+00 0. -1.
        994   -1    0    0    0    0 -0.00000000000E+00 -0.00000000000E+00  0.11368683772E-12  0.17120000000E+03  0.17120000000E+03 0.  0.
         13    1    1    2    0    0 -0.32596796151E+02 -0.42242200100E+02  0.31750822900E+03  0.32196031003E+03  0.10566000000E+00 0. -1.
        994    1    1    2    0    0  0.37964910743E+02  0.41140997989E+02  0.13968966936E+02  0.18066125263E+03  0.17120000000E+03 0.  0.
        998    1    1    2    0    0 -0.53681145923E+01  0.11012021109E+01  0.11685228003E+04  0.11685784373E+04  0.10000000000E+02 0. -1.
</event>
<event>
 5    1  0.1218060E-008  0.3847252E+03  0.7957747E-01  0.3430839E+00
         13   -1    0    0    0    0  0.00000000000E+00  0.00000000000E+00  0.14999999963E+04  0.15000000000E+04  0.10566000000E+00 0. -1.
        994   -1    0    0    0    0 -0.00000000000E+00 -0.00000000000E+00  0.11368683772E-12  0.17120000000E+03  0.17120000000E+03 0.  0.
         13    1    1    2    0    0  0.65205347641E+01  0.20580562097E+02  0.12931354679E+03  0.13110332359E+03  0.10566000000E+00 0. -1.
        994    1    1    2    0    0 -0.51957081697E+01 -0.14704342837E+02  0.25676043508E+01  0.17192802469E+03  0.17120000000E+03 0.  0.
        998    1    1    2    0    0 -0.13248265944E+01 -0.58762192601E+01  0.13681188451E+04  0.13681686517E+04  0.10000000000E+02 0. -1.
</event>
<event>
 5    1  0.1218060E-008  0.3685401E+03  0.7957747E-01  0.3502628E+00
         13   -1    0    0    0    0  0.00000000000E+00  0.00000000000E+00  0.14999999963E+04  0.15000000000E+04  0.10566000000E+00 0. -1.
        994   -1    0    0    0    0 -0.00000000000E+00 -0.00000000000E+00  0.11368683772E-12  0.17120000000E+03  0.17120000000E+03 0.  0.
         13    1    1    2    0    0 -0.27108076273E+02 -0.16170356104E+02  0.44395813431E+02  0.54473182668E+02  0.10566000000E+00 0. -1.
        994    1    1    2    0    0  0.23766489019E+02  0.23111398489E+02  0.13862905596E+02  0.17493028009E+03  0.17120000000E+03 0.  0.
        998    1    1    2    0    0  0.33415872541E+01 -0.69410423853E+01  0.14417412773E+04  0.14417965372E+04  0.10000000000E+02 0. -1.
</event>
<event>
 5    1  0.1218060E-008  0.3771075E+03  0.7957747E-01  0.3463851E+00
         13   -1    0    0    0    0  0.00000000000E+00  0.00000000000E+00  0.14999999963E+04  0.15000000000E+04  0.10566000000E+00 0.  1.
        994   -1    0    0    0    0 -0.00000000000E+00 -0.00000000000E+00  0.11368683772E-12  0.17120000000E+03  0.17120000000E+03 0.  0.
         13    1    1    2    0    0  0.14290511527E+02  0.29505567536E+02  0.89849339515E+02  0.95643673135E+02  0.10566000000E+00 0.  1.
        994    1    1    2    0    0 -0.21830807768E+02 -0.23391009393E+02  0.90635056069E+01  0.17439985843E+03  0.17120000000E+03 0.  0.
        998    1    1    2    0    0  0.75402962412E+01 -0.61145581431E+01  0.14010871512E+04  0.14011564684E+04  0.10000000000E+02 0.  1.
</event>
<event>
 5    1  0.1218060E-008  0.3758141E+03  0.7957747E-01  0.3469590E+00
         13   -1    0    0    0    0  0.00000000000E+00  0.00000000000E+00  0.14999999963E+04  0.15000000000E+04  0.10566000000E+00 0. -1.
        994   -1    0    0    0    0 -0.00000000000E+00 -0.00000000000E+00  0.11368683772E-12  0.17120000000E+03  0.17120000000E+03 0.  0.
         13    1    1    2    0    0  0.41709120787E+02 -0.14706827506E+01  0.16441580584E+03  0.16963013305E+03  0.10566000000E+00 0. -1.
        994    1    1    2    0    0  0.78967848613E+01  0.15305232062E+02  0.72673602149E+01  0.17221749001E+03  0.17120000000E+03 0.  0.
        998    1    1    2    0    0 -0.49605905648E+02 -0.13834549312E+02  0.13283168302E+04  0.13293523769E+04  0.10000000000E+02 0. -1.
</event>
<event>
 5    1  0.1654359E-008  0.3858043E+03  0.7957747E-01  0.3426268E+00
         13   -1    0    0    0    0  0.00000000000E+00  0.00000000000E+00  0.14999999963E+04  0.15000000000E+04  0.10566000000E+00 0. -1.
        994   -1    0    0    0    0 -0.00000000000E+00 -0.00000000000E+00  0.11368683772E-12  0.17120000000E+03  0.17120000000E+03 0.  0.
         13    1    1    2    0    0 -0.11150551769E+02  0.60344759251E+00  0.51139677049E+02  0.52344786622E+02  0.10566000000E+00 0. -1.
        994    1    1    2    0    0  0.73439850379E+01  0.58528607154E+00  0.14093830805E+01  0.17136424083E+03  0.17120000000E+03 0.  0.
        998    1    1    2    0    0  0.38065667310E+01 -0.11887336640E+01  0.14474509361E+04  0.14474909725E+04  0.10000000000E+02 0. -1.
</event>
<event>
 5    1  0.1218060E-008  0.3829285E+03  0.7957747E-01  0.3438505E+00
         13   -1    0    0    0    0  0.00000000000E+00  0.00000000000E+00  0.14999999963E+04  0.15000000000E+04  0.10566000000E+00 0.  1.
        994   -1    0    0    0    0 -0.00000000000E+00 -0.00000000000E+00  0.11368683772E-12  0.17120000000E+03  0.17120000000E+03 0.  0.
         13    1    1    2    0    0 -0.78297811211E+02  0.33114016785E+02  0.49249025743E+03  0.49977369896E+03  0.10566000000E+00 0.  1.
        994    1    1    2    0    0  0.10686546753E+03 -0.79800799776E+02  0.63976408575E+02  0.22625387654E+03  0.17120000000E+03 0.  0.
        998    1    1    2    0    0 -0.28567656316E+02  0.46686782991E+02  0.94353333028E+03  0.94517242450E+03  0.10000000000E+02 0.  1.
</event>
<event>
 5    1  0.1218060E-008  0.3803982E+03  0.7957747E-01  0.3449427E+00
         13   -1    0    0    0    0  0.00000000000E+00  0.00000000000E+00  0.14999999963E+04  0.15000000000E+04  0.10566000000E+00 0. -1.
        994   -1    0    0    0    0 -0.00000000000E+00 -0.00000000000E+00  0.11368683772E-12  0.17120000000E+03  0.17120000000E+03 0.  0.
         13    1    1    2    0    0  0.99150164671E+01  0.33031016294E+02  0.13056926616E+03  0.13504702892E+03  0.10566000000E+00 0. -1.
        994    1    1    2    0    0 -0.12589278907E+02 -0.41973066332E+02  0.10369758684E+02  0.17702316271E+03  0.17120000000E+03 0.  0.
        998    1    1    2    0    0  0.26742624403E+01  0.89420500374E+01  0.13590609714E+04  0.13591298084E+04  0.10000000000E+02 0. -1.
</event>
<event>
 5    1  0.1218060E-008  0.3743417E+03  0.7957747E-01  0.3476172E+00
         13   -1    0    0    0    0  0.00000000000E+00  0.00000000000E+00  0.14999999963E+04  0.15000000000E+04  0.10566000000E+00 0. -1.
        994   -1    0    0    0    0 -0.00000000000E+00 -0.00000000000E+00  0.11368683772E-12  0.17120000000E+03  0.17120000000E+03 0.  0.
         13    1    1    2    0    0 -0.79439265675E+01  0.17431157082E+02  0.22570444953E+02  0.29603840222E+02  0.10566000000E+00 0. -1.
        994    1    1    2    0    0  0.68712024772E+01 -0.23292083504E+02  0.90288732941E+01  0.17314934343E+03  0.17120000000E+03 0.  0.
        998    1    1    2    0    0  0.10727240903E+01  0.58609264227E+01  0.14684006780E+04  0.14684468163E+04  0.10000000000E+02 0. -1.
</event>
<event>
 5    1  0.1218060E-008  0.3773718E+03  0.7957747E-01  0.3462683E+00
         13   -1    0    0    0    0  0.00000000000E+00  0.00000000000E+00  0.14999999963E+04  0.15000000000E+04  0.10566000000E+00 0. -1.
        994   -1    0    0    0    0 -0.00000000000E+00 -0.00000000000E+00  0.11368683772E-12  0.17120000000E+03  0.17120000000E+03 0.  0.
         13    1    1    2    0    0 -0.41093991859E+02 -0.33072213856E+02  0.83831603073E+02  0.99046637166E+02  0.10566000000E+00 0. -1.
        994    1    1    2    0    0  0.39028315154E+02  0.34669353591E+02  0.24736917872E+02  0.18068350386E+03  0.17120000000E+03 0.  0.
        998    1    1    2    0    0  0.20656767050E+01 -0.15971397351E+01  0.13914314753E+04  0.13914698590E+04  0.10000000000E+02 0. -1.
</event>
<event>
 5    1  0.1218060E-008  0.3817926E+03  0.7957747E-01  0.3443390E+00
         13   -1    0    0    0    0  0.00000000000E+00  0.00000000000E+00  0.14999999963E+04  0.15000000000E+04  0.10566000000E+00 0.  1.
        994   -1    0    0    0    0 -0.00000000000E+00 -0.00000000000E+00  0.11368683772E-12  0.17120000000E+03  0.17120000000E+03 0.  0.
         13    1    1    2    0    0 -0.30456763327E+01 -0.32067157861E+02  0.17145517827E+03  0.17445477373E+03  0.10566000000E+00 0.  1.
        994    1    1    2    0    0  0.14416343894E+02  0.84966708023E+01  0.41621000788E+01  0.17206622987E+03  0.17120000000E+03 0.  0.
        998    1    1    2    0    0 -0.11370667562E+02  0.23570487059E+02  0.13243827179E+04  0.13246789964E+04  0.10000000000E+02 0.  1.
</event>
<event>
 5    1  0.1218060E-008  0.3732784E+03  0.7957747E-01  0.3480958E+00
         13   -1    0    0    0    0  0.00000000000E+00  0.00000000000E+00  0.14999999963E+04  0.15000000000E+04  0.10566000000E+00 0.  1.
        994   -1    0    0    0    0 -0.00000000000E+00 -0.00000000000E+00  0.11368683772E-12  0.17120000000E+03  0.17120000000E+03 0.  0.
         13    1    1    2    0    0  0.97676031343E+01 -0.29197847539E+02  0.28446636937E+02  0.41918285854E+02  0.10566000000E+00 0.  1.
        994    1    1    2    0    0 -0.59719187618E+02  0.53522660092E+02  0.35790666804E+02  0.19240963683E+03  0.17120000000E+03 0.  0.
        998    1    1    2    0    0  0.49951584484E+02 -0.24324812553E+02  0.14357626925E+04  0.14368720773E+04  0.10000000000E+02 0.  1.
</event>
<event>
 5    1  0.1218060E-008  0.3829078E+03  0.7957747E-01  0.3438594E+00
         13   -1    0    0    0    0  0.00000000000E+00  0.00000000000E+00  0.14999999963E+04  0.15000000000E+04  0.10566000000E+00 0. -1.
        994   -1    0    0    0    0 -0.00000000000E+00 -0.00000000000E+00  0.11368683772E-12  0.17120000000E+03  0.17120000000E+03 0.  0.
         13    1    1    2    0    0 -0.72255338744E+01  0.11413575094E+02  0.32175997121E+02  0.34896761898E+02  0.10566000000E+00 0. -1.
        994    1    1    2    0    0  0.96704216836E+01 -0.15212466782E+02  0.37490815980E+01  0.17218719991E+03  0.17120000000E+03 0.  0.
        998    1    1    2    0    0 -0.24448878092E+01  0.37988916878E+01  0.14640749176E+04  0.14641160382E+04  0.10000000000E+02 0.  0.
</event>
<event>
 5    1  0.1218060E-008  0.3721842E+03  0.7957747E-01  0.3485912E+00
         13   -1    0    0    0    0  0.00000000000E+00  0.00000000000E+00  0.14999999963E+04  0.15000000000E+04  0.10566000000E+00 0. -1.
        994   -1    0    0    0    0 -0.00000000000E+00 -0.00000000000E+00  0.11368683772E-12  0.17120000000E+03  0.17120000000E+03 0.  0.
         13    1    1    2    0    0 -0.21566111511E+02 -0.17059098881E+02  0.43097755557E+02  0.51122771036E+02  0.10566000000E+00 0. -1.
        994    1    1    2    0    0  0.13166738638E+02  0.15532327281E+02  0.95560219488E+01  0.17267128815E+03  0.17120000000E+03 0.  0.
        998    1    1    2    0    0  0.83993728730E+01  0.15267716002E+01  0.14473462188E+04  0.14474059408E+04  0.10000000000E+02 0. -1.
</event>
<event>
 5    1  0.1218060E-008  0.3778801E+03  0.7957747E-01  0.3460441E+00
         13   -1    0    0    0    0  0.00000000000E+00  0.00000000000E+00  0.14999999963E+04  0.15000000000E+04  0.10566000000E+00 0.  1.
        994   -1    0    0    0    0 -0.00000000000E+00 -0.00000000000E+00  0.11368683772E-12  0.17120000000E+03  0.17120000000E+03 0.  0.
         13    1    1    2    0    0 -0.74338709615E+01  0.10502126438E+02  0.13813793322E+02  0.18878271827E+02  0.10566000000E+00 0.  1.
        994    1    1    2    0    0 -0.50691358128E+01 -0.72028925399E+01  0.54683174363E+01  0.17151361548E+03  0.17120000000E+03 0.  0.
        998    1    1    2    0    0  0.12503006774E+02 -0.32992338982E+01  0.14807178855E+04  0.14808081127E+04  0.10000000000E+02 0.  1.
</event>
<event>
 5    1  0.1218060E-008  0.3775216E+03  0.7957747E-01  0.3462022E+00
         13   -1    0    0    0    0  0.00000000000E+00  0.00000000000E+00  0.14999999963E+04  0.15000000000E+04  0.10566000000E+00 0. -1.
        994   -1    0    0    0    0 -0.00000000000E+00 -0.00000000000E+00  0.11368683772E-12  0.17120000000E+03  0.17120000000E+03 0.  0.
         13    1    1    2    0    0 -0.43814034993E+02  0.53866217854E+01  0.22629662461E+03  0.23056204985E+03  0.10566000000E+00 0. -1.
        994    1    1    2    0    0 -0.70316754055E+01 -0.32845396571E+01  0.55925449259E+01  0.17146704995E+03  0.17120000000E+03 0.  0.
        998    1    1    2    0    0  0.50845710399E+02 -0.21020821282E+01  0.12681108267E+04  0.12691709002E+04  0.10000000000E+02 0. -1.
</event>
<event>
 5    1  0.1218060E-008  0.3814939E+03  0.7957747E-01  0.3444680E+00
         13   -1    0    0    0    0  0.00000000000E+00  0.00000000000E+00  0.14999999963E+04  0.15000000000E+04  0.10566000000E+00 0. -1.
        994   -1    0    0    0    0 -0.00000000000E+00 -0.00000000000E+00  0.11368683772E-12  0.17120000000E+03  0.17120000000E+03 0.  0.
         13    1    1    2    0    0  0.16089269853E+02 -0.12048770188E+01  0.36269785259E+02  0.39696660058E+02  0.10566000000E+00 0. -1.
        994    1    1    2    0    0 -0.18522917775E+02 -0.11076047394E+01  0.45271834432E+01  0.17226218581E+03  0.17120000000E+03 0.  0.
        998    1    1    2    0    0  0.24336479227E+01  0.23124817582E+01  0.14592030276E+04  0.14592411541E+04  0.10000000000E+02 0. -1.
</event>
<event>
 5    1  0.1218060E-008  0.3760155E+03  0.7957747E-01  0.3468694E+00
         13   -1    0    0    0    0  0.00000000000E+00  0.00000000000E+00  0.14999999963E+04  0.15000000000E+04  0.10566000000E+00 0.  1.
        994   -1    0    0    0    0 -0.00000000000E+00 -0.00000000000E+00  0.11368683772E-12  0.17120000000E+03  0.17120000000E+03 0.  0.
         13    1    1    2    0    0 -0.25153925208E+02  0.19356280399E+02  0.76783664722E+02  0.83085064099E+02  0.10566000000E+00 0.  1.
        994    1    1    2    0    0  0.22306287022E+02 -0.18531769066E+02  0.90123982428E+01  0.17387254018E+03  0.17120000000E+03 0.  0.
        998    1    1    2    0    0  0.28476381854E+01 -0.82451133238E+00  0.14142039333E+04  0.14142423957E+04  0.10000000000E+02 0.  1.
</event>
<event>
 5    1  0.1218060E-008  0.3847043E+03  0.7957747E-01  0.3430927E+00
         13   -1    0    0    0    0  0.00000000000E+00  0.00000000000E+00  0.14999999963E+04  0.15000000000E+04  0.10566000000E+00 0. -1.
        994   -1    0    0    0    0 -0.00000000000E+00 -0.00000000000E+00  0.11368683772E-12  0.17120000000E+03  0.17120000000E+03 0.  0.
         13    1    1    2    0    0 -0.63756010890E+01 -0.19456279404E+02  0.11279339958E+03  0.11463663136E+03  0.10566000000E+00 0. -1.
        994    1    1    2    0    0 -0.60049968845E+00  0.19551652442E+02  0.30375677257E+01  0.17234063517E+03  0.17120000000E+03 0.  0.
        998    1    1    2    0    0  0.69761007775E+01 -0.95373038631E-01  0.13841690290E+04  0.13842227335E+04  0.10000000000E+02 0.  0.
</event>
<event>
 5    1  0.1218060E-008  0.3816395E+03  0.7957747E-01  0.3444051E+00
         13   -1    0    0    0    0  0.00000000000E+00  0.00000000000E+00  0.14999999963E+04  0.15000000000E+04  0.10566000000E+00 0.  1.
        994   -1    0    0    0    0 -0.00000000000E+00 -0.00000000000E+00  0.11368683772E-12  0.17120000000E+03  0.17120000000E+03 0.  0.
         13    1    1    2    0    0 -0.45962702374E+02 -0.61967317370E+01  0.23302010775E+03  0.23759072220E+03  0.10566000000E+00 0.  1.
        994    1    1    2    0    0  0.64293064637E+02  0.15474071032E+02  0.17986772766E+02  0.18440718269E+03  0.17120000000E+03 0.  0.
        998    1    1    2    0    0 -0.18330362262E+02 -0.92773392952E+01  0.12489931158E+04  0.12492020951E+04  0.10000000000E+02 0.  1.
</event>
<event>
 5    1  0.1218060E-008  0.3820639E+03  0.7957747E-01  0.3442221E+00
         13   -1    0    0    0    0  0.00000000000E+00  0.00000000000E+00  0.14999999963E+04  0.15000000000E+04  0.10566000000E+00 0.  1.
        994   -1    0    0    0    0 -0.00000000000E+00 -0.00000000000E+00  0.11368683772E-12  0.17120000000E+03  0.17120000000E+03 0.  0.
         13    1    1    2    0    0 -0.43607083097E+01 -0.98432616747E+01  0.16713492439E+02  0.19881085758E+02  0.10566000000E+00 0.  1.
        994    1    1    2    0    0  0.20667772631E+02  0.16676920508E+02  0.54401345717E+01  0.17333295003E+03  0.17120000000E+03 0.  0.
        998    1    1    2    0    0 -0.16307064321E+02 -0.68336588328E+01  0.14778463693E+04  0.14779859642E+04  0.10000000000E+02 0.  1.
</event>
<event>
 5    1  0.1218060E-008  0.3841977E+03  0.7957747E-01  0.3433082E+00
         13   -1    0    0    0    0  0.00000000000E+00  0.00000000000E+00  0.14999999963E+04  0.15000000000E+04  0.10566000000E+00 0.  1.
        994   -1    0    0    0    0 -0.00000000000E+00 -0.00000000000E+00  0.11368683772E-12  0.17120000000E+03  0.17120000000E+03 0.  0.
         13    1    1    2    0    0 -0.49518721383E+01  0.15674102579E+02  0.61265739350E+02  0.63432645471E+02  0.10566000000E+00 0.  1.
        994    1    1    2    0    0  0.26211576261E+01 -0.25316508506E+02  0.41678146486E+01  0.17313176124E+03  0.17120000000E+03 0.  0.
        998    1    1    2    0    0  0.23307145122E+01  0.96424059270E+01  0.14345664423E+04  0.14346355933E+04  0.10000000000E+02 0.  1.
</event>
<event>
 5    1  0.1218060E-008  0.3857321E+03  0.7957747E-01  0.3426573E+00
         13   -1    0    0    0    0  0.00000000000E+00  0.00000000000E+00  0.14999999963E+04  0.15000000000E+04  0.10566000000E+00 0.  1.
        994   -1    0    0    0    0 -0.00000000000E+00 -0.00000000000E+00  0.11368683772E-12  0.17120000000E+03  0.17120000000E+03 0.  0.
         13    1    1    2    0    0 -0.43534244136E+01  0.10707348220E+02  0.52322126867E+02  0.53583726391E+02  0.10566000000E+00 0.  1.
        994    1    1    2    0    0  0.50321209438E+01 -0.88869993236E+01  0.16093746816E+01  0.17151189779E+03  0.17120000000E+03 0.  0.
        998    1    1    2    0    0 -0.67869653019E+00 -0.18203488966E+01  0.14460684947E+04  0.14461043758E+04  0.10000000000E+02 0.  1.
</event>
<event>
 5    1  0.1218060E-008  0.3759265E+03  0.7957747E-01  0.3469089E+00
         13   -1    0    0    0    0  0.00000000000E+00  0.00000000000E+00  0.14999999963E+04  0.15000000000E+04  0.10566000000E+00 0.  1.
        994   -1    0    0    0    0 -0.00000000000E+00 -0.00000000000E+00  0.11368683772E-12  0.17120000000E+03  0.17120000000E+03 0.  0.
         13    1    1    2    0    0 -0.44605191232E+02 -0.30703829627E+02  0.19951654449E+03  0.20673463892E+03  0.10566000000E+00 0.  1.
        994    1    1    2    0    0  0.43538984988E+02  0.38895831750E+02  0.17842662187E+02  0.18175898749E+03  0.17120000000E+03 0.  0.
        998    1    1    2    0    0  0.10662062440E+01 -0.81920021226E+01  0.12826407896E+04  0.12827063736E+04  0.10000000000E+02 0.  1.
</event>
<event>
 5    1  0.1218060E-008  0.3831712E+03  0.7957747E-01  0.3437466E+00
         13   -1    0    0    0    0  0.00000000000E+00  0.00000000000E+00  0.14999999963E+04  0.15000000000E+04  0.10566000000E+00 0.  1.
        994   -1    0    0    0    0 -0.00000000000E+00 -0.00000000000E+00  0.11368683772E-12  0.17120000000E+03  0.17120000000E+03 0.  0.
         13    1    1    2    0    0  0.17732627548E+02 -0.12532881807E+02  0.10258805667E+03  0.10486104969E+03  0.10566000000E+00 0.  1.
        994    1    1    2    0    0  0.62724975120E+01  0.40841355186E+01  0.27262195496E+01  0.17138522883E+03  0.17120000000E+03 0.  0.
        998    1    1    2    0    0 -0.24005125060E+02  0.84487462886E+01  0.13946857201E+04  0.13949537215E+04  0.10000000000E+02 0.  1.
</event>
<event>
 5    1  0.1218060E-008  0.3118498E+03  0.7957747E-01  0.3814893E+00
         13   -1    0    0    0    0  0.00000000000E+00  0.00000000000E+00  0.14999999963E+04  0.15000000000E+04  0.10566000000E+00 0. -1.
        994   -1    0    0    0    0 -0.00000000000E+00 -0.00000000000E+00  0.11368683772E-12  0.17120000000E+03  0.17120000000E+03 0.  0.
         13    1    1    2    0    0  0.10196660691E+03 -0.17960185599E+03  0.69060167273E+03  0.72082223685E+03  0.10566000000E+00 0. -1.
        994    1    1    2    0    0 -0.11109246885E+03  0.17202699655E+03  0.18262684384E+03  0.32341432910E+03  0.17120000000E+03 0.  0.
        998    1    1    2    0    0  0.91258619378E+01  0.75748594425E+01  0.62677147971E+03  0.62696343405E+03  0.10000000000E+02 0. -1.
</event>
<event>
 5    1  0.1218060E-008  0.3845461E+03  0.7957747E-01  0.3431599E+00
         13   -1    0    0    0    0  0.00000000000E+00  0.00000000000E+00  0.14999999963E+04  0.15000000000E+04  0.10566000000E+00 0.  1.
        994   -1    0    0    0    0 -0.00000000000E+00 -0.00000000000E+00  0.11368683772E-12  0.17120000000E+03  0.17120000000E+03 0.  0.
         13    1    1    2    0    0  0.12264070103E+02  0.11543870412E+02  0.72935274192E+02  0.74854750986E+02  0.10566000000E+00 0.  1.
        994    1    1    2    0    0 -0.74539600333E+01 -0.18470010054E+02  0.31632826809E+01  0.17238372646E+03  0.17120000000E+03 0.  0.
        998    1    1    2    0    0 -0.48101100698E+01  0.69261396422E+01  0.14239014394E+04  0.14239615226E+04  0.10000000000E+02 0.  1.
</event>
<event>
 5    1  0.1218060E-008  0.3697777E+03  0.7957747E-01  0.3496913E+00
         13   -1    0    0    0    0  0.00000000000E+00  0.00000000000E+00  0.14999999963E+04  0.15000000000E+04  0.10566000000E+00 0. -1.
        994   -1    0    0    0    0 -0.00000000000E+00 -0.00000000000E+00  0.11368683772E-12  0.17120000000E+03  0.17120000000E+03 0.  0.
         13    1    1    2    0    0 -0.20515735761E+02  0.62466146048E+02  0.21391174140E+03  0.22378820141E+03  0.10566000000E+00 0. -1.
        994    1    1    2    0    0  0.18017078006E+02 -0.46586719609E+02  0.18068575580E+02  0.17925080465E+03  0.17120000000E+03 0.  0.
        998    1    1    2    0    0  0.24986577553E+01 -0.15879426439E+02  0.12680196793E+04  0.12681609939E+04  0.10000000000E+02 0. -1.
</event>
<event>
 5    1  0.1218060E-008  0.3809961E+03  0.7957747E-01  0.3446833E+00
         13   -1    0    0    0    0  0.00000000000E+00  0.00000000000E+00  0.14999999963E+04  0.15000000000E+04  0.10566000000E+00 0.  1.
        994   -1    0    0    0    0 -0.00000000000E+00 -0.00000000000E+00  0.11368683772E-12  0.17120000000E+03  0.17120000000E+03 0.  0.
         13    1    1    2    0    0 -0.11121089039E+02  0.44583869300E+01  0.18074242843E+02  0.21685139008E+02  0.10566000000E+00 0.  1.
        994    1    1    2    0    0  0.87947490521E+01 -0.11213993597E+02  0.43081607958E+01  0.17184615653E+03  0.17120000000E+03 0.  0.
        998    1    1    2    0    0  0.23263399864E+01  0.67556066666E+01  0.14776175926E+04  0.14776687045E+04  0.10000000000E+02 0.  1.
</event>
<event>
 5    1  0.2469845E-008  0.3852889E+03  0.7957747E-01  0.3428448E+00
         13   -1    0    0    0    0  0.00000000000E+00  0.00000000000E+00  0.14999999963E+04  0.15000000000E+04  0.10566000000E+00 0.  1.
        994   -1    0    0    0    0 -0.00000000000E+00 -0.00000000000E+00  0.11368683772E-12  0.17120000000E+03  0.17120000000E+03 0.  0.
         13    1    1    2    0    0  0.10031256678E+02 -0.29536665590E+01  0.36780840786E+02  0.38238614903E+02  0.10566000000E+00 0.  1.
        994    1    1    2    0    0 -0.67702779584E+01  0.14145033993E+01  0.16439697495E+01  0.17134754191E+03  0.17120000000E+03 0.  0.
        998    1    1    2    0    0 -0.32609787200E+01  0.15391631597E+01  0.14615751857E+04  0.14616138432E+04  0.10000000000E+02 0.  1.
</event>
<event>
 5    1  0.1218060E-008  0.3687046E+03  0.7957747E-01  0.3501865E+00
         13   -1    0    0    0    0  0.00000000000E+00  0.00000000000E+00  0.14999999963E+04  0.15000000000E+04  0.10566000000E+00 0. -1.
        994   -1    0    0    0    0 -0.00000000000E+00 -0.00000000000E+00  0.11368683772E-12  0.17120000000E+03  0.17120000000E+03 0.  0.
         13    1    1    2    0    0  0.17746451082E+02 -0.78092179966E+02  0.46207443687E+03  0.46896281459E+03  0.10566000000E+00 0. -1.
        994    1    1    2    0    0 -0.13105524371E+01  0.49319928493E+01  0.10038212472E+02  0.17156995020E+03  0.17120000000E+03 0.  0.
        998    1    1    2    0    0 -0.16435898645E+02  0.73160187117E+02  0.10278873469E+04  0.10306672352E+04  0.10000000000E+02 0. -1.
</event>
<event>
 5    1  0.1218060E-008  0.3742635E+03  0.7957747E-01  0.3476523E+00
         13   -1    0    0    0    0  0.00000000000E+00  0.00000000000E+00  0.14999999963E+04  0.15000000000E+04  0.10566000000E+00 0. -1.
        994   -1    0    0    0    0 -0.00000000000E+00 -0.00000000000E+00  0.11368683772E-12  0.17120000000E+03  0.17120000000E+03 0.  0.
         13    1    1    2    0    0  0.64136423595E+01 -0.55210743679E+02  0.26726786442E+03  0.27298623325E+03  0.10566000000E+00 0. -1.
        994    1    1    2    0    0  0.18125945130E+02  0.49626654667E+01  0.82618300762E+01  0.17242643583E+03  0.17120000000E+03 0.  0.
        998    1    1    2    0    0 -0.24539587489E+02  0.50248078212E+02  0.12244703018E+04  0.12257873309E+04  0.10000000000E+02 0. -1.
</event>
<event>
 5    1  0.1218060E-008  0.3788730E+03  0.7957747E-01  0.3456081E+00
         13   -1    0    0    0    0  0.00000000000E+00  0.00000000000E+00  0.14999999963E+04  0.15000000000E+04  0.10566000000E+00 0.  1.
        994   -1    0    0    0    0 -0.00000000000E+00 -0.00000000000E+00  0.11368683772E-12  0.17120000000E+03  0.17120000000E+03 0.  0.
         13    1    1    2    0    0  0.10666743359E+02  0.53585964083E+01  0.13036692802E+02  0.17676552057E+02  0.10566000000E+00 0.  1.
        994    1    1    2    0    0 -0.89829680436E+01 -0.49192874313E+01  0.50551751413E+01  0.17158055805E+03  0.17120000000E+03 0.  0.
        998    1    1    2    0    0 -0.16837753154E+01 -0.43930897693E+00  0.14819081283E+04  0.14819428899E+04  0.10000000000E+02 0.  1.
</event>
<event>
 5    1  0.1218060E-008  0.3795504E+03  0.7957747E-01  0.3453118E+00
         13   -1    0    0    0    0  0.00000000000E+00  0.00000000000E+00  0.14999999963E+04  0.15000000000E+04  0.10566000000E+00 0. -1.
        994   -1    0    0    0    0 -0.00000000000E+00 -0.00000000000E+00  0.11368683772E-12  0.17120000000E+03  0.17120000000E+03 0.  0.
         13    1    1    2    0    0 -0.13054472432E+02  0.53619838959E+01  0.20170675620E+02  0.24617827702E+02  0.10566000000E+00 0. -1.
        994    1    1    2    0    0  0.30402859126E+02  0.81342183276E+01  0.76834542800E+01  0.17423827025E+03  0.17120000000E+03 0.  0.
        998    1    1    2    0    0 -0.17348386694E+02 -0.13496202223E+02  0.14721458664E+04  0.14723439020E+04  0.10000000000E+02 0. -1.
</event>
<event>
 5    1  0.1218060E-008  0.3848337E+03  0.7957747E-01  0.3430378E+00
         13   -1    0    0    0    0  0.00000000000E+00  0.00000000000E+00  0.14999999963E+04  0.15000000000E+04  0.10566000000E+00 0.  1.
        994   -1    0    0    0    0 -0.00000000000E+00 -0.00000000000E+00  0.11368683772E-12  0.17120000000E+03  0.17120000000E+03 0.  0.
         13    1    1    2    0    0 -0.13720344837E+02  0.27566953843E+01  0.60341911130E+02  0.61943560074E+02  0.10566000000E+00 0.  1.
        994    1    1    2    0    0 -0.18031374916E+01 -0.97179383372E+01  0.20342197323E+01  0.17149713607E+03  0.17120000000E+03 0.  0.
        998    1    1    2    0    0  0.15523482329E+02  0.69612429529E+01  0.14376238654E+04  0.14377593039E+04  0.10000000000E+02 0.  1.
</event>
<event>
 5    1  0.1218060E-008  0.3809620E+03  0.7957747E-01  0.3446980E+00
         13   -1    0    0    0    0  0.00000000000E+00  0.00000000000E+00  0.14999999963E+04  0.15000000000E+04  0.10566000000E+00 0. -1.
        994   -1    0    0    0    0 -0.00000000000E+00 -0.00000000000E+00  0.11368683772E-12  0.17120000000E+03  0.17120000000E+03 0.  0.
         13    1    1    2    0    0 -0.17080022809E+02 -0.19728206914E+01  0.38422848676E+02  0.42094484972E+02  0.10566000000E+00 0. -1.
        994    1    1    2    0    0  0.16401508081E+02  0.45208710574E+01  0.46134543435E+01  0.17210511818E+03  0.17120000000E+03 0.  0.
        998    1    1    2    0    0  0.67851472804E+00 -0.25480503659E+01  0.14569636933E+04  0.14570003968E+04  0.10000000000E+02 0. -1.
</event>
<event>
 5    1  0.1218060E-008  0.3751341E+03  0.7957747E-01  0.3472623E+00
         13   -1    0    0    0    0  0.00000000000E+00  0.00000000000E+00  0.14999999963E+04  0.15000000000E+04  0.10566000000E+00 0. -1.
        994   -1    0    0    0    0 -0.00000000000E+00 -0.00000000000E+00  0.11368683772E-12  0.17120000000E+03  0.17120000000E+03 0.  0.
         13    1    1    2    0    0 -0.33392853449E+02 -0.33518219751E+02  0.15231245723E+03  0.15949184778E+03  0.10566000000E+00 0. -1.
        994    1    1    2    0    0  0.27997261119E+02  0.36873041152E+02  0.13927733293E+02  0.17789572662E+03  0.17120000000E+03 0.  0.
        998    1    1    2    0    0  0.53955923300E+01 -0.33548214014E+01  0.13337598058E+04  0.13338124256E+04  0.10000000000E+02 0. -1.
</event>
<event>
 5    1  0.1218060E-008  0.3821249E+03  0.7957747E-01  0.3441958E+00
         13   -1    0    0    0    0  0.00000000000E+00  0.00000000000E+00  0.14999999963E+04  0.15000000000E+04  0.10566000000E+00 0.  1.
        994   -1    0    0    0    0 -0.00000000000E+00 -0.00000000000E+00  0.11368683772E-12  0.17120000000E+03  0.17120000000E+03 0.  0.
         13    1    1    2    0    0 -0.76785824469E+01 -0.90136828911E+01  0.22673554122E+02  0.25579451288E+02  0.10566000000E+00 0.  1.
        994    1    1    2    0    0  0.13312010973E+02 -0.19503267896E+02  0.49174871861E+01  0.17289074231E+03  0.17120000000E+03 0.  0.
        998    1    1    2    0    0 -0.56334285261E+01  0.28516950787E+02  0.14724089550E+04  0.14727298064E+04  0.10000000000E+02 0.  1.
</event>
<event>
 5    1  0.1218060E-008  0.3818526E+03  0.7957747E-01  0.3443131E+00
         13   -1    0    0    0    0  0.00000000000E+00  0.00000000000E+00  0.14999999963E+04  0.15000000000E+04  0.10566000000E+00 0. -1.
        994   -1    0    0    0    0 -0.00000000000E+00 -0.00000000000E+00  0.11368683772E-12  0.17120000000E+03  0.17120000000E+03 0.  0.
         13    1    1    2    0    0  0.25396041269E+02  0.55899809740E+01  0.97062735477E+02  0.10048578298E+03  0.10566000000E+00 0. -1.
        994    1    1    2    0    0 -0.28451255229E+02 -0.67931534347E+01  0.60489162942E+01  0.17378621995E+03  0.17120000000E+03 0.  0.
        998    1    1    2    0    0  0.30552139605E+01  0.12031724607E+01  0.13968883445E+04  0.13969279971E+04  0.10000000000E+02 0. -1.
</event>
<event>
 5    1  0.1218060E-008  0.3856427E+03  0.7957747E-01  0.3426951E+00
         13   -1    0    0    0    0  0.00000000000E+00  0.00000000000E+00  0.14999999963E+04  0.15000000000E+04  0.10566000000E+00 0.  1.
        994   -1    0    0    0    0 -0.00000000000E+00 -0.00000000000E+00  0.11368683772E-12  0.17120000000E+03  0.17120000000E+03 0.  0.
         13    1    1    2    0    0  0.65436879439E+01  0.89516368337E+01  0.46354622989E+02  0.47662499833E+02  0.10566000000E+00 0. -1.
        994    1    1    2    0    0 -0.50234454741E+01 -0.91696798423E+01  0.16702255936E+01  0.17152710482E+03  0.17120000000E+03 0.  0.
        998    1    1    2    0    0 -0.15202424698E+01  0.21804300865E+00  0.14519751477E+04  0.14520103954E+04  0.10000000000E+02 0.  1.
</event>
<event>
 5    1  0.1218060E-008  0.3811944E+03  0.7957747E-01  0.3445974E+00
         13   -1    0    0    0    0  0.00000000000E+00  0.00000000000E+00  0.14999999963E+04  0.15000000000E+04  0.10566000000E+00 0. -1.
        994   -1    0    0    0    0 -0.00000000000E+00 -0.00000000000E+00  0.11368683772E-12  0.17120000000E+03  0.17120000000E+03 0.  0.
         13    1    1    2    0    0 -0.15140171730E+01 -0.10467284660E+02  0.14005316543E+02  0.17550394630E+02  0.10566000000E+00 0. -1.
        994    1    1    2    0    0  0.89296362848E+01  0.15732663852E+02  0.46218915400E+01  0.17221514741E+03  0.17120000000E+03 0.  0.
        998    1    1    2    0    0 -0.74156191119E+01 -0.52653791917E+01  0.14813727882E+04  0.14814344580E+04  0.10000000000E+02 0. -1.
</event>
<event>
 5    1  0.1218060E-008  0.3689272E+03  0.7957747E-01  0.3500836E+00
         13   -1    0    0    0    0  0.00000000000E+00  0.00000000000E+00  0.14999999963E+04  0.15000000000E+04  0.10566000000E+00 0.  1.
        994   -1    0    0    0    0 -0.00000000000E+00 -0.00000000000E+00  0.11368683772E-12  0.17120000000E+03  0.17120000000E+03 0.  0.
         13    1    1    2    0    0  0.25400557187E+02  0.29201983845E+01  0.28702937455E+02  0.38439376251E+02  0.10566000000E+00 0.  1.
        994    1    1    2    0    0 -0.24576547973E+02 -0.48013664826E+01  0.12010154015E+02  0.17343801091E+03  0.17120000000E+03 0.  0.
        998    1    1    2    0    0 -0.82400921414E+00  0.18811680981E+01  0.14592869048E+04  0.14593226128E+04  0.10000000000E+02 0.  1.
</event>
<event>
 5    1  0.1218060E-008  0.3857960E+03  0.7957747E-01  0.3426303E+00
         13   -1    0    0    0    0  0.00000000000E+00  0.00000000000E+00  0.14999999963E+04  0.15000000000E+04  0.10566000000E+00 0. -1.
        994   -1    0    0    0    0 -0.00000000000E+00 -0.00000000000E+00  0.11368683772E-12  0.17120000000E+03  0.17120000000E+03 0.  0.
         13    1    1    2    0    0 -0.96406431082E+01  0.32536333084E+01  0.41906725772E+02  0.43124389366E+02  0.10566000000E+00 0. -1.
        994    1    1    2    0    0  0.76323598956E+01 -0.28965961624E+01  0.14541063516E+01  0.17140069315E+03  0.17120000000E+03 0.  0.
        998    1    1    2    0    0  0.20082832125E+01 -0.35703714597E+00  0.14566391642E+04  0.14566749175E+04  0.10000000000E+02 0. -1.
</event>
<event>
 5    1  0.1218060E-008  0.3811521E+03  0.7957747E-01  0.3446157E+00
         13   -1    0    0    0    0  0.00000000000E+00  0.00000000000E+00  0.14999999963E+04  0.15000000000E+04  0.10566000000E+00 0. -1.
        994   -1    0    0    0    0 -0.00000000000E+00 -0.00000000000E+00  0.11368683772E-12  0.17120000000E+03  0.17120000000E+03 0.  0.
         13    1    1    2    0    0  0.23866882122E+01 -0.37482792114E+02  0.16446652144E+03  0.16870063374E+03  0.10566000000E+00 0. -1.
        994    1    1    2    0    0  0.24720574598E+01  0.48582914545E+02  0.11473885827E+02  0.17834657471E+03  0.17120000000E+03 0.  0.
        998    1    1    2    0    0 -0.48587456720E+01 -0.11100122431E+02  0.13240595890E+04  0.13241527915E+04  0.10000000000E+02 0. -1.
</event>
<event>
 5    1  0.1218060E-008  0.3798217E+03  0.7957747E-01  0.3451935E+00
         13   -1    0    0    0    0  0.00000000000E+00  0.00000000000E+00  0.14999999963E+04  0.15000000000E+04  0.10566000000E+00 0. -1.
        994   -1    0    0    0    0 -0.00000000000E+00 -0.00000000000E+00  0.11368683772E-12  0.17120000000E+03  0.17120000000E+03 0.  0.
         13    1    1    2    0    0 -0.34699294067E+02 -0.19053813831E+02  0.22140508980E+03  0.22491623726E+03  0.10566000000E+00 0. -1.
        994    1    1    2    0    0 -0.37288458080E+01  0.65841519956E+01  0.44146907869E+01  0.17142399145E+03  0.17120000000E+03 0.  0.
        998    1    1    2    0    0  0.38428139875E+02  0.12469661835E+02  0.12741802157E+04  0.12748597713E+04  0.10000000000E+02 0. -1.
</event>
<event>
 5    1  0.1218060E-008  0.3786599E+03  0.7957747E-01  0.3457014E+00
         13   -1    0    0    0    0  0.00000000000E+00  0.00000000000E+00  0.14999999963E+04  0.15000000000E+04  0.10566000000E+00 0.  1.
        994   -1    0    0    0    0 -0.00000000000E+00 -0.00000000000E+00  0.11368683772E-12  0.17120000000E+03  0.17120000000E+03 0.  0.
         13    1    1    2    0    0 -0.30433454104E+02 -0.62153994664E+02  0.38796295050E+03  0.39408701616E+03  0.10566000000E+00 0.  1.
        994    1    1    2    0    0  0.17912355799E+02  0.63198912283E+02  0.19439119479E+02  0.18439705629E+03  0.17120000000E+03 0.  0.
        998    1    1    2    0    0  0.12521098306E+02 -0.10449176194E+01  0.10925979263E+04  0.10927159275E+04  0.10000000000E+02 0.  1.
</event>
<event>
 5    1  0.1218060E-008  0.3785160E+03  0.7957747E-01  0.3457646E+00
         13   -1    0    0    0    0  0.00000000000E+00  0.00000000000E+00  0.14999999963E+04  0.15000000000E+04  0.10566000000E+00 0. -1.
        994   -1    0    0    0    0 -0.00000000000E+00 -0.00000000000E+00  0.11368683772E-12  0.17120000000E+03  0.17120000000E+03 0.  0.
         13    1    1    2    0    0  0.77495807877E+01 -0.24416884663E+02  0.63839101783E+02  0.68787225119E+02  0.10566000000E+00 0. -1.
        994    1    1    2    0    0  0.20213205135E+02  0.30113893165E+02  0.93158865720E+01  0.17524738505E+03  0.17120000000E+03 0.  0.
        998    1    1    2    0    0 -0.27962785923E+02 -0.56970085020E+01  0.14268450079E+04  0.14271653898E+04  0.10000000000E+02 0. -1.
</event>
<event>
 5    1  0.1218060E-008  0.3857290E+03  0.7957747E-01  0.3426586E+00
         13   -1    0    0    0    0  0.00000000000E+00  0.00000000000E+00  0.14999999963E+04  0.15000000000E+04  0.10566000000E+00 0.  1.
        994   -1    0    0    0    0 -0.00000000000E+00 -0.00000000000E+00  0.11368683772E-12  0.17120000000E+03  0.17120000000E+03 0.  0.
         13    1    1    2    0    0 -0.64569519004E+01 -0.97877651425E+01  0.54177341696E+02  0.55431832837E+02  0.10566000000E+00 0.  1.
        994    1    1    2    0    0  0.12863622580E+02  0.25057734867E+01  0.18323413929E+01  0.17171065535E+03  0.17120000000E+03 0.  0.
        998    1    1    2    0    0 -0.64066706799E+01  0.72819916558E+01  0.14439903132E+04  0.14440575118E+04  0.10000000000E+02 0.  1.
</event>
<event>
 5    1  0.1218060E-008  0.3848925E+03  0.7957747E-01  0.3430128E+00
         13   -1    0    0    0    0  0.00000000000E+00  0.00000000000E+00  0.14999999963E+04  0.15000000000E+04  0.10566000000E+00 0. -1.
        994   -1    0    0    0    0 -0.00000000000E+00 -0.00000000000E+00  0.11368683772E-12  0.17120000000E+03  0.17120000000E+03 0.  0.
         13    1    1    2    0    0  0.15416951897E+01 -0.10921338046E+02  0.34738057885E+02  0.36447171062E+02  0.10566000000E+00 0. -1.
        994    1    1    2    0    0 -0.57194968174E+01  0.14021049370E+02  0.24382204397E+01  0.17188568116E+03  0.17120000000E+03 0.  0.
        998    1    1    2    0    0  0.41778016277E+01 -0.30997113245E+01  0.14628237180E+04  0.14628671478E+04  0.10000000000E+02 0. -1.
</event>
<event>
 5    1  0.1218060E-008  0.3813551E+03  0.7957747E-01  0.3445279E+00
         13   -1    0    0    0    0  0.00000000000E+00  0.00000000000E+00  0.14999999963E+04  0.15000000000E+04  0.10566000000E+00 0.  1.
        994   -1    0    0    0    0 -0.00000000000E+00 -0.00000000000E+00  0.11368683772E-12  0.17120000000E+03  0.17120000000E+03 0.  0.
         13    1    1    2    0    0 -0.15091356966E+02  0.10428387432E+02  0.47257295128E+02  0.50692834073E+02  0.10566000000E+00 0.  1.
        994    1    1    2    0    0  0.99731607695E+01 -0.93268816566E+01  0.40714511808E+01  0.17179194210E+03  0.17120000000E+03 0.  0.
        998    1    1    2    0    0  0.51181961963E+01 -0.11015057751E+01  0.14486712500E+04  0.14487152238E+04  0.10000000000E+02 0.  1.
</event>
<event>
 5    1  0.1218060E-008  0.3728304E+03  0.7957747E-01  0.3482983E+00
         13   -1    0    0    0    0  0.00000000000E+00  0.00000000000E+00  0.14999999963E+04  0.15000000000E+04  0.10566000000E+00 0.  1.
        994   -1    0    0    0    0 -0.00000000000E+00 -0.00000000000E+00  0.11368683772E-12  0.17120000000E+03  0.17120000000E+03 0.  0.
         13    1    1    2    0    0 -0.26858919647E+02  0.50841969748E+02  0.22392925162E+03  0.23119391935E+03  0.10566000000E+00 0.  1.
        994    1    1    2    0    0  0.16662319214E+02 -0.16446521559E+02  0.96762961265E+01  0.17306412586E+03  0.17120000000E+03 0.  0.
        998    1    1    2    0    0  0.10196600433E+02 -0.34395448188E+02  0.12663944485E+04  0.12669419548E+04  0.10000000000E+02 0.  1.
</event>
<event>
 5    1  0.1218060E-008  0.3839320E+03  0.7957747E-01  0.3434214E+00
         13   -1    0    0    0    0  0.00000000000E+00  0.00000000000E+00  0.14999999963E+04  0.15000000000E+04  0.10566000000E+00 0.  1.
        994   -1    0    0    0    0 -0.00000000000E+00 -0.00000000000E+00  0.11368683772E-12  0.17120000000E+03  0.17120000000E+03 0.  0.
         13    1    1    2    0    0 -0.12157776917E+02 -0.24754290148E+01  0.34460029707E+02  0.36625730024E+02  0.10566000000E+00 0.  1.
        994    1    1    2    0    0  0.13338417393E+02 -0.31608904206E+01  0.27816478303E+01  0.17177043451E+03  0.17120000000E+03 0.  0.
        998    1    1    2    0    0 -0.11806404758E+01  0.56363194354E+01  0.14627583187E+04  0.14628038355E+04  0.10000000000E+02 0.  1.
</event>
<event>
 5    1  0.1218060E-008  0.3774987E+03  0.7957747E-01  0.3462122E+00
         13   -1    0    0    0    0  0.00000000000E+00  0.00000000000E+00  0.14999999963E+04  0.15000000000E+04  0.10566000000E+00 0.  1.
        994   -1    0    0    0    0 -0.00000000000E+00 -0.00000000000E+00  0.11368683772E-12  0.17120000000E+03  0.17120000000E+03 0.  0.
         13    1    1    2    0    0 -0.11686381592E+02 -0.13242048457E+02  0.26888599455E+02  0.32170348253E+02  0.10566000000E+00 0.  1.
        994    1    1    2    0    0  0.66616078864E+01  0.58424176392E+01  0.56658218599E+01  0.17152274602E+03  0.17120000000E+03 0.  0.
        998    1    1    2    0    0  0.50247737051E+01  0.73996308180E+01  0.14674455750E+04  0.14675069057E+04  0.10000000000E+02 0.  1.
</event>
<event>
 5    1  0.1218060E-008  0.3824604E+03  0.7957747E-01  0.3440515E+00
         13   -1    0    0    0    0  0.00000000000E+00  0.00000000000E+00  0.14999999963E+04  0.15000000000E+04  0.10566000000E+00 0. -1.
        994   -1    0    0    0    0 -0.00000000000E+00 -0.00000000000E+00  0.11368683772E-12  0.17120000000E+03  0.17120000000E+03 0.  0.
         13    1    1    2    0    0  0.43732575132E+02 -0.39436843181E+02  0.33045820075E+03  0.33566417195E+03  0.10566000000E+00 0. -1.
        994    1    1    2    0    0 -0.68438058529E+02  0.58598935353E+02  0.30297544776E+02  0.19581875370E+03  0.17120000000E+03 0.  0.
        998    1    1    2    0    0  0.24705483397E+02 -0.19162092172E+02  0.11392442508E+04  0.11397170744E+04  0.10000000000E+02 0. -1.
</event>
<event>
 5    1  0.1218060E-008  0.3801402E+03  0.7957747E-01  0.3450548E+00
         13   -1    0    0    0    0  0.00000000000E+00  0.00000000000E+00  0.14999999963E+04  0.15000000000E+04  0.10566000000E+00 0. -1.
        994   -1    0    0    0    0 -0.00000000000E+00 -0.00000000000E+00  0.11368683772E-12  0.17120000000E+03  0.17120000000E+03 0.  0.
         13    1    1    2    0    0  0.30854723918E+01 -0.13951754044E+02  0.23501661867E+02  0.27504742415E+02  0.10566000000E+00 0. -1.
        994    1    1    2    0    0  0.57674807579E-01  0.97139031931E+01  0.43777406636E+01  0.17153124454E+03  0.17120000000E+03 0.  0.
        998    1    1    2    0    0 -0.31431471994E+01  0.42378508506E+01  0.14721205937E+04  0.14721640130E+04  0.10000000000E+02 0. -1.
</event>
<event>
 5    1  0.1218060E-008  0.3801910E+03  0.7957747E-01  0.3450327E+00
         13   -1    0    0    0    0  0.00000000000E+00  0.00000000000E+00  0.14999999963E+04  0.15000000000E+04  0.10566000000E+00 0. -1.
        994   -1    0    0    0    0 -0.00000000000E+00 -0.00000000000E+00  0.11368683772E-12  0.17120000000E+03  0.17120000000E+03 0.  0.
         13    1    1    2    0    0 -0.20191951225E+02 -0.97699237603E+01  0.63108658328E+02  0.66976714047E+02  0.10566000000E+00 0. -1.
        994    1    1    2    0    0  0.22288373874E+01  0.85763970324E+01  0.42991366488E+01  0.17148307461E+03  0.17120000000E+03 0.  0.
        998    1    1    2    0    0  0.17963113838E+02  0.11935267279E+01  0.14325922013E+04  0.14327402113E+04  0.10000000000E+02 0. -1.
</event>
<event>
 5    1  0.1218060E-008  0.3779918E+03  0.7957747E-01  0.3459949E+00
         13   -1    0    0    0    0  0.00000000000E+00  0.00000000000E+00  0.14999999963E+04  0.15000000000E+04  0.10566000000E+00 0.  1.
        994   -1    0    0    0    0 -0.00000000000E+00 -0.00000000000E+00  0.11368683772E-12  0.17120000000E+03  0.17120000000E+03 0.  0.
         13    1    1    2    0    0 -0.39045069548E+02 -0.16803378443E+02  0.24180489617E+03  0.24551270834E+03  0.10566000000E+00 0.  1.
        994    1    1    2    0    0  0.56795295877E+01 -0.48155723301E+02  0.13103970172E+02  0.17841632430E+03  0.17120000000E+03 0.  0.
        998    1    1    2    0    0  0.33365539960E+02  0.64959101744E+02  0.12450911299E+04  0.12472709674E+04  0.10000000000E+02 0.  1.
</event>
<event>
 5    1  0.1218060E-008  0.3764935E+03  0.7957747E-01  0.3466570E+00
         13   -1    0    0    0    0  0.00000000000E+00  0.00000000000E+00  0.14999999963E+04  0.15000000000E+04  0.10566000000E+00 0.  1.
        994   -1    0    0    0    0 -0.00000000000E+00 -0.00000000000E+00  0.11368683772E-12  0.17120000000E+03  0.17120000000E+03 0.  0.
         13    1    1    2    0    0 -0.18368010818E+02 -0.25728288370E+01  0.26210120729E+02  0.32108952993E+02  0.10566000000E+00 0.  1.
        994    1    1    2    0    0  0.18072533822E+02  0.57388922928E+01  0.71307965585E+01  0.17239443037E+03  0.17120000000E+03 0.  0.
        998    1    1    2    0    0  0.29547699586E+00 -0.31660634557E+01  0.14666590790E+04  0.14666966166E+04  0.10000000000E+02 0.  1.
</event>
<event>
 5    1  0.1218060E-008  0.3690585E+03  0.7957747E-01  0.3500229E+00
         13   -1    0    0    0    0  0.00000000000E+00  0.00000000000E+00  0.14999999963E+04  0.15000000000E+04  0.10566000000E+00 0.  1.
        994   -1    0    0    0    0 -0.00000000000E+00 -0.00000000000E+00  0.11368683772E-12  0.17120000000E+03  0.17120000000E+03 0.  0.
         13    1    1    2    0    0 -0.40025678513E+01 -0.41985719346E+02  0.82476869385E+02  0.92635124688E+02  0.10566000000E+00 0.  1.
        994    1    1    2    0    0  0.15449184632E+02  0.22018733931E+02  0.12966992223E+02  0.17378459321E+03  0.17120000000E+03 0.  0.
        998    1    1    2    0    0 -0.11446616780E+02  0.19966985415E+02  0.14045561347E+04  0.14047802821E+04  0.10000000000E+02 0.  1.
</event>
<event>
 5    1  0.1218060E-008  0.3731106E+03  0.7957747E-01  0.3481716E+00
         13   -1    0    0    0    0  0.00000000000E+00  0.00000000000E+00  0.14999999963E+04  0.15000000000E+04  0.10566000000E+00 0.  1.
        994   -1    0    0    0    0 -0.00000000000E+00 -0.00000000000E+00  0.11368683772E-12  0.17120000000E+03  0.17120000000E+03 0.  0.
         13    1    1    2    0    0  0.56806016603E+02 -0.14567718612E+02  0.24967979458E+03  0.25647446839E+03  0.10566000000E+00 0.  1.
        994    1    1    2    0    0 -0.11880873381E+02  0.18827271810E+02  0.93495604376E+01  0.17289440591E+03  0.17120000000E+03 0.  0.
        998    1    1    2    0    0 -0.44925143222E+02 -0.42595531978E+01  0.12409706413E+04  0.12418311257E+04  0.10000000000E+02 0.  1.
</event>
<event>
 5    1  0.1218060E-008  0.3855659E+03  0.7957747E-01  0.3427276E+00
         13   -1    0    0    0    0  0.00000000000E+00  0.00000000000E+00  0.14999999963E+04  0.15000000000E+04  0.10566000000E+00 0. -1.
        994   -1    0    0    0    0 -0.00000000000E+00 -0.00000000000E+00  0.11368683772E-12  0.17120000000E+03  0.17120000000E+03 0.  0.
         13    1    1    2    0    0 -0.13394222402E+02  0.96119395644E+01  0.92450545953E+02  0.93909047419E+02  0.10566000000E+00 0. -1.
        994    1    1    2    0    0  0.13172941971E+02 -0.19229162460E+02  0.31348989869E+01  0.17280785480E+03  0.17120000000E+03 0.  0.
        998    1    1    2    0    0  0.22128043146E+00  0.96172228959E+01  0.14044145513E+04  0.14044830978E+04  0.10000000000E+02 0. -1.
</event>
<event>
 5    1  0.1218060E-008  0.3844920E+03  0.7957747E-01  0.3431830E+00
         13   -1    0    0    0    0  0.00000000000E+00  0.00000000000E+00  0.14999999963E+04  0.15000000000E+04  0.10566000000E+00 0.  1.
        994   -1    0    0    0    0 -0.00000000000E+00 -0.00000000000E+00  0.11368683772E-12  0.17120000000E+03  0.17120000000E+03 0.  0.
         13    1    1    2    0    0  0.13414624932E+02 -0.62190451819E+01  0.57164049573E+02  0.59045477495E+02  0.10566000000E+00 0.  1.
        994    1    1    2    0    0 -0.17602058164E+02 -0.93382861841E+01  0.31915120053E+01  0.17238521337E+03  0.17120000000E+03 0.  0.
        998    1    1    2    0    0  0.41874332324E+01  0.15557331366E+02  0.14396444347E+04  0.14397693091E+04  0.10000000000E+02 0.  1.
</event>
<event>
 5    1  0.1218060E-008  0.3764839E+03  0.7957747E-01  0.3466613E+00
         13   -1    0    0    0    0  0.00000000000E+00  0.00000000000E+00  0.14999999963E+04  0.15000000000E+04  0.10566000000E+00 0.  1.
        994   -1    0    0    0    0 -0.00000000000E+00 -0.00000000000E+00  0.11368683772E-12  0.17120000000E+03  0.17120000000E+03 0.  0.
         13    1    1    2    0    0  0.33698502241E+02 -0.30526863871E+02  0.19850825991E+03  0.20364925457E+03  0.10566000000E+00 0.  1.
        994    1    1    2    0    0  0.27061417539E+02  0.40916289999E+02  0.14101710169E+02  0.17864703002E+03  0.17120000000E+03 0.  0.
        998    1    1    2    0    0 -0.60759919780E+02 -0.10389426129E+02  0.12873900262E+04  0.12889037154E+04  0.10000000000E+02 0.  1.
</event>
<event>
 5    1  0.1218060E-008  0.3838420E+03  0.7957747E-01  0.3434598E+00
         13   -1    0    0    0    0  0.00000000000E+00  0.00000000000E+00  0.14999999963E+04  0.15000000000E+04  0.10566000000E+00 0. -1.
        994   -1    0    0    0    0 -0.00000000000E+00 -0.00000000000E+00  0.11368683772E-12  0.17120000000E+03  0.17120000000E+03 0.  0.
         13    1    1    2    0    0 -0.81050887988E+01  0.13910773450E+02  0.59536356822E+02  0.61674881679E+02  0.10566000000E+00 0. -1.
        994    1    1    2    0    0  0.62426956122E+01 -0.38028974811E+01  0.23825636658E+01  0.17137254706E+03  0.17120000000E+03 0.  0.
        998    1    1    2    0    0  0.18623931866E+01 -0.10107875969E+02  0.14380810758E+04  0.14381525713E+04  0.10000000000E+02 0. -1.
</event>
<event>
 5    1  0.1218060E-008  0.3842549E+03  0.7957747E-01  0.3432838E+00
         13   -1    0    0    0    0  0.00000000000E+00  0.00000000000E+00  0.14999999963E+04  0.15000000000E+04  0.10566000000E+00 0. -1.
        994   -1    0    0    0    0 -0.00000000000E+00 -0.00000000000E+00  0.11368683772E-12  0.17120000000E+03  0.17120000000E+03 0.  0.
         13    1    1    2    0    0  0.12746585520E+02 -0.69899663621E+01  0.53570236472E+02  0.55507805504E+02  0.10566000000E+00 0. -1.
        994    1    1    2    0    0 -0.28698156202E+01  0.65312516705E+01  0.21683188604E+01  0.17136229077E+03  0.17120000000E+03 0.  0.
        998    1    1    2    0    0 -0.98767699002E+01  0.45871469160E+00  0.14442614409E+04  0.14443299037E+04  0.10000000000E+02 0. -1.
</event>
<event>
 5    1  0.1218060E-008  0.3829388E+03  0.7957747E-01  0.3438461E+00
         13   -1    0    0    0    0  0.00000000000E+00  0.00000000000E+00  0.14999999963E+04  0.15000000000E+04  0.10566000000E+00 0.  1.
        994   -1    0    0    0    0 -0.00000000000E+00 -0.00000000000E+00  0.11368683772E-12  0.17120000000E+03  0.17120000000E+03 0.  0.
         13    1    1    2    0    0 -0.16700150065E+02  0.11326038928E+02  0.82969527400E+02  0.85388101109E+02  0.10566000000E+00 0.  1.
        994    1    1    2    0    0 -0.10060592877E+02 -0.10414913182E+02  0.33514856952E+01  0.17184399437E+03  0.17120000000E+03 0.  0.
        998    1    1    2    0    0  0.26760742942E+02 -0.91112574623E+00  0.14136789832E+04  0.14139679045E+04  0.10000000000E+02 0.  1.
</event>
<event>
 5    1  0.1218060E-008  0.3847464E+03  0.7957747E-01  0.3430749E+00
         13   -1    0    0    0    0  0.00000000000E+00  0.00000000000E+00  0.14999999963E+04  0.15000000000E+04  0.10566000000E+00 0.  1.
        994   -1    0    0    0    0 -0.00000000000E+00 -0.00000000000E+00  0.11368683772E-12  0.17120000000E+03  0.17120000000E+03 0.  0.
         13    1    1    2    0    0  0.10054279296E+02  0.13887514339E+02  0.85119039035E+02  0.86828644795E+02  0.10566000000E+00 0.  1.
        994    1    1    2    0    0 -0.11644165928E+02 -0.21756857753E+01  0.22180958830E+01  0.17162365850E+03  0.17120000000E+03 0.  0.
        998    1    1    2    0    0  0.15898866323E+01 -0.11711828563E+02  0.14126628614E+04  0.14127476967E+04  0.10000000000E+02 0.  1.
</event>
<event>
 5    1  0.1218060E-008  0.3858480E+03  0.7957747E-01  0.3426084E+00
         13   -1    0    0    0    0  0.00000000000E+00  0.00000000000E+00  0.14999999963E+04  0.15000000000E+04  0.10566000000E+00 0.  1.
        994   -1    0    0    0    0 -0.00000000000E+00 -0.00000000000E+00  0.11368683772E-12  0.17120000000E+03  0.17120000000E+03 0.  0.
         13    1    1    2    0    0  0.41939057272E+01  0.96049642275E+01  0.40259173085E+02  0.41601158212E+02  0.10566000000E+00 0.  1.
        994    1    1    2    0    0 -0.25543894873E+02 -0.21621816834E+02  0.48915267505E+01  0.17450891256E+03  0.17120000000E+03 0.  0.
        998    1    1    2    0    0  0.21349989146E+02  0.12016852606E+02  0.14548492964E+04  0.14550899292E+04  0.10000000000E+02 0.  1.
</event>
<event>
 5    1  0.1218060E-008  0.3754939E+03  0.7957747E-01  0.3471017E+00
         13   -1    0    0    0    0  0.00000000000E+00  0.00000000000E+00  0.14999999963E+04  0.15000000000E+04  0.10566000000E+00 0.  1.
        994   -1    0    0    0    0 -0.00000000000E+00 -0.00000000000E+00  0.11368683772E-12  0.17120000000E+03  0.17120000000E+03 0.  0.
         13    1    1    2    0    0  0.70022075494E+02 -0.18652351356E+02  0.38072712164E+03  0.38756180615E+03  0.10566000000E+00 0.  1.
        994    1    1    2    0    0 -0.59978887688E+02 -0.24713478730E+02  0.20842641656E+02  0.18426089848E+03  0.17120000000E+03 0.  0.
        998    1    1    2    0    0 -0.10043187806E+02  0.43365830086E+02  0.10984302330E+04  0.10993772954E+04  0.10000000000E+02 0.  1.
</event>
<event>
 5    1  0.1218060E-008  0.3768230E+03  0.7957747E-01  0.3465109E+00
         13   -1    0    0    0    0  0.00000000000E+00  0.00000000000E+00  0.14999999963E+04  0.15000000000E+04  0.10566000000E+00 0.  1.
        994   -1    0    0    0    0 -0.00000000000E+00 -0.00000000000E+00  0.11368683772E-12  0.17120000000E+03  0.17120000000E+03 0.  0.
         13    1    1    2    0    0 -0.70828936353E+01  0.53990565716E+02  0.26256990736E+03  0.26815688689E+03  0.10566000000E+00 0.  1.
        994    1    1    2    0    0  0.30325392956E+01 -0.27629370492E+02  0.83600344356E+01  0.17364304934E+03  0.17120000000E+03 0.  0.
        998    1    1    2    0    0  0.40503543397E+01 -0.26361195224E+02  0.12290700545E+04  0.12294000638E+04  0.10000000000E+02 0.  1.
</event>
<event>
 5    1  0.1218060E-008  0.3855693E+03  0.7957747E-01  0.3427261E+00
         13   -1    0    0    0    0  0.00000000000E+00  0.00000000000E+00  0.14999999963E+04  0.15000000000E+04  0.10566000000E+00 0.  1.
        994   -1    0    0    0    0 -0.00000000000E+00 -0.00000000000E+00  0.11368683772E-12  0.17120000000E+03  0.17120000000E+03 0.  0.
         13    1    1    2    0    0 -0.96831847586E+02 -0.23524840154E+02  0.20792594543E+03  0.23057110565E+03  0.10566000000E+00 0.  1.
        994    1    1    2    0    0  0.11380592401E+03 -0.19726268643E+02  0.70634337477E+02  0.21826489330E+03  0.17120000000E+03 0.  0.
        998    1    1    2    0    0 -0.16974076428E+02  0.43251108797E+02  0.12214397134E+04  0.12223640011E+04  0.10000000000E+02 0. -1.
</event>
<event>
 5    1  0.1218060E-008  0.3693551E+03  0.7957747E-01  0.3498860E+00
         13   -1    0    0    0    0  0.00000000000E+00  0.00000000000E+00  0.14999999963E+04  0.15000000000E+04  0.10566000000E+00 0.  1.
        994   -1    0    0    0    0 -0.00000000000E+00 -0.00000000000E+00  0.11368683772E-12  0.17120000000E+03  0.17120000000E+03 0.  0.
         13    1    1    2    0    0 -0.28594627754E+02 -0.69608322097E+00  0.36911224123E+02  0.46696754689E+02  0.10566000000E+00 0.  1.
        994    1    1    2    0    0  0.37910609100E+02  0.20815957496E+01  0.14618528198E+02  0.17596786266E+03  0.17120000000E+03 0.  0.
        998    1    1    2    0    0 -0.93159813462E+01 -0.13855125286E+01  0.14484702440E+04  0.14485353826E+04  0.10000000000E+02 0.  1.
</event>
<event>
 5    1  0.1218060E-008  0.3847009E+03  0.7957747E-01  0.3430942E+00
         13   -1    0    0    0    0  0.00000000000E+00  0.00000000000E+00  0.14999999963E+04  0.15000000000E+04  0.10566000000E+00 0. -1.
        994   -1    0    0    0    0 -0.00000000000E+00 -0.00000000000E+00  0.11368683772E-12  0.17120000000E+03  0.17120000000E+03 0.  0.
         13    1    1    2    0    0  0.25075263853E+01 -0.18489076951E+02  0.88249799668E+02  0.90200731486E+02  0.10566000000E+00 0. -1.
        994    1    1    2    0    0 -0.64235174040E+01  0.26018306544E+02  0.41465282673E+01  0.17333449613E+03  0.17120000000E+03 0.  0.
        998    1    1    2    0    0  0.39159910187E+01 -0.75292295926E+01  0.14076036683E+04  0.14076647724E+04  0.10000000000E+02 0. -1.
</event>
<event>
 5    1  0.1930001E-008  0.3864104E+03  0.7957747E-01  0.3423712E+00
         13   -1    0    0    0    0  0.00000000000E+00  0.00000000000E+00  0.14999999963E+04  0.15000000000E+04  0.10566000000E+00 0. -1.
        994   -1    0    0    0    0 -0.00000000000E+00 -0.00000000000E+00  0.11368683772E-12  0.17120000000E+03  0.17120000000E+03 0.  0.
         13    1    1    2    0    0 -0.98986956369E+01  0.20758950652E+01  0.53769140723E+02  0.54712203152E+02  0.10566000000E+00 0. -1.
        994    1    1    2    0    0  0.11788285760E+02 -0.34416689774E+01  0.14253453440E+01  0.17164579918E+03  0.17120000000E+03 0.  0.
        998    1    1    2    0    0 -0.18895901233E+01  0.13657739122E+01  0.14448055102E+04  0.14448419977E+04  0.10000000000E+02 0. -1.
</event>
<event>
 5    1  0.1218060E-008  0.3779598E+03  0.7957747E-01  0.3460091E+00
         13   -1    0    0    0    0  0.00000000000E+00  0.00000000000E+00  0.14999999963E+04  0.15000000000E+04  0.10566000000E+00 0.  1.
        994   -1    0    0    0    0 -0.00000000000E+00 -0.00000000000E+00  0.11368683772E-12  0.17120000000E+03  0.17120000000E+03 0.  0.
         13    1    1    2    0    0 -0.23009447383E+02 -0.43817936622E+01  0.55564112531E+02  0.60299390959E+02  0.10566000000E+00 0.  1.
        994    1    1    2    0    0 -0.69755859191E+01 -0.53614064653E+01  0.54271584346E+01  0.17151179996E+03  0.17120000000E+03 0.  0.
        998    1    1    2    0    0  0.29985033302E+02  0.97432001275E+01  0.14390087253E+04  0.14393888091E+04  0.10000000000E+02 0.  1.
</event>
<event>
 5    1  0.1218060E-008  0.3824057E+03  0.7957747E-01  0.3440750E+00
         13   -1    0    0    0    0  0.00000000000E+00  0.00000000000E+00  0.14999999963E+04  0.15000000000E+04  0.10566000000E+00 0.  1.
        994   -1    0    0    0    0 -0.00000000000E+00 -0.00000000000E+00  0.11368683772E-12  0.17120000000E+03  0.17120000000E+03 0.  0.
         13    1    1    2    0    0  0.36615173986E+02 -0.19214067776E+02  0.23030655974E+03  0.23398926042E+03  0.10566000000E+00 0.  1.
        994    1    1    2    0    0 -0.52879833593E+02  0.80802333661E+01  0.12472900796E+02  0.17979594052E+03  0.17120000000E+03 0.  0.
        998    1    1    2    0    0  0.16264659608E+02  0.11133834410E+02  0.12572205357E+04  0.12574147991E+04  0.10000000000E+02 0.  1.
</event>
<event>
 5    1  0.1218060E-008  0.3739641E+03  0.7957747E-01  0.3477869E+00
         13   -1    0    0    0    0  0.00000000000E+00  0.00000000000E+00  0.14999999963E+04  0.15000000000E+04  0.10566000000E+00 0.  1.
        994   -1    0    0    0    0 -0.00000000000E+00 -0.00000000000E+00  0.11368683772E-12  0.17120000000E+03  0.17120000000E+03 0.  0.
         13    1    1    2    0    0 -0.31188765071E+02 -0.12734970432E+02  0.94781016657E+02  0.10059011294E+03  0.10566000000E+00 0.  1.
        994    1    1    2    0    0 -0.28735308009E+02 -0.17153311001E+02  0.11041504536E+02  0.17478932698E+03  0.17120000000E+03 0.  0.
        998    1    1    2    0    0  0.59924073080E+02  0.29888281433E+02  0.13941774751E+04  0.13958205601E+04  0.10000000000E+02 0.  1.
</event>
<event>
 5    1  0.1218060E-008  0.3781529E+03  0.7957747E-01  0.3459241E+00
         13   -1    0    0    0    0  0.00000000000E+00  0.00000000000E+00  0.14999999963E+04  0.15000000000E+04  0.10566000000E+00 0. -1.
        994   -1    0    0    0    0 -0.00000000000E+00 -0.00000000000E+00  0.11368683772E-12  0.17120000000E+03  0.17120000000E+03 0.  0.
         13    1    1    2    0    0  0.54076220584E+02  0.94748004459E+01  0.19046523610E+03  0.19821964283E+03  0.10566000000E+00 0. -1.
        994    1    1    2    0    0 -0.98510366829E+02 -0.30306885914E+02  0.41672739842E+02  0.20412951024E+03  0.17120000000E+03 0.  0.
        998    1    1    2    0    0  0.44434146244E+02  0.20832085468E+02  0.12678620203E+04  0.12688508469E+04  0.10000000000E+02 0. -1.
</event>
<event>
 5    1  0.1218060E-008  0.3843274E+03  0.7957747E-01  0.3432530E+00
         13   -1    0    0    0    0  0.00000000000E+00  0.00000000000E+00  0.14999999963E+04  0.15000000000E+04  0.10566000000E+00 0.  1.
        994   -1    0    0    0    0 -0.00000000000E+00 -0.00000000000E+00  0.11368683772E-12  0.17120000000E+03  0.17120000000E+03 0.  0.
         13    1    1    2    0    0  0.12057064264E+02 -0.96687200055E+00  0.35661816153E+02  0.37657455245E+02  0.10566000000E+00 0.  1.
        994    1    1    2    0    0 -0.14614234671E+02  0.11552650920E+02  0.31090633646E+01  0.17223863061E+03  0.17120000000E+03 0.  0.
        998    1    1    2    0    0  0.25571704066E+01 -0.10585778919E+02  0.14612291168E+04  0.14613039141E+04  0.10000000000E+02 0.  1.
</event>
<event>
 5    1  0.1218060E-008  0.3843731E+03  0.7957747E-01  0.3432335E+00
         13   -1    0    0    0    0  0.00000000000E+00  0.00000000000E+00  0.14999999963E+04  0.15000000000E+04  0.10566000000E+00 0.  1.
        994   -1    0    0    0    0 -0.00000000000E+00 -0.00000000000E+00  0.11368683772E-12  0.17120000000E+03  0.17120000000E+03 0.  0.
         13    1    1    2    0    0 -0.13008862711E+02 -0.41690150095E+01  0.46860266464E+02  0.48810930459E+02  0.10566000000E+00 0.  1.
        994    1    1    2    0    0  0.14250282861E+02 -0.26338199288E+01  0.26340491057E+01  0.17183243519E+03  0.17120000000E+03 0.  0.
        998    1    1    2    0    0 -0.12414201503E+01  0.68028349383E+01  0.14505056807E+04  0.14505566343E+04  0.10000000000E+02 0.  1.
</event>
<event>
 5    1  0.1218060E-008  0.3698775E+03  0.7957747E-01  0.3496454E+00
         13   -1    0    0    0    0  0.00000000000E+00  0.00000000000E+00  0.14999999963E+04  0.15000000000E+04  0.10566000000E+00 0. -1.
        994   -1    0    0    0    0 -0.00000000000E+00 -0.00000000000E+00  0.11368683772E-12  0.17120000000E+03  0.17120000000E+03 0.  0.
         13    1    1    2    0    0 -0.51421314986E+01 -0.21583294882E+02  0.21446817171E+02  0.30858665965E+02  0.10566000000E+00 0. -1.
        994    1    1    2    0    0  0.67112155373E+01  0.33603060657E+02  0.13405673437E+02  0.17510956050E+03  0.17120000000E+03 0.  0.
        998    1    1    2    0    0 -0.15690840387E+01 -0.12019765775E+02  0.14651475057E+04  0.14652317735E+04  0.10000000000E+02 0. -1.
</event>
<event>
 5    1  0.1218060E-008  0.3829225E+03  0.7957747E-01  0.3438531E+00
         13   -1    0    0    0    0  0.00000000000E+00  0.00000000000E+00  0.14999999963E+04  0.15000000000E+04  0.10566000000E+00 0. -1.
        994   -1    0    0    0    0 -0.00000000000E+00 -0.00000000000E+00  0.11368683772E-12  0.17120000000E+03  0.17120000000E+03 0.  0.
         13    1    1    2    0    0  0.32979419665E+02  0.83340408799E+00  0.19845925722E+03  0.20118256541E+03  0.10566000000E+00 0. -1.
        994    1    1    2    0    0 -0.21962834979E+02 -0.12577277347E+01  0.42690887872E+01  0.17266039823E+03  0.17120000000E+03 0.  0.
        998    1    1    2    0    0 -0.11016584686E+02  0.42432364667E+00  0.12972716503E+04  0.12973570364E+04  0.10000000000E+02 0. -1.
</event>
<event>
 5    1  0.1218060E-008  0.3745431E+03  0.7957747E-01  0.3475269E+00
         13   -1    0    0    0    0  0.00000000000E+00  0.00000000000E+00  0.14999999963E+04  0.15000000000E+04  0.10566000000E+00 0.  1.
        994   -1    0    0    0    0 -0.00000000000E+00 -0.00000000000E+00  0.11368683772E-12  0.17120000000E+03  0.17120000000E+03 0.  0.
         13    1    1    2    0    0  0.26415828247E+02 -0.65132859211E+01  0.21670492350E+02  0.34782758346E+02  0.10566000000E+00 0.  1.
        994    1    1    2    0    0 -0.27329560548E+02  0.10231106010E+02  0.16392701083E+02  0.17444122523E+03  0.17120000000E+03 0.  0.
        998    1    1    2    0    0  0.91373230142E+00 -0.37178200892E+01  0.14619368028E+04  0.14619760164E+04  0.10000000000E+02 0.  1.
</event>
<event>
 5    1  0.1218060E-008  0.3804777E+03  0.7957747E-01  0.3449081E+00
         13   -1    0    0    0    0  0.00000000000E+00  0.00000000000E+00  0.14999999963E+04  0.15000000000E+04  0.10566000000E+00 0. -1.
        994   -1    0    0    0    0 -0.00000000000E+00 -0.00000000000E+00  0.11368683772E-12  0.17120000000E+03  0.17120000000E+03 0.  0.
         13    1    1    2    0    0 -0.24108062324E+02  0.70883873875E+01  0.85119519658E+02  0.88751268699E+02  0.10566000000E+00 0. -1.
        994    1    1    2    0    0  0.39899695136E+01  0.49181813979E+01  0.40260925489E+01  0.17136440058E+03  0.17120000000E+03 0.  0.
        998    1    1    2    0    0  0.20118092811E+02 -0.12006568785E+02  0.14108543841E+04  0.14110843307E+04  0.10000000000E+02 0. -1.
</event>
<event>
 5    1  0.1218060E-008  0.3803029E+03  0.7957747E-01  0.3449841E+00
         13   -1    0    0    0    0  0.00000000000E+00  0.00000000000E+00  0.14999999963E+04  0.15000000000E+04  0.10566000000E+00 0.  1.
        994   -1    0    0    0    0 -0.00000000000E+00 -0.00000000000E+00  0.11368683772E-12  0.17120000000E+03  0.17120000000E+03 0.  0.
         13    1    1    2    0    0 -0.17505678146E+02  0.15389193032E+02  0.64807882569E+02  0.68871974247E+02  0.10566000000E+00 0.  1.
        994    1    1    2    0    0  0.11230133456E+02 -0.20575480792E+02  0.58174487104E+01  0.17289519663E+03  0.17120000000E+03 0.  0.
        998    1    1    2    0    0  0.62755446900E+01  0.51862877598E+01  0.14293746650E+04  0.14294328291E+04  0.10000000000E+02 0.  1.
</event>
<event>
 5    1  0.1218060E-008  0.3795062E+03  0.7957747E-01  0.3453311E+00
         13   -1    0    0    0    0  0.00000000000E+00  0.00000000000E+00  0.14999999963E+04  0.15000000000E+04  0.10566000000E+00 0. -1.
        994   -1    0    0    0    0 -0.00000000000E+00 -0.00000000000E+00  0.11368683772E-12  0.17120000000E+03  0.17120000000E+03 0.  0.
         13    1    1    2    0    0 -0.14523883944E+02  0.17073849872E+01  0.22457677911E+02  0.26799567711E+02  0.10566000000E+00 0. -1.
        994    1    1    2    0    0  0.12797738652E+02  0.42759027206E+01  0.49924713957E+01  0.17180346396E+03  0.17120000000E+03 0.  0.
        998    1    1    2    0    0  0.17261452919E+01 -0.59832877078E+01  0.14725498470E+04  0.14725969683E+04  0.10000000000E+02 0. -1.
</event>
<event>
 5    1  0.1218060E-008  0.3859539E+03  0.7957747E-01  0.3425637E+00
         13   -1    0    0    0    0  0.00000000000E+00  0.00000000000E+00  0.14999999963E+04  0.15000000000E+04  0.10566000000E+00 0. -1.
        994   -1    0    0    0    0 -0.00000000000E+00 -0.00000000000E+00  0.11368683772E-12  0.17120000000E+03  0.17120000000E+03 0.  0.
         13    1    1    2    0    0  0.12372731882E+02 -0.51778458349E+01  0.78682860415E+02  0.79817906944E+02  0.10566000000E+00 0. -1.
        994    1    1    2    0    0 -0.10629742231E+02 -0.28604751023E+01  0.15546585029E+01  0.17156057444E+03  0.17120000000E+03 0.  0.
        998    1    1    2    0    0 -0.17429896514E+01  0.80383209372E+01  0.14197624774E+04  0.14198215186E+04  0.10000000000E+02 0. -1.
</event>
<event>
 5    1  0.1218060E-008  0.3816727E+03  0.7957747E-01  0.3443907E+00
         13   -1    0    0    0    0  0.00000000000E+00  0.00000000000E+00  0.14999999963E+04  0.15000000000E+04  0.10566000000E+00 0. -1.
        994   -1    0    0    0    0 -0.00000000000E+00 -0.00000000000E+00  0.11368683772E-12  0.17120000000E+03  0.17120000000E+03 0.  0.
         13    1    1    2    0    0  0.21778665612E+02  0.36870235625E+01  0.66867565606E+02  0.70421494678E+02  0.10566000000E+00 0. -1.
        994    1    1    2    0    0 -0.30859606309E+02 -0.15549174405E+02  0.72711415417E+01  0.17480389477E+03  0.17120000000E+03 0.  0.
        998    1    1    2    0    0  0.90809406969E+01  0.11862150843E+02  0.14258612891E+04  0.14259746106E+04  0.10000000000E+02 0. -1.
</event>
<event>
 5    1  0.1218060E-008  0.3776569E+03  0.7957747E-01  0.3461425E+00
         13   -1    0    0    0    0  0.00000000000E+00  0.00000000000E+00  0.14999999963E+04  0.15000000000E+04  0.10566000000E+00 0.  1.
        994   -1    0    0    0    0 -0.00000000000E+00 -0.00000000000E+00  0.11368683772E-12  0.17120000000E+03  0.17120000000E+03 0.  0.
         13    1    1    2    0    0 -0.44758063572E+02 -0.56071195768E+02  0.38512974975E+03  0.39175527892E+03  0.10566000000E+00 0.  1.
        994    1    1    2    0    0  0.52470339741E+02  0.41437584910E+02  0.20531908342E+02  0.18493568951E+03  0.17120000000E+03 0.  0.
        998    1    1    2    0    0 -0.77122761697E+01  0.14633610858E+02  0.10943383382E+04  0.10945090316E+04  0.10000000000E+02 0. -1.
</event>
<event>
 5    1  0.1218060E-008  0.3724005E+03  0.7957747E-01  0.3484931E+00
         13   -1    0    0    0    0  0.00000000000E+00  0.00000000000E+00  0.14999999963E+04  0.15000000000E+04  0.10566000000E+00 0.  1.
        994   -1    0    0    0    0 -0.00000000000E+00 -0.00000000000E+00  0.11368683772E-12  0.17120000000E+03  0.17120000000E+03 0.  0.
         13    1    1    2    0    0 -0.12056645741E+02 -0.43133948990E+01  0.63836859326E+01  0.14308413337E+02  0.10566000000E+00 0.  1.
        994    1    1    2    0    0  0.17221473099E+02  0.12123311646E+02  0.95422509913E+01  0.17275430060E+03  0.17120000000E+03 0.  0.
        998    1    1    2    0    0 -0.51648273573E+01 -0.78099167472E+01  0.14840740594E+04  0.14841372861E+04  0.10000000000E+02 0.  1.
</event>
<event>
 5    1  0.1218060E-008  0.3811453E+03  0.7957747E-01  0.3446187E+00
         13   -1    0    0    0    0  0.00000000000E+00  0.00000000000E+00  0.14999999963E+04  0.15000000000E+04  0.10566000000E+00 0. -1.
        994   -1    0    0    0    0 -0.00000000000E+00 -0.00000000000E+00  0.11368683772E-12  0.17120000000E+03  0.17120000000E+03 0.  0.
         13    1    1    2    0    0  0.28110938557E+02 -0.60167083747E+01  0.11580360766E+03  0.11931853317E+03  0.10566000000E+00 0. -1.
        994    1    1    2    0    0 -0.16234122286E+02  0.14335149378E+01  0.44411792234E+01  0.17203129298E+03  0.17120000000E+03 0.  0.
        998    1    1    2    0    0 -0.11876816271E+02  0.45831934369E+01  0.13797552094E+04  0.13798501738E+04  0.10000000000E+02 0. -1.
</event>
<event>
 5    1  0.1218060E-008  0.3826750E+03  0.7957747E-01  0.3439593E+00
         13   -1    0    0    0    0  0.00000000000E+00  0.00000000000E+00  0.14999999963E+04  0.15000000000E+04  0.10566000000E+00 0.  1.
        994   -1    0    0    0    0 -0.00000000000E+00 -0.00000000000E+00  0.11368683772E-12  0.17120000000E+03  0.17120000000E+03 0.  0.
         13    1    1    2    0    0 -0.47100350707E+01 -0.20369971643E+02  0.73867526301E+02  0.76769413056E+02  0.10566000000E+00 0.  1.
        994    1    1    2    0    0  0.65087677366E+01  0.21573693175E+02  0.44732903487E+01  0.17273459011E+03  0.17120000000E+03 0.  0.
        998    1    1    2    0    0 -0.17987326659E+01 -0.12037215318E+01  0.14216591796E+04  0.14216959968E+04  0.10000000000E+02 0.  1.
</event>
<event>
 5    1  0.1218060E-008  0.3791667E+03  0.7957747E-01  0.3454795E+00
         13   -1    0    0    0    0  0.00000000000E+00  0.00000000000E+00  0.14999999963E+04  0.15000000000E+04  0.10566000000E+00 0.  1.
        994   -1    0    0    0    0 -0.00000000000E+00 -0.00000000000E+00  0.11368683772E-12  0.17120000000E+03  0.17120000000E+03 0.  0.
         13    1    1    2    0    0 -0.15420420857E+02  0.23602321518E+01  0.24797964572E+02  0.29296933051E+02  0.10566000000E+00 0.  1.
        994    1    1    2    0    0  0.10823092705E+02 -0.49393518166E+01  0.50289610436E+01  0.17168653698E+03  0.17120000000E+03 0.  0.
        998    1    1    2    0    0  0.45973281514E+01  0.25791196648E+01  0.14701730707E+04  0.14702165300E+04  0.10000000000E+02 0.  1.
</event>
<event>
 5    1  0.1218060E-008  0.3849381E+03  0.7957747E-01  0.3429935E+00
         13   -1    0    0    0    0  0.00000000000E+00  0.00000000000E+00  0.14999999963E+04  0.15000000000E+04  0.10566000000E+00 0.  1.
        994   -1    0    0    0    0 -0.00000000000E+00 -0.00000000000E+00  0.11368683772E-12  0.17120000000E+03  0.17120000000E+03 0.  0.
         13    1    1    2    0    0 -0.99623166047E+01  0.17704198510E+01  0.29957806378E+02  0.31620617729E+02  0.10566000000E+00 0.  1.
        994    1    1    2    0    0  0.11646872868E+02 -0.31139432457E+00  0.21074999700E+01  0.17160893966E+03  0.17120000000E+03 0.  0.
        998    1    1    2    0    0 -0.16845562638E+01 -0.14590255265E+01  0.14679346899E+04  0.14679704426E+04  0.10000000000E+02 0.  1.
</event>
<event>
 5    1  0.1218060E-008  0.3853073E+03  0.7957747E-01  0.3428370E+00
         13   -1    0    0    0    0  0.00000000000E+00  0.00000000000E+00  0.14999999963E+04  0.15000000000E+04  0.10566000000E+00 0.  1.
        994   -1    0    0    0    0 -0.00000000000E+00 -0.00000000000E+00  0.11368683772E-12  0.17120000000E+03  0.17120000000E+03 0.  0.
         13    1    1    2    0    0 -0.10749448093E+02  0.48611239405E+00  0.38882567593E+02  0.40344171404E+02  0.10566000000E+00 0.  1.
        994    1    1    2    0    0  0.91160252667E+01  0.63719969820E+01  0.18841451198E+01  0.17157125128E+03  0.17120000000E+03 0.  0.
        998    1    1    2    0    0  0.16334228260E+01 -0.68581093760E+01  0.14592332836E+04  0.14592845773E+04  0.10000000000E+02 0.  1.
</event>
<event>
 5    1  0.1218060E-008  0.3800468E+03  0.7957747E-01  0.3450955E+00
         13   -1    0    0    0    0  0.00000000000E+00  0.00000000000E+00  0.14999999963E+04  0.15000000000E+04  0.10566000000E+00 0.  1.
        994   -1    0    0    0    0 -0.00000000000E+00 -0.00000000000E+00  0.11368683772E-12  0.17120000000E+03  0.17120000000E+03 0.  0.
         13    1    1    2    0    0  0.18403915259E+02  0.89658398126E+01  0.48428457597E+02  0.52577723892E+02  0.10566000000E+00 0.  1.
        994    1    1    2    0    0 -0.17343332286E+02 -0.78903443115E+01  0.53239187752E+01  0.17233929563E+03  0.17120000000E+03 0.  0.
        998    1    1    2    0    0 -0.10605829726E+01 -0.10754955011E+01  0.14462476199E+04  0.14462829805E+04  0.10000000000E+02 0.  1.
</event>
<event>
 5    1  0.1218060E-008  0.3755787E+03  0.7957747E-01  0.3470639E+00
         13   -1    0    0    0    0  0.00000000000E+00  0.00000000000E+00  0.14999999963E+04  0.15000000000E+04  0.10566000000E+00 0.  1.
        994   -1    0    0    0    0 -0.00000000000E+00 -0.00000000000E+00  0.11368683772E-12  0.17120000000E+03  0.17120000000E+03 0.  0.
         13    1    1    2    0    0  0.51545939754E+02 -0.53602357281E-01  0.20325616257E+03  0.20969040409E+03  0.10566000000E+00 0.  1.
        994    1    1    2    0    0 -0.35690908074E+02  0.58676544104E+02  0.22555710229E+02  0.18583588946E+03  0.17120000000E+03 0.  0.
        998    1    1    2    0    0 -0.15855031680E+02 -0.58622941746E+02  0.12741881235E+04  0.12756737065E+04  0.10000000000E+02 0.  1.
</event>
<event>
 5    1  0.1218060E-008  0.3843127E+03  0.7957747E-01  0.3432592E+00
         13   -1    0    0    0    0  0.00000000000E+00  0.00000000000E+00  0.14999999963E+04  0.15000000000E+04  0.10566000000E+00 0. -1.
        994   -1    0    0    0    0 -0.00000000000E+00 -0.00000000000E+00  0.11368683772E-12  0.17120000000E+03  0.17120000000E+03 0.  0.
         13    1    1    2    0    0 -0.11948314126E+02  0.89731837562E+01  0.54924685501E+02  0.56921107496E+02  0.10566000000E+00 0. -1.
        994    1    1    2    0    0  0.55972764952E+01 -0.16793829354E+02  0.30052766567E+01  0.17213899586E+03  0.17120000000E+03 0.  0.
        998    1    1    2    0    0  0.63510376310E+01  0.78206455981E+01  0.14420700341E+04  0.14421398966E+04  0.10000000000E+02 0. -1.
</event>
<event>
 5    1  0.1218060E-008  0.3776791E+03  0.7957747E-01  0.3461327E+00
         13   -1    0    0    0    0  0.00000000000E+00  0.00000000000E+00  0.14999999963E+04  0.15000000000E+04  0.10566000000E+00 0. -1.
        994   -1    0    0    0    0 -0.00000000000E+00 -0.00000000000E+00  0.11368683772E-12  0.17120000000E+03  0.17120000000E+03 0.  0.
         13    1    1    2    0    0 -0.11211764647E+02 -0.17237140833E+02  0.38505069494E+02  0.43651738011E+02  0.10566000000E+00 0. -1.
        994    1    1    2    0    0 -0.14683520741E+02  0.17857521001E+02  0.71119948791E+01  0.17290031032E+03  0.17120000000E+03 0.  0.
        998    1    1    2    0    0  0.25895285388E+02 -0.62038016820E+00  0.14543829319E+04  0.14546479517E+04  0.10000000000E+02 0. -1.
</event>
<event>
 5    1  0.1218060E-008  0.3700764E+03  0.7957747E-01  0.3495540E+00
         13   -1    0    0    0    0  0.00000000000E+00  0.00000000000E+00  0.14999999963E+04  0.15000000000E+04  0.10566000000E+00 0. -1.
        994   -1    0    0    0    0 -0.00000000000E+00 -0.00000000000E+00  0.11368683772E-12  0.17120000000E+03  0.17120000000E+03 0.  0.
         13    1    1    2    0    0  0.30143150625E+02 -0.48861489897E+02  0.14542405540E+03  0.15634647990E+03  0.10566000000E+00 0. -1.
        994    1    1    2    0    0 -0.10750015255E+02  0.36764713660E+02  0.16127389633E+02  0.17617247144E+03  0.17120000000E+03 0.  0.
        998    1    1    2    0    0 -0.19393135371E+02  0.12096776237E+02  0.13384485512E+04  0.13386810487E+04  0.10000000000E+02 0. -1.
</event>
<event>
 5    1  0.1218060E-008  0.3804148E+03  0.7957747E-01  0.3449354E+00
         13   -1    0    0    0    0  0.00000000000E+00  0.00000000000E+00  0.14999999963E+04  0.15000000000E+04  0.10566000000E+00 0.  1.
        994   -1    0    0    0    0 -0.00000000000E+00 -0.00000000000E+00  0.11368683772E-12  0.17120000000E+03  0.17120000000E+03 0.  0.
         13    1    1    2    0    0  0.31059832913E+02 -0.20012975268E+02  0.19130529953E+03  0.19484086120E+03  0.10566000000E+00 0.  1.
        994    1    1    2    0    0 -0.14679764754E+02 -0.78070388340E+01  0.48472864173E+01  0.17207376771E+03  0.17120000000E+03 0.  0.
        998    1    1    2    0    0 -0.16380068159E+02  0.27820014102E+02  0.13038474103E+04  0.13042853711E+04  0.10000000000E+02 0.  1.
</event>
<event>
 5    1  0.1218060E-008  0.3848643E+03  0.7957747E-01  0.3430248E+00
         13   -1    0    0    0    0  0.00000000000E+00  0.00000000000E+00  0.14999999963E+04  0.15000000000E+04  0.10566000000E+00 0. -1.
        994   -1    0    0    0    0 -0.00000000000E+00 -0.00000000000E+00  0.11368683772E-12  0.17120000000E+03  0.17120000000E+03 0.  0.
         13    1    1    2    0    0  0.73074885277E+01  0.13231670182E+02  0.61545997460E+02  0.63375053860E+02  0.10566000000E+00 0. -1.
        994    1    1    2    0    0 -0.30103810421E+01 -0.26787431712E+02  0.40918697696E+01  0.17335746967E+03  0.17120000000E+03 0.  0.
        998    1    1    2    0    0 -0.42971074856E+01  0.13555761531E+02  0.14343621290E+04  0.14344674765E+04  0.10000000000E+02 0. -1.
</event>
<event>
 5    1  0.1218060E-008  0.3728992E+03  0.7957747E-01  0.3482672E+00
         13   -1    0    0    0    0  0.00000000000E+00  0.00000000000E+00  0.14999999963E+04  0.15000000000E+04  0.10566000000E+00 0. -1.
        994   -1    0    0    0    0 -0.00000000000E+00 -0.00000000000E+00  0.11368683772E-12  0.17120000000E+03  0.17120000000E+03 0.  0.
         13    1    1    2    0    0  0.18259765687E+02  0.26378041002E+00  0.17917244648E+02  0.25583733951E+02  0.10566000000E+00 0. -1.
        994    1    1    2    0    0 -0.17913439030E+02 -0.80716768750E+01  0.90842131413E+01  0.17256304991E+03  0.17120000000E+03 0.  0.
        998    1    1    2    0    0 -0.34632665731E+00  0.78078964650E+01  0.14729985385E+04  0.14730532161E+04  0.10000000000E+02 0. -1.
</event>
<event>
 5    1  0.1218060E-008  0.3870855E+03  0.7957747E-01  0.3420875E+00
         13   -1    0    0    0    0  0.00000000000E+00  0.00000000000E+00  0.14999999963E+04  0.15000000000E+04  0.10566000000E+00 0. -1.
        994   -1    0    0    0    0 -0.00000000000E+00 -0.00000000000E+00  0.11368683772E-12  0.17120000000E+03  0.17120000000E+03 0.  0.
         13    1    1    2    0    0  0.45746982602E+02  0.31106005366E+02  0.48644186371E+02  0.73665718070E+02  0.10566000000E+00 0. -1.
        994    1    1    2    0    0 -0.15467621290E+03 -0.38787003069E+02  0.12237009828E+03  0.26403227718E+03  0.17120000000E+03 0.  0.
        998    1    1    2    0    0  0.10892923029E+03  0.76809977028E+01  0.13289857116E+04  0.13335020047E+04  0.10000000000E+02 0. -1.
</event>
<event>
 5    1  0.1218060E-008  0.3747486E+03  0.7957747E-01  0.3474348E+00
         13   -1    0    0    0    0  0.00000000000E+00  0.00000000000E+00  0.14999999963E+04  0.15000000000E+04  0.10566000000E+00 0. -1.
        994   -1    0    0    0    0 -0.00000000000E+00 -0.00000000000E+00  0.11368683772E-12  0.17120000000E+03  0.17120000000E+03 0.  0.
         13    1    1    2    0    0 -0.57909452664E+02  0.38870448077E+02  0.28262758724E+03  0.29110613301E+03  0.10566000000E+00 0. -1.
        994    1    1    2    0    0  0.30220064795E+02 -0.93473175930E+02  0.40383660500E+02  0.20147150411E+03  0.17120000000E+03 0.  0.
        998    1    1    2    0    0  0.27689387869E+02  0.54602727854E+02  0.11769887485E+04  0.11786223629E+04  0.10000000000E+02 0. -1.
</event>
<event>
 5    1  0.1218060E-008  0.3744401E+03  0.7957747E-01  0.3475731E+00
         13   -1    0    0    0    0  0.00000000000E+00  0.00000000000E+00  0.14999999963E+04  0.15000000000E+04  0.10566000000E+00 0. -1.
        994   -1    0    0    0    0 -0.00000000000E+00 -0.00000000000E+00  0.11368683772E-12  0.17120000000E+03  0.17120000000E+03 0.  0.
         13    1    1    2    0    0 -0.16397490858E+02 -0.26704814925E+02  0.72822049967E+02  0.79278540426E+02  0.10566000000E+00 0. -1.
        994    1    1    2    0    0  0.41679747697E+01 -0.18881883008E+01  0.70378302367E+01  0.17140568346E+03  0.17120000000E+03 0.  0.
        998    1    1    2    0    0  0.12229516088E+02  0.28593003226E+02  0.14201401161E+04  0.14205157761E+04  0.10000000000E+02 0. -1.
</event>
<event>
 5    1  0.1218060E-008  0.3782837E+03  0.7957747E-01  0.3458666E+00
         13   -1    0    0    0    0  0.00000000000E+00  0.00000000000E+00  0.14999999963E+04  0.15000000000E+04  0.10566000000E+00 0.  1.
        994   -1    0    0    0    0 -0.00000000000E+00 -0.00000000000E+00  0.11368683772E-12  0.17120000000E+03  0.17120000000E+03 0.  0.
         13    1    1    2    0    0 -0.92666915250E+01  0.16009256555E+02  0.33817862050E+02  0.38546424282E+02  0.10566000000E+00 0.  1.
        994    1    1    2    0    0 -0.12060713303E+02 -0.24697763587E+01  0.55117657642E+01  0.17173054522E+03  0.17120000000E+03 0.  0.
        998    1    1    2    0    0  0.21327404828E+02 -0.13539480197E+02  0.14606703685E+04  0.14609230305E+04  0.10000000000E+02 0.  1.
</event>
<event>
 5    1  0.1218060E-008  0.3821379E+03  0.7957747E-01  0.3441902E+00
         13   -1    0    0    0    0  0.00000000000E+00  0.00000000000E+00  0.14999999963E+04  0.15000000000E+04  0.10566000000E+00 0. -1.
        994   -1    0    0    0    0 -0.00000000000E+00 -0.00000000000E+00  0.11368683772E-12  0.17120000000E+03  0.17120000000E+03 0.  0.
         13    1    1    2    0    0 -0.29439915403E+02  0.51681970029E+01  0.15102872470E+03  0.15395812979E+03  0.10566000000E+00 0. -1.
        994    1    1    2    0    0  0.13079320239E+02  0.32337472206E+01  0.36606260604E+01  0.17176834959E+03  0.17120000000E+03 0.  0.
        998    1    1    2    0    0  0.16360595164E+02 -0.84019442235E+01  0.13453106455E+04  0.13454735206E+04  0.10000000000E+02 0. -1.
</event>
<event>
 5    1  0.1218060E-008  0.3811689E+03  0.7957747E-01  0.3446084E+00
         13   -1    0    0    0    0  0.00000000000E+00  0.00000000000E+00  0.14999999963E+04  0.15000000000E+04  0.10566000000E+00 0. -1.
        994   -1    0    0    0    0 -0.00000000000E+00 -0.00000000000E+00  0.11368683772E-12  0.17120000000E+03  0.17120000000E+03 0.  0.
         13    1    1    2    0    0  0.53837652759E+01  0.11946077857E+02  0.22730893845E+02  0.26237347498E+02  0.10566000000E+00 0. -1.
        994    1    1    2    0    0 -0.76724512597E+01 -0.77505942947E+01  0.39404010680E+01  0.17159226376E+03  0.17120000000E+03 0.  0.
        998    1    1    2    0    0  0.22886859838E+01 -0.41954835621E+01  0.14733287014E+04  0.14733703887E+04  0.10000000000E+02 0. -1.
</event>
<event>
 5    1  0.1218060E-008  0.3837623E+03  0.7957747E-01  0.3434939E+00
         13   -1    0    0    0    0  0.00000000000E+00  0.00000000000E+00  0.14999999963E+04  0.15000000000E+04  0.10566000000E+00 0. -1.
        994   -1    0    0    0    0 -0.00000000000E+00 -0.00000000000E+00  0.11368683772E-12  0.17120000000E+03  0.17120000000E+03 0.  0.
         13    1    1    2    0    0 -0.17333411187E+02  0.17532833082E+02  0.13401480293E+03  0.13626381012E+03  0.10566000000E+00 0. -1.
        994    1    1    2    0    0 -0.16174605215E+02 -0.42062581713E+02  0.89807048589E+01  0.17725961665E+03  0.17120000000E+03 0.  0.
        998    1    1    2    0    0  0.33508016402E+02  0.24529748631E+02  0.13570044885E+04  0.13576765732E+04  0.10000000000E+02 0. -1.
</event>
<event>
 5    1  0.1218060E-008  0.3777588E+03  0.7957747E-01  0.3460976E+00
         13   -1    0    0    0    0  0.00000000000E+00  0.00000000000E+00  0.14999999963E+04  0.15000000000E+04  0.10566000000E+00 0.  1.
        994   -1    0    0    0    0 -0.00000000000E+00 -0.00000000000E+00  0.11368683772E-12  0.17120000000E+03  0.17120000000E+03 0.  0.
         13    1    1    2    0    0  0.59115077140E+02 -0.12032362705E+01  0.32738463025E+03  0.33268114977E+03  0.10566000000E+00 0.  1.
        994    1    1    2    0    0 -0.34483481138E+02  0.20658591195E+01  0.92984579470E+01  0.17489791184E+03  0.17120000000E+03 0.  0.
        998    1    1    2    0    0 -0.24631596002E+02 -0.86262284896E+00  0.11633169081E+04  0.11636209384E+04  0.10000000000E+02 0.  1.
</event>
<event>
 5    1  0.1218060E-008  0.3784915E+03  0.7957747E-01  0.3457753E+00
         13   -1    0    0    0    0  0.00000000000E+00  0.00000000000E+00  0.14999999963E+04  0.15000000000E+04  0.10566000000E+00 0. -1.
        994   -1    0    0    0    0 -0.00000000000E+00 -0.00000000000E+00  0.11368683772E-12  0.17120000000E+03  0.17120000000E+03 0.  0.
         13    1    1    2    0    0  0.71335779211E+01 -0.27821021063E+02  0.79535348927E+02  0.84562284973E+02  0.10566000000E+00 0. -1.
        994    1    1    2    0    0 -0.78793881677E+01  0.25099541277E+02  0.72252027732E+01  0.17336007408E+03  0.17120000000E+03 0.  0.
        998    1    1    2    0    0  0.74581024661E+00  0.27214797861E+01  0.14132394446E+04  0.14132776409E+04  0.10000000000E+02 0.  0.
</event>
<event>
 5    1  0.1218060E-008  0.3850990E+03  0.7957747E-01  0.3429252E+00
         13   -1    0    0    0    0  0.00000000000E+00  0.00000000000E+00  0.14999999963E+04  0.15000000000E+04  0.10566000000E+00 0. -1.
        994   -1    0    0    0    0 -0.00000000000E+00 -0.00000000000E+00  0.11368683772E-12  0.17120000000E+03  0.17120000000E+03 0.  0.
         13    1    1    2    0    0 -0.15758398768E+02 -0.10728410603E+02  0.11072431706E+03  0.11235351120E+03  0.10566000000E+00 0. -1.
        994    1    1    2    0    0  0.18516561557E+02  0.26387665780E+01  0.27319171807E+01  0.17224032487E+03  0.17120000000E+03 0.  0.
        998    1    1    2    0    0 -0.27581627891E+01  0.80896440248E+01  0.13865437620E+04  0.13866061639E+04  0.10000000000E+02 0. -1.
</event>
<event>
 5    1  0.1218060E-008  0.3779859E+03  0.7957747E-01  0.3459975E+00
         13   -1    0    0    0    0  0.00000000000E+00  0.00000000000E+00  0.14999999963E+04  0.15000000000E+04  0.10566000000E+00 0.  1.
        994   -1    0    0    0    0 -0.00000000000E+00 -0.00000000000E+00  0.11368683772E-12  0.17120000000E+03  0.17120000000E+03 0.  0.
         13    1    1    2    0    0 -0.63330489478E+02 -0.36192858359E+02  0.23957361021E+03  0.25043202624E+03  0.10566000000E+00 0.  1.
        994    1    1    2    0    0 -0.25190349245E+02 -0.72143218465E+01  0.17698816776E+02  0.17409562961E+03  0.17120000000E+03 0.  0.
        998    1    1    2    0    0  0.88520838723E+02  0.43407180205E+02  0.12427275693E+04  0.12466723441E+04  0.10000000000E+02 0.  1.
</event>
<event>
 5    1  0.1218060E-008  0.3860282E+03  0.7957747E-01  0.3425323E+00
         13   -1    0    0    0    0  0.00000000000E+00  0.00000000000E+00  0.14999999963E+04  0.15000000000E+04  0.10566000000E+00 0.  1.
        994   -1    0    0    0    0 -0.00000000000E+00 -0.00000000000E+00  0.11368683772E-12  0.17120000000E+03  0.17120000000E+03 0.  0.
         13    1    1    2    0    0 -0.98312362903E+01 -0.95770499669E+01  0.80918170056E+02  0.82073957515E+02  0.10566000000E+00 0.  1.
        994    1    1    2    0    0  0.70446245039E+01  0.14214616644E+02  0.19458859817E+01  0.17194449259E+03  0.17120000000E+03 0.  0.
        998    1    1    2    0    0  0.27866117864E+01 -0.46375666774E+01  0.14171359402E+04  0.14171815499E+04  0.10000000000E+02 0.  1.
</event>
<event>
 5    1  0.1218060E-008  0.3787282E+03  0.7957747E-01  0.3456715E+00
         13   -1    0    0    0    0  0.00000000000E+00  0.00000000000E+00  0.14999999963E+04  0.15000000000E+04  0.10566000000E+00 0.  1.
        994   -1    0    0    0    0 -0.00000000000E+00 -0.00000000000E+00  0.11368683772E-12  0.17120000000E+03  0.17120000000E+03 0.  0.
         13    1    1    2    0    0  0.66748882217E+01 -0.16274811948E+02  0.30742104953E+02  0.35419088324E+02  0.10566000000E+00 0.  1.
        994    1    1    2    0    0 -0.10119222320E+02  0.54368349461E+01  0.52196273878E+01  0.17166433044E+03  0.17120000000E+03 0.  0.
        998    1    1    2    0    0  0.34443340980E+01  0.10837977002E+02  0.14640382639E+04  0.14641165812E+04  0.10000000000E+02 0.  1.
</event>
<event>
 5    1  0.1218060E-008  0.3745304E+03  0.7957747E-01  0.3475326E+00
         13   -1    0    0    0    0  0.00000000000E+00  0.00000000000E+00  0.14999999963E+04  0.15000000000E+04  0.10566000000E+00 0.  1.
        994   -1    0    0    0    0 -0.00000000000E+00 -0.00000000000E+00  0.11368683772E-12  0.17120000000E+03  0.17120000000E+03 0.  0.
         13    1    1    2    0    0  0.11074793451E+02 -0.47167994901E+01  0.71708253080E+01  0.14011821689E+02  0.10566000000E+00 0.  1.
        994    1    1    2    0    0 -0.17827851060E+02  0.19671978015E+01  0.80161016620E+01  0.17232353300E+03  0.17120000000E+03 0.  0.
        998    1    1    2    0    0  0.67530576089E+01  0.27496016886E+01  0.14848130693E+04  0.14848646453E+04  0.10000000000E+02 0.  1.
</event>
<event>
 5    1  0.1503077E-008  0.3862321E+03  0.7957747E-01  0.3424464E+00
         13   -1    0    0    0    0  0.00000000000E+00  0.00000000000E+00  0.14999999963E+04  0.15000000000E+04  0.10566000000E+00 0. -1.
        994   -1    0    0    0    0 -0.00000000000E+00 -0.00000000000E+00  0.11368683772E-12  0.17120000000E+03  0.17120000000E+03 0.  0.
         13    1    1    2    0    0  0.81110398640E+01  0.59636875703E+01  0.47219988888E+02  0.48281394468E+02  0.10566000000E+00 0. -1.
        994    1    1    2    0    0 -0.12673468111E+02 -0.11152417590E+02  0.19537366203E+01  0.17204142030E+03  0.17120000000E+03 0.  0.
        998    1    1    2    0    0  0.45624282469E+01  0.51887300194E+01  0.14508262708E+04  0.14508771852E+04  0.10000000000E+02 0. -1.
</event>
<event>
 5    1  0.1218060E-008  0.3804123E+03  0.7957747E-01  0.3449365E+00
         13   -1    0    0    0    0  0.00000000000E+00  0.00000000000E+00  0.14999999963E+04  0.15000000000E+04  0.10566000000E+00 0.  1.
        994   -1    0    0    0    0 -0.00000000000E+00 -0.00000000000E+00  0.11368683772E-12  0.17120000000E+03  0.17120000000E+03 0.  0.
         13    1    1    2    0    0  0.51022719830E+00 -0.19315212568E+02  0.45294710609E+02  0.49243880244E+02  0.10566000000E+00 0.  1.
        994    1    1    2    0    0 -0.34131346078E+01  0.17403247333E+02  0.49758634982E+01  0.17218804175E+03  0.17120000000E+03 0.  0.
        998    1    1    2    0    0  0.29029074095E+01  0.19119652351E+01  0.14497294222E+04  0.14497680780E+04  0.10000000000E+02 0.  1.
</event>
<event>
 5    1  0.1218060E-008  0.3723064E+03  0.7957747E-01  0.3485358E+00
         13   -1    0    0    0    0  0.00000000000E+00  0.00000000000E+00  0.14999999963E+04  0.15000000000E+04  0.10566000000E+00 0. -1.
        994   -1    0    0    0    0 -0.00000000000E+00 -0.00000000000E+00  0.11368683772E-12  0.17120000000E+03  0.17120000000E+03 0.  0.
         13    1    1    2    0    0  0.44343251431E+01 -0.15385450230E+02  0.12218611701E+02  0.20141523135E+02  0.10566000000E+00 0. -1.
        994    1    1    2    0    0 -0.93703607808E+01  0.12825931855E+02  0.89344506274E+01  0.17216728086E+03  0.17120000000E+03 0.  0.
        998    1    1    2    0    0  0.49360356377E+01  0.25595183744E+01  0.14788469339E+04  0.14788911960E+04  0.10000000000E+02 0. -1.
</event>
<event>
 5    1  0.1218060E-008  0.3836236E+03  0.7957747E-01  0.3435531E+00
         13   -1    0    0    0    0  0.00000000000E+00  0.00000000000E+00  0.14999999963E+04  0.15000000000E+04  0.10566000000E+00 0.  1.
        994   -1    0    0    0    0 -0.00000000000E+00 -0.00000000000E+00  0.11368683772E-12  0.17120000000E+03  0.17120000000E+03 0.  0.
         13    1    1    2    0    0  0.15073053642E+02  0.15659583636E+02  0.95737270014E+02  0.98173598994E+02  0.10566000000E+00 0.  1.
        994    1    1    2    0    0 -0.10043443802E+02 -0.21793672667E+02  0.42195792527E+01  0.17292506984E+03  0.17120000000E+03 0.  0.
        998    1    1    2    0    0 -0.50296098392E+01  0.61340890315E+01  0.14000431470E+04  0.14001013312E+04  0.10000000000E+02 0.  1.
</event>
<event>
 5    1  0.1218060E-008  0.3855058E+03  0.7957747E-01  0.3427530E+00
         13   -1    0    0    0    0  0.00000000000E+00  0.00000000000E+00  0.14999999963E+04  0.15000000000E+04  0.10566000000E+00 0.  1.
        994   -1    0    0    0    0 -0.00000000000E+00 -0.00000000000E+00  0.11368683772E-12  0.17120000000E+03  0.17120000000E+03 0.  0.
         13    1    1    2    0    0 -0.10479060437E+02  0.75334191092E+00  0.39446542715E+02  0.40821797215E+02  0.10566000000E+00 0.  1.
        994    1    1    2    0    0  0.10502182209E+02  0.19709507836E+01  0.17541852957E+01  0.17154211624E+03  0.17120000000E+03 0.  0.
        998    1    1    2    0    0 -0.23121772098E-01 -0.27242926945E+01  0.14587992683E+04  0.14588360865E+04  0.10000000000E+02 0.  1.
</event>
<event>
 5    1  0.1218060E-008  0.3803224E+03  0.7957747E-01  0.3449756E+00
         13   -1    0    0    0    0  0.00000000000E+00  0.00000000000E+00  0.14999999963E+04  0.15000000000E+04  0.10566000000E+00 0.  1.
        994   -1    0    0    0    0 -0.00000000000E+00 -0.00000000000E+00  0.11368683772E-12  0.17120000000E+03  0.17120000000E+03 0.  0.
         13    1    1    2    0    0 -0.63269159822E+02  0.17952577632E+03  0.10712135347E+04  0.10879939977E+04  0.10566000000E+00 0.  1.
        994    1    1    2    0    0  0.71913311900E+02 -0.17379393005E+03  0.13288864647E+03  0.28695763958E+03  0.17120000000E+03 0.  0.
        998    1    1    2    0    0 -0.86441520781E+01 -0.57318462642E+01  0.29589781513E+03  0.29624836274E+03  0.10000000000E+02 0.  0.
</event>
<event>
 5    1  0.1218060E-008  0.3806056E+03  0.7957747E-01  0.3448526E+00
         13   -1    0    0    0    0  0.00000000000E+00  0.00000000000E+00  0.14999999963E+04  0.15000000000E+04  0.10566000000E+00 0.  1.
        994   -1    0    0    0    0 -0.00000000000E+00 -0.00000000000E+00  0.11368683772E-12  0.17120000000E+03  0.17120000000E+03 0.  0.
         13    1    1    2    0    0 -0.53536025258E+01 -0.92218926903E+01  0.12975404121E+02  0.16795137420E+02  0.10566000000E+00 0.  1.
        994    1    1    2    0    0  0.89721902341E+01  0.11801489925E+02  0.45613126488E+01  0.17190119527E+03  0.17120000000E+03 0.  0.
        998    1    1    2    0    0 -0.36185877083E+01 -0.25795972346E+01  0.14824632795E+04  0.14825036673E+04  0.10000000000E+02 0.  1.
</event>
<event>
 5    1  0.1218060E-008  0.3803224E+03  0.7957747E-01  0.3449756E+00
         13   -1    0    0    0    0  0.00000000000E+00  0.00000000000E+00  0.14999999963E+04  0.15000000000E+04  0.10566000000E+00 0.  1.
        994   -1    0    0    0    0 -0.00000000000E+00 -0.00000000000E+00  0.11368683772E-12  0.17120000000E+03  0.17120000000E+03 0.  0.
         13    1    1    2    0    0  0.20211762270E+02 -0.80941887495E+01  0.60291697737E+02  0.64102505455E+02  0.10566000000E+00 0.  1.
        994    1    1    2    0    0 -0.29706389617E+01  0.79596383828E+01  0.42115823513E+01  0.17146240977E+03  0.17120000000E+03 0.  0.
        998    1    1    2    0    0 -0.17241123308E+02  0.13455036679E+00  0.14354967162E+04  0.14356350848E+04  0.10000000000E+02 0.  1.
</event>
<event>
 5    1  0.1218060E-008  0.3834013E+03  0.7957747E-01  0.3436481E+00
         13   -1    0    0    0    0  0.00000000000E+00  0.00000000000E+00  0.14999999963E+04  0.15000000000E+04  0.10566000000E+00 0. -1.
        994   -1    0    0    0    0 -0.00000000000E+00 -0.00000000000E+00  0.11368683772E-12  0.17120000000E+03  0.17120000000E+03 0.  0.
         13    1    1    2    0    0 -0.25516097848E+01  0.21258604655E+02  0.82772390785E+02  0.85496893655E+02  0.10566000000E+00 0. -1.
        994    1    1    2    0    0 -0.35891925265E+01 -0.35793801529E+02  0.67156702381E+01  0.17506746916E+03  0.17120000000E+03 0.  0.
        998    1    1    2    0    0  0.61408023113E+01  0.14535196874E+02  0.14105119353E+04  0.14106356372E+04  0.10000000000E+02 0. -1.
</event>
<event>
 5    1  0.1218060E-008  0.3853740E+03  0.7957747E-01  0.3428087E+00
         13   -1    0    0    0    0  0.00000000000E+00  0.00000000000E+00  0.14999999963E+04  0.15000000000E+04  0.10566000000E+00 0. -1.
        994   -1    0    0    0    0 -0.00000000000E+00 -0.00000000000E+00  0.11368683772E-12  0.17120000000E+03  0.17120000000E+03 0.  0.
         13    1    1    2    0    0 -0.23557851668E+01 -0.98069048035E+01  0.35140770494E+02  0.36559677522E+02  0.10566000000E+00 0. -1.
        994    1    1    2    0    0  0.27294550545E+01  0.67524769899E+01  0.16188092665E+01  0.17136250002E+03  0.17120000000E+03 0.  0.
        998    1    1    2    0    0 -0.37366988768E+00  0.30544278136E+01  0.14632404165E+04  0.14632778225E+04  0.10000000000E+02 0.  0.
</event>
<event>
 5    1  0.1218060E-008  0.3797796E+03  0.7957747E-01  0.3452119E+00
         13   -1    0    0    0    0  0.00000000000E+00  0.00000000000E+00  0.14999999963E+04  0.15000000000E+04  0.10566000000E+00 0. -1.
        994   -1    0    0    0    0 -0.00000000000E+00 -0.00000000000E+00  0.11368683772E-12  0.17120000000E+03  0.17120000000E+03 0.  0.
         13    1    1    2    0    0 -0.17760748790E+02  0.42571068278E+02  0.17489210349E+03  0.18087288099E+03  0.10566000000E+00 0. -1.
        994    1    1    2    0    0  0.67141449423E+02 -0.62013673656E+02  0.32716900962E+02  0.19680829647E+03  0.17120000000E+03 0.  0.
        998    1    1    2    0    0 -0.49380700633E+02  0.19442605378E+02  0.12923909918E+04  0.12935188225E+04  0.10000000000E+02 0. -1.
</event>
<event>
 5    1  0.1218060E-008  0.3828994E+03  0.7957747E-01  0.3438630E+00
         13   -1    0    0    0    0  0.00000000000E+00  0.00000000000E+00  0.14999999963E+04  0.15000000000E+04  0.10566000000E+00 0. -1.
        994   -1    0    0    0    0 -0.00000000000E+00 -0.00000000000E+00  0.11368683772E-12  0.17120000000E+03  0.17120000000E+03 0.  0.
         13    1    1    2    0    0  0.12137706201E+02  0.17406359904E+02  0.83740866150E+02  0.86387783306E+02  0.10566000000E+00 0. -1.
        994    1    1    2    0    0 -0.98605429382E+01 -0.84148663910E+01  0.32332514547E+01  0.17172051187E+03  0.17120000000E+03 0.  0.
        998    1    1    2    0    0 -0.22771632627E+01 -0.89914935125E+01  0.14130258787E+04  0.14130917048E+04  0.10000000000E+02 0. -1.
</event>
<event>
 5    1  0.1218060E-008  0.3801230E+03  0.7957747E-01  0.3450623E+00
         13   -1    0    0    0    0  0.00000000000E+00  0.00000000000E+00  0.14999999963E+04  0.15000000000E+04  0.10566000000E+00 0.  1.
        994   -1    0    0    0    0 -0.00000000000E+00 -0.00000000000E+00  0.11368683772E-12  0.17120000000E+03  0.17120000000E+03 0.  0.
         13    1    1    2    0    0 -0.13433686370E+02 -0.25568510586E+02  0.10498903580E+03  0.10888949199E+03  0.10566000000E+00 0.  1.
        994    1    1    2    0    0  0.13174164677E+02  0.48858918978E+01  0.47310502753E+01  0.17184077919E+03  0.17120000000E+03 0.  0.
        998    1    1    2    0    0  0.25952169370E+00  0.20682618688E+02  0.13902799102E+04  0.13904697288E+04  0.10000000000E+02 0.  1.
</event>
<event>
 5    1  0.1218060E-008  0.3833845E+03  0.7957747E-01  0.3436553E+00
         13   -1    0    0    0    0  0.00000000000E+00  0.00000000000E+00  0.14999999963E+04  0.15000000000E+04  0.10566000000E+00 0.  1.
        994   -1    0    0    0    0 -0.00000000000E+00 -0.00000000000E+00  0.11368683772E-12  0.17120000000E+03  0.17120000000E+03 0.  0.
         13    1    1    2    0    0  0.13257003228E+02  0.85859639610E+01  0.52496361044E+02  0.54821036096E+02  0.10566000000E+00 0.  1.
        994    1    1    2    0    0  0.22753771722E+01 -0.84190234006E+01  0.26857972432E+01  0.17144302495E+03  0.17120000000E+03 0.  0.
        998    1    1    2    0    0 -0.15532380401E+02 -0.16694056040E+00  0.14448178380E+04  0.14449359390E+04  0.10000000000E+02 0.  1.
</event>
<event>
 5    1  0.1218060E-008  0.3688186E+03  0.7957747E-01  0.3501338E+00
         13   -1    0    0    0    0  0.00000000000E+00  0.00000000000E+00  0.14999999963E+04  0.15000000000E+04  0.10566000000E+00 0. -1.
        994   -1    0    0    0    0 -0.00000000000E+00 -0.00000000000E+00  0.11368683772E-12  0.17120000000E+03  0.17120000000E+03 0.  0.
         13    1    1    2    0    0  0.48062642460E+02 -0.38387640320E+00  0.98264490328E+02  0.10938960730E+03  0.10566000000E+00 0. -1.
        994    1    1    2    0    0 -0.57550220192E+02 -0.53001232532E+01  0.22036334424E+02  0.18203065452E+03  0.17120000000E+03 0.  0.
        998    1    1    2    0    0  0.94875777327E+01  0.56839996564E+01  0.13796991715E+04  0.13797797382E+04  0.10000000000E+02 0. -1.
</event>
<event>
 5    1  0.1218060E-008  0.3910934E+03  0.7957747E-01  0.3404233E+00
         13   -1    0    0    0    0  0.00000000000E+00  0.00000000000E+00  0.14999999963E+04  0.15000000000E+04  0.10566000000E+00 0.  1.
        994   -1    0    0    0    0 -0.00000000000E+00 -0.00000000000E+00  0.11368683772E-12  0.17120000000E+03  0.17120000000E+03 0.  0.
         13    1    1    2    0    0  0.71188169917E+02 -0.76665709877E+02  0.44155782706E+03  0.45378267090E+03  0.10566000000E+00 0.  1.
        994    1    1    2    0    0  0.10780367229E+03  0.85940161425E+02  0.98563445910E+02  0.24089735568E+03  0.17120000000E+03 0.  0.
        998    1    1    2    0    0 -0.17899184220E+03 -0.92744515475E+01  0.95987872331E+03  0.97651997342E+03  0.10000000000E+02 0.  1.
</event>
<event>
 5    1  0.1218060E-008  0.3792582E+03  0.7957747E-01  0.3454395E+00
         13   -1    0    0    0    0  0.00000000000E+00  0.00000000000E+00  0.14999999963E+04  0.15000000000E+04  0.10566000000E+00 0.  1.
        994   -1    0    0    0    0 -0.00000000000E+00 -0.00000000000E+00  0.11368683772E-12  0.17120000000E+03  0.17120000000E+03 0.  0.
         13    1    1    2    0    0  0.24214748302E+02  0.47249445777E+01  0.68405641032E+02  0.72718787295E+02  0.10566000000E+00 0.  1.
        994    1    1    2    0    0 -0.69909895764E+01  0.16784935807E+01  0.46813303700E+01  0.17141483638E+03  0.17120000000E+03 0.  0.
        998    1    1    2    0    0 -0.17223758726E+02 -0.64034381584E+01  0.14269130249E+04  0.14270663763E+04  0.10000000000E+02 0.  1.
</event>
<event>
 5    1  0.1218060E-008  0.3850231E+03  0.7957747E-01  0.3429574E+00
         13   -1    0    0    0    0  0.00000000000E+00  0.00000000000E+00  0.14999999963E+04  0.15000000000E+04  0.10566000000E+00 0.  1.
        994   -1    0    0    0    0 -0.00000000000E+00 -0.00000000000E+00  0.11368683772E-12  0.17120000000E+03  0.17120000000E+03 0.  0.
         13    1    1    2    0    0  0.20244189777E+01  0.28174900237E+02  0.12426146577E+02  0.30860064134E+02  0.10566000000E+00 0.  1.
        994    1    1    2    0    0  0.29243418438E+01 -0.33795592637E+02  0.23373741250E+02  0.17608652883E+03  0.17120000000E+03 0.  0.
        998    1    1    2    0    0 -0.49487608215E+01  0.56206924000E+01  0.14642001085E+04  0.14642534070E+04  0.10000000000E+02 0.  1.
</event>
<event>
 5    1  0.1218060E-008  0.3744707E+03  0.7957747E-01  0.3475593E+00
         13   -1    0    0    0    0  0.00000000000E+00  0.00000000000E+00  0.14999999963E+04  0.15000000000E+04  0.10566000000E+00 0.  1.
        994   -1    0    0    0    0 -0.00000000000E+00 -0.00000000000E+00  0.11368683772E-12  0.17120000000E+03  0.17120000000E+03 0.  0.
         13    1    1    2    0    0 -0.37758156537E+02  0.30622696267E+02  0.17641247709E+03  0.18298852737E+03  0.10566000000E+00 0.  1.
        994    1    1    2    0    0  0.14989905983E+02 -0.12196098670E+02  0.82234834376E+01  0.17248335509E+03  0.17120000000E+03 0.  0.
        998    1    1    2    0    0  0.22768250555E+02 -0.18426597597E+02  0.13153640358E+04  0.13157281175E+04  0.10000000000E+02 0.  0.
</event>
<event>
 5    1  0.1218060E-008  0.3708318E+03  0.7957747E-01  0.3492077E+00
         13   -1    0    0    0    0  0.00000000000E+00  0.00000000000E+00  0.14999999963E+04  0.15000000000E+04  0.10566000000E+00 0.  1.
        994   -1    0    0    0    0 -0.00000000000E+00 -0.00000000000E+00  0.11368683772E-12  0.17120000000E+03  0.17120000000E+03 0.  0.
         13    1    1    2    0    0  0.43259161916E+01 -0.18895963813E+02  0.17056818996E+02  0.25820868258E+02  0.10566000000E+00 0.  1.
        994    1    1    2    0    0 -0.31101749872E+01  0.23491111944E+02  0.10773255583E+02  0.17316757365E+03  0.17120000000E+03 0.  0.
        998    1    1    2    0    0 -0.12157412045E+01 -0.45951481310E+01  0.14721699217E+04  0.14722115581E+04  0.10000000000E+02 0.  1.
</event>
<event>
 5    1  0.1218060E-008  0.3807780E+03  0.7957747E-01  0.3447778E+00
         13   -1    0    0    0    0  0.00000000000E+00  0.00000000000E+00  0.14999999963E+04  0.15000000000E+04  0.10566000000E+00 0.  1.
        994   -1    0    0    0    0 -0.00000000000E+00 -0.00000000000E+00  0.11368683772E-12  0.17120000000E+03  0.17120000000E+03 0.  0.
         13    1    1    2    0    0 -0.83615986224E+02 -0.14819843599E+01  0.40150085866E+03  0.41011800752E+03  0.10566000000E+00 0.  1.
        994    1    1    2    0    0 -0.44040662777E+02 -0.56594780636E+02  0.35689781796E+02  0.18901256492E+03  0.17120000000E+03 0.  0.
        998    1    1    2    0    0  0.12765664900E+03  0.58076764996E+02  0.10628093558E+04  0.10720694276E+04  0.10000000000E+02 0.  1.
</event>
<event>
 5    1  0.1218060E-008  0.3977016E+03  0.7957747E-01  0.3377527E+00
         13   -1    0    0    0    0  0.00000000000E+00  0.00000000000E+00  0.14999999963E+04  0.15000000000E+04  0.10566000000E+00 0. -1.
        994   -1    0    0    0    0 -0.00000000000E+00 -0.00000000000E+00  0.11368683772E-12  0.17120000000E+03  0.17120000000E+03 0.  0.
         13    1    1    2    0    0  0.31708067505E+02  0.84596058641E+02  0.16455081855E+03  0.18772021131E+03  0.10566000000E+00 0. -1.
        994    1    1    2    0    0 -0.55618522304E+02 -0.85343446796E+01  0.38795741473E+02  0.18433883101E+03  0.17120000000E+03 0.  0.
        998    1    1    2    0    0  0.23910454799E+02 -0.76061713961E+02  0.12966534363E+04  0.12991409577E+04  0.10000000000E+02 0. -1.
</event>
<event>
 5    1  0.1218060E-008  0.3853555E+03  0.7957747E-01  0.3428166E+00
         13   -1    0    0    0    0  0.00000000000E+00  0.00000000000E+00  0.14999999963E+04  0.15000000000E+04  0.10566000000E+00 0. -1.
        994   -1    0    0    0    0 -0.00000000000E+00 -0.00000000000E+00  0.11368683772E-12  0.17120000000E+03  0.17120000000E+03 0.  0.
         13    1    1    2    0    0 -0.20026111744E+01  0.17597533498E+02  0.10489861962E+03  0.10638334079E+03  0.10566000000E+00 0. -1.
        994    1    1    2    0    0  0.88448222590E+01 -0.14180744722E+02  0.23718160416E+01  0.17203020058E+03  0.17120000000E+03 0.  0.
        998    1    1    2    0    0 -0.68422110847E+01 -0.34167887766E+01  0.13927295606E+04  0.13927864586E+04  0.10000000000E+02 0. -1.
</event>
<event>
 5    1  0.1218060E-008  0.3777421E+03  0.7957747E-01  0.3461049E+00
         13   -1    0    0    0    0  0.00000000000E+00  0.00000000000E+00  0.14999999963E+04  0.15000000000E+04  0.10566000000E+00 0. -1.
        994   -1    0    0    0    0 -0.00000000000E+00 -0.00000000000E+00  0.11368683772E-12  0.17120000000E+03  0.17120000000E+03 0.  0.
         13    1    1    2    0    0  0.13257588614E+03  0.93410161224E+02  0.38660117108E+03  0.41924014651E+03  0.10566000000E+00 0. -1.
        994    1    1    2    0    0 -0.13864748981E+03 -0.18131636735E+03  0.23651813574E+03  0.37060628710E+03  0.17120000000E+03 0.  0.
        998    1    1    2    0    0  0.60716036680E+01  0.87906206128E+02  0.87688068946E+03  0.88135356639E+03  0.10000000000E+02 0. -1.
</event>
<event>
 5    1  0.1253504E-008  0.3854202E+03  0.7957747E-01  0.3427892E+00
         13   -1    0    0    0    0  0.00000000000E+00  0.00000000000E+00  0.14999999963E+04  0.15000000000E+04  0.10566000000E+00 0.  1.
        994   -1    0    0    0    0 -0.00000000000E+00 -0.00000000000E+00  0.11368683772E-12  0.17120000000E+03  0.17120000000E+03 0.  0.
         13    1    1    2    0    0  0.22909841554E+02 -0.79437889055E+01  0.13809491425E+03  0.14020763577E+03  0.10566000000E+00 0.  1.
        994    1    1    2    0    0 -0.55473838505E+02  0.20489317854E+02  0.12992401660E+02  0.18159130322E+03  0.17120000000E+03 0.  0.
        998    1    1    2    0    0  0.32563996951E+02 -0.12545528949E+02  0.13489126804E+04  0.13494010610E+04  0.10000000000E+02 0.  1.
</event>
<event>
 5    1  0.1218060E-008  0.3848820E+03  0.7957747E-01  0.3430173E+00
         13   -1    0    0    0    0  0.00000000000E+00  0.00000000000E+00  0.14999999963E+04  0.15000000000E+04  0.10566000000E+00 0. -1.
        994   -1    0    0    0    0 -0.00000000000E+00 -0.00000000000E+00  0.11368683772E-12  0.17120000000E+03  0.17120000000E+03 0.  0.
         13    1    1    2    0    0  0.48226353495E+01  0.18565976683E+02  0.93020772372E+02  0.94978042508E+02  0.10566000000E+00 0. -1.
        994    1    1    2    0    0 -0.21462464433E+01 -0.34663562562E+02  0.56670300486E+01  0.17477907247E+03  0.17120000000E+03 0.  0.
        998    1    1    2    0    0 -0.26763889062E+01  0.16097585879E+02  0.14013121939E+04  0.14014428850E+04  0.10000000000E+02 0. -1.
</event>
<event>
 5    1  0.1218060E-008  0.3854405E+03  0.7957747E-01  0.3427806E+00
         13   -1    0    0    0    0  0.00000000000E+00  0.00000000000E+00  0.14999999963E+04  0.15000000000E+04  0.10566000000E+00 0. -1.
        994   -1    0    0    0    0 -0.00000000000E+00 -0.00000000000E+00  0.11368683772E-12  0.17120000000E+03  0.17120000000E+03 0.  0.
         13    1    1    2    0    0 -0.45461066633E+01 -0.97648913783E+01  0.39757314243E+02  0.41190719699E+02  0.10566000000E+00 0. -1.
        994    1    1    2    0    0  0.10297998723E+02  0.10598676066E+02  0.21290749114E+01  0.17184979974E+03  0.17120000000E+03 0.  0.
        998    1    1    2    0    0 -0.57518920592E+01 -0.83378468742E+00  0.14581136071E+04  0.14581594806E+04  0.10000000000E+02 0. -1.
</event>
<event>
 5    1  0.1218060E-008  0.3818393E+03  0.7957747E-01  0.3443189E+00
         13   -1    0    0    0    0  0.00000000000E+00  0.00000000000E+00  0.14999999963E+04  0.15000000000E+04  0.10566000000E+00 0. -1.
        994   -1    0    0    0    0 -0.00000000000E+00 -0.00000000000E+00  0.11368683772E-12  0.17120000000E+03  0.17120000000E+03 0.  0.
         13    1    1    2    0    0 -0.31744755855E+00 -0.11444378091E+02  0.20937860891E+02  0.23863774756E+02  0.10566000000E+00 0. -1.
        994    1    1    2    0    0  0.29734581608E+02 -0.23381548705E+02  0.79764828350E+01  0.17551041690E+03  0.17120000000E+03 0.  0.
        998    1    1    2    0    0 -0.29417134050E+02  0.34825926796E+02  0.14710856526E+04  0.14718258083E+04  0.10000000000E+02 0. -1.
</event>
<event>
 5    1  0.1218060E-008  0.3853522E+03  0.7957747E-01  0.3428180E+00
         13   -1    0    0    0    0  0.00000000000E+00  0.00000000000E+00  0.14999999963E+04  0.15000000000E+04  0.10566000000E+00 0. -1.
        994   -1    0    0    0    0 -0.00000000000E+00 -0.00000000000E+00  0.11368683772E-12  0.17120000000E+03  0.17120000000E+03 0.  0.
         13    1    1    2    0    0  0.87730568008E+01 -0.90391129814E+01  0.54862421528E+02  0.56290039520E+02  0.10566000000E+00 0. -1.
        994    1    1    2    0    0 -0.46182966507E+01  0.64760931214E+01  0.16632573996E+01  0.17139275035E+03  0.17120000000E+03 0.  0.
        998    1    1    2    0    0 -0.41547601501E+01  0.25630198600E+01  0.14434743174E+04  0.14435172101E+04  0.10000000000E+02 0. -1.
</event>
<event>
 5    1  0.1218060E-008  0.3842767E+03  0.7957747E-01  0.3432746E+00
         13   -1    0    0    0    0  0.00000000000E+00  0.00000000000E+00  0.14999999963E+04  0.15000000000E+04  0.10566000000E+00 0. -1.
        994   -1    0    0    0    0 -0.00000000000E+00 -0.00000000000E+00  0.11368683772E-12  0.17120000000E+03  0.17120000000E+03 0.  0.
         13    1    1    2    0    0  0.17593624495E+02 -0.36265853238E+01  0.77373363787E+02  0.79431330920E+02  0.10566000000E+00 0. -1.
        994    1    1    2    0    0 -0.17556822148E+02  0.63085998292E+01  0.31377777298E+01  0.17224205667E+03  0.17120000000E+03 0.  0.
        998    1    1    2    0    0 -0.36802346978E-01 -0.26820145054E+01  0.14194888548E+04  0.14195266124E+04  0.10000000000E+02 0. -1.
</event>
<event>
 5    1  0.1783375E-008  0.3863238E+03  0.7957747E-01  0.3424077E+00
         13   -1    0    0    0    0  0.00000000000E+00  0.00000000000E+00  0.14999999963E+04  0.15000000000E+04  0.10566000000E+00 0. -1.
        994   -1    0    0    0    0 -0.00000000000E+00 -0.00000000000E+00  0.11368683772E-12  0.17120000000E+03  0.17120000000E+03 0.  0.
         13    1    1    2    0    0  0.37249472663E+00 -0.11201369369E+02  0.65511983858E+02  0.66463829420E+02  0.10566000000E+00 0. -1.
        994    1    1    2    0    0 -0.38386650182E+01  0.75428459233E+01  0.12089215628E+01  0.17141333485E+03  0.17120000000E+03 0.  0.
        998    1    1    2    0    0  0.34661702916E+01  0.36585234457E+01  0.14332790909E+04  0.14333228357E+04  0.10000000000E+02 0. -1.
</event>
<event>
 5    1  0.1218060E-008  0.3842725E+03  0.7957747E-01  0.3432763E+00
         13   -1    0    0    0    0  0.00000000000E+00  0.00000000000E+00  0.14999999963E+04  0.15000000000E+04  0.10566000000E+00 0.  1.
        994   -1    0    0    0    0 -0.00000000000E+00 -0.00000000000E+00  0.11368683772E-12  0.17120000000E+03  0.17120000000E+03 0.  0.
         13    1    1    2    0    0  0.77142143619E+01  0.83491046602E+01  0.31449766635E+02  0.33441226612E+02  0.10566000000E+00 0.  1.
        994    1    1    2    0    0 -0.69833992010E+01 -0.93342351293E+01  0.24398504602E+01  0.17161377765E+03  0.17120000000E+03 0.  0.
        998    1    1    2    0    0 -0.73081516088E+00  0.98513046915E+00  0.14661103792E+04  0.14661449957E+04  0.10000000000E+02 0.  1.
</event>
<event>
 5    1  0.1218060E-008  0.3782596E+03  0.7957747E-01  0.3458772E+00
         13   -1    0    0    0    0  0.00000000000E+00  0.00000000000E+00  0.14999999963E+04  0.15000000000E+04  0.10566000000E+00 0.  1.
        994   -1    0    0    0    0 -0.00000000000E+00 -0.00000000000E+00  0.11368683772E-12  0.17120000000E+03  0.17120000000E+03 0.  0.
         13    1    1    2    0    0 -0.14317736767E+02 -0.19368439864E+02  0.54667985821E+02  0.59738880862E+02  0.10566000000E+00 0.  1.
        994    1    1    2    0    0  0.11659397800E+02  0.18697438266E+02  0.66484604298E+01  0.17274020314E+03  0.17120000000E+03 0.  0.
        998    1    1    2    0    0  0.26583389668E+01  0.67100159760E+00  0.14386835500E+04  0.14387209160E+04  0.10000000000E+02 0.  1.
</event>
<event>
 5    1  0.1218060E-008  0.3774229E+03  0.7957747E-01  0.3462457E+00
         13   -1    0    0    0    0  0.00000000000E+00  0.00000000000E+00  0.14999999963E+04  0.15000000000E+04  0.10566000000E+00 0.  1.
        994   -1    0    0    0    0 -0.00000000000E+00 -0.00000000000E+00  0.11368683772E-12  0.17120000000E+03  0.17120000000E+03 0.  0.
         13    1    1    2    0    0  0.12292964424E+01 -0.18167399400E+02  0.27668627708E+02  0.33122948148E+02  0.10566000000E+00 0.  1.
        994    1    1    2    0    0 -0.17370645209E+01  0.19763398992E+02  0.67679523247E+01  0.17247856247E+03  0.17120000000E+03 0.  0.
        998    1    1    2    0    0  0.50776807849E+00 -0.15959995918E+01  0.14655634162E+04  0.14655984894E+04  0.10000000000E+02 0.  1.
</event>
<event>
 5    1  0.1218060E-008  0.3723990E+03  0.7957747E-01  0.3484938E+00
         13   -1    0    0    0    0  0.00000000000E+00  0.00000000000E+00  0.14999999963E+04  0.15000000000E+04  0.10566000000E+00 0.  1.
        994   -1    0    0    0    0 -0.00000000000E+00 -0.00000000000E+00  0.11368683772E-12  0.17120000000E+03  0.17120000000E+03 0.  0.
         13    1    1    2    0    0  0.13281492397E+02  0.76528589870E+01  0.10654406639E+02  0.18667936036E+02  0.10566000000E+00 0.  1.
        994    1    1    2    0    0 -0.21984568196E+02 -0.16639748894E+02  0.10631887234E+02  0.17373163071E+03  0.17120000000E+03 0.  0.
        998    1    1    2    0    0  0.87030757985E+01  0.89868899068E+01  0.14787137024E+04  0.14788004333E+04  0.10000000000E+02 0.  1.
</event>
<event>
 5    1  0.1218060E-008  0.3801865E+03  0.7957747E-01  0.3450347E+00
         13   -1    0    0    0    0  0.00000000000E+00  0.00000000000E+00  0.14999999963E+04  0.15000000000E+04  0.10566000000E+00 0. -1.
        994   -1    0    0    0    0 -0.00000000000E+00 -0.00000000000E+00  0.11368683772E-12  0.17120000000E+03  0.17120000000E+03 0.  0.
         13    1    1    2    0    0  0.37769555708E+02 -0.29236535665E+02  0.25306043136E+03  0.25752845947E+03  0.10566000000E+00 0. -1.
        994    1    1    2    0    0 -0.45406174520E+02  0.76585501920E+01  0.11155634896E+02  0.17763519433E+03  0.17120000000E+03 0.  0.
        998    1    1    2    0    0  0.76366188123E+01  0.21577985473E+02  0.12357839300E+04  0.12360363462E+04  0.10000000000E+02 0. -1.
</event>
<event>
 5    1  0.1218060E-008  0.3802780E+03  0.7957747E-01  0.3449949E+00
         13   -1    0    0    0    0  0.00000000000E+00  0.00000000000E+00  0.14999999963E+04  0.15000000000E+04  0.10566000000E+00 0.  1.
        994   -1    0    0    0    0 -0.00000000000E+00 -0.00000000000E+00  0.11368683772E-12  0.17120000000E+03  0.17120000000E+03 0.  0.
         13    1    1    2    0    0  0.22644200393E+01  0.40793302331E+02  0.22339723151E+03  0.22710252162E+03  0.10566000000E+00 0.  1.
        994    1    1    2    0    0 -0.12698827501E+02 -0.14033764553E+02  0.51901496934E+01  0.17232116649E+03  0.17120000000E+03 0.  0.
        998    1    1    2    0    0  0.10434407461E+02 -0.26759537778E+02  0.12714126151E+04  0.12717763119E+04  0.10000000000E+02 0.  1.
</event>
<event>
 5    1  0.1218060E-008  0.3725868E+03  0.7957747E-01  0.3484086E+00
         13   -1    0    0    0    0  0.00000000000E+00  0.00000000000E+00  0.14999999963E+04  0.15000000000E+04  0.10566000000E+00 0.  1.
        994   -1    0    0    0    0 -0.00000000000E+00 -0.00000000000E+00  0.11368683772E-12  0.17120000000E+03  0.17120000000E+03 0.  0.
         13    1    1    2    0    0 -0.16106732396E+02 -0.34118098267E+01  0.13215242080E+02  0.21112107002E+02  0.10566000000E+00 0.  1.
        994    1    1    2    0    0  0.21287448003E+02  0.17506774243E+02  0.10530978117E+02  0.17372387311E+03  0.17120000000E+03 0.  0.
        998    1    1    2    0    0 -0.51807156064E+01 -0.14094964416E+02  0.14762537761E+04  0.14763640199E+04  0.10000000000E+02 0.  1.
</event>
<event>
 5    1  0.1218060E-008  0.3840430E+03  0.7957747E-01  0.3433741E+00
         13   -1    0    0    0    0  0.00000000000E+00  0.00000000000E+00  0.14999999963E+04  0.15000000000E+04  0.10566000000E+00 0. -1.
        994   -1    0    0    0    0 -0.00000000000E+00 -0.00000000000E+00  0.11368683772E-12  0.17120000000E+03  0.17120000000E+03 0.  0.
         13    1    1    2    0    0  0.21640406340E+01  0.20455851455E+02  0.11375370063E+03  0.11559861808E+03  0.10566000000E+00 0. -1.
        994    1    1    2    0    0  0.91116110352E+01  0.28960219948E+01  0.24076410507E+01  0.17148365851E+03  0.17120000000E+03 0.  0.
        998    1    1    2    0    0 -0.11275651669E+02 -0.23351873450E+02  0.13838386546E+04  0.13841177234E+04  0.10000000000E+02 0. -1.
</event>
<event>
 5    1  0.1218060E-008  0.3767009E+03  0.7957747E-01  0.3465651E+00
         13   -1    0    0    0    0  0.00000000000E+00  0.00000000000E+00  0.14999999963E+04  0.15000000000E+04  0.10566000000E+00 0. -1.
        994   -1    0    0    0    0 -0.00000000000E+00 -0.00000000000E+00  0.11368683772E-12  0.17120000000E+03  0.17120000000E+03 0.  0.
         13    1    1    2    0    0  0.14197821043E+02  0.22417915390E+02  0.54853604976E+02  0.60934966938E+02  0.10566000000E+00 0. -1.
        994    1    1    2    0    0 -0.11402429728E+02 -0.34625407785E+02  0.10312590391E+02  0.17534173430E+03  0.17120000000E+03 0.  0.
        998    1    1    2    0    0 -0.27953913148E+01  0.12207492395E+02  0.14348338009E+04  0.14349232988E+04  0.10000000000E+02 0. -1.
</event>
<event>
 5    1  0.1218060E-008  0.3783848E+03  0.7957747E-01  0.3458222E+00
         13   -1    0    0    0    0  0.00000000000E+00  0.00000000000E+00  0.14999999963E+04  0.15000000000E+04  0.10566000000E+00 0.  1.
        994   -1    0    0    0    0 -0.00000000000E+00 -0.00000000000E+00  0.11368683772E-12  0.17120000000E+03  0.17120000000E+03 0.  0.
         13    1    1    2    0    0  0.23613228238E+02 -0.47530652211E+02  0.27864458498E+03  0.28365395000E+03  0.10566000000E+00 0.  1.
        994    1    1    2    0    0 -0.91234769361E+01  0.31293550054E+02  0.85299765794E+01  0.17448416721E+03  0.17120000000E+03 0.  0.
        998    1    1    2    0    0 -0.14489751302E+02  0.16237102157E+02  0.12128254347E+04  0.12130618828E+04  0.10000000000E+02 0.  1.
</event>
<event>
 5    1  0.1218060E-008  0.3700894E+03  0.7957747E-01  0.3495480E+00
         13   -1    0    0    0    0  0.00000000000E+00  0.00000000000E+00  0.14999999963E+04  0.15000000000E+04  0.10566000000E+00 0.  1.
        994   -1    0    0    0    0 -0.00000000000E+00 -0.00000000000E+00  0.11368683772E-12  0.17120000000E+03  0.17120000000E+03 0.  0.
         13    1    1    2    0    0 -0.10919459848E+02  0.19239291429E+02  0.23091437173E+02  0.31978282831E+02  0.10566000000E+00 0.  1.
        994    1    1    2    0    0  0.10249832934E+02 -0.27274679752E+01  0.96112785039E+01  0.17179730740E+03  0.17120000000E+03 0.  0.
        998    1    1    2    0    0  0.66962691349E+00 -0.16511823454E+02  0.14672972806E+04  0.14674244098E+04  0.10000000000E+02 0.  1.
</event>
<event>
 5    1  0.1218060E-008  0.3805512E+03  0.7957747E-01  0.3448762E+00
         13   -1    0    0    0    0  0.00000000000E+00  0.00000000000E+00  0.14999999963E+04  0.15000000000E+04  0.10566000000E+00 0.  1.
        994   -1    0    0    0    0 -0.00000000000E+00 -0.00000000000E+00  0.11368683772E-12  0.17120000000E+03  0.17120000000E+03 0.  0.
         13    1    1    2    0    0 -0.10554405659E+02 -0.92989571803E+01  0.23672541016E+02  0.27536638241E+02  0.10566000000E+00 0.  1.
        994    1    1    2    0    0  0.11816212707E+02  0.10796556262E+02  0.47104679122E+01  0.17201109562E+03  0.17120000000E+03 0.  0.
        998    1    1    2    0    0 -0.12618070488E+01 -0.14975990821E+01  0.14716169874E+04  0.14716522661E+04  0.10000000000E+02 0.  1.
</event>
<event>
 5    1  0.1218060E-008  0.3798177E+03  0.7957747E-01  0.3451953E+00
         13   -1    0    0    0    0  0.00000000000E+00  0.00000000000E+00  0.14999999963E+04  0.15000000000E+04  0.10566000000E+00 0. -1.
        994   -1    0    0    0    0 -0.00000000000E+00 -0.00000000000E+00  0.11368683772E-12  0.17120000000E+03  0.17120000000E+03 0.  0.
         13    1    1    2    0    0  0.78588613974E+02  0.69672107365E+02  0.55596110036E+03  0.56579424623E+03  0.10566000000E+00 0. -1.
        994    1    1    2    0    0 -0.10114557218E+03 -0.83093968390E+02  0.63850889829E+02  0.22476968320E+03  0.17120000000E+03 0.  0.
        998    1    1    2    0    0  0.22556958210E+02  0.13421861025E+02  0.88018800609E+03  0.88063607056E+03  0.10000000000E+02 0. -1.
</event>
<event>
 5    1  0.1218060E-008  0.3828395E+03  0.7957747E-01  0.3438887E+00
         13   -1    0    0    0    0  0.00000000000E+00  0.00000000000E+00  0.14999999963E+04  0.15000000000E+04  0.10566000000E+00 0. -1.
        994   -1    0    0    0    0 -0.00000000000E+00 -0.00000000000E+00  0.11368683772E-12  0.17120000000E+03  0.17120000000E+03 0.  0.
         13    1    1    2    0    0 -0.14970117848E+03 -0.12674003168E+03  0.11516609354E+04  0.11682450084E+04  0.10566000000E+00 0. -1.
        994    1    1    2    0    0  0.15097390540E+03  0.12349891314E+03  0.14102094379E+03  0.29536663360E+03  0.17120000000E+03 0.  0.
        998    1    1    2    0    0 -0.12727269207E+01  0.32411185395E+01  0.20731811710E+03  0.20758835796E+03  0.10000000000E+02 0.  0.
</event>
<event>
 5    1  0.1218060E-008  0.3799693E+03  0.7957747E-01  0.3451292E+00
         13   -1    0    0    0    0  0.00000000000E+00  0.00000000000E+00  0.14999999963E+04  0.15000000000E+04  0.10566000000E+00 0.  1.
        994   -1    0    0    0    0 -0.00000000000E+00 -0.00000000000E+00  0.11368683772E-12  0.17120000000E+03  0.17120000000E+03 0.  0.
         13    1    1    2    0    0  0.10750486063E+02 -0.27282879867E+01  0.12817144286E+02  0.16950128543E+02  0.10566000000E+00 0.  1.
        994    1    1    2    0    0 -0.14512822260E+02  0.18575518360E+01  0.48646658643E+01  0.17189292447E+03  0.17120000000E+03 0.  0.
        998    1    1    2    0    0  0.37623361966E+01  0.87073615068E+00  0.14823181861E+04  0.14823569470E+04  0.10000000000E+02 0.  1.
</event>
<event>
 5    1  0.1218060E-008  0.3689886E+03  0.7957747E-01  0.3500552E+00
         13   -1    0    0    0    0  0.00000000000E+00  0.00000000000E+00  0.14999999963E+04  0.15000000000E+04  0.10566000000E+00 0.  1.
        994   -1    0    0    0    0 -0.00000000000E+00 -0.00000000000E+00  0.11368683772E-12  0.17120000000E+03  0.17120000000E+03 0.  0.
         13    1    1    2    0    0 -0.14897690259E+02 -0.59527649782E+02  0.17308974865E+03  0.18364518647E+03  0.10566000000E+00 0.  1.
        994    1    1    2    0    0  0.16417260299E+02  0.52774185987E+02  0.20473483148E+02  0.18106143889E+03  0.17120000000E+03 0.  0.
        998    1    1    2    0    0 -0.15195700398E+01  0.67534637953E+01  0.13064367645E+04  0.13064933746E+04  0.10000000000E+02 0.  1.
</event>
<event>
 5    1  0.1218060E-008  0.3701372E+03  0.7957747E-01  0.3495261E+00
         13   -1    0    0    0    0  0.00000000000E+00  0.00000000000E+00  0.14999999963E+04  0.15000000000E+04  0.10566000000E+00 0.  1.
        994   -1    0    0    0    0 -0.00000000000E+00 -0.00000000000E+00  0.11368683772E-12  0.17120000000E+03  0.17120000000E+03 0.  0.
         13    1    1    2    0    0  0.33834407788E+01  0.14561709911E+02  0.79212289448E+01  0.16918868138E+02  0.10566000000E+00 0.  1.
        994    1    1    2    0    0 -0.68141227630E+01 -0.13908964406E+02  0.10026861097E+02  0.17219137465E+03  0.17120000000E+03 0.  0.
        998    1    1    2    0    0  0.34306819841E+01 -0.65274550489E+00  0.14820519062E+04  0.14820897572E+04  0.10000000000E+02 0.  1.
</event>
<event>
 5    1  0.1218060E-008  0.3836370E+03  0.7957747E-01  0.3435474E+00
         13   -1    0    0    0    0  0.00000000000E+00  0.00000000000E+00  0.14999999963E+04  0.15000000000E+04  0.10566000000E+00 0.  1.
        994   -1    0    0    0    0 -0.00000000000E+00 -0.00000000000E+00  0.11368683772E-12  0.17120000000E+03  0.17120000000E+03 0.  0.
         13    1    1    2    0    0 -0.19485282607E+02  0.12745175873E+02  0.13997008489E+03  0.14189345148E+03  0.10566000000E+00 0.  1.
        994    1    1    2    0    0 -0.74400522246E+01  0.25945299878E+01  0.25134891999E+01  0.17139966042E+03  0.17120000000E+03 0.  0.
        998    1    1    2    0    0  0.26925334832E+02 -0.15339705861E+02  0.13575164222E+04  0.13579068881E+04  0.10000000000E+02 0.  1.
</event>
<event>
 5    1  0.1218060E-008  0.3847365E+03  0.7957747E-01  0.3430790E+00
         13   -1    0    0    0    0  0.00000000000E+00  0.00000000000E+00  0.14999999963E+04  0.15000000000E+04  0.10566000000E+00 0.  1.
        994   -1    0    0    0    0 -0.00000000000E+00 -0.00000000000E+00  0.11368683772E-12  0.17120000000E+03  0.17120000000E+03 0.  0.
         13    1    1    2    0    0  0.10619962352E+02 -0.20208549632E+01  0.32212112730E+02  0.33977916736E+02  0.10566000000E+00 0.  1.
        994    1    1    2    0    0 -0.12267143288E+02 -0.34520832540E+00  0.22568684691E+01  0.17165411568E+03  0.17120000000E+03 0.  0.
        998    1    1    2    0    0  0.16471809362E+01  0.23660632886E+01  0.14655310151E+04  0.14655679676E+04  0.10000000000E+02 0.  1.
</event>
<event>
 5    1  0.1218060E-008  0.3787870E+03  0.7957747E-01  0.3456457E+00
         13   -1    0    0    0    0  0.00000000000E+00  0.00000000000E+00  0.14999999963E+04  0.15000000000E+04  0.10566000000E+00 0.  1.
        994   -1    0    0    0    0 -0.00000000000E+00 -0.00000000000E+00  0.11368683772E-12  0.17120000000E+03  0.17120000000E+03 0.  0.
         13    1    1    2    0    0  0.49766525534E+02  0.22159573961E+02  0.24158771519E+03  0.24765376855E+03  0.10566000000E+00 0.  1.
        994    1    1    2    0    0 -0.69366449830E+02 -0.60852970386E+01  0.21196974495E+02  0.18603087628E+03  0.17120000000E+03 0.  0.
        998    1    1    2    0    0  0.19599924296E+02 -0.16074276923E+02  0.12372153066E+04  0.12375153552E+04  0.10000000000E+02 0.  1.
</event>
<event>
 5    1  0.1218060E-008  0.3710063E+03  0.7957747E-01  0.3491279E+00
         13   -1    0    0    0    0  0.00000000000E+00  0.00000000000E+00  0.14999999963E+04  0.15000000000E+04  0.10566000000E+00 0.  1.
        994   -1    0    0    0    0 -0.00000000000E+00 -0.00000000000E+00  0.11368683772E-12  0.17120000000E+03  0.17120000000E+03 0.  0.
         13    1    1    2    0    0 -0.40503740944E+02  0.48919527504E+02  0.24396072072E+03  0.25209227997E+03  0.10566000000E+00 0.  1.
        994    1    1    2    0    0 -0.46660842682E+02 -0.84472419363E+01  0.19402684418E+02  0.17870225040E+03  0.17120000000E+03 0.  0.
        998    1    1    2    0    0  0.87164583625E+02 -0.40472285567E+02  0.12366365911E+04  0.12404054696E+04  0.10000000000E+02 0.  1.
</event>
<event>
 5    1  0.1218060E-008  0.3832063E+03  0.7957747E-01  0.3437315E+00
         13   -1    0    0    0    0  0.00000000000E+00  0.00000000000E+00  0.14999999963E+04  0.15000000000E+04  0.10566000000E+00 0. -1.
        994   -1    0    0    0    0 -0.00000000000E+00 -0.00000000000E+00  0.11368683772E-12  0.17120000000E+03  0.17120000000E+03 0.  0.
         13    1    1    2    0    0  0.22220769769E+01  0.38457599318E+02  0.22717029984E+03  0.23041328274E+03  0.10566000000E+00 0. -1.
        994    1    1    2    0    0 -0.67021740633E+01 -0.48868924822E+02  0.10613676251E+02  0.17848019799E+03  0.17120000000E+03 0.  0.
        998    1    1    2    0    0  0.44800970864E+01  0.10411325504E+02  0.12622160202E+04  0.12623065193E+04  0.10000000000E+02 0. -1.
</event>
<event>
 5    1  0.1218060E-008  0.3838897E+03  0.7957747E-01  0.3434395E+00
         13   -1    0    0    0    0  0.00000000000E+00  0.00000000000E+00  0.14999999963E+04  0.15000000000E+04  0.10566000000E+00 0. -1.
        994   -1    0    0    0    0 -0.00000000000E+00 -0.00000000000E+00  0.11368683772E-12  0.17120000000E+03  0.17120000000E+03 0.  0.
         13    1    1    2    0    0 -0.92819717858E+01  0.68357906331E+01  0.30124937671E+02  0.32255326189E+02  0.10566000000E+00 0. -1.
        994    1    1    2    0    0  0.93140880357E+01  0.37309294714E+01  0.25147077125E+01  0.17151220314E+03  0.17120000000E+03 0.  0.
        998    1    1    2    0    0 -0.32116249871E-01 -0.10566720105E+02  0.14673603509E+04  0.14674324707E+04  0.10000000000E+02 0. -1.
</event>
<event>
 5    1  0.1218060E-008  0.3838691E+03  0.7957747E-01  0.3434483E+00
         13   -1    0    0    0    0  0.00000000000E+00  0.00000000000E+00  0.14999999963E+04  0.15000000000E+04  0.10566000000E+00 0.  1.
        994   -1    0    0    0    0 -0.00000000000E+00 -0.00000000000E+00  0.11368683772E-12  0.17120000000E+03  0.17120000000E+03 0.  0.
         13    1    1    2    0    0 -0.15266972363E+02 -0.15847068581E+01  0.59744087895E+02  0.61684349258E+02  0.10566000000E+00 0.  1.
        994    1    1    2    0    0 -0.10443003155E+02 -0.82259458512E+01  0.27761991428E+01  0.17173779369E+03  0.17120000000E+03 0.  0.
        998    1    1    2    0    0  0.25709975518E+02  0.98106527094E+01  0.14374797092E+04  0.14377778571E+04  0.10000000000E+02 0.  1.
</event>
<event>
 5    1  0.1218060E-008  0.3827155E+03  0.7957747E-01  0.3439419E+00
         13   -1    0    0    0    0  0.00000000000E+00  0.00000000000E+00  0.14999999963E+04  0.15000000000E+04  0.10566000000E+00 0. -1.
        994   -1    0    0    0    0 -0.00000000000E+00 -0.00000000000E+00  0.11368683772E-12  0.17120000000E+03  0.17120000000E+03 0.  0.
         13    1    1    2    0    0  0.23019564901E+02 -0.16222054303E+02  0.16174990165E+03  0.16418312112E+03  0.10566000000E+00 0. -1.
        994    1    1    2    0    0  0.33517854669E+01  0.66753055627E+01  0.29534792134E+01  0.17138832285E+03  0.17120000000E+03 0.  0.
        998    1    1    2    0    0 -0.26371350368E+02  0.95467487400E+01  0.13352966154E+04  0.13356285560E+04  0.10000000000E+02 0. -1.
</event>
<event>
 5    1  0.1218060E-008  0.3848116E+03  0.7957747E-01  0.3430472E+00
         13   -1    0    0    0    0  0.00000000000E+00  0.00000000000E+00  0.14999999963E+04  0.15000000000E+04  0.10566000000E+00 0. -1.
        994   -1    0    0    0    0 -0.00000000000E+00 -0.00000000000E+00  0.11368683772E-12  0.17120000000E+03  0.17120000000E+03 0.  0.
         13    1    1    2    0    0  0.56087882737E+01  0.12689014913E+02  0.56864309244E+02  0.58532302494E+02  0.10566000000E+00 0. -1.
        994    1    1    2    0    0 -0.61022912624E+01 -0.35368099422E+01  0.18874466116E+01  0.17135562272E+03  0.17120000000E+03 0.  0.
        998    1    1    2    0    0  0.49350298866E+00 -0.91522049712E+01  0.14412482404E+04  0.14413120748E+04  0.10000000000E+02 0. -1.
</event>
<event>
 5    1  0.1218060E-008  0.3859216E+03  0.7957747E-01  0.3425773E+00
         13   -1    0    0    0    0  0.00000000000E+00  0.00000000000E+00  0.14999999963E+04  0.15000000000E+04  0.10566000000E+00 0. -1.
        994   -1    0    0    0    0 -0.00000000000E+00 -0.00000000000E+00  0.11368683772E-12  0.17120000000E+03  0.17120000000E+03 0.  0.
         13    1    1    2    0    0 -0.20950517626E+01 -0.12884541626E+02  0.70896619693E+02  0.72088435291E+02  0.10566000000E+00 0. -1.
        994    1    1    2    0    0 -0.53887278180E+01  0.14238118718E+02  0.19335274740E+01  0.17188641872E+03  0.17120000000E+03 0.  0.
        998    1    1    2    0    0  0.74837795805E+01 -0.13535770918E+01  0.14271698491E+04  0.14272251460E+04  0.10000000000E+02 0. -1.
</event>
<event>
 5    1  0.1218060E-008  0.3748087E+03  0.7957747E-01  0.3474079E+00
         13   -1    0    0    0    0  0.00000000000E+00  0.00000000000E+00  0.14999999963E+04  0.15000000000E+04  0.10566000000E+00 0. -1.
        994   -1    0    0    0    0 -0.00000000000E+00 -0.00000000000E+00  0.11368683772E-12  0.17120000000E+03  0.17120000000E+03 0.  0.
         13    1    1    2    0    0  0.56301398175E+02  0.20595753863E+02  0.23408546425E+03  0.24164032828E+03  0.10566000000E+00 0. -1.
        994    1    1    2    0    0 -0.46334267177E+02 -0.26966754236E+02  0.16616405189E+02  0.18016552131E+03  0.17120000000E+03 0.  0.
        998    1    1    2    0    0 -0.99671309985E+01  0.63710003727E+01  0.12492981268E+04  0.12493941504E+04  0.10000000000E+02 0. -1.
</event>
<event>
 5    1  0.1218060E-008  0.3785517E+03  0.7957747E-01  0.3457489E+00
         13   -1    0    0    0    0  0.00000000000E+00  0.00000000000E+00  0.14999999963E+04  0.15000000000E+04  0.10566000000E+00 0.  1.
        994   -1    0    0    0    0 -0.00000000000E+00 -0.00000000000E+00  0.11368683772E-12  0.17120000000E+03  0.17120000000E+03 0.  0.
         13    1    1    2    0    0  0.35858673143E+02  0.21513137931E+02  0.22372116377E+03  0.22759575968E+03  0.10566000000E+00 0.  1.
        994    1    1    2    0    0  0.13557924841E+02 -0.12034621764E+02  0.59707498265E+01  0.17226067253E+03  0.17120000000E+03 0.  0.
        998    1    1    2    0    0 -0.49416597983E+02 -0.94785161671E+01  0.12703080827E+04  0.12713435678E+04  0.10000000000E+02 0.  1.
</event>
<event>
 5    1  0.1218060E-008  0.3761792E+03  0.7957747E-01  0.3467966E+00
         13   -1    0    0    0    0  0.00000000000E+00  0.00000000000E+00  0.14999999963E+04  0.15000000000E+04  0.10566000000E+00 0.  1.
        994   -1    0    0    0    0 -0.00000000000E+00 -0.00000000000E+00  0.11368683772E-12  0.17120000000E+03  0.17120000000E+03 0.  0.
         13    1    1    2    0    0 -0.14808944271E+02 -0.30516690457E+02  0.11110843600E+03  0.11617086098E+03  0.10566000000E+00 0.  1.
        994    1    1    2    0    0 -0.47250134868E+02  0.41453290929E+01  0.13729782696E+02  0.17817885938E+03  0.17120000000E+03 0.  0.
        998    1    1    2    0    0  0.62059079139E+02  0.26371361364E+02  0.13751617776E+04  0.13768502796E+04  0.10000000000E+02 0.  1.
</event>
<event>
 5    1  0.1218060E-008  0.3839315E+03  0.7957747E-01  0.3434216E+00
         13   -1    0    0    0    0  0.00000000000E+00  0.00000000000E+00  0.14999999963E+04  0.15000000000E+04  0.10566000000E+00 0.  1.
        994   -1    0    0    0    0 -0.00000000000E+00 -0.00000000000E+00  0.11368683772E-12  0.17120000000E+03  0.17120000000E+03 0.  0.
         13    1    1    2    0    0 -0.47133099664E+01 -0.11557285936E+02  0.34518111701E+02  0.36705549288E+02  0.10566000000E+00 0.  1.
        994    1    1    2    0    0  0.13738665151E+02  0.10602857813E+02  0.31560699499E+01  0.17210628196E+03  0.17120000000E+03 0.  0.
        998    1    1    2    0    0 -0.90253551844E+01  0.95442812364E+00  0.14623258146E+04  0.14623881687E+04  0.10000000000E+02 0.  1.
</event>
<event>
 5    1  0.1218060E-008  0.3815046E+03  0.7957747E-01  0.3444633E+00
         13   -1    0    0    0    0  0.00000000000E+00  0.00000000000E+00  0.14999999963E+04  0.15000000000E+04  0.10566000000E+00 0. -1.
        994   -1    0    0    0    0 -0.00000000000E+00 -0.00000000000E+00  0.11368683772E-12  0.17120000000E+03  0.17120000000E+03 0.  0.
         13    1    1    2    0    0  0.58694650930E+02 -0.25141842949E+02  0.35106075236E+03  0.35682045531E+03  0.10566000000E+00 0. -1.
        994    1    1    2    0    0 -0.76506154015E+02  0.48564532358E+02  0.31190544207E+02  0.19619886710E+03  0.17120000000E+03 0.  0.
        998    1    1    2    0    0  0.17811503084E+02 -0.23422689409E+02  0.11177486997E+04  0.11181806776E+04  0.10000000000E+02 0. -1.
</event>
<event>
 5    1  0.1218060E-008  0.3862172E+03  0.7957747E-01  0.3424526E+00
         13   -1    0    0    0    0  0.00000000000E+00  0.00000000000E+00  0.14999999963E+04  0.15000000000E+04  0.10566000000E+00 0. -1.
        994   -1    0    0    0    0 -0.00000000000E+00 -0.00000000000E+00  0.11368683772E-12  0.17120000000E+03  0.17120000000E+03 0.  0.
         13    1    1    2    0    0  0.18691096703E+01  0.10221024674E+02  0.52930832970E+02  0.53941145328E+02  0.10566000000E+00 0. -1.
        994    1    1    2    0    0  0.12197909068E+02 -0.10865347765E+02  0.19015930278E+01  0.17198808338E+03  0.17120000000E+03 0.  0.
        998    1    1    2    0    0 -0.14067018739E+02  0.64432309116E+00  0.14451675703E+04  0.14452707713E+04  0.10000000000E+02 0. -1.
</event>
<event>
 5    1  0.1218060E-008  0.3818593E+03  0.7957747E-01  0.3443102E+00
         13   -1    0    0    0    0  0.00000000000E+00  0.00000000000E+00  0.14999999963E+04  0.15000000000E+04  0.10566000000E+00 0. -1.
        994   -1    0    0    0    0 -0.00000000000E+00 -0.00000000000E+00  0.11368683772E-12  0.17120000000E+03  0.17120000000E+03 0.  0.
         13    1    1    2    0    0  0.47045182303E+01 -0.19193698126E+02  0.61183922835E+02  0.64296299404E+02  0.10566000000E+00 0. -1.
        994    1    1    2    0    0 -0.37130222464E+01  0.77772647491E+01  0.34443285464E+01  0.17145138022E+03  0.17120000000E+03 0.  0.
        998    1    1    2    0    0 -0.99149598391E+00  0.11416433377E+02  0.14353717449E+04  0.14354523204E+04  0.10000000000E+02 0. -1.
</event>
<event>
 5    1  0.1218060E-008  0.3831047E+03  0.7957747E-01  0.3437751E+00
         13   -1    0    0    0    0  0.00000000000E+00  0.00000000000E+00  0.14999999963E+04  0.15000000000E+04  0.10566000000E+00 0.  1.
        994   -1    0    0    0    0 -0.00000000000E+00 -0.00000000000E+00  0.11368683772E-12  0.17120000000E+03  0.17120000000E+03 0.  0.
         13    1    1    2    0    0  0.54588234414E+01 -0.84490971194E+01  0.18476891256E+02  0.21037886539E+02  0.10566000000E+00 0.  1.
        994    1    1    2    0    0 -0.51507344621E+01  0.96552912445E+01  0.29704417310E+01  0.17157510961E+03  0.17120000000E+03 0.  0.
        998    1    1    2    0    0 -0.30808897927E+00 -0.12061941251E+01  0.14785526633E+04  0.14785870038E+04  0.10000000000E+02 0.  1.
</event>
<event>
 5    1  0.1218060E-008  0.3779532E+03  0.7957747E-01  0.3460120E+00
         13   -1    0    0    0    0  0.00000000000E+00  0.00000000000E+00  0.14999999963E+04  0.15000000000E+04  0.10566000000E+00 0. -1.
        994   -1    0    0    0    0 -0.00000000000E+00 -0.00000000000E+00  0.11368683772E-12  0.17120000000E+03  0.17120000000E+03 0.  0.
         13    1    1    2    0    0  0.48688961904E+01 -0.11759435220E+02  0.13174676999E+02  0.18318672028E+02  0.10566000000E+00 0. -1.
        994    1    1    2    0    0 -0.60848746621E+01  0.14938031709E+02  0.60460907623E+01  0.17206442312E+03  0.17120000000E+03 0.  0.
        998    1    1    2    0    0  0.12159784716E+01 -0.31785964891E+01  0.14807792285E+04  0.14808169048E+04  0.10000000000E+02 0. -1.
</event>
<event>
 5    1  0.1218060E-008  0.3794478E+03  0.7957747E-01  0.3453566E+00
         13   -1    0    0    0    0  0.00000000000E+00  0.00000000000E+00  0.14999999963E+04  0.15000000000E+04  0.10566000000E+00 0. -1.
        994   -1    0    0    0    0 -0.00000000000E+00 -0.00000000000E+00  0.11368683772E-12  0.17120000000E+03  0.17120000000E+03 0.  0.
         13    1    1    2    0    0  0.27127153207E+01 -0.17616199688E+02  0.39650661943E+02  0.43472698011E+02  0.10566000000E+00 0. -1.
        994    1    1    2    0    0 -0.45212966079E+01 -0.32789509838E+02  0.80900182953E+01  0.17455796308E+03  0.17120000000E+03 0.  0.
        998    1    1    2    0    0  0.18085812872E+01  0.50405709526E+02  0.14522593160E+04  0.14531693389E+04  0.10000000000E+02 0. -1.
</event>
<event>
 5    1  0.1218060E-008  0.3819832E+03  0.7957747E-01  0.3442569E+00
         13   -1    0    0    0    0  0.00000000000E+00  0.00000000000E+00  0.14999999963E+04  0.15000000000E+04  0.10566000000E+00 0.  1.
        994   -1    0    0    0    0 -0.00000000000E+00 -0.00000000000E+00  0.11368683772E-12  0.17120000000E+03  0.17120000000E+03 0.  0.
         13    1    1    2    0    0 -0.12024751413E+02 -0.21976911612E+01  0.22342873000E+02  0.25468404561E+02  0.10566000000E+00 0.  1.
        994    1    1    2    0    0  0.12325671025E+02  0.18232113472E+01  0.36511610665E+01  0.17169163417E+03  0.17120000000E+03 0.  0.
        998    1    1    2    0    0 -0.30091961188E+00  0.37447981400E+00  0.14740059622E+04  0.14740399613E+04  0.10000000000E+02 0.  1.
</event>
<event>
 5    1  0.1218060E-008  0.3779863E+03  0.7957747E-01  0.3459974E+00
         13   -1    0    0    0    0  0.00000000000E+00  0.00000000000E+00  0.14999999963E+04  0.15000000000E+04  0.10566000000E+00 0.  1.
        994   -1    0    0    0    0 -0.00000000000E+00 -0.00000000000E+00  0.11368683772E-12  0.17120000000E+03  0.17120000000E+03 0.  0.
         13    1    1    2    0    0  0.72941053754E+01  0.41714193094E+02  0.21914843221E+03  0.22320242916E+03  0.10566000000E+00 0.  1.
        994    1    1    2    0    0  0.10344428478E+01  0.82745391315E+01  0.53871591407E+01  0.17148760758E+03  0.17120000000E+03 0.  0.
        998    1    1    2    0    0 -0.83285482233E+01 -0.49988732225E+02  0.12754644049E+04  0.12765099633E+04  0.10000000000E+02 0. -1.
</event>
<event>
 5    1  0.1218060E-008  0.3759081E+03  0.7957747E-01  0.3469171E+00
         13   -1    0    0    0    0  0.00000000000E+00  0.00000000000E+00  0.14999999963E+04  0.15000000000E+04  0.10566000000E+00 0.  1.
        994   -1    0    0    0    0 -0.00000000000E+00 -0.00000000000E+00  0.11368683772E-12  0.17120000000E+03  0.17120000000E+03 0.  0.
         13    1    1    2    0    0 -0.63780840067E+01 -0.90576334507E+01  0.69811077114E+01  0.13094567890E+02  0.10566000000E+00 0.  1.
        994    1    1    2    0    0  0.60530448995E+01  0.99273042883E+01  0.66714035151E+01  0.17172401797E+03  0.17120000000E+03 0.  0.
        998    1    1    2    0    0  0.32503910724E+00 -0.86967083765E+00  0.14863474851E+04  0.14863814141E+04  0.10000000000E+02 0.  1.
</event>
<event>
 5    1  0.1218060E-008  0.3834375E+03  0.7957747E-01  0.3436326E+00
         13   -1    0    0    0    0  0.00000000000E+00  0.00000000000E+00  0.14999999963E+04  0.15000000000E+04  0.10566000000E+00 0. -1.
        994   -1    0    0    0    0 -0.00000000000E+00 -0.00000000000E+00  0.11368683772E-12  0.17120000000E+03  0.17120000000E+03 0.  0.
         13    1    1    2    0    0  0.28278213016E+01  0.19382641255E+02  0.75689381576E+02  0.78182971310E+02  0.10566000000E+00 0. -1.
        994    1    1    2    0    0 -0.14918781795E+01 -0.20173357963E+02  0.37615879501E+01  0.17243195648E+03  0.17120000000E+03 0.  0.
        998    1    1    2    0    0 -0.13359431221E+01  0.79071670797E+00  0.14205490268E+04  0.14205850722E+04  0.10000000000E+02 0. -1.
</event>
<event>
 5    1  0.1218060E-008  0.3819228E+03  0.7957747E-01  0.3442829E+00
         13   -1    0    0    0    0  0.00000000000E+00  0.00000000000E+00  0.14999999963E+04  0.15000000000E+04  0.10566000000E+00 0. -1.
        994   -1    0    0    0    0 -0.00000000000E+00 -0.00000000000E+00  0.11368683772E-12  0.17120000000E+03  0.17120000000E+03 0.  0.
         13    1    1    2    0    0  0.28633006536E+01 -0.18473773847E+02  0.53403924230E+02  0.56581526119E+02  0.10566000000E+00 0. -1.
        994    1    1    2    0    0 -0.20154556309E+01  0.15182812534E+02  0.39452704273E+01  0.17192901156E+03  0.17120000000E+03 0.  0.
        998    1    1    2    0    0 -0.84784502266E+00  0.32909613127E+01  0.14426508016E+04  0.14426894623E+04  0.10000000000E+02 0. -1.
</event>
<event>
 5    1  0.1218060E-008  0.3834263E+03  0.7957747E-01  0.3436374E+00
         13   -1    0    0    0    0  0.00000000000E+00  0.00000000000E+00  0.14999999963E+04  0.15000000000E+04  0.10566000000E+00 0.  1.
        994   -1    0    0    0    0 -0.00000000000E+00 -0.00000000000E+00  0.11368683772E-12  0.17120000000E+03  0.17120000000E+03 0.  0.
         13    1    1    2    0    0 -0.15664477314E+02 -0.74204904305E+01  0.63418498550E+02  0.65744632101E+02  0.10566000000E+00 0.  1.
        994    1    1    2    0    0  0.14630087370E+02 -0.16537606894E+02  0.40266777211E+01  0.17266495311E+03  0.17120000000E+03 0.  0.
        998    1    1    2    0    0  0.10343899434E+01  0.23958097325E+02  0.14325548200E+04  0.14327904148E+04  0.10000000000E+02 0.  1.
</event>
<event>
 5    1  0.1940895E-008  0.3862796E+03  0.7957747E-01  0.3424263E+00
         13   -1    0    0    0    0  0.00000000000E+00  0.00000000000E+00  0.14999999963E+04  0.15000000000E+04  0.10566000000E+00 0. -1.
        994   -1    0    0    0    0 -0.00000000000E+00 -0.00000000000E+00  0.11368683772E-12  0.17120000000E+03  0.17120000000E+03 0.  0.
         13    1    1    2    0    0  0.90515391224E+01  0.59084898319E+01  0.60679205736E+02  0.61634550257E+02  0.10566000000E+00 0. -1.
        994    1    1    2    0    0 -0.77142309275E+01  0.25025360587E+01  0.12115918707E+01  0.17139626600E+03  0.17120000000E+03 0.  0.
        998    1    1    2    0    0 -0.13373081949E+01 -0.84110258906E+01  0.14381091987E+04  0.14381691837E+04  0.10000000000E+02 0. -1.
</event>
<event>
 5    1  0.1218060E-008  0.3854405E+03  0.7957747E-01  0.3427806E+00
         13   -1    0    0    0    0  0.00000000000E+00  0.00000000000E+00  0.14999999963E+04  0.15000000000E+04  0.10566000000E+00 0.  1.
        994   -1    0    0    0    0 -0.00000000000E+00 -0.00000000000E+00  0.11368683772E-12  0.17120000000E+03  0.17120000000E+03 0.  0.
         13    1    1    2    0    0  0.13324412742E+02  0.10266100717E+02  0.92678444952E+02  0.94192558738E+02  0.10566000000E+00 0.  1.
        994    1    1    2    0    0 -0.17045307049E+02 -0.12528295229E+02  0.28825460200E+01  0.17252608425E+03  0.17120000000E+03 0.  0.
        998    1    1    2    0    0  0.37208943071E+01  0.22621945125E+01  0.14044390053E+04  0.14044813570E+04  0.10000000000E+02 0.  1.
</event>
<event>
 5    1  0.1218060E-008  0.4224868E+03  0.7957747E-01  0.3284746E+00
         13   -1    0    0    0    0  0.00000000000E+00  0.00000000000E+00  0.14999999963E+04  0.15000000000E+04  0.10566000000E+00 0.  1.
        994   -1    0    0    0    0 -0.00000000000E+00 -0.00000000000E+00  0.11368683772E-12  0.17120000000E+03  0.17120000000E+03 0.  0.
         13    1    1    2    0    0  0.20977275130E+02  0.11474570557E+03  0.14583344213E+03  0.18674588892E+03  0.10566000000E+00 0.  1.
        994    1    1    2    0    0 -0.22285222185E+02 -0.93521871799E+02  0.83163115878E+02  0.21323347644E+03  0.17120000000E+03 0.  0.
        998    1    1    2    0    0  0.13079470549E+01 -0.21223833776E+02  0.12710034383E+04  0.12712206346E+04  0.10000000000E+02 0.  1.
</event>
<event>
 5    1  0.1218060E-008  0.3848304E+03  0.7957747E-01  0.3430392E+00
         13   -1    0    0    0    0  0.00000000000E+00  0.00000000000E+00  0.14999999963E+04  0.15000000000E+04  0.10566000000E+00 0.  1.
        994   -1    0    0    0    0 -0.00000000000E+00 -0.00000000000E+00  0.11368683772E-12  0.17120000000E+03  0.17120000000E+03 0.  0.
         13    1    1    2    0    0 -0.10425607057E+02  0.65254297272E+01  0.41757765820E+02  0.43531559654E+02  0.10566000000E+00 0.  1.
        994    1    1    2    0    0  0.69219800196E+01 -0.24240790903E+02  0.38083190625E+01  0.17308804998E+03  0.17120000000E+03 0.  0.
        998    1    1    2    0    0  0.35036270370E+01  0.17715361176E+02  0.14544339114E+04  0.14545803904E+04  0.10000000000E+02 0.  1.
</event>
<event>
 5    1  0.1218060E-008  0.3766826E+03  0.7957747E-01  0.3465732E+00
         13   -1    0    0    0    0  0.00000000000E+00  0.00000000000E+00  0.14999999963E+04  0.15000000000E+04  0.10566000000E+00 0. -1.
        994   -1    0    0    0    0 -0.00000000000E+00 -0.00000000000E+00  0.11368683772E-12  0.17120000000E+03  0.17120000000E+03 0.  0.
         13    1    1    2    0    0  0.60705090840E+01 -0.63687313589E+02  0.11899930765E+03  0.13510651864E+03  0.10566000000E+00 0. -1.
        994    1    1    2    0    0  0.27093892620E+02  0.81800746805E+02  0.41604527836E+02  0.19612704539E+03  0.17120000000E+03 0.  0.
        998    1    1    2    0    0 -0.33164401704E+02 -0.18113433216E+02  0.13393961608E+04  0.13399664360E+04  0.10000000000E+02 0. -1.
</event>
<event>
 5    1  0.1218060E-008  0.3861127E+03  0.7957747E-01  0.3424967E+00
         13   -1    0    0    0    0  0.00000000000E+00  0.00000000000E+00  0.14999999963E+04  0.15000000000E+04  0.10566000000E+00 0. -1.
        994   -1    0    0    0    0 -0.00000000000E+00 -0.00000000000E+00  0.11368683772E-12  0.17120000000E+03  0.17120000000E+03 0.  0.
         13    1    1    2    0    0  0.10142997247E+02  0.57688514138E+01  0.62323213741E+02  0.63406262899E+02  0.10566000000E+00 0. -1.
        994    1    1    2    0    0 -0.12149786900E+02 -0.14940561272E+01  0.15698916782E+01  0.17164426610E+03  0.17120000000E+03 0.  0.
        998    1    1    2    0    0  0.20067896522E+01 -0.42747952866E+01  0.14361068909E+04  0.14361494710E+04  0.10000000000E+02 0. -1.
</event>
<event>
 5    1  0.1218060E-008  0.3734654E+03  0.7957747E-01  0.3480115E+00
         13   -1    0    0    0    0  0.00000000000E+00  0.00000000000E+00  0.14999999963E+04  0.15000000000E+04  0.10566000000E+00 0.  1.
        994   -1    0    0    0    0 -0.00000000000E+00 -0.00000000000E+00  0.11368683772E-12  0.17120000000E+03  0.17120000000E+03 0.  0.
         13    1    1    2    0    0 -0.17314430426E+02 -0.64373154141E+01  0.20460013064E+02  0.27565410016E+02  0.10566000000E+00 0.  1.
        994    1    1    2    0    0 -0.14374506740E+01 -0.79027800543E+01  0.76893954154E+01  0.17156073851E+03  0.17120000000E+03 0.  0.
        998    1    1    2    0    0  0.18751881100E+02  0.14340095468E+02  0.14718505878E+04  0.14720738515E+04  0.10000000000E+02 0.  1.
</event>
<event>
 5    1  0.1218060E-008  0.3793018E+03  0.7957747E-01  0.3454204E+00
         13   -1    0    0    0    0  0.00000000000E+00  0.00000000000E+00  0.14999999963E+04  0.15000000000E+04  0.10566000000E+00 0.  1.
        994   -1    0    0    0    0 -0.00000000000E+00 -0.00000000000E+00  0.11368683772E-12  0.17120000000E+03  0.17120000000E+03 0.  0.
         13    1    1    2    0    0 -0.29852840376E+02  0.13452674805E+02  0.12538155742E+03  0.12958669933E+03  0.10566000000E+00 0.  1.
        994    1    1    2    0    0  0.67147900057E+01 -0.62315846247E+01  0.47672480893E+01  0.17151118828E+03  0.17120000000E+03 0.  0.
        998    1    1    2    0    0  0.23138050370E+02 -0.72210901803E+01  0.13698511908E+04  0.13701021124E+04  0.10000000000E+02 0.  1.
</event>
<event>
 5    1  0.1218060E-008  0.3846924E+03  0.7957747E-01  0.3430978E+00
         13   -1    0    0    0    0  0.00000000000E+00  0.00000000000E+00  0.14999999963E+04  0.15000000000E+04  0.10566000000E+00 0.  1.
        994   -1    0    0    0    0 -0.00000000000E+00 -0.00000000000E+00  0.11368683772E-12  0.17120000000E+03  0.17120000000E+03 0.  0.
         13    1    1    2    0    0  0.22412335623E+01 -0.10210266177E+02  0.29852458051E+02  0.31629939598E+02  0.10566000000E+00 0.  1.
        994    1    1    2    0    0 -0.78132122566E+00  0.10679371758E+02  0.21604867409E+01  0.17154814819E+03  0.17120000000E+03 0.  0.
        998    1    1    2    0    0 -0.14599123366E+01 -0.46910558059E+00  0.14679870515E+04  0.14680219122E+04  0.10000000000E+02 0.  1.
</event>
<event>
 5    1  0.1218060E-008  0.3823529E+03  0.7957747E-01  0.3440977E+00
         13   -1    0    0    0    0  0.00000000000E+00  0.00000000000E+00  0.14999999963E+04  0.15000000000E+04  0.10566000000E+00 0. -1.
        994   -1    0    0    0    0 -0.00000000000E+00 -0.00000000000E+00  0.11368683772E-12  0.17120000000E+03  0.17120000000E+03 0.  0.
         13    1    1    2    0    0 -0.24588855676E+02 -0.13733991532E+02  0.11868105093E+03  0.12197720017E+03  0.10566000000E+00 0. -1.
        994    1    1    2    0    0  0.32077423916E+02  0.15166794804E+02  0.71376184737E+01  0.17498393751E+03  0.17120000000E+03 0.  0.
        998    1    1    2    0    0 -0.74885682404E+01 -0.14328032719E+01  0.13741813269E+04  0.13742388623E+04  0.10000000000E+02 0. -1.
</event>
<event>
 5    1  0.1218060E-008  0.3686654E+03  0.7957747E-01  0.3502047E+00
         13   -1    0    0    0    0  0.00000000000E+00  0.00000000000E+00  0.14999999963E+04  0.15000000000E+04  0.10566000000E+00 0. -1.
        994   -1    0    0    0    0 -0.00000000000E+00 -0.00000000000E+00  0.11368683772E-12  0.17120000000E+03  0.17120000000E+03 0.  0.
         13    1    1    2    0    0  0.36066959921E+01 -0.12791679453E+02  0.42642711726E+01  0.13958169360E+02  0.10566000000E+00 0. -1.
        994    1    1    2    0    0 -0.26391664858E+01  0.11552650807E+02  0.10456290119E+02  0.17192790042E+03  0.17120000000E+03 0.  0.
        998    1    1    2    0    0 -0.96752950629E+00  0.12390286456E+01  0.14852794350E+04  0.14853139302E+04  0.10000000000E+02 0. -1.
</event>
<event>
 5    1  0.1218060E-008  0.3862019E+03  0.7957747E-01  0.3424591E+00
         13   -1    0    0    0    0  0.00000000000E+00  0.00000000000E+00  0.14999999963E+04  0.15000000000E+04  0.10566000000E+00 0. -1.
        994   -1    0    0    0    0 -0.00000000000E+00 -0.00000000000E+00  0.11368683772E-12  0.17120000000E+03  0.17120000000E+03 0.  0.
         13    1    1    2    0    0  0.96186263646E+01 -0.44769421432E+01  0.53627318087E+02  0.54666821687E+02  0.10566000000E+00 0. -1.
        994    1    1    2    0    0 -0.79962717679E+01  0.96778308274E+01  0.15510498692E+01  0.17166667273E+03  0.17120000000E+03 0.  0.
        998    1    1    2    0    0 -0.16223545968E+01 -0.52008886842E+01  0.14448216283E+04  0.14448665056E+04  0.10000000000E+02 0. -1.
</event>
<event>
 5    1  0.1218060E-008  0.3855940E+03  0.7957747E-01  0.3427157E+00
         13   -1    0    0    0    0  0.00000000000E+00  0.00000000000E+00  0.14999999963E+04  0.15000000000E+04  0.10566000000E+00 0. -1.
        994   -1    0    0    0    0 -0.00000000000E+00 -0.00000000000E+00  0.11368683772E-12  0.17120000000E+03  0.17120000000E+03 0.  0.
         13    1    1    2    0    0  0.97344497415E+01 -0.10962395412E+02  0.75019909194E+02  0.76439070928E+02  0.10566000000E+00 0. -1.
        994    1    1    2    0    0 -0.12444525630E+02  0.15615185261E+02  0.26452958597E+01  0.17238079307E+03  0.17120000000E+03 0.  0.
        998    1    1    2    0    0  0.27100758889E+01 -0.46527898493E+01  0.14223347912E+04  0.14223801360E+04  0.10000000000E+02 0. -1.
</event>
<event>
 5    1  0.1218060E-008  0.3688225E+03  0.7957747E-01  0.3501320E+00
         13   -1    0    0    0    0  0.00000000000E+00  0.00000000000E+00  0.14999999963E+04  0.15000000000E+04  0.10566000000E+00 0.  1.
        994   -1    0    0    0    0 -0.00000000000E+00 -0.00000000000E+00  0.11368683772E-12  0.17120000000E+03  0.17120000000E+03 0.  0.
         13    1    1    2    0    0  0.13665303534E+02  0.26753250698E+02  0.38542183683E+02  0.48867044424E+02  0.10566000000E+00 0.  1.
        994    1    1    2    0    0 -0.18447207331E+02 -0.25856362487E+02  0.13838070433E+02  0.17467049875E+03  0.17120000000E+03 0.  0.
        998    1    1    2    0    0  0.47819037969E+01 -0.89688821142E+00  0.14476197422E+04  0.14476624568E+04  0.10000000000E+02 0.  1.
</event>
<event>
 5    1  0.1218060E-008  0.3832625E+03  0.7957747E-01  0.3437075E+00
         13   -1    0    0    0    0  0.00000000000E+00  0.00000000000E+00  0.14999999963E+04  0.15000000000E+04  0.10566000000E+00 0.  1.
        994   -1    0    0    0    0 -0.00000000000E+00 -0.00000000000E+00  0.11368683772E-12  0.17120000000E+03  0.17120000000E+03 0.  0.
         13    1    1    2    0    0 -0.15872364570E+02  0.10943251725E+02  0.72255690509E+02  0.74783572329E+02  0.10566000000E+00 0.  1.
        994    1    1    2    0    0  0.24332997065E+02  0.61466399609E+01  0.45812104716E+01  0.17309044866E+03  0.17120000000E+03 0.  0.
        998    1    1    2    0    0 -0.84606324946E+01 -0.17089891686E+02  0.14231630953E+04  0.14233259790E+04  0.10000000000E+02 0.  1.
</event>
<event>
 5    1  0.1218060E-008  0.3773715E+03  0.7957747E-01  0.3462684E+00
         13   -1    0    0    0    0  0.00000000000E+00  0.00000000000E+00  0.14999999963E+04  0.15000000000E+04  0.10566000000E+00 0. -1.
        994   -1    0    0    0    0 -0.00000000000E+00 -0.00000000000E+00  0.11368683772E-12  0.17120000000E+03  0.17120000000E+03 0.  0.
         13    1    1    2    0    0 -0.10668805138E+02 -0.13251740755E+02  0.23023363020E+02  0.28627232575E+02  0.10566000000E+00 0. -1.
        994    1    1    2    0    0  0.17990419170E+02  0.24577451896E+02  0.86007327423E+01  0.17410088721E+03  0.17120000000E+03 0.  0.
        998    1    1    2    0    0 -0.73216140324E+01 -0.11325711140E+02  0.14683759005E+04  0.14684718802E+04  0.10000000000E+02 0. -1.
</event>
<event>
 5    1  0.1218060E-008  0.3788007E+03  0.7957747E-01  0.3456397E+00
         13   -1    0    0    0    0  0.00000000000E+00  0.00000000000E+00  0.14999999963E+04  0.15000000000E+04  0.10566000000E+00 0. -1.
        994   -1    0    0    0    0 -0.00000000000E+00 -0.00000000000E+00  0.11368683772E-12  0.17120000000E+03  0.17120000000E+03 0.  0.
         13    1    1    2    0    0  0.31721331048E+02 -0.19584561879E+02  0.13417297267E+03  0.13925586403E+03  0.10566000000E+00 0. -1.
        994    1    1    2    0    0 -0.31642174265E+02  0.17231886417E+02  0.91090540462E+01  0.17518727113E+03  0.17120000000E+03 0.  0.
        998    1    1    2    0    0 -0.79156782998E-01  0.23526754618E+01  0.13567179696E+04  0.13567568648E+04  0.10000000000E+02 0. -1.
</event>
<event>
 5    1  0.1331276E-008  0.3863450E+03  0.7957747E-01  0.3423988E+00
         13   -1    0    0    0    0  0.00000000000E+00  0.00000000000E+00  0.14999999963E+04  0.15000000000E+04  0.10566000000E+00 0.  1.
        994   -1    0    0    0    0 -0.00000000000E+00 -0.00000000000E+00  0.11368683772E-12  0.17120000000E+03  0.17120000000E+03 0.  0.
         13    1    1    2    0    0  0.21920873246E+01 -0.10972201403E+02  0.62836562978E+02  0.63825067657E+02  0.10566000000E+00 0.  1.
        994    1    1    2    0    0 -0.12652721015E+02  0.11813042169E+02  0.19455930567E+01  0.17208388840E+03  0.17120000000E+03 0.  0.
        998    1    1    2    0    0  0.10460633691E+02 -0.84084076595E+00  0.14352178402E+04  0.14352910439E+04  0.10000000000E+02 0.  1.
</event>
<event>
 5    1  0.1218060E-008  0.3926109E+03  0.7957747E-01  0.3398021E+00
         13   -1    0    0    0    0  0.00000000000E+00  0.00000000000E+00  0.14999999963E+04  0.15000000000E+04  0.10566000000E+00 0. -1.
        994   -1    0    0    0    0 -0.00000000000E+00 -0.00000000000E+00  0.11368683772E-12  0.17120000000E+03  0.17120000000E+03 0.  0.
         13    1    1    2    0    0 -0.25276590869E+02 -0.31682780943E+01  0.35408708812E+01  0.25719505491E+02  0.10566000000E+00 0. -1.
        994    1    1    2    0    0  0.30260666560E+02  0.10551112627E+02  0.27347192502E+02  0.17630752354E+03  0.17120000000E+03 0.  0.
        998    1    1    2    0    0 -0.49840756902E+01 -0.73828345322E+01  0.14691119329E+04  0.14691729710E+04  0.10000000000E+02 0. -1.
</event>
<event>
 5    1  0.1218060E-008  0.3854531E+03  0.7957747E-01  0.3427753E+00
         13   -1    0    0    0    0  0.00000000000E+00  0.00000000000E+00  0.14999999963E+04  0.15000000000E+04  0.10566000000E+00 0. -1.
        994   -1    0    0    0    0 -0.00000000000E+00 -0.00000000000E+00  0.11368683772E-12  0.17120000000E+03  0.17120000000E+03 0.  0.
         13    1    1    2    0    0  0.92387525643E+01  0.42133539486E+01  0.36282406144E+02  0.37676664662E+02  0.10566000000E+00 0. -1.
        994    1    1    2    0    0 -0.76435535231E+01 -0.56682620236E+01  0.17027644366E+01  0.17147271652E+03  0.17120000000E+03 0.  0.
        998    1    1    2    0    0 -0.15951990412E+01  0.14549080750E+01  0.14620148257E+04  0.14620506188E+04  0.10000000000E+02 0. -1.
</event>
<event>
 5    1  0.1218060E-008  0.3846376E+03  0.7957747E-01  0.3431211E+00
         13   -1    0    0    0    0  0.00000000000E+00  0.00000000000E+00  0.14999999963E+04  0.15000000000E+04  0.10566000000E+00 0.  1.
        994   -1    0    0    0    0 -0.00000000000E+00 -0.00000000000E+00  0.11368683772E-12  0.17120000000E+03  0.17120000000E+03 0.  0.
         13    1    1    2    0    0  0.10021931819E+01 -0.57352075923E+02  0.76263800702E+02  0.95427687101E+02  0.10566000000E+00 0.  1.
        994    1    1    2    0    0  0.51777399174E+01  0.59432907738E+02  0.32138409296E+02  0.18412331972E+03  0.17120000000E+03 0.  0.
        998    1    1    2    0    0 -0.61799330993E+01 -0.20808318153E+01  0.13915977863E+04  0.13916489932E+04  0.10000000000E+02 0.  1.
</event>
<event>
 5    1  0.1218060E-008  0.3829825E+03  0.7957747E-01  0.3438274E+00
         13   -1    0    0    0    0  0.00000000000E+00  0.00000000000E+00  0.14999999963E+04  0.15000000000E+04  0.10566000000E+00 0. -1.
        994   -1    0    0    0    0 -0.00000000000E+00 -0.00000000000E+00  0.11368683772E-12  0.17120000000E+03  0.17120000000E+03 0.  0.
         13    1    1    2    0    0  0.11510357040E+02 -0.24508680998E+02  0.13182011655E+03  0.13457235249E+03  0.10566000000E+00 0. -1.
        994    1    1    2    0    0 -0.57579397770E+01  0.22769817109E+02  0.44632933260E+01  0.17286115651E+03  0.17120000000E+03 0.  0.
        998    1    1    2    0    0 -0.57524172628E+01  0.17388638886E+01  0.13637165864E+04  0.13637664910E+04  0.10000000000E+02 0. -1.
</event>
<event>
 5    1  0.1218060E-008  0.3829423E+03  0.7957747E-01  0.3438446E+00
         13   -1    0    0    0    0  0.00000000000E+00  0.00000000000E+00  0.14999999963E+04  0.15000000000E+04  0.10566000000E+00 0. -1.
        994   -1    0    0    0    0 -0.00000000000E+00 -0.00000000000E+00  0.11368683772E-12  0.17120000000E+03  0.17120000000E+03 0.  0.
         13    1    1    2    0    0 -0.41304887675E+02 -0.27090177771E+03  0.10942451149E+04  0.11280364575E+04  0.10566000000E+00 0. -1.
        994    1    1    2    0    0  0.37275127347E+02  0.27130989705E+03  0.31289511139E+03  0.44967909234E+03  0.17120000000E+03 0.  0.
        998    1    1    2    0    0  0.40297603282E+01 -0.40811934687E+00  0.92859770033E+02  0.93484450152E+02  0.10000000000E+02 0.  1.
</event>
<event>
 5    1  0.1218060E-008  0.3838874E+03  0.7957747E-01  0.3434405E+00
         13   -1    0    0    0    0  0.00000000000E+00  0.00000000000E+00  0.14999999963E+04  0.15000000000E+04  0.10566000000E+00 0. -1.
        994   -1    0    0    0    0 -0.00000000000E+00 -0.00000000000E+00  0.11368683772E-12  0.17120000000E+03  0.17120000000E+03 0.  0.
         13    1    1    2    0    0 -0.15443037313E+02 -0.72986030474E+01  0.64471423359E+02  0.66695821472E+02  0.10566000000E+00 0. -1.
        994    1    1    2    0    0  0.17146781182E+02  0.19382734288E+01  0.31669407860E+01  0.17209659649E+03  0.17120000000E+03 0.  0.
        998    1    1    2    0    0 -0.17037438692E+01  0.53603296186E+01  0.14323616321E+04  0.14324075820E+04  0.10000000000E+02 0. -1.
</event>
<event>
 5    1  0.1218060E-008  0.3787464E+03  0.7957747E-01  0.3456635E+00
         13   -1    0    0    0    0  0.00000000000E+00  0.00000000000E+00  0.14999999963E+04  0.15000000000E+04  0.10566000000E+00 0.  1.
        994   -1    0    0    0    0 -0.00000000000E+00 -0.00000000000E+00  0.11368683772E-12  0.17120000000E+03  0.17120000000E+03 0.  0.
         13    1    1    2    0    0 -0.29768830926E+02 -0.70819837351E+01  0.96064826552E+02  0.10082063208E+03  0.10566000000E+00 0.  1.
        994    1    1    2    0    0  0.16650147618E+02  0.15380741707E+02  0.64938968045E+01  0.17281610263E+03  0.17120000000E+03 0.  0.
        998    1    1    2    0    0  0.13118683308E+02 -0.82987579717E+01  0.13974412729E+04  0.13975632653E+04  0.10000000000E+02 0.  1.
</event>
<event>
 5    1  0.1218060E-008  0.3862090E+03  0.7957747E-01  0.3424561E+00
         13   -1    0    0    0    0  0.00000000000E+00  0.00000000000E+00  0.14999999963E+04  0.15000000000E+04  0.10566000000E+00 0. -1.
        994   -1    0    0    0    0 -0.00000000000E+00 -0.00000000000E+00  0.11368683772E-12  0.17120000000E+03  0.17120000000E+03 0.  0.
         13    1    1    2    0    0  0.11887641317E+02 -0.11120264294E+01  0.65935403941E+02  0.67007770264E+02  0.10566000000E+00 0. -1.
        994    1    1    2    0    0 -0.17029996078E+02 -0.93494049253E+01  0.22684539388E+01  0.17231371977E+03  0.17120000000E+03 0.  0.
        998    1    1    2    0    0  0.51423547611E+01  0.10461431355E+02  0.14317961384E+04  0.14318785100E+04  0.10000000000E+02 0. -1.
</event>
<event>
 5    1  0.1218060E-008  0.3830428E+03  0.7957747E-01  0.3438016E+00
         13   -1    0    0    0    0  0.00000000000E+00  0.00000000000E+00  0.14999999963E+04  0.15000000000E+04  0.10566000000E+00 0. -1.
        994   -1    0    0    0    0 -0.00000000000E+00 -0.00000000000E+00  0.11368683772E-12  0.17120000000E+03  0.17120000000E+03 0.  0.
         13    1    1    2    0    0 -0.14686505961E+02 -0.50572541421E+01  0.45999828326E+02  0.48551669866E+02  0.10566000000E+00 0. -1.
        994    1    1    2    0    0  0.72303142643E+01  0.32799244006E+01  0.28136286273E+01  0.17140709394E+03  0.17120000000E+03 0.  0.
        998    1    1    2    0    0  0.74561916964E+01  0.17773297415E+01  0.14511865393E+04  0.14512412362E+04  0.10000000000E+02 0. -1.
</event>
<event>
 5    1  0.1218060E-008  0.3783534E+03  0.7957747E-01  0.3458360E+00
         13   -1    0    0    0    0  0.00000000000E+00  0.00000000000E+00  0.14999999963E+04  0.15000000000E+04  0.10566000000E+00 0.  1.
        994   -1    0    0    0    0 -0.00000000000E+00 -0.00000000000E+00  0.11368683772E-12  0.17120000000E+03  0.17120000000E+03 0.  0.
         13    1    1    2    0    0 -0.28871589165E+02 -0.99925055423E+01  0.10244853067E+03  0.10690711589E+03  0.10566000000E+00 0.  1.
        994    1    1    2    0    0 -0.76550296412E+01  0.13576663780E+02  0.57836188993E+01  0.17200527761E+03  0.17120000000E+03 0.  0.
        998    1    1    2    0    0  0.36526618807E+02 -0.35841582379E+01  0.13917678467E+04  0.13922876065E+04  0.10000000000E+02 0.  1.
</event>
<event>
 5    1  0.1218060E-008  0.3790805E+03  0.7957747E-01  0.3455172E+00
         13   -1    0    0    0    0  0.00000000000E+00  0.00000000000E+00  0.14999999963E+04  0.15000000000E+04  0.10566000000E+00 0.  1.
        994   -1    0    0    0    0 -0.00000000000E+00 -0.00000000000E+00  0.11368683772E-12  0.17120000000E+03  0.17120000000E+03 0.  0.
         13    1    1    2    0    0 -0.58976243331E+02 -0.64328734409E+02  0.48953142184E+03  0.49724984413E+03  0.10566000000E+00 0.  1.
        994    1    1    2    0    0  0.60594640866E+02  0.75756954710E+02  0.36829849608E+02  0.20019166943E+03  0.17120000000E+03 0.  0.
        998    1    1    2    0    0 -0.16183975344E+01 -0.11428220301E+02  0.97363872483E+03  0.97375848644E+03  0.10000000000E+02 0.  1.
</event>
<event>
 5    1  0.1218060E-008  0.3705648E+03  0.7957747E-01  0.3493299E+00
         13   -1    0    0    0    0  0.00000000000E+00  0.00000000000E+00  0.14999999963E+04  0.15000000000E+04  0.10566000000E+00 0. -1.
        994   -1    0    0    0    0 -0.00000000000E+00 -0.00000000000E+00  0.11368683772E-12  0.17120000000E+03  0.17120000000E+03 0.  0.
         13    1    1    2    0    0  0.38837983636E+02  0.20054696752E+02  0.97775726845E+02  0.10710127804E+03  0.10566000000E+00 0. -1.
        994    1    1    2    0    0 -0.37709312607E+02 -0.18330381700E+02  0.15065355918E+02  0.17690223317E+03  0.17120000000E+03 0.  0.
        998    1    1    2    0    0 -0.11286710289E+01 -0.17243150518E+01  0.13871589135E+04  0.13871964888E+04  0.10000000000E+02 0. -1.
</event>
<event>
 5    1  0.1218060E-008  0.3691459E+03  0.7957747E-01  0.3499825E+00
         13   -1    0    0    0    0  0.00000000000E+00  0.00000000000E+00  0.14999999963E+04  0.15000000000E+04  0.10566000000E+00 0.  1.
        994   -1    0    0    0    0 -0.00000000000E+00 -0.00000000000E+00  0.11368683772E-12  0.17120000000E+03  0.17120000000E+03 0.  0.
         13    1    1    2    0    0 -0.39403266036E+02  0.29839988689E+02  0.12771089360E+03  0.13694205274E+03  0.10566000000E+00 0.  1.
        994    1    1    2    0    0  0.15382438243E+02 -0.12954989984E+02  0.11119998741E+02  0.17273547853E+03  0.17120000000E+03 0.  0.
        998    1    1    2    0    0  0.24020827793E+02 -0.16884998705E+02  0.13611691039E+04  0.13615224687E+04  0.10000000000E+02 0.  1.
</event>
<event>
 5    1  0.1218060E-008  0.3698357E+03  0.7957747E-01  0.3496646E+00
         13   -1    0    0    0    0  0.00000000000E+00  0.00000000000E+00  0.14999999963E+04  0.15000000000E+04  0.10566000000E+00 0.  1.
        994   -1    0    0    0    0 -0.00000000000E+00 -0.00000000000E+00  0.11368683772E-12  0.17120000000E+03  0.17120000000E+03 0.  0.
         13    1    1    2    0    0 -0.14475289372E+02  0.48250247928E+02  0.15603174897E+03  0.16396200254E+03  0.10566000000E+00 0.  1.
        994    1    1    2    0    0 -0.38989818778E+02 -0.76794460817E+01  0.14838112801E+02  0.17637683933E+03  0.17120000000E+03 0.  0.
        998    1    1    2    0    0  0.53465108149E+02 -0.40570801847E+02  0.13291301345E+04  0.13308611581E+04  0.10000000000E+02 0.  1.
</event>
<event>
 5    1  0.1218060E-008  0.3844431E+03  0.7957747E-01  0.3432038E+00
         13   -1    0    0    0    0  0.00000000000E+00  0.00000000000E+00  0.14999999963E+04  0.15000000000E+04  0.10566000000E+00 0. -1.
        994   -1    0    0    0    0 -0.00000000000E+00 -0.00000000000E+00  0.11368683772E-12  0.17120000000E+03  0.17120000000E+03 0.  0.
         13    1    1    2    0    0  0.13054452919E+02  0.67522290751E+01  0.57591281669E+02  0.59437178826E+02  0.10566000000E+00 0. -1.
        994    1    1    2    0    0 -0.72365675595E+01  0.12284111531E+01  0.20844217900E+01  0.17136995570E+03  0.17120000000E+03 0.  0.
        998    1    1    2    0    0 -0.58178853592E+01 -0.79806402281E+01  0.14403242928E+04  0.14403928655E+04  0.10000000000E+02 0. -1.
</event>
<event>
 5    1  0.1218060E-008  0.3824815E+03  0.7957747E-01  0.3440424E+00
         13   -1    0    0    0    0  0.00000000000E+00  0.00000000000E+00  0.14999999963E+04  0.15000000000E+04  0.10566000000E+00 0.  1.
        994   -1    0    0    0    0 -0.00000000000E+00 -0.00000000000E+00  0.11368683772E-12  0.17120000000E+03  0.17120000000E+03 0.  0.
         13    1    1    2    0    0 -0.11123577001E+02  0.13762063468E+02  0.51882175168E+02  0.54816964713E+02  0.10566000000E+00 0.  1.
        994    1    1    2    0    0  0.10956020699E+02 -0.14067531095E+02  0.39405791631E+01  0.17217112994E+03  0.17120000000E+03 0.  0.
        998    1    1    2    0    0  0.16755630165E+00  0.30546762649E+00  0.14441772419E+04  0.14442119053E+04  0.10000000000E+02 0.  0.
</event>
<event>
 5    1  0.1218060E-008  0.3698044E+03  0.7957747E-01  0.3496790E+00
         13   -1    0    0    0    0  0.00000000000E+00  0.00000000000E+00  0.14999999963E+04  0.15000000000E+04  0.10566000000E+00 0. -1.
        994   -1    0    0    0    0 -0.00000000000E+00 -0.00000000000E+00  0.11368683772E-12  0.17120000000E+03  0.17120000000E+03 0.  0.
         13    1    1    2    0    0 -0.36533702860E+02 -0.31291125413E+01  0.56294209539E+02  0.67182973897E+02  0.10566000000E+00 0. -1.
        994    1    1    2    0    0  0.34456032323E+02  0.43624851355E+01  0.15061284950E+02  0.17533548341E+03  0.17120000000E+03 0.  0.
        998    1    1    2    0    0  0.20776705376E+01 -0.12333725942E+01  0.14286445018E+04  0.14286815427E+04  0.10000000000E+02 0. -1.
</event>
<event>
 5    1  0.1218060E-008  0.3838663E+03  0.7957747E-01  0.3434494E+00
         13   -1    0    0    0    0  0.00000000000E+00  0.00000000000E+00  0.14999999963E+04  0.15000000000E+04  0.10566000000E+00 0. -1.
        994   -1    0    0    0    0 -0.00000000000E+00 -0.00000000000E+00  0.11368683772E-12  0.17120000000E+03  0.17120000000E+03 0.  0.
         13    1    1    2    0    0  0.12707675105E+02 -0.24838426793E+01  0.36920780373E+02  0.39125562851E+02  0.10566000000E+00 0. -1.
        994    1    1    2    0    0 -0.13881321300E+02 -0.20776159528E+01  0.28445757388E+01  0.17179796035E+03  0.17120000000E+03 0.  0.
        998    1    1    2    0    0  0.11736461948E+01  0.45614586322E+01  0.14602346402E+04  0.14602764768E+04  0.10000000000E+02 0. -1.
</event>
<event>
 5    1  0.1218060E-008  0.3737328E+03  0.7957747E-01  0.3478910E+00
         13   -1    0    0    0    0  0.00000000000E+00  0.00000000000E+00  0.14999999963E+04  0.15000000000E+04  0.10566000000E+00 0.  1.
        994   -1    0    0    0    0 -0.00000000000E+00 -0.00000000000E+00  0.11368683772E-12  0.17120000000E+03  0.17120000000E+03 0.  0.
         13    1    1    2    0    0  0.51829569079E+01  0.31145715555E+02  0.32378259911E+02  0.45224788763E+02  0.10566000000E+00 0.  1.
        994    1    1    2    0    0 -0.66443075377E+01 -0.34380464010E+02  0.17282267307E+02  0.17559692449E+03  0.17120000000E+03 0.  0.
        998    1    1    2    0    0  0.14613506297E+01  0.32347484548E+01  0.14503394691E+04  0.14503782867E+04  0.10000000000E+02 0.  1.
</event>
<event>
 5    1  0.1218060E-008  0.3796836E+03  0.7957747E-01  0.3452538E+00
         13   -1    0    0    0    0  0.00000000000E+00  0.00000000000E+00  0.14999999963E+04  0.15000000000E+04  0.10566000000E+00 0. -1.
        994   -1    0    0    0    0 -0.00000000000E+00 -0.00000000000E+00  0.11368683772E-12  0.17120000000E+03  0.17120000000E+03 0.  0.
         13    1    1    2    0    0  0.10564990453E+02 -0.18988154022E+02  0.52888584163E+02  0.57178514455E+02  0.10566000000E+00 0. -1.
        994    1    1    2    0    0 -0.23240490143E+02  0.61531136699E+01  0.62295280729E+01  0.17299198886E+03  0.17120000000E+03 0.  0.
        998    1    1    2    0    0  0.12675499690E+02  0.12835040352E+02  0.14408818840E+04  0.14410294967E+04  0.10000000000E+02 0. -1.
</event>
<event>
 5    1  0.1218060E-008  0.4024745E+03  0.7957747E-01  0.3358781E+00
         13   -1    0    0    0    0  0.00000000000E+00  0.00000000000E+00  0.14999999963E+04  0.15000000000E+04  0.10566000000E+00 0.  1.
        994   -1    0    0    0    0 -0.00000000000E+00 -0.00000000000E+00  0.11368683772E-12  0.17120000000E+03  0.17120000000E+03 0.  0.
         13    1    1    2    0    0 -0.82716645715E+02 -0.69116290946E+02  0.21386002818E+03  0.23948951537E+03  0.10566000000E+00 0.  1.
        994    1    1    2    0    0  0.21282313428E+02  0.38158403213E+02  0.36851695949E+02  0.18048957891E+03  0.17120000000E+03 0.  0.
        998    1    1    2    0    0  0.61434332286E+02  0.30957887732E+02  0.12492882721E+04  0.12512209057E+04  0.10000000000E+02 0.  1.
</event>
<event>
 5    1  0.1218060E-008  0.2693520E+03  0.7957747E-01  0.4142444E+00
         13   -1    0    0    0    0  0.00000000000E+00  0.00000000000E+00  0.14999999963E+04  0.15000000000E+04  0.10566000000E+00 0. -1.
        994   -1    0    0    0    0 -0.00000000000E+00 -0.00000000000E+00  0.11368683772E-12  0.17120000000E+03  0.17120000000E+03 0.  0.
         13    1    1    2    0    0 -0.12271712997E+03 -0.13713932374E+03  0.45484093428E+03  0.49065973420E+03  0.10566000000E+00 0. -1.
        994    1    1    2    0    0  0.79911021323E+02  0.13639567383E+03  0.13496547508E+03  0.26928548166E+03  0.17120000000E+03 0.  0.
        998    1    1    2    0    0  0.42806108649E+02  0.74364991067E+00  0.91019358691E+03  0.91125478414E+03  0.10000000000E+02 0. -1.
</event>
<event>
 5    1  0.1218060E-008  0.3815876E+03  0.7957747E-01  0.3444275E+00
         13   -1    0    0    0    0  0.00000000000E+00  0.00000000000E+00  0.14999999963E+04  0.15000000000E+04  0.10566000000E+00 0. -1.
        994   -1    0    0    0    0 -0.00000000000E+00 -0.00000000000E+00  0.11368683772E-12  0.17120000000E+03  0.17120000000E+03 0.  0.
         13    1    1    2    0    0 -0.16239387210E+02 -0.38567176795E+01  0.39588108860E+02  0.42963024747E+02  0.10566000000E+00 0. -1.
        994    1    1    2    0    0  0.21722924962E+02 -0.14034086563E+02  0.55612728295E+01  0.17323166226E+03  0.17120000000E+03 0.  0.
        998    1    1    2    0    0 -0.54835377518E+01  0.17890804243E+02  0.14548506146E+04  0.14550053130E+04  0.10000000000E+02 0. -1.
</event>
<event>
 5    1  0.1218060E-008  0.3918695E+03  0.7957747E-01  0.3401050E+00
         13   -1    0    0    0    0  0.00000000000E+00  0.00000000000E+00  0.14999999963E+04  0.15000000000E+04  0.10566000000E+00 0. -1.
        994   -1    0    0    0    0 -0.00000000000E+00 -0.00000000000E+00  0.11368683772E-12  0.17120000000E+03  0.17120000000E+03 0.  0.
         13    1    1    2    0    0 -0.27717988151E+02  0.13250444342E+01  0.59848669822E+01  0.28387891903E+02  0.10566000000E+00 0. -1.
        994    1    1    2    0    0  0.55721108520E+02 -0.14204844623E+02  0.35646479297E+02  0.18408348930E+03  0.17120000000E+03 0.  0.
        998    1    1    2    0    0 -0.28003120369E+02  0.12879800189E+02  0.14583686500E+04  0.14587286188E+04  0.10000000000E+02 0. -1.
</event>
<event>
 5    1  0.1218060E-008  0.3765841E+03  0.7957747E-01  0.3466168E+00
         13   -1    0    0    0    0  0.00000000000E+00  0.00000000000E+00  0.14999999963E+04  0.15000000000E+04  0.10566000000E+00 0.  1.
        994   -1    0    0    0    0 -0.00000000000E+00 -0.00000000000E+00  0.11368683772E-12  0.17120000000E+03  0.17120000000E+03 0.  0.
         13    1    1    2    0    0  0.38849579294E+02 -0.29093438639E+02  0.19176859362E+03  0.19781537515E+03  0.10566000000E+00 0.  1.
        994    1    1    2    0    0 -0.28152669440E+02  0.19047480793E+02  0.97839495813E+01  0.17481574583E+03  0.17120000000E+03 0.  0.
        998    1    1    2    0    0 -0.10696909853E+02  0.10045957846E+02  0.12984474531E+04  0.12985688790E+04  0.10000000000E+02 0.  1.
</event>
<event>
 5    1  0.1218060E-008  0.3727413E+03  0.7957747E-01  0.3483386E+00
         13   -1    0    0    0    0  0.00000000000E+00  0.00000000000E+00  0.14999999963E+04  0.15000000000E+04  0.10566000000E+00 0. -1.
        994   -1    0    0    0    0 -0.00000000000E+00 -0.00000000000E+00  0.11368683772E-12  0.17120000000E+03  0.17120000000E+03 0.  0.
         13    1    1    2    0    0  0.22217852878E+02 -0.13951085202E+02  0.42117118264E+02  0.49619840585E+02  0.10566000000E+00 0. -1.
        994    1    1    2    0    0 -0.76192824665E+01 -0.64643208638E+00  0.80435248743E+01  0.17155934726E+03  0.17120000000E+03 0.  0.
        998    1    1    2    0    0 -0.14598570411E+02  0.14597517288E+02  0.14498393531E+04  0.14500208122E+04  0.10000000000E+02 0. -1.
</event>
<event>
 5    1  0.1218060E-008  0.3791481E+03  0.7957747E-01  0.3454876E+00
         13   -1    0    0    0    0  0.00000000000E+00  0.00000000000E+00  0.14999999963E+04  0.15000000000E+04  0.10566000000E+00 0.  1.
        994   -1    0    0    0    0 -0.00000000000E+00 -0.00000000000E+00  0.11368683772E-12  0.17120000000E+03  0.17120000000E+03 0.  0.
         13    1    1    2    0    0 -0.21873961322E+02  0.16491165453E+02  0.83953938667E+02  0.88310269525E+02  0.10566000000E+00 0.  1.
        994    1    1    2    0    0  0.50470231122E+01 -0.66041772623E+01  0.47954221305E+01  0.17146872506E+03  0.17120000000E+03 0.  0.
        998    1    1    2    0    0  0.16826938210E+02 -0.98869881906E+01  0.14112506355E+04  0.14114210054E+04  0.10000000000E+02 0.  1.
</event>
<event>
 5    1  0.1218060E-008  0.3819673E+03  0.7957747E-01  0.3442637E+00
         13   -1    0    0    0    0  0.00000000000E+00  0.00000000000E+00  0.14999999963E+04  0.15000000000E+04  0.10566000000E+00 0.  1.
        994   -1    0    0    0    0 -0.00000000000E+00 -0.00000000000E+00  0.11368683772E-12  0.17120000000E+03  0.17120000000E+03 0.  0.
         13    1    1    2    0    0  0.23451650051E+02  0.17572075894E+02  0.14077758303E+03  0.14379532951E+03  0.10566000000E+00 0.  1.
        994    1    1    2    0    0 -0.80590961473E+01 -0.93971712755E+01  0.36525274674E+01  0.17168586667E+03  0.17120000000E+03 0.  0.
        998    1    1    2    0    0 -0.15392553903E+02 -0.81749046184E+01  0.13555698858E+04  0.13557188038E+04  0.10000000000E+02 0.  1.
</event>
<event>
 5    1  0.1218060E-008  0.3738609E+03  0.7957747E-01  0.3478333E+00
         13   -1    0    0    0    0  0.00000000000E+00  0.00000000000E+00  0.14999999963E+04  0.15000000000E+04  0.10566000000E+00 0. -1.
        994   -1    0    0    0    0 -0.00000000000E+00 -0.00000000000E+00  0.11368683772E-12  0.17120000000E+03  0.17120000000E+03 0.  0.
         13    1    1    2    0    0  0.24981532634E+02  0.20153721737E+02  0.63091431171E+02  0.70786929047E+02  0.10566000000E+00 0. -1.
        994    1    1    2    0    0 -0.38378146867E+02 -0.21792780777E+02  0.13940588254E+02  0.17734595415E+03  0.17120000000E+03 0.  0.
        998    1    1    2    0    0  0.13396614233E+02  0.16390590400E+01  0.14229679769E+04  0.14230671168E+04  0.10000000000E+02 0. -1.
</event>
<event>
 5    1  0.1218060E-008  0.4203967E+03  0.7957747E-01  0.3292154E+00
         13   -1    0    0    0    0  0.00000000000E+00  0.00000000000E+00  0.14999999963E+04  0.15000000000E+04  0.10566000000E+00 0.  1.
        994   -1    0    0    0    0 -0.00000000000E+00 -0.00000000000E+00  0.11368683772E-12  0.17120000000E+03  0.17120000000E+03 0.  0.
         13    1    1    2    0    0  0.13528394211E+03  0.20918323238E+02  0.30746531983E+03  0.33656240922E+03  0.10566000000E+00 0.  1.
        994    1    1    2    0    0 -0.15994929038E+02  0.24982660515E+02  0.44356034611E+02  0.17932336403E+03  0.17120000000E+03 0.  0.
        998    1    1    2    0    0 -0.11928901307E+03 -0.45900983753E+02  0.11481786418E+04  0.11553142267E+04  0.10000000000E+02 0.  1.
</event>
<event>
 5    1  0.1218060E-008  0.3858674E+03  0.7957747E-01  0.3426002E+00
         13   -1    0    0    0    0  0.00000000000E+00  0.00000000000E+00  0.14999999963E+04  0.15000000000E+04  0.10566000000E+00 0.  1.
        994   -1    0    0    0    0 -0.00000000000E+00 -0.00000000000E+00  0.11368683772E-12  0.17120000000E+03  0.17120000000E+03 0.  0.
         13    1    1    2    0    0 -0.65980120925E+01  0.76617375351E+01  0.44561812779E+02  0.45694663888E+02  0.10566000000E+00 0.  1.
        994    1    1    2    0    0 -0.47075019822E+01 -0.53633058571E+01  0.13671191426E+01  0.17135412058E+03  0.17120000000E+03 0.  0.
        998    1    1    2    0    0  0.11305514075E+02 -0.22984316780E+01  0.14540710644E+04  0.14541512155E+04  0.10000000000E+02 0.  1.
</event>
<event>
 5    1  0.1218060E-008  0.3844825E+03  0.7957747E-01  0.3431870E+00
         13   -1    0    0    0    0  0.00000000000E+00  0.00000000000E+00  0.14999999963E+04  0.15000000000E+04  0.10566000000E+00 0. -1.
        994   -1    0    0    0    0 -0.00000000000E+00 -0.00000000000E+00  0.11368683772E-12  0.17120000000E+03  0.17120000000E+03 0.  0.
         13    1    1    2    0    0 -0.85475366604E+01  0.11148793127E+02  0.52357985339E+02  0.54210015347E+02  0.10566000000E+00 0. -1.
        994    1    1    2    0    0  0.93637331457E+01 -0.30397975210E+01  0.22066166258E+01  0.17149702337E+03  0.17120000000E+03 0.  0.
        998    1    1    2    0    0 -0.81619648537E+00 -0.81089956060E+01  0.14454353943E+04  0.14454929613E+04  0.10000000000E+02 0. -1.
</event>
<event>
 5    1  0.1218060E-008  0.3808920E+03  0.7957747E-01  0.3447284E+00
         13   -1    0    0    0    0  0.00000000000E+00  0.00000000000E+00  0.14999999963E+04  0.15000000000E+04  0.10566000000E+00 0.  1.
        994   -1    0    0    0    0 -0.00000000000E+00 -0.00000000000E+00  0.11368683772E-12  0.17120000000E+03  0.17120000000E+03 0.  0.
         13    1    1    2    0    0 -0.29146172413E+02 -0.84864385841E+00  0.11271362631E+03  0.11642419114E+03  0.10566000000E+00 0.  1.
        994    1    1    2    0    0  0.19629896705E+02  0.99431654722E+01  0.52990890674E+01  0.17268966306E+03  0.17120000000E+03 0.  0.
        998    1    1    2    0    0  0.95162757083E+01 -0.90945216138E+01  0.13819872809E+04  0.13820861458E+04  0.10000000000E+02 0.  1.
</event>
<event>
 5    1  0.1218060E-008  0.3837547E+03  0.7957747E-01  0.3434971E+00
         13   -1    0    0    0    0  0.00000000000E+00  0.00000000000E+00  0.14999999963E+04  0.15000000000E+04  0.10566000000E+00 0. -1.
        994   -1    0    0    0    0 -0.00000000000E+00 -0.00000000000E+00  0.11368683772E-12  0.17120000000E+03  0.17120000000E+03 0.  0.
         13    1    1    2    0    0 -0.17481447496E+02 -0.12196979459E+02  0.95118913353E+02  0.97478131681E+02  0.10566000000E+00 0. -1.
        994    1    1    2    0    0  0.19488800069E+02  0.10083732502E+02  0.38411774345E+01  0.17264324381E+03  0.17120000000E+03 0.  0.
        998    1    1    2    0    0 -0.20073525735E+01  0.21132469570E+01  0.14010399055E+04  0.14010786245E+04  0.10000000000E+02 0.  0.
</event>
<event>
 5    1  0.1218060E-008  0.3826025E+03  0.7957747E-01  0.3439904E+00
         13   -1    0    0    0    0  0.00000000000E+00  0.00000000000E+00  0.14999999963E+04  0.15000000000E+04  0.10566000000E+00 0. -1.
        994   -1    0    0    0    0 -0.00000000000E+00 -0.00000000000E+00  0.11368683772E-12  0.17120000000E+03  0.17120000000E+03 0.  0.
         13    1    1    2    0    0  0.10300743005E+02  0.18323460529E+02  0.73274394628E+02  0.76229932339E+02  0.10566000000E+00 0. -1.
        994    1    1    2    0    0 -0.12665374378E+02 -0.20105023888E+02  0.46987860059E+01  0.17290500942E+03  0.17120000000E+03 0.  0.
        998    1    1    2    0    0  0.23646313733E+01  0.17815633587E+01  0.14220268156E+04  0.14220650582E+04  0.10000000000E+02 0. -1.
</event>
<event>
 5    1  0.1218060E-008  0.3787228E+03  0.7957747E-01  0.3456739E+00
         13   -1    0    0    0    0  0.00000000000E+00  0.00000000000E+00  0.14999999963E+04  0.15000000000E+04  0.10566000000E+00 0. -1.
        994   -1    0    0    0    0 -0.00000000000E+00 -0.00000000000E+00  0.11368683772E-12  0.17120000000E+03  0.17120000000E+03 0.  0.
         13    1    1    2    0    0  0.21278387960E+01  0.42359282518E+02  0.17181948983E+03  0.17697679159E+03  0.10566000000E+00 0. -1.
        994    1    1    2    0    0  0.16965568166E+01 -0.37873366935E+02  0.96194534044E+01  0.17561105920E+03  0.17120000000E+03 0.  0.
        998    1    1    2    0    0 -0.38243956125E+01 -0.44859155827E+01  0.13185610530E+04  0.13186121492E+04  0.10000000000E+02 0. -1.
</event>
<event>
 5    1  0.1218060E-008  0.3851097E+03  0.7957747E-01  0.3429207E+00
         13   -1    0    0    0    0  0.00000000000E+00  0.00000000000E+00  0.14999999963E+04  0.15000000000E+04  0.10566000000E+00 0.  1.
        994   -1    0    0    0    0 -0.00000000000E+00 -0.00000000000E+00  0.11368683772E-12  0.17120000000E+03  0.17120000000E+03 0.  0.
         13    1    1    2    0    0  0.89046665937E+01  0.11743739222E+02  0.67636650771E+02  0.69223812302E+02  0.10566000000E+00 0.  1.
        994    1    1    2    0    0 -0.62670926384E+01 -0.11294172374E+02  0.21243207743E+01  0.17169970157E+03  0.17120000000E+03 0.  0.
        998    1    1    2    0    0 -0.26375739553E+01 -0.44956684808E+00  0.14302390247E+04  0.14302764861E+04  0.10000000000E+02 0.  1.
</event>
<event>
 5    1  0.1218060E-008  0.3859484E+03  0.7957747E-01  0.3425660E+00
         13   -1    0    0    0    0  0.00000000000E+00  0.00000000000E+00  0.14999999963E+04  0.15000000000E+04  0.10566000000E+00 0. -1.
        994   -1    0    0    0    0 -0.00000000000E+00 -0.00000000000E+00  0.11368683772E-12  0.17120000000E+03  0.17120000000E+03 0.  0.
         13    1    1    2    0    0  0.12100738320E+02 -0.81771356249E+01  0.85893859583E+02  0.87126687605E+02  0.10566000000E+00 0. -1.
        994    1    1    2    0    0 -0.12971981815E+02  0.14378432673E+02  0.23904762684E+01  0.17230834575E+03  0.17120000000E+03 0.  0.
        998    1    1    2    0    0  0.87124349583E+00 -0.62012970485E+01  0.14117156604E+04  0.14117649666E+04  0.10000000000E+02 0. -1.
</event>
<event>
 5    1  0.1218060E-008  0.3790160E+03  0.7957747E-01  0.3455454E+00
         13   -1    0    0    0    0  0.00000000000E+00  0.00000000000E+00  0.14999999963E+04  0.15000000000E+04  0.10566000000E+00 0. -1.
        994   -1    0    0    0    0 -0.00000000000E+00 -0.00000000000E+00  0.11368683772E-12  0.17120000000E+03  0.17120000000E+03 0.  0.
         13    1    1    2    0    0 -0.14580710505E+02 -0.97056404863E+01  0.31177533902E+02  0.35760961402E+02  0.10566000000E+00 0. -1.
        994    1    1    2    0    0  0.14514493911E+02  0.14022754152E+01  0.53441309423E+01  0.17190298614E+03  0.17120000000E+03 0.  0.
        998    1    1    2    0    0  0.66216594489E-01  0.83033650711E+01  0.14634783314E+04  0.14635360525E+04  0.10000000000E+02 0. -1.
</event>
<event>
 5    1  0.1218060E-008  0.3711093E+03  0.7957747E-01  0.3490808E+00
         13   -1    0    0    0    0  0.00000000000E+00  0.00000000000E+00  0.14999999963E+04  0.15000000000E+04  0.10566000000E+00 0. -1.
        994   -1    0    0    0    0 -0.00000000000E+00 -0.00000000000E+00  0.11368683772E-12  0.17120000000E+03  0.17120000000E+03 0.  0.
         13    1    1    2    0    0 -0.51573431012E+02 -0.11185013398E+03  0.44459517813E+03  0.46134060610E+03  0.10566000000E+00 0. -1.
        994    1    1    2    0    0  0.52966104516E+02  0.11109166484E+03  0.66760486590E+02  0.22116321754E+03  0.17120000000E+03 0.  0.
        998    1    1    2    0    0 -0.13926735046E+01  0.75846914684E+00  0.98864433156E+03  0.98869617636E+03  0.10000000000E+02 0.  0.
</event>
<event>
 5    1  0.1218060E-008  0.3830451E+03  0.7957747E-01  0.3438006E+00
         13   -1    0    0    0    0  0.00000000000E+00  0.00000000000E+00  0.14999999963E+04  0.15000000000E+04  0.10566000000E+00 0.  1.
        994   -1    0    0    0    0 -0.00000000000E+00 -0.00000000000E+00  0.11368683772E-12  0.17120000000E+03  0.17120000000E+03 0.  0.
         13    1    1    2    0    0 -0.21715557445E+01  0.23386436702E+02  0.10973414635E+03  0.11221958436E+03  0.10566000000E+00 0.  1.
        994    1    1    2    0    0  0.89652088150E+01 -0.74212527958E+01  0.30522535474E+01  0.17162227773E+03  0.17120000000E+03 0.  0.
        998    1    1    2    0    0 -0.67936530705E+01 -0.15965183907E+02  0.13872135964E+04  0.13873581379E+04  0.10000000000E+02 0.  1.
</event>
<event>
 5    1  0.1218060E-008  0.3771226E+03  0.7957747E-01  0.3463784E+00
         13   -1    0    0    0    0  0.00000000000E+00  0.00000000000E+00  0.14999999963E+04  0.15000000000E+04  0.10566000000E+00 0. -1.
        994   -1    0    0    0    0 -0.00000000000E+00 -0.00000000000E+00  0.11368683772E-12  0.17120000000E+03  0.17120000000E+03 0.  0.
         13    1    1    2    0    0 -0.18906700623E+02 -0.32997680092E+02  0.45733986710E+02  0.59480407903E+02  0.10566000000E+00 0. -1.
        994    1    1    2    0    0 -0.77031441519E+01  0.11342154415E+02  0.15429992953E+02  0.17243986656E+03  0.17120000000E+03 0.  0.
        998    1    1    2    0    0  0.26609844775E+02  0.21655525678E+02  0.14388360166E+04  0.14392797255E+04  0.10000000000E+02 0. -1.
</event>
<event>
 5    1  0.1218060E-008  0.3849917E+03  0.7957747E-01  0.3429707E+00
         13   -1    0    0    0    0  0.00000000000E+00  0.00000000000E+00  0.14999999963E+04  0.15000000000E+04  0.10566000000E+00 0. -1.
        994   -1    0    0    0    0 -0.00000000000E+00 -0.00000000000E+00  0.11368683772E-12  0.17120000000E+03  0.17120000000E+03 0.  0.
         13    1    1    2    0    0 -0.92935199128E+00  0.10652058421E+02  0.36054509721E+02  0.37606766399E+02  0.10566000000E+00 0. -1.
        994    1    1    2    0    0 -0.72678367974E+01 -0.54360051714E+00  0.18089762887E+01  0.17136460938E+03  0.17120000000E+03 0.  0.
        998    1    1    2    0    0  0.81971887887E+01 -0.10108457904E+02  0.14621365103E+04  0.14622286242E+04  0.10000000000E+02 0. -1.
</event>
<event>
 5    1  0.1218060E-008  0.3714361E+03  0.7957747E-01  0.3489317E+00
         13   -1    0    0    0    0  0.00000000000E+00  0.00000000000E+00  0.14999999963E+04  0.15000000000E+04  0.10566000000E+00 0. -1.
        994   -1    0    0    0    0 -0.00000000000E+00 -0.00000000000E+00  0.11368683772E-12  0.17120000000E+03  0.17120000000E+03 0.  0.
         13    1    1    2    0    0  0.27645761143E+02 -0.37807080648E+02  0.96464276563E+02  0.10723353614E+03  0.10566000000E+00 0. -1.
        994    1    1    2    0    0 -0.10843338429E+02  0.28318559788E+01  0.12141619670E+02  0.17199551251E+03  0.17120000000E+03 0.  0.
        998    1    1    2    0    0 -0.16802422714E+02  0.34975224669E+02  0.13913941000E+04  0.13919709513E+04  0.10000000000E+02 0. -1.
</event>
<event>
 5    1  0.1218060E-008  0.4258859E+03  0.7957747E-01  0.3272851E+00
         13   -1    0    0    0    0  0.00000000000E+00  0.00000000000E+00  0.14999999963E+04  0.15000000000E+04  0.10566000000E+00 0. -1.
        994   -1    0    0    0    0 -0.00000000000E+00 -0.00000000000E+00  0.11368683772E-12  0.17120000000E+03  0.17120000000E+03 0.  0.
         13    1    1    2    0    0 -0.46581263101E+02 -0.39858402193E+02  0.26444833136E+02  0.66767107628E+02  0.10566000000E+00 0. -1.
        994    1    1    2    0    0  0.48206830903E+02  0.38116955670E+02  0.61017315353E+02  0.19185763896E+03  0.17120000000E+03 0.  0.
        998    1    1    2    0    0 -0.16255678016E+01  0.17414465224E+01  0.14125378478E+04  0.14125752534E+04  0.10000000000E+02 0. -1.
</event>
<event>
 5    1  0.1218060E-008  0.3823997E+03  0.7957747E-01  0.3440776E+00
         13   -1    0    0    0    0  0.00000000000E+00  0.00000000000E+00  0.14999999963E+04  0.15000000000E+04  0.10566000000E+00 0. -1.
        994   -1    0    0    0    0 -0.00000000000E+00 -0.00000000000E+00  0.11368683772E-12  0.17120000000E+03  0.17120000000E+03 0.  0.
         13    1    1    2    0    0  0.17177784932E+02  0.14970286148E+02  0.82319416080E+02  0.85414771499E+02  0.10566000000E+00 0. -1.
        994    1    1    2    0    0 -0.70505457246E+01 -0.32264976517E+02  0.65526525108E+01  0.17447955800E+03  0.17120000000E+03 0.  0.
        998    1    1    2    0    0 -0.10127239207E+02  0.17294690369E+02  0.14111279277E+04  0.14113056705E+04  0.10000000000E+02 0. -1.
</event>
<event>
 5    1  0.1218060E-008  0.3851342E+03  0.7957747E-01  0.3429103E+00
         13   -1    0    0    0    0  0.00000000000E+00  0.00000000000E+00  0.14999999963E+04  0.15000000000E+04  0.10566000000E+00 0. -1.
        994   -1    0    0    0    0 -0.00000000000E+00 -0.00000000000E+00  0.11368683772E-12  0.17120000000E+03  0.17120000000E+03 0.  0.
         13    1    1    2    0    0  0.48791493697E+01  0.11689890330E+02  0.49594909840E+02  0.51187165194E+02  0.10566000000E+00 0. -1.
        994    1    1    2    0    0 -0.44639430743E+01 -0.13942126421E+02  0.22683255551E+01  0.17183973632E+03  0.17120000000E+03 0.  0.
        998    1    1    2    0    0 -0.41520629536E+00  0.22522360917E+01  0.14481367609E+04  0.14481730985E+04  0.10000000000E+02 0. -1.
</event>
<event>
 5    1  0.1218060E-008  0.3691763E+03  0.7957747E-01  0.3499685E+00
         13   -1    0    0    0    0  0.00000000000E+00  0.00000000000E+00  0.14999999963E+04  0.15000000000E+04  0.10566000000E+00 0.  1.
        994   -1    0    0    0    0 -0.00000000000E+00 -0.00000000000E+00  0.11368683772E-12  0.17120000000E+03  0.17120000000E+03 0.  0.
         13    1    1    2    0    0  0.49891845003E+02  0.48456797798E+02  0.19715065661E+03  0.20905896301E+03  0.10566000000E+00 0.  1.
        994    1    1    2    0    0 -0.41953817077E+02 -0.57245326896E+02  0.28275455587E+02  0.18747290900E+03  0.17120000000E+03 0.  0.
        998    1    1    2    0    0 -0.79380279257E+01  0.87885290979E+01  0.12745738841E+04  0.12746681280E+04  0.10000000000E+02 0.  1.
</event>
<event>
 5    1  0.1218060E-008  0.3854113E+03  0.7957747E-01  0.3427930E+00
         13   -1    0    0    0    0  0.00000000000E+00  0.00000000000E+00  0.14999999963E+04  0.15000000000E+04  0.10566000000E+00 0. -1.
        994   -1    0    0    0    0 -0.00000000000E+00 -0.00000000000E+00  0.11368683772E-12  0.17120000000E+03  0.17120000000E+03 0.  0.
         13    1    1    2    0    0  0.16315789719E+02  0.45980553857E+01  0.96285883279E+02  0.97766710031E+02  0.10566000000E+00 0. -1.
        994    1    1    2    0    0 -0.15501157643E+02 -0.74305427485E+01  0.23971584976E+01  0.17207755584E+03  0.17120000000E+03 0.  0.
        998    1    1    2    0    0 -0.81463207602E+00  0.28324873628E+01  0.14013169545E+04  0.14013557341E+04  0.10000000000E+02 0. -1.
</event>
<event>
 5    1  0.1218060E-008  0.3793419E+03  0.7957747E-01  0.3454029E+00
         13   -1    0    0    0    0  0.00000000000E+00  0.00000000000E+00  0.14999999963E+04  0.15000000000E+04  0.10566000000E+00 0. -1.
        994   -1    0    0    0    0 -0.00000000000E+00 -0.00000000000E+00  0.11368683772E-12  0.17120000000E+03  0.17120000000E+03 0.  0.
         13    1    1    2    0    0  0.29764113431E+02  0.25145315125E+01  0.92798732577E+02  0.97487646648E+02  0.10566000000E+00 0. -1.
        994    1    1    2    0    0 -0.31471245271E+02  0.10472333995E+02  0.81601218196E+01  0.17457415801E+03  0.17120000000E+03 0.  0.
        998    1    1    2    0    0  0.17071318400E+01 -0.12986865507E+02  0.13990411419E+04  0.13991381953E+04  0.10000000000E+02 0. -1.
</event>
<event>
 5    1  0.1218060E-008  0.3796260E+03  0.7957747E-01  0.3452789E+00
         13   -1    0    0    0    0  0.00000000000E+00  0.00000000000E+00  0.14999999963E+04  0.15000000000E+04  0.10566000000E+00 0. -1.
        994   -1    0    0    0    0 -0.00000000000E+00 -0.00000000000E+00  0.11368683772E-12  0.17120000000E+03  0.17120000000E+03 0.  0.
         13    1    1    2    0    0 -0.88346376678E+01 -0.30141624921E+02  0.11545161251E+03  0.11964804374E+03  0.10566000000E+00 0. -1.
        994    1    1    2    0    0  0.41544258927E+01  0.13736195041E+02  0.50116467032E+01  0.17187349683E+03  0.17120000000E+03 0.  0.
        998    1    1    2    0    0  0.46802117750E+01  0.16405429880E+02  0.13795367371E+04  0.13796784594E+04  0.10000000000E+02 0. -1.
</event>
<event>
 5    1  0.1218060E-008  0.3843106E+03  0.7957747E-01  0.3432601E+00
         13   -1    0    0    0    0  0.00000000000E+00  0.00000000000E+00  0.14999999963E+04  0.15000000000E+04  0.10566000000E+00 0. -1.
        994   -1    0    0    0    0 -0.00000000000E+00 -0.00000000000E+00  0.11368683772E-12  0.17120000000E+03  0.17120000000E+03 0.  0.
         13    1    1    2    0    0  0.19911915298E+02 -0.90045574165E+01  0.13196380923E+03  0.13376107257E+03  0.10566000000E+00 0. -1.
        994    1    1    2    0    0 -0.69422768153E+01 -0.77188512768E+01  0.23281080137E+01  0.17153027709E+03  0.17120000000E+03 0.  0.
        998    1    1    2    0    0 -0.12969638482E+02  0.16723408693E+02  0.13657080790E+04  0.13659086503E+04  0.10000000000E+02 0. -1.
</event>
<event>
 5    1  0.1218060E-008  0.2890112E+03  0.7957747E-01  0.3977733E+00
         13   -1    0    0    0    0  0.00000000000E+00  0.00000000000E+00  0.14999999963E+04  0.15000000000E+04  0.10566000000E+00 0.  1.
        994   -1    0    0    0    0 -0.00000000000E+00 -0.00000000000E+00  0.11368683772E-12  0.17120000000E+03  0.17120000000E+03 0.  0.
         13    1    1    2    0    0 -0.21132800294E+03  0.68480805377E+01  0.51743824792E+03  0.55897117333E+03  0.10566000000E+00 0.  1.
        994    1    1    2    0    0  0.19407638370E+03 -0.12450172006E+02  0.19470269110E+03  0.32409755848E+03  0.17120000000E+03 0.  0.
        998    1    1    2    0    0  0.17251619233E+02  0.56020914683E+01  0.78785905726E+03  0.78813126819E+03  0.10000000000E+02 0.  1.
</event>
<event>
 5    1  0.1218060E-008  0.3861120E+03  0.7957747E-01  0.3424970E+00
         13   -1    0    0    0    0  0.00000000000E+00  0.00000000000E+00  0.14999999963E+04  0.15000000000E+04  0.10566000000E+00 0.  1.
        994   -1    0    0    0    0 -0.00000000000E+00 -0.00000000000E+00  0.11368683772E-12  0.17120000000E+03  0.17120000000E+03 0.  0.
         13    1    1    2    0    0 -0.63430562720E+01 -0.94890047984E+01  0.56853306540E+02  0.57987802196E+02  0.10566000000E+00 0.  1.
        994    1    1    2    0    0  0.63474415941E+01  0.17403953039E+02  0.22044210535E+01  0.17221349270E+03  0.17120000000E+03 0.  0.
        998    1    1    2    0    0 -0.43853221299E-02 -0.79149482411E+01  0.14409422687E+04  0.14409987051E+04  0.10000000000E+02 0.  1.
</event>
<event>
 5    1  0.1218060E-008  0.3806134E+03  0.7957747E-01  0.3448492E+00
         13   -1    0    0    0    0  0.00000000000E+00  0.00000000000E+00  0.14999999963E+04  0.15000000000E+04  0.10566000000E+00 0. -1.
        994   -1    0    0    0    0 -0.00000000000E+00 -0.00000000000E+00  0.11368683772E-12  0.17120000000E+03  0.17120000000E+03 0.  0.
         13    1    1    2    0    0  0.27033082369E+01  0.14675078571E+02  0.27435094550E+02  0.31230776224E+02  0.10566000000E+00 0. -1.
        994    1    1    2    0    0 -0.96228801327E+01 -0.10647452290E+02  0.45112772957E+01  0.17185970931E+03  0.17120000000E+03 0.  0.
        998    1    1    2    0    0  0.69195718959E+01 -0.40276262810E+01  0.14680536244E+04  0.14681095145E+04  0.10000000000E+02 0. -1.
</event>
<event>
 5    1  0.1218060E-008  0.3859959E+03  0.7957747E-01  0.3425460E+00
         13   -1    0    0    0    0  0.00000000000E+00  0.00000000000E+00  0.14999999963E+04  0.15000000000E+04  0.10566000000E+00 0.  1.
        994   -1    0    0    0    0 -0.00000000000E+00 -0.00000000000E+00  0.11368683772E-12  0.17120000000E+03  0.17120000000E+03 0.  0.
         13    1    1    2    0    0  0.12126177475E+02  0.36838362613E+00  0.65890137110E+02  0.66997770255E+02  0.10566000000E+00 0.  1.
        994    1    1    2    0    0 -0.72074704894E+01 -0.15424410680E+02  0.20872676500E+01  0.17205713226E+03  0.17120000000E+03 0.  0.
        998    1    1    2    0    0 -0.49187069857E+01  0.15056027054E+02  0.14320225915E+04  0.14321450975E+04  0.10000000000E+02 0.  1.
</event>
<event>
 5    1  0.1218060E-008  0.3840465E+03  0.7957747E-01  0.3433726E+00
         13   -1    0    0    0    0  0.00000000000E+00  0.00000000000E+00  0.14999999963E+04  0.15000000000E+04  0.10566000000E+00 0.  1.
        994   -1    0    0    0    0 -0.00000000000E+00 -0.00000000000E+00  0.11368683772E-12  0.17120000000E+03  0.17120000000E+03 0.  0.
         13    1    1    2    0    0 -0.26424614877E+02 -0.56826111011E+01  0.15525568181E+03  0.15759089517E+03  0.10566000000E+00 0.  1.
        994    1    1    2    0    0  0.26287897305E+02  0.16081450663E+02  0.52433614197E+01  0.17403045549E+03  0.17120000000E+03 0.  0.
        998    1    1    2    0    0  0.13671757256E+00 -0.10398839562E+02  0.13395009530E+04  0.13395786493E+04  0.10000000000E+02 0.  1.
</event>
<event>
 5    1  0.1218060E-008  0.3824876E+03  0.7957747E-01  0.3440398E+00
         13   -1    0    0    0    0  0.00000000000E+00  0.00000000000E+00  0.14999999963E+04  0.15000000000E+04  0.10566000000E+00 0.  1.
        994   -1    0    0    0    0 -0.00000000000E+00 -0.00000000000E+00  0.11368683772E-12  0.17120000000E+03  0.17120000000E+03 0.  0.
         13    1    1    2    0    0 -0.23739344196E+01 -0.20661832304E+02  0.76299687837E+02  0.79083502748E+02  0.10566000000E+00 0.  1.
        994    1    1    2    0    0  0.92670205600E+01  0.68065471977E+01  0.33211322696E+01  0.17161782155E+03  0.17120000000E+03 0.  0.
        998    1    1    2    0    0 -0.68930861404E+01  0.13855285106E+02  0.14203791762E+04  0.14204986757E+04  0.10000000000E+02 0.  1.
</event>
<event>
 5    1  0.1218060E-008  0.3806923E+03  0.7957747E-01  0.3448150E+00
         13   -1    0    0    0    0  0.00000000000E+00  0.00000000000E+00  0.14999999963E+04  0.15000000000E+04  0.10566000000E+00 0. -1.
        994   -1    0    0    0    0 -0.00000000000E+00 -0.00000000000E+00  0.11368683772E-12  0.17120000000E+03  0.17120000000E+03 0.  0.
         13    1    1    2    0    0 -0.44757079217E+02  0.39264374699E+02  0.35455858615E+03  0.35952286358E+03  0.10566000000E+00 0. -1.
        994    1    1    2    0    0  0.42134847978E+02 -0.44032931028E+02  0.16273017483E+02  0.18245135112E+03  0.17120000000E+03 0.  0.
        998    1    1    2    0    0  0.26222312387E+01  0.47685563288E+01  0.11291683926E+04  0.11292257853E+04  0.10000000000E+02 0. -1.
</event>
<event>
 5    1  0.1218060E-008  0.3831008E+03  0.7957747E-01  0.3437767E+00
         13   -1    0    0    0    0  0.00000000000E+00  0.00000000000E+00  0.14999999963E+04  0.15000000000E+04  0.10566000000E+00 0.  1.
        994   -1    0    0    0    0 -0.00000000000E+00 -0.00000000000E+00  0.11368683772E-12  0.17120000000E+03  0.17120000000E+03 0.  0.
         13    1    1    2    0    0 -0.11879184683E+02  0.34650074929E+01  0.27882643103E+02  0.30505315211E+02  0.10566000000E+00 0.  1.
        994    1    1    2    0    0  0.17543658228E+02 -0.45371002103E+01  0.36633451946E+01  0.17219531155E+03  0.17120000000E+03 0.  0.
        998    1    1    2    0    0 -0.56644735450E+01  0.10720927174E+01  0.14684540080E+04  0.14684993732E+04  0.10000000000E+02 0.  1.
</event>
<event>
 5    1  0.1218060E-008  0.3710863E+03  0.7957747E-01  0.3490913E+00
         13   -1    0    0    0    0  0.00000000000E+00  0.00000000000E+00  0.14999999963E+04  0.15000000000E+04  0.10566000000E+00 0. -1.
        994   -1    0    0    0    0 -0.00000000000E+00 -0.00000000000E+00  0.11368683772E-12  0.17120000000E+03  0.17120000000E+03 0.  0.
         13    1    1    2    0    0 -0.11458016539E+02 -0.51114191653E+02  0.18271671578E+03  0.19007723725E+03  0.10566000000E+00 0. -1.
        994    1    1    2    0    0  0.21784299970E+02 -0.53596465883E+01  0.10437978790E+02  0.17297882222E+03  0.17120000000E+03 0.  0.
        998    1    1    2    0    0 -0.10326283431E+02  0.56473838241E+02  0.13068453017E+04  0.13081439405E+04  0.10000000000E+02 0. -1.
</event>
<event>
 5    1  0.1218060E-008  0.3808939E+03  0.7957747E-01  0.3447276E+00
         13   -1    0    0    0    0  0.00000000000E+00  0.00000000000E+00  0.14999999963E+04  0.15000000000E+04  0.10566000000E+00 0.  1.
        994   -1    0    0    0    0 -0.00000000000E+00 -0.00000000000E+00  0.11368683772E-12  0.17120000000E+03  0.17120000000E+03 0.  0.
         13    1    1    2    0    0 -0.26121449599E+02 -0.32641292243E+00  0.86370887404E+02  0.90235126362E+02  0.10566000000E+00 0.  1.
        994    1    1    2    0    0  0.27536533319E+02 -0.59146389872E+01  0.63310341477E+01  0.17361672044E+03  0.17120000000E+03 0.  0.
        998    1    1    2    0    0 -0.14150837198E+01  0.62410519096E+01  0.14072980747E+04  0.14073481532E+04  0.10000000000E+02 0.  1.
</event>
<event>
 5    1  0.1218060E-008  0.3982240E+03  0.7957747E-01  0.3375453E+00
         13   -1    0    0    0    0  0.00000000000E+00  0.00000000000E+00  0.14999999963E+04  0.15000000000E+04  0.10566000000E+00 0.  1.
        994   -1    0    0    0    0 -0.00000000000E+00 -0.00000000000E+00  0.11368683772E-12  0.17120000000E+03  0.17120000000E+03 0.  0.
         13    1    1    2    0    0  0.28012257426E+02 -0.12615551206E+03  0.33959367556E+03  0.36335076088E+03  0.10566000000E+00 0.  1.
        994    1    1    2    0    0  0.16980537185E+02  0.64171983972E+02  0.44056115730E+02  0.18882998571E+03  0.17120000000E+03 0.  0.
        998    1    1    2    0    0 -0.44992794611E+02  0.61983528086E+02  0.11163502050E+04  0.11190192534E+04  0.10000000000E+02 0.  1.
</event>
<event>
 5    1  0.1218060E-008  0.3692796E+03  0.7957747E-01  0.3499208E+00
         13   -1    0    0    0    0  0.00000000000E+00  0.00000000000E+00  0.14999999963E+04  0.15000000000E+04  0.10566000000E+00 0. -1.
        994   -1    0    0    0    0 -0.00000000000E+00 -0.00000000000E+00  0.11368683772E-12  0.17120000000E+03  0.17120000000E+03 0.  0.
         13    1    1    2    0    0 -0.43548755651E+02 -0.26003294352E+02  0.12670475994E+03  0.13647993549E+03  0.10566000000E+00 0. -1.
        994    1    1    2    0    0  0.11050139988E+02  0.89937772090E+01  0.11266587768E+02  0.17216088296E+03  0.17120000000E+03 0.  0.
        998    1    1    2    0    0  0.32498615664E+02  0.17009517143E+02  0.13620286486E+04  0.13625591815E+04  0.10000000000E+02 0. -1.
</event>
<event>
 5    1  0.1218060E-008  0.3705831E+03  0.7957747E-01  0.3493215E+00
         13   -1    0    0    0    0  0.00000000000E+00  0.00000000000E+00  0.14999999963E+04  0.15000000000E+04  0.10566000000E+00 0. -1.
        994   -1    0    0    0    0 -0.00000000000E+00 -0.00000000000E+00  0.11368683772E-12  0.17120000000E+03  0.17120000000E+03 0.  0.
         13    1    1    2    0    0  0.32790124650E+02  0.21696643457E+02  0.77527505087E+02  0.86927911633E+02  0.10566000000E+00 0. -1.
        994    1    1    2    0    0 -0.31680520927E+02 -0.33544998745E+02  0.16346936025E+02  0.17806062076E+03  0.17120000000E+03 0.  0.
        998    1    1    2    0    0 -0.11096037230E+01  0.11848355288E+02  0.14061255552E+04  0.14062114676E+04  0.10000000000E+02 0. -1.
</event>
<event>
 5    1  0.1469995E-008  0.3859353E+03  0.7957747E-01  0.3425715E+00
         13   -1    0    0    0    0  0.00000000000E+00  0.00000000000E+00  0.14999999963E+04  0.15000000000E+04  0.10566000000E+00 0.  1.
        994   -1    0    0    0    0 -0.00000000000E+00 -0.00000000000E+00  0.11368683772E-12  0.17120000000E+03  0.17120000000E+03 0.  0.
         13    1    1    2    0    0 -0.10104700748E+02  0.75313493325E+01  0.68114006538E+02  0.69270161330E+02  0.10566000000E+00 0.  1.
        994    1    1    2    0    0  0.90435224195E+01 -0.40931690285E+01  0.14896501247E+01  0.17149401852E+03  0.17120000000E+03 0.  0.
        998    1    1    2    0    0  0.10611783288E+01 -0.34381803040E+01  0.14303963396E+04  0.14304358202E+04  0.10000000000E+02 0.  1.
</event>
<event>
 5    1  0.1218060E-008  0.3824767E+03  0.7957747E-01  0.3440445E+00
         13   -1    0    0    0    0  0.00000000000E+00  0.00000000000E+00  0.14999999963E+04  0.15000000000E+04  0.10566000000E+00 0. -1.
        994   -1    0    0    0    0 -0.00000000000E+00 -0.00000000000E+00  0.11368683772E-12  0.17120000000E+03  0.17120000000E+03 0.  0.
         13    1    1    2    0    0 -0.18937669970E+02 -0.39912056114E+00  0.59994545662E+02  0.62913840404E+02  0.10566000000E+00 0. -1.
        994    1    1    2    0    0  0.17320167871E+02 -0.22929262370E+02  0.56309204028E+01  0.17368617260E+03  0.17120000000E+03 0.  0.
        998    1    1    2    0    0  0.16175020992E+01  0.23328382931E+02  0.14343745302E+04  0.14345999870E+04  0.10000000000E+02 0. -1.
</event>
<event>
 5    1  0.1218060E-008  0.3816576E+03  0.7957747E-01  0.3443972E+00
         13   -1    0    0    0    0  0.00000000000E+00  0.00000000000E+00  0.14999999963E+04  0.15000000000E+04  0.10566000000E+00 0. -1.
        994   -1    0    0    0    0 -0.00000000000E+00 -0.00000000000E+00  0.11368683772E-12  0.17120000000E+03  0.17120000000E+03 0.  0.
         13    1    1    2    0    0  0.21584720500E+02  0.15060240234E+01  0.69508795870E+02  0.72798709705E+02  0.10566000000E+00 0. -1.
        994    1    1    2    0    0 -0.15011456449E+02  0.26197738097E+01  0.40711189495E+01  0.17192504486E+03  0.17120000000E+03 0.  0.
        998    1    1    2    0    0 -0.65732640512E+01 -0.41257978331E+01  0.14264200815E+04  0.14264762454E+04  0.10000000000E+02 0. -1.
</event>
<event>
 5    1  0.1218060E-008  0.2850488E+03  0.7957747E-01  0.4008900E+00
         13   -1    0    0    0    0  0.00000000000E+00  0.00000000000E+00  0.14999999963E+04  0.15000000000E+04  0.10566000000E+00 0.  1.
        994   -1    0    0    0    0 -0.00000000000E+00 -0.00000000000E+00  0.11368683772E-12  0.17120000000E+03  0.17120000000E+03 0.  0.
         13    1    1    2    0    0 -0.10479949280E+03 -0.14451667860E+03  0.54542477024E+03  0.57389563097E+03  0.10566000000E+00 0.  1.
        994    1    1    2    0    0  0.11023969817E+03  0.13546914896E+03  0.13842770281E+03  0.28102731233E+03  0.17120000000E+03 0.  0.
        998    1    1    2    0    0 -0.54402053689E+01  0.90475296374E+01  0.81614752323E+03  0.81627705670E+03  0.10000000000E+02 0.  0.
</event>
<event>
 5    1  0.1218060E-008  0.3698601E+03  0.7957747E-01  0.3496534E+00
         13   -1    0    0    0    0  0.00000000000E+00  0.00000000000E+00  0.14999999963E+04  0.15000000000E+04  0.10566000000E+00 0. -1.
        994   -1    0    0    0    0 -0.00000000000E+00 -0.00000000000E+00  0.11368683772E-12  0.17120000000E+03  0.17120000000E+03 0.  0.
         13    1    1    2    0    0  0.10288402699E+03 -0.99065764676E+02  0.55318244827E+03  0.57132300933E+03  0.10566000000E+00 0. -1.
        994    1    1    2    0    0 -0.85359859428E+02  0.11867422022E+03  0.89756357360E+02  0.24235412073E+03  0.17120000000E+03 0.  0.
        998    1    1    2    0    0 -0.17524167567E+02 -0.19608455543E+02  0.85706119064E+03  0.85752286995E+03  0.10000000000E+02 0. -1.
</event>
<event>
 5    1  0.1218060E-008  0.4100378E+03  0.7957747E-01  0.3329963E+00
         13   -1    0    0    0    0  0.00000000000E+00  0.00000000000E+00  0.14999999963E+04  0.15000000000E+04  0.10566000000E+00 0. -1.
        994   -1    0    0    0    0 -0.00000000000E+00 -0.00000000000E+00  0.11368683772E-12  0.17120000000E+03  0.17120000000E+03 0.  0.
         13    1    1    2    0    0  0.11202933316E+03 -0.30521466183E+02  0.24921073044E+03  0.27493295677E+03  0.10566000000E+00 0. -1.
        994    1    1    2    0    0 -0.39665572210E+02 -0.11292709301E+03  0.95273066754E+02  0.22959155734E+03  0.17120000000E+03 0.  0.
        998    1    1    2    0    0 -0.72363760948E+02  0.14344855919E+03  0.11555161991E+04  0.11666754859E+04  0.10000000000E+02 0. -1.
</event>
<event>
 5    1  0.1218060E-008  0.3832548E+03  0.7957747E-01  0.3437108E+00
         13   -1    0    0    0    0  0.00000000000E+00  0.00000000000E+00  0.14999999963E+04  0.15000000000E+04  0.10566000000E+00 0.  1.
        994   -1    0    0    0    0 -0.00000000000E+00 -0.00000000000E+00  0.11368683772E-12  0.17120000000E+03  0.17120000000E+03 0.  0.
         13    1    1    2    0    0 -0.98674629306E+01  0.25598329649E+02  0.13792979152E+03  0.14063171711E+03  0.10566000000E+00 0.  1.
        994    1    1    2    0    0  0.98071899419E+01 -0.25764920789E+02  0.50167884209E+01  0.17347801095E+03  0.17120000000E+03 0.  0.
        998    1    1    2    0    0  0.60272988626E-01  0.16659113973E+00  0.13570534163E+04  0.13570902719E+04  0.10000000000E+02 0.  0.
</event>
<event>
 5    1  0.1218060E-008  0.3759199E+03  0.7957747E-01  0.3469119E+00
         13   -1    0    0    0    0  0.00000000000E+00  0.00000000000E+00  0.14999999963E+04  0.15000000000E+04  0.10566000000E+00 0.  1.
        994   -1    0    0    0    0 -0.00000000000E+00 -0.00000000000E+00  0.11368683772E-12  0.17120000000E+03  0.17120000000E+03 0.  0.
         13    1    1    2    0    0 -0.13517290548E+02 -0.12986605378E+01  0.11939827925E+02  0.18082431194E+02  0.10566000000E+00 0.  1.
        994    1    1    2    0    0  0.15672521327E+02 -0.16729573344E+01  0.70493855494E+01  0.17206847633E+03  0.17120000000E+03 0.  0.
        998    1    1    2    0    0 -0.21552307783E+01  0.29716178722E+01  0.14810107828E+04  0.14810490925E+04  0.10000000000E+02 0.  1.
</event>
<event>
 5    1  0.1218060E-008  0.3786256E+03  0.7957747E-01  0.3457165E+00
         13   -1    0    0    0    0  0.00000000000E+00  0.00000000000E+00  0.14999999963E+04  0.15000000000E+04  0.10566000000E+00 0.  1.
        994   -1    0    0    0    0 -0.00000000000E+00 -0.00000000000E+00  0.11368683772E-12  0.17120000000E+03  0.17120000000E+03 0.  0.
         13    1    1    2    0    0 -0.40876920591E+02  0.45702348419E+02  0.31592114695E+03  0.32181642211E+03  0.10566000000E+00 0.  1.
        994    1    1    2    0    0  0.28852952163E+02 -0.52986061561E+02  0.17151110619E+02  0.18232831970E+03  0.17120000000E+03 0.  0.
        998    1    1    2    0    0  0.12023968427E+02  0.72837131425E+01  0.11669277387E+04  0.11670552582E+04  0.10000000000E+02 0.  1.
</event>
<event>
 5    1  0.1218060E-008  0.3786422E+03  0.7957747E-01  0.3457092E+00
         13   -1    0    0    0    0  0.00000000000E+00  0.00000000000E+00  0.14999999963E+04  0.15000000000E+04  0.10566000000E+00 0.  1.
        994   -1    0    0    0    0 -0.00000000000E+00 -0.00000000000E+00  0.11368683772E-12  0.17120000000E+03  0.17120000000E+03 0.  0.
         13    1    1    2    0    0  0.51594918169E+02  0.83882737476E+02  0.59295719593E+03  0.60107952602E+03  0.10566000000E+00 0.  1.
        994    1    1    2    0    0 -0.47377689212E+02 -0.86860416531E+02  0.38429125250E+02  0.20143389750E+03  0.17120000000E+03 0.  0.
        998    1    1    2    0    0 -0.42172289569E+01  0.29776790547E+01  0.86861367510E+03  0.86868657648E+03  0.10000000000E+02 0.  0.
</event>
<event>
 5    1  0.1218060E-008  0.3711027E+03  0.7957747E-01  0.3490839E+00
         13   -1    0    0    0    0  0.00000000000E+00  0.00000000000E+00  0.14999999963E+04  0.15000000000E+04  0.10566000000E+00 0. -1.
        994   -1    0    0    0    0 -0.00000000000E+00 -0.00000000000E+00  0.11368683772E-12  0.17120000000E+03  0.17120000000E+03 0.  0.
         13    1    1    2    0    0 -0.14175817792E+01  0.58978269814E+02  0.21681096563E+03  0.22469412950E+03  0.10566000000E+00 0. -1.
        994    1    1    2    0    0 -0.10050266416E+02 -0.18223961865E+02  0.10187165801E+02  0.17276093016E+03  0.17120000000E+03 0.  0.
        998    1    1    2    0    0  0.11467848195E+02 -0.40754307949E+02  0.12730018648E+04  0.12737449403E+04  0.10000000000E+02 0. -1.
</event>
<event>
 5    1  0.1218060E-008  0.3704403E+03  0.7957747E-01  0.3493870E+00
         13   -1    0    0    0    0  0.00000000000E+00  0.00000000000E+00  0.14999999963E+04  0.15000000000E+04  0.10566000000E+00 0.  1.
        994   -1    0    0    0    0 -0.00000000000E+00 -0.00000000000E+00  0.11368683772E-12  0.17120000000E+03  0.17120000000E+03 0.  0.
         13    1    1    2    0    0 -0.18235568007E+02 -0.16182048729E+02  0.28787439030E+02  0.37724295243E+02  0.10566000000E+00 0.  1.
        994    1    1    2    0    0 -0.52464009213E+01  0.38067367037E+02  0.14154336118E+02  0.17602964065E+03  0.17120000000E+03 0.  0.
        998    1    1    2    0    0  0.23481968928E+02 -0.21885318308E+02  0.14570582211E+04  0.14574460641E+04  0.10000000000E+02 0.  1.
</event>
<event>
 5    1  0.1218060E-008  0.3852061E+03  0.7957747E-01  0.3428798E+00
         13   -1    0    0    0    0  0.00000000000E+00  0.00000000000E+00  0.14999999963E+04  0.15000000000E+04  0.10566000000E+00 0.  1.
        994   -1    0    0    0    0 -0.00000000000E+00 -0.00000000000E+00  0.11368683772E-12  0.17120000000E+03  0.17120000000E+03 0.  0.
         13    1    1    2    0    0 -0.11417180193E+02 -0.13652217607E+01  0.43673532601E+02  0.45161980115E+02  0.10566000000E+00 0.  1.
        994    1    1    2    0    0  0.53081677673E+01  0.64749800900E+01  0.17582534522E+01  0.17141363268E+03  0.17120000000E+03 0.  0.
        998    1    1    2    0    0  0.61090124257E+01 -0.51097583294E+01  0.14545682102E+04  0.14546243872E+04  0.10000000000E+02 0.  1.
</event>
<event>
 5    1  0.1218060E-008  0.3838621E+03  0.7957747E-01  0.3434512E+00
         13   -1    0    0    0    0  0.00000000000E+00  0.00000000000E+00  0.14999999963E+04  0.15000000000E+04  0.10566000000E+00 0. -1.
        994   -1    0    0    0    0 -0.00000000000E+00 -0.00000000000E+00  0.11368683772E-12  0.17120000000E+03  0.17120000000E+03 0.  0.
         13    1    1    2    0    0 -0.11134962710E+02 -0.14560161999E+02  0.75275738037E+02  0.77475374236E+02  0.10566000000E+00 0. -1.
        994    1    1    2    0    0  0.37515036552E+01  0.14097904427E+02  0.28989403531E+01  0.17184489676E+03  0.17120000000E+03 0.  0.
        998    1    1    2    0    0  0.73834590545E+01  0.46225757196E+00  0.14218253179E+04  0.14218797290E+04  0.10000000000E+02 0. -1.
</event>
<event>
 5    1  0.1218060E-008  0.3785481E+03  0.7957747E-01  0.3457505E+00
         13   -1    0    0    0    0  0.00000000000E+00  0.00000000000E+00  0.14999999963E+04  0.15000000000E+04  0.10566000000E+00 0. -1.
        994   -1    0    0    0    0 -0.00000000000E+00 -0.00000000000E+00  0.11368683772E-12  0.17120000000E+03  0.17120000000E+03 0.  0.
         13    1    1    2    0    0  0.26769613624E+02  0.23004411699E+02  0.15625077518E+03  0.16018779941E+03  0.10566000000E+00 0. -1.
        994    1    1    2    0    0  0.97926718522E+01  0.91906334372E+01  0.54739507785E+01  0.17181317849E+03  0.17120000000E+03 0.  0.
        998    1    1    2    0    0 -0.36562285476E+02 -0.32195045136E+02  0.13382752703E+04  0.13391990221E+04  0.10000000000E+02 0. -1.
</event>
<event>
 5    1  0.1218060E-008  0.3796431E+03  0.7957747E-01  0.3452714E+00
         13   -1    0    0    0    0  0.00000000000E+00  0.00000000000E+00  0.14999999963E+04  0.15000000000E+04  0.10566000000E+00 0.  1.
        994   -1    0    0    0    0 -0.00000000000E+00 -0.00000000000E+00  0.11368683772E-12  0.17120000000E+03  0.17120000000E+03 0.  0.
         13    1    1    2    0    0  0.23262776747E+02 -0.13869819482E+02  0.76640265799E+02  0.81285116597E+02  0.10566000000E+00 0.  1.
        994    1    1    2    0    0 -0.25998207488E+02  0.27165641856E+02  0.90600188085E+01  0.17551467982E+03  0.17120000000E+03 0.  0.
        998    1    1    2    0    0  0.27354307414E+01 -0.13295822375E+02  0.14142997117E+04  0.14144002036E+04  0.10000000000E+02 0.  1.
</event>
<event>
 5    1  0.1218060E-008  0.3842867E+03  0.7957747E-01  0.3432703E+00
         13   -1    0    0    0    0  0.00000000000E+00  0.00000000000E+00  0.14999999963E+04  0.15000000000E+04  0.10566000000E+00 0. -1.
        994   -1    0    0    0    0 -0.00000000000E+00 -0.00000000000E+00  0.11368683772E-12  0.17120000000E+03  0.17120000000E+03 0.  0.
         13    1    1    2    0    0 -0.29591769909E+01  0.16869994827E+02  0.72277673228E+02  0.74279382504E+02  0.10566000000E+00 0. -1.
        994    1    1    2    0    0  0.27450325683E+01 -0.13802005247E+02  0.26377467496E+01  0.17179763753E+03  0.17120000000E+03 0.  0.
        998    1    1    2    0    0  0.21414442266E+00 -0.30679895801E+01  0.14250845763E+04  0.14251229800E+04  0.10000000000E+02 0. -1.
</event>
<event>
 5    1  0.1218060E-008  0.3838600E+03  0.7957747E-01  0.3434521E+00
         13   -1    0    0    0    0  0.00000000000E+00  0.00000000000E+00  0.14999999963E+04  0.15000000000E+04  0.10566000000E+00 0. -1.
        994   -1    0    0    0    0 -0.00000000000E+00 -0.00000000000E+00  0.11368683772E-12  0.17120000000E+03  0.17120000000E+03 0.  0.
         13    1    1    2    0    0  0.57974857716E+01 -0.23073694251E+02  0.14096307738E+03  0.14295665971E+03  0.10566000000E+00 0. -1.
        994    1    1    2    0    0  0.52903134825E+01  0.47084555196E+01  0.23627448915E+01  0.17136271337E+03  0.17120000000E+03 0.  0.
        998    1    1    2    0    0 -0.11087799254E+02  0.18365238731E+02  0.13566741740E+04  0.13568806269E+04  0.10000000000E+02 0. -1.
</event>
<event>
 5    1  0.1218060E-008  0.3791318E+03  0.7957747E-01  0.3454947E+00
         13   -1    0    0    0    0  0.00000000000E+00  0.00000000000E+00  0.14999999963E+04  0.15000000000E+04  0.10566000000E+00 0. -1.
        994   -1    0    0    0    0 -0.00000000000E+00 -0.00000000000E+00  0.11368683772E-12  0.17120000000E+03  0.17120000000E+03 0.  0.
         13    1    1    2    0    0  0.35747865924E+01  0.35314456333E+02  0.12163556260E+03  0.12670876520E+03  0.10566000000E+00 0. -1.
        994    1    1    2    0    0 -0.11915633037E+02 -0.41307113459E+02  0.10793448993E+02  0.17684512567E+03  0.17120000000E+03 0.  0.
        998    1    1    2    0    0  0.83408464446E+01  0.59926571269E+01  0.13675709847E+04  0.13676461091E+04  0.10000000000E+02 0. -1.
</event>
<event>
 5    1  0.1218060E-008  0.3832830E+03  0.7957747E-01  0.3436987E+00
         13   -1    0    0    0    0  0.00000000000E+00  0.00000000000E+00  0.14999999963E+04  0.15000000000E+04  0.10566000000E+00 0.  1.
        994   -1    0    0    0    0 -0.00000000000E+00 -0.00000000000E+00  0.11368683772E-12  0.17120000000E+03  0.17120000000E+03 0.  0.
         13    1    1    2    0    0 -0.10412954629E+02  0.42719108480E+01  0.24508152272E+02  0.26969233178E+02  0.10566000000E+00 0.  1.
        994    1    1    2    0    0  0.85995834500E+01 -0.35507927350E+01  0.27713369620E+01  0.17147501647E+03  0.17120000000E+03 0.  0.
        998    1    1    2    0    0  0.18133711791E+01 -0.72111811299E+00  0.14727205070E+04  0.14727557504E+04  0.10000000000E+02 0.  1.
</event>
<event>
 5    1  0.1218060E-008  0.3835865E+03  0.7957747E-01  0.3435689E+00
         13   -1    0    0    0    0  0.00000000000E+00  0.00000000000E+00  0.14999999963E+04  0.15000000000E+04  0.10566000000E+00 0.  1.
        994   -1    0    0    0    0 -0.00000000000E+00 -0.00000000000E+00  0.11368683772E-12  0.17120000000E+03  0.17120000000E+03 0.  0.
         13    1    1    2    0    0  0.10867896854E+02  0.65245416868E+01  0.33355715035E+02  0.35683269410E+02  0.10566000000E+00 0.  1.
        994    1    1    2    0    0 -0.99588355699E+01 -0.57003026610E+01  0.27686814471E+01  0.17160646099E+03  0.17120000000E+03 0.  0.
        998    1    1    2    0    0 -0.90906128436E+00 -0.82423902583E+00  0.14638755998E+04  0.14639102696E+04  0.10000000000E+02 0.  1.
</event>
<event>
 5    1  0.1254831E-008  0.3861866E+03  0.7957747E-01  0.3424655E+00
         13   -1    0    0    0    0  0.00000000000E+00  0.00000000000E+00  0.14999999963E+04  0.15000000000E+04  0.10566000000E+00 0. -1.
        994   -1    0    0    0    0 -0.00000000000E+00 -0.00000000000E+00  0.11368683772E-12  0.17120000000E+03  0.17120000000E+03 0.  0.
         13    1    1    2    0    0  0.93029496765E+01  0.51388143878E+01  0.60555485847E+02  0.61481137890E+02  0.10566000000E+00 0. -1.
        994    1    1    2    0    0  0.76737148772E+01 -0.31298982711E+01  0.12671669930E+01  0.17140515709E+03  0.17120000000E+03 0.  0.
        998    1    1    2    0    0 -0.16976664554E+02 -0.20089161167E+01  0.14381773434E+04  0.14383137050E+04  0.10000000000E+02 0. -1.
</event>
<event>
 5    1  0.1218060E-008  0.3753351E+03  0.7957747E-01  0.3471725E+00
         13   -1    0    0    0    0  0.00000000000E+00  0.00000000000E+00  0.14999999963E+04  0.15000000000E+04  0.10566000000E+00 0.  1.
        994   -1    0    0    0    0 -0.00000000000E+00 -0.00000000000E+00  0.11368683772E-12  0.17120000000E+03  0.17120000000E+03 0.  0.
         13    1    1    2    0    0  0.44715966248E+01  0.16332083100E+02  0.19068689390E+02  0.25502121359E+02  0.10566000000E+00 0.  1.
        994    1    1    2    0    0  0.15109253581E+01 -0.16573369726E+02  0.74476616138E+01  0.17216813626E+03  0.17120000000E+03 0.  0.
        998    1    1    2    0    0 -0.59825219829E+01  0.24128662581E+00  0.14734836453E+04  0.14735297424E+04  0.10000000000E+02 0.  1.
</event>
<event>
 5    1  0.1847641E-008  0.3859437E+03  0.7957747E-01  0.3425680E+00
         13   -1    0    0    0    0  0.00000000000E+00  0.00000000000E+00  0.14999999963E+04  0.15000000000E+04  0.10566000000E+00 0.  1.
        994   -1    0    0    0    0 -0.00000000000E+00 -0.00000000000E+00  0.11368683772E-12  0.17120000000E+03  0.17120000000E+03 0.  0.
         13    1    1    2    0    0  0.11968405987E+02 -0.58209585083E+01  0.78068089797E+02  0.79194470189E+02  0.10566000000E+00 0.  1.
        994    1    1    2    0    0 -0.78079471980E+01  0.17516162941E+00  0.13623453755E+01  0.17138346100E+03  0.17120000000E+03 0.  0.
        998    1    1    2    0    0 -0.41604587893E+01  0.56457968788E+01  0.14205695611E+04  0.14206220688E+04  0.10000000000E+02 0.  1.
</event>
<event>
 5    1  0.1218060E-008  0.3780789E+03  0.7957747E-01  0.3459566E+00
         13   -1    0    0    0    0  0.00000000000E+00  0.00000000000E+00  0.14999999963E+04  0.15000000000E+04  0.10566000000E+00 0. -1.
        994   -1    0    0    0    0 -0.00000000000E+00 -0.00000000000E+00  0.11368683772E-12  0.17120000000E+03  0.17120000000E+03 0.  0.
         13    1    1    2    0    0  0.18964248211E+02  0.26371033693E+02  0.10121903293E+03  0.10630323569E+03  0.10566000000E+00 0. -1.
        994    1    1    2    0    0  0.10857150925E+02 -0.33497116368E+02  0.92888686587E+01  0.17503044767E+03  0.17120000000E+03 0.  0.
        998    1    1    2    0    0 -0.29821399136E+02  0.71260826751E+01  0.13894920947E+04  0.13898663166E+04  0.10000000000E+02 0. -1.
</event>
<event>
 5    1  0.1218060E-008  0.3794791E+03  0.7957747E-01  0.3453430E+00
         13   -1    0    0    0    0  0.00000000000E+00  0.00000000000E+00  0.14999999963E+04  0.15000000000E+04  0.10566000000E+00 0. -1.
        994   -1    0    0    0    0 -0.00000000000E+00 -0.00000000000E+00  0.11368683772E-12  0.17120000000E+03  0.17120000000E+03 0.  0.
         13    1    1    2    0    0 -0.16258985356E+02 -0.15957384769E+02  0.54418430606E+02  0.58994656429E+02  0.10566000000E+00 0. -1.
        994    1    1    2    0    0  0.35974271355E+02  0.44884808616E+01  0.88100590459E+01  0.17521801220E+03  0.17120000000E+03 0.  0.
        998    1    1    2    0    0 -0.19715285999E+02  0.11468903908E+02  0.14367715066E+04  0.14369873314E+04  0.10000000000E+02 0. -1.
</event>
<event>
 5    1  0.1218060E-008  0.4136209E+03  0.7957747E-01  0.3316674E+00
         13   -1    0    0    0    0  0.00000000000E+00  0.00000000000E+00  0.14999999963E+04  0.15000000000E+04  0.10566000000E+00 0.  1.
        994   -1    0    0    0    0 -0.00000000000E+00 -0.00000000000E+00  0.11368683772E-12  0.17120000000E+03  0.17120000000E+03 0.  0.
         13    1    1    2    0    0  0.12170329161E+03  0.13178849093E+02  0.20829306036E+03  0.24160170407E+03  0.10566000000E+00 0.  1.
        994    1    1    2    0    0 -0.63685575702E+02 -0.51456038944E+02  0.64572162440E+02  0.20045593196E+03  0.17120000000E+03 0.  0.
        998    1    1    2    0    0 -0.58017715905E+02  0.38277189852E+02  0.12271347735E+04  0.12291423640E+04  0.10000000000E+02 0.  1.
</event>
<event>
 5    1  0.1218060E-008  0.3855786E+03  0.7957747E-01  0.3427222E+00
         13   -1    0    0    0    0  0.00000000000E+00  0.00000000000E+00  0.14999999963E+04  0.15000000000E+04  0.10566000000E+00 0.  1.
        994   -1    0    0    0    0 -0.00000000000E+00 -0.00000000000E+00  0.11368683772E-12  0.17120000000E+03  0.17120000000E+03 0.  0.
         13    1    1    2    0    0 -0.11217214077E+02 -0.74276562003E+01  0.65691096886E+02  0.67054659364E+02  0.10566000000E+00 0.  1.
        994    1    1    2    0    0  0.11984746033E+02  0.62094508211E+01  0.19414397246E+01  0.17174225050E+03  0.17120000000E+03 0.  0.
        998    1    1    2    0    0 -0.76753195601E+00  0.12182053792E+01  0.14323674597E+04  0.14324030901E+04  0.10000000000E+02 0.  0.
</event>
<event>
 5    1  0.1218060E-008  0.3848735E+03  0.7957747E-01  0.3430209E+00
         13   -1    0    0    0    0  0.00000000000E+00  0.00000000000E+00  0.14999999963E+04  0.15000000000E+04  0.10566000000E+00 0. -1.
        994   -1    0    0    0    0 -0.00000000000E+00 -0.00000000000E+00  0.11368683772E-12  0.17120000000E+03  0.17120000000E+03 0.  0.
         13    1    1    2    0    0 -0.10054198319E+02 -0.42974415070E+01  0.34095315981E+02  0.35805818567E+02  0.10566000000E+00 0. -1.
        994    1    1    2    0    0  0.12266059663E+02  0.59512650478E+01  0.23047278607E+01  0.17175746140E+03  0.17120000000E+03 0.  0.
        998    1    1    2    0    0 -0.22118613440E+01 -0.16538235408E+01  0.14635999524E+04  0.14636367200E+04  0.10000000000E+02 0. -1.
</event>
<event>
 5    1  0.1218060E-008  0.3880502E+03  0.7957747E-01  0.3416838E+00
         13   -1    0    0    0    0  0.00000000000E+00  0.00000000000E+00  0.14999999963E+04  0.15000000000E+04  0.10566000000E+00 0. -1.
        994   -1    0    0    0    0 -0.00000000000E+00 -0.00000000000E+00  0.11368683772E-12  0.17120000000E+03  0.17120000000E+03 0.  0.
         13    1    1    2    0    0  0.95202154751E+00 -0.24934604382E+02  0.61568946529E+01  0.25701349314E+02  0.10566000000E+00 0. -1.
        994    1    1    2    0    0 -0.57245986422E+01  0.12828243574E+02  0.21558881459E+02  0.17312296275E+03  0.17120000000E+03 0.  0.
        998    1    1    2    0    0  0.47725770947E+01  0.12106360808E+02  0.14722842202E+04  0.14723756879E+04  0.10000000000E+02 0. -1.
</event>
<event>
 5    1  0.1218060E-008  0.3734539E+03  0.7957747E-01  0.3480166E+00
         13   -1    0    0    0    0  0.00000000000E+00  0.00000000000E+00  0.14999999963E+04  0.15000000000E+04  0.10566000000E+00 0. -1.
        994   -1    0    0    0    0 -0.00000000000E+00 -0.00000000000E+00  0.11368683772E-12  0.17120000000E+03  0.17120000000E+03 0.  0.
         13    1    1    2    0    0  0.39808145258E+02 -0.10611063312E+02  0.62266043569E+02  0.74661599496E+02  0.10566000000E+00 0. -1.
        994    1    1    2    0    0 -0.21419540571E+02  0.15919210156E+02  0.15301373781E+02  0.17394191562E+03  0.17120000000E+03 0.  0.
        998    1    1    2    0    0 -0.18388604687E+02 -0.53081468445E+01  0.14224325789E+04  0.14225964849E+04  0.10000000000E+02 0. -1.
</event>
<event>
 5    1  0.1218060E-008  0.3762228E+03  0.7957747E-01  0.3467772E+00
         13   -1    0    0    0    0  0.00000000000E+00  0.00000000000E+00  0.14999999963E+04  0.15000000000E+04  0.10566000000E+00 0. -1.
        994   -1    0    0    0    0 -0.00000000000E+00 -0.00000000000E+00  0.11368683772E-12  0.17120000000E+03  0.17120000000E+03 0.  0.
         13    1    1    2    0    0  0.28590163303E+02  0.79579666617E+01  0.65373252219E+02  0.71794149767E+02  0.10566000000E+00 0. -1.
        994    1    1    2    0    0 -0.38551160311E+02 -0.91223941213E+01  0.11383473502E+02  0.17609211653E+03  0.17120000000E+03 0.  0.
        998    1    1    2    0    0  0.99609970084E+01  0.11644274596E+01  0.14232432706E+04  0.14233137337E+04  0.10000000000E+02 0. -1.
</event>
<event>
 5    1  0.1218060E-008  0.3704741E+03  0.7957747E-01  0.3493715E+00
         13   -1    0    0    0    0  0.00000000000E+00  0.00000000000E+00  0.14999999963E+04  0.15000000000E+04  0.10566000000E+00 0.  1.
        994   -1    0    0    0    0 -0.00000000000E+00 -0.00000000000E+00  0.11368683772E-12  0.17120000000E+03  0.17120000000E+03 0.  0.
         13    1    1    2    0    0  0.22369469256E+02  0.71214196482E+02  0.24360922317E+03  0.25478877470E+03  0.10566000000E+00 0.  1.
        994    1    1    2    0    0 -0.77217750740E+01 -0.45152279127E+02  0.18574028441E+02  0.17819312179E+03  0.17120000000E+03 0.  0.
        998    1    1    2    0    0 -0.14647694182E+02 -0.26061917355E+02  0.12378167447E+04  0.12382181035E+04  0.10000000000E+02 0. -1.
</event>
<event>
 5    1  0.1218060E-008  0.4131361E+03  0.7957747E-01  0.3318458E+00
         13   -1    0    0    0    0  0.00000000000E+00  0.00000000000E+00  0.14999999963E+04  0.15000000000E+04  0.10566000000E+00 0. -1.
        994   -1    0    0    0    0 -0.00000000000E+00 -0.00000000000E+00  0.11368683772E-12  0.17120000000E+03  0.17120000000E+03 0.  0.
         13    1    1    2    0    0  0.54648650429E+02  0.11341835482E+03  0.18780281676E+03  0.22609756158E+03  0.10566000000E+00 0. -1.
        994    1    1    2    0    0  0.69278847725E+00 -0.12963842822E+03  0.10962963703E+03  0.24111138369E+03  0.17120000000E+03 0.  0.
        998    1    1    2    0    0 -0.55341438906E+02  0.16220073395E+02  0.12025675425E+04  0.12039910547E+04  0.10000000000E+02 0.  1.
</event>
<event>
 5    1  0.1218060E-008  0.3851400E+03  0.7957747E-01  0.3429079E+00
         13   -1    0    0    0    0  0.00000000000E+00  0.00000000000E+00  0.14999999963E+04  0.15000000000E+04  0.10566000000E+00 0. -1.
        994   -1    0    0    0    0 -0.00000000000E+00 -0.00000000000E+00  0.11368683772E-12  0.17120000000E+03  0.17120000000E+03 0.  0.
         13    1    1    2    0    0 -0.94604117071E+01 -0.10070890939E+02  0.61988258170E+02  0.63509665005E+02  0.10566000000E+00 0. -1.
        994    1    1    2    0    0  0.36713751410E+01  0.65041866907E+01  0.17440260277E+01  0.17137171606E+03  0.17120000000E+03 0.  0.
        998    1    1    2    0    0  0.57890365661E+01  0.35667042484E+01  0.14362677121E+04  0.14363186189E+04  0.10000000000E+02 0. -1.
</event>
<event>
 5    1  0.1218060E-008  0.3776499E+03  0.7957747E-01  0.3461456E+00
         13   -1    0    0    0    0  0.00000000000E+00  0.00000000000E+00  0.14999999963E+04  0.15000000000E+04  0.10566000000E+00 0. -1.
        994   -1    0    0    0    0 -0.00000000000E+00 -0.00000000000E+00  0.11368683772E-12  0.17120000000E+03  0.17120000000E+03 0.  0.
         13    1    1    2    0    0 -0.15006955993E+03  0.18226859947E+03  0.10431950779E+04  0.10695787474E+04  0.10566000000E+00 0. -1.
        994    1    1    2    0    0  0.16880866107E+03 -0.16633505952E+03  0.22660725686E+03  0.36989728971E+03  0.17120000000E+03 0.  0.
        998    1    1    2    0    0 -0.18739101133E+02 -0.15933539956E+02  0.23019766156E+03  0.23172396292E+03  0.10000000000E+02 0. -1.
</event>
<event>
 5    1  0.1218060E-008  0.3726708E+03  0.7957747E-01  0.3483706E+00
         13   -1    0    0    0    0  0.00000000000E+00  0.00000000000E+00  0.14999999963E+04  0.15000000000E+04  0.10566000000E+00 0.  1.
        994   -1    0    0    0    0 -0.00000000000E+00 -0.00000000000E+00  0.11368683772E-12  0.17120000000E+03  0.17120000000E+03 0.  0.
         13    1    1    2    0    0  0.43552535129E+02  0.44525410057E+02  0.21113877879E+03  0.22013389228E+03  0.10566000000E+00 0.  1.
        994    1    1    2    0    0 -0.38807210496E+02 -0.48022864181E+02  0.21055726177E+02  0.18320747440E+03  0.17120000000E+03 0.  0.
        998    1    1    2    0    0 -0.47453246332E+01  0.34974541239E+01  0.12678054913E+04  0.12678586333E+04  0.10000000000E+02 0.  1.
</event>
<event>
 5    1  0.1218060E-008  0.3847274E+03  0.7957747E-01  0.3430829E+00
         13   -1    0    0    0    0  0.00000000000E+00  0.00000000000E+00  0.14999999963E+04  0.15000000000E+04  0.10566000000E+00 0. -1.
        994   -1    0    0    0    0 -0.00000000000E+00 -0.00000000000E+00  0.11368683772E-12  0.17120000000E+03  0.17120000000E+03 0.  0.
         13    1    1    2    0    0  0.10294743303E+02  0.26290961680E+01  0.29873379337E+02  0.31706842217E+02  0.10566000000E+00 0. -1.
        994    1    1    2    0    0 -0.21997560420E+02  0.17639058558E+01  0.33701723475E+01  0.17264936168E+03  0.17120000000E+03 0.  0.
        998    1    1    2    0    0  0.11702817117E+02 -0.43930020239E+01  0.14667564446E+04  0.14668437961E+04  0.10000000000E+02 0. -1.
</event>
<event>
 5    1  0.1218060E-008  0.3821260E+03  0.7957747E-01  0.3441953E+00
         13   -1    0    0    0    0  0.00000000000E+00  0.00000000000E+00  0.14999999963E+04  0.15000000000E+04  0.10566000000E+00 0.  1.
        994   -1    0    0    0    0 -0.00000000000E+00 -0.00000000000E+00  0.11368683772E-12  0.17120000000E+03  0.17120000000E+03 0.  0.
         13    1    1    2    0    0 -0.84096321846E+01  0.13871673921E+02  0.43445900996E+02  0.46375669572E+02  0.10566000000E+00 0.  1.
        994    1    1    2    0    0 -0.10170233169E+02 -0.81568505674E+01  0.36282214954E+01  0.17173401482E+03  0.17120000000E+03 0.  0.
        998    1    1    2    0    0  0.18579865354E+02 -0.57148233538E+01  0.14529258738E+04  0.14530903156E+04  0.10000000000E+02 0.  1.
</event>
<event>
 5    1  0.1218060E-008  0.3692253E+03  0.7957747E-01  0.3499459E+00
         13   -1    0    0    0    0  0.00000000000E+00  0.00000000000E+00  0.14999999963E+04  0.15000000000E+04  0.10566000000E+00 0.  1.
        994   -1    0    0    0    0 -0.00000000000E+00 -0.00000000000E+00  0.11368683772E-12  0.17120000000E+03  0.17120000000E+03 0.  0.
         13    1    1    2    0    0 -0.38507526913E+02 -0.49431574728E+02  0.19085317109E+03  0.20087621633E+03  0.10566000000E+00 0.  1.
        994    1    1    2    0    0  0.27042680057E+02  0.37591620844E+02  0.17146164707E+02  0.17817931268E+03  0.17120000000E+03 0.  0.
        998    1    1    2    0    0  0.11464846856E+02  0.11839953884E+02  0.12920006605E+04  0.12921444710E+04  0.10000000000E+02 0.  1.
</event>
<event>
 5    1  0.1218060E-008  0.3860902E+03  0.7957747E-01  0.3425062E+00
         13   -1    0    0    0    0  0.00000000000E+00  0.00000000000E+00  0.14999999963E+04  0.15000000000E+04  0.10566000000E+00 0. -1.
        994   -1    0    0    0    0 -0.00000000000E+00 -0.00000000000E+00  0.11368683772E-12  0.17120000000E+03  0.17120000000E+03 0.  0.
         13    1    1    2    0    0 -0.72945613641E+01  0.10471231354E+02  0.75070695678E+02  0.76147736836E+02  0.10566000000E+00 0. -1.
        994    1    1    2    0    0  0.11359135481E+02 -0.36719038031E+01  0.15569828098E+01  0.17162277539E+03  0.17120000000E+03 0.  0.
        998    1    1    2    0    0 -0.40645741170E+01 -0.67993275514E+01  0.14233723178E+04  0.14234294878E+04  0.10000000000E+02 0. -1.
</event>
<event>
 5    1  0.1218060E-008  0.3842630E+03  0.7957747E-01  0.3432804E+00
         13   -1    0    0    0    0  0.00000000000E+00  0.00000000000E+00  0.14999999963E+04  0.15000000000E+04  0.10566000000E+00 0.  1.
        994   -1    0    0    0    0 -0.00000000000E+00 -0.00000000000E+00  0.11368683772E-12  0.17120000000E+03  0.17120000000E+03 0.  0.
         13    1    1    2    0    0  0.18087879900E+02 -0.58998224173E+01  0.85447278995E+02  0.87539864950E+02  0.10566000000E+00 0.  1.
        994    1    1    2    0    0 -0.19943003733E+02  0.54410530605E+01  0.34064731118E+01  0.17247716520E+03  0.17120000000E+03 0.  0.
        998    1    1    2    0    0  0.18551238330E+01  0.45876935675E+00  0.14111462442E+04  0.14111829699E+04  0.10000000000E+02 0.  1.
</event>
<event>
 5    1  0.1218060E-008  0.3828714E+03  0.7957747E-01  0.3438750E+00
         13   -1    0    0    0    0  0.00000000000E+00  0.00000000000E+00  0.14999999963E+04  0.15000000000E+04  0.10566000000E+00 0.  1.
        994   -1    0    0    0    0 -0.00000000000E+00 -0.00000000000E+00  0.11368683772E-12  0.17120000000E+03  0.17120000000E+03 0.  0.
         13    1    1    2    0    0 -0.10374878651E+02 -0.11602601818E+02  0.43330253826E+02  0.46041074451E+02  0.10566000000E+00 0.  1.
        994    1    1    2    0    0  0.14294242401E+02  0.72887265898E+01  0.35436822985E+01  0.17198676863E+03  0.17120000000E+03 0.  0.
        998    1    1    2    0    0 -0.39193637507E+01  0.43138752281E+01  0.14531260602E+04  0.14531721569E+04  0.10000000000E+02 0.  1.
</event>
<event>
 5    1  0.1218060E-008  0.3850284E+03  0.7957747E-01  0.3429552E+00
         13   -1    0    0    0    0  0.00000000000E+00  0.00000000000E+00  0.14999999963E+04  0.15000000000E+04  0.10566000000E+00 0. -1.
        994   -1    0    0    0    0 -0.00000000000E+00 -0.00000000000E+00  0.11368683772E-12  0.17120000000E+03  0.17120000000E+03 0.  0.
         13    1    1    2    0    0  0.67198443334E+01  0.10467185533E+02  0.46151719032E+02  0.47798646576E+02  0.10566000000E+00 0. -1.
        994    1    1    2    0    0 -0.66798449088E+01 -0.13455807883E+02  0.23584760523E+01  0.17187402801E+03  0.17120000000E+03 0.  0.
        998    1    1    2    0    0 -0.39999424636E-01  0.29886223498E+01  0.14514898012E+04  0.14515273254E+04  0.10000000000E+02 0. -1.
</event>
<event>
 5    1  0.1218060E-008  0.3733686E+03  0.7957747E-01  0.3480551E+00
         13   -1    0    0    0    0  0.00000000000E+00  0.00000000000E+00  0.14999999963E+04  0.15000000000E+04  0.10566000000E+00 0.  1.
        994   -1    0    0    0    0 -0.00000000000E+00 -0.00000000000E+00  0.11368683772E-12  0.17120000000E+03  0.17120000000E+03 0.  0.
         13    1    1    2    0    0 -0.21782930175E+02 -0.49637442062E+02  0.17666378099E+03  0.18479305825E+03  0.10566000000E+00 0.  1.
        994    1    1    2    0    0  0.98120019425E+01  0.48694746599E+02  0.16000020255E+02  0.17897735716E+03  0.17120000000E+03 0.  0.
        998    1    1    2    0    0  0.11970928232E+02  0.94269546329E+00  0.13073361950E+04  0.13074295846E+04  0.10000000000E+02 0.  1.
</event>
<event>
 5    1  0.1218060E-008  0.3736774E+03  0.7957747E-01  0.3479159E+00
         13   -1    0    0    0    0  0.00000000000E+00  0.00000000000E+00  0.14999999963E+04  0.15000000000E+04  0.10566000000E+00 0.  1.
        994   -1    0    0    0    0 -0.00000000000E+00 -0.00000000000E+00  0.11368683772E-12  0.17120000000E+03  0.17120000000E+03 0.  0.
         13    1    1    2    0    0  0.52126184554E+02 -0.45026919533E+02  0.34582667131E+03  0.35261971067E+03  0.10566000000E+00 0.  1.
        994    1    1    2    0    0 -0.15794237033E+02  0.27330065072E+02  0.10769169875E+02  0.17441847781E+03  0.17120000000E+03 0.  0.
        998    1    1    2    0    0 -0.36331947520E+02  0.17696854462E+02  0.11434041551E+04  0.11441618115E+04  0.10000000000E+02 0.  1.
</event>
<event>
 5    1  0.1218060E-008  0.3837180E+03  0.7957747E-01  0.3435128E+00
         13   -1    0    0    0    0  0.00000000000E+00  0.00000000000E+00  0.14999999963E+04  0.15000000000E+04  0.10566000000E+00 0.  1.
        994   -1    0    0    0    0 -0.00000000000E+00 -0.00000000000E+00  0.11368683772E-12  0.17120000000E+03  0.17120000000E+03 0.  0.
         13    1    1    2    0    0  0.24848998029E+02 -0.79351823511E+01  0.13894555130E+03  0.14137297200E+03  0.10566000000E+00 0.  1.
        994    1    1    2    0    0 -0.23827926056E+02  0.75739978473E+01  0.43351179675E+01  0.17307041559E+03  0.17120000000E+03 0.  0.
        998    1    1    2    0    0 -0.10210719737E+01  0.36118450382E+00  0.13567193270E+04  0.13567566124E+04  0.10000000000E+02 0.  0.
</event>
<event>
 5    1  0.1218060E-008  0.3794196E+03  0.7957747E-01  0.3453690E+00
         13   -1    0    0    0    0  0.00000000000E+00  0.00000000000E+00  0.14999999963E+04  0.15000000000E+04  0.10566000000E+00 0. -1.
        994   -1    0    0    0    0 -0.00000000000E+00 -0.00000000000E+00  0.11368683772E-12  0.17120000000E+03  0.17120000000E+03 0.  0.
         13    1    1    2    0    0 -0.11316161403E+02 -0.63674664286E+01  0.17168962050E+02  0.21526368935E+02  0.10566000000E+00 0. -1.
        994    1    1    2    0    0  0.32904789414E+01  0.12316655114E+02  0.49709696098E+01  0.17174596876E+03  0.17120000000E+03 0.  0.
        998    1    1    2    0    0  0.80256824612E+01 -0.59491886856E+01  0.14778600646E+04  0.14779276623E+04  0.10000000000E+02 0. -1.
</event>
<event>
 5    1  0.1218060E-008  0.3906731E+03  0.7957747E-01  0.3405962E+00
         13   -1    0    0    0    0  0.00000000000E+00  0.00000000000E+00  0.14999999963E+04  0.15000000000E+04  0.10566000000E+00 0. -1.
        994   -1    0    0    0    0 -0.00000000000E+00 -0.00000000000E+00  0.11368683772E-12  0.17120000000E+03  0.17120000000E+03 0.  0.
         13    1    1    2    0    0  0.26286489325E+02  0.17740865985E+02  0.12350699920E+02  0.34033348343E+02  0.10566000000E+00 0. -1.
        994    1    1    2    0    0 -0.46329267833E+02 -0.19729674558E+02  0.31944994801E+02  0.18128867535E+03  0.17120000000E+03 0.  0.
        998    1    1    2    0    0  0.20042778509E+02  0.19888085724E+01  0.14557043016E+04  0.14558779763E+04  0.10000000000E+02 0. -1.
</event>
<event>
 5    1  0.1218060E-008  0.3853192E+03  0.7957747E-01  0.3428320E+00
         13   -1    0    0    0    0  0.00000000000E+00  0.00000000000E+00  0.14999999963E+04  0.15000000000E+04  0.10566000000E+00 0. -1.
        994   -1    0    0    0    0 -0.00000000000E+00 -0.00000000000E+00  0.11368683772E-12  0.17120000000E+03  0.17120000000E+03 0.  0.
         13    1    1    2    0    0 -0.16468514332E+02  0.80979762461E+01  0.10790131353E+03  0.10945087395E+03  0.10566000000E+00 0. -1.
        994    1    1    2    0    0  0.18600763187E+02 -0.50425172678E+01  0.26929097171E+01  0.17230237124E+03  0.17120000000E+03 0.  0.
        998    1    1    2    0    0 -0.21322488556E+01 -0.30554589783E+01  0.13894057730E+04  0.13894467548E+04  0.10000000000E+02 0. -1.
</event>
<event>
 5    1  0.1218060E-008  0.3811407E+03  0.7957747E-01  0.3446207E+00
         13   -1    0    0    0    0  0.00000000000E+00  0.00000000000E+00  0.14999999963E+04  0.15000000000E+04  0.10566000000E+00 0. -1.
        994   -1    0    0    0    0 -0.00000000000E+00 -0.00000000000E+00  0.11368683772E-12  0.17120000000E+03  0.17120000000E+03 0.  0.
         13    1    1    2    0    0  0.17604858067E+02  0.45933077822E+02  0.25285564668E+03  0.25759613329E+03  0.10566000000E+00 0. -1.
        994    1    1    2    0    0 -0.21495297848E+02 -0.58286538813E+02  0.16520035796E+02  0.18287077410E+03  0.17120000000E+03 0.  0.
        998    1    1    2    0    0  0.38904397812E+01  0.12353460991E+02  0.12306243138E+04  0.12307330926E+04  0.10000000000E+02 0. -1.
</event>
<event>
 5    1  0.1218060E-008  0.3734685E+03  0.7957747E-01  0.3480100E+00
         13   -1    0    0    0    0  0.00000000000E+00  0.00000000000E+00  0.14999999963E+04  0.15000000000E+04  0.10566000000E+00 0.  1.
        994   -1    0    0    0    0 -0.00000000000E+00 -0.00000000000E+00  0.11368683772E-12  0.17120000000E+03  0.17120000000E+03 0.  0.
         13    1    1    2    0    0  0.25931427387E+02  0.40960148637E+02  0.14116882706E+03  0.14926091785E+03  0.10566000000E+00 0.  1.
        994    1    1    2    0    0 -0.29442891939E+02 -0.38671940172E+02  0.15582594996E+02  0.17864674671E+03  0.17120000000E+03 0.  0.
        998    1    1    2    0    0  0.35114645519E+01 -0.22882084648E+01  0.13432485742E+04  0.13432923354E+04  0.10000000000E+02 0.  1.
</event>
<event>
 5    1  0.1218060E-008  0.3760834E+03  0.7957747E-01  0.3468392E+00
         13   -1    0    0    0    0  0.00000000000E+00  0.00000000000E+00  0.14999999963E+04  0.15000000000E+04  0.10566000000E+00 0. -1.
        994   -1    0    0    0    0 -0.00000000000E+00 -0.00000000000E+00  0.11368683772E-12  0.17120000000E+03  0.17120000000E+03 0.  0.
         13    1    1    2    0    0  0.45564443812E+02  0.53543281249E+02  0.32860079998E+03  0.33603794193E+03  0.10566000000E+00 0. -1.
        994    1    1    2    0    0 -0.57871663252E+02 -0.36929750420E+02  0.22256040477E+02  0.18578941631E+03  0.17120000000E+03 0.  0.
        998    1    1    2    0    0  0.12307219440E+02 -0.16613530830E+02  0.11491431558E+04  0.11493726418E+04  0.10000000000E+02 0. -1.
</event>
<event>
 5    1  0.1218060E-008  0.3686750E+03  0.7957747E-01  0.3502002E+00
         13   -1    0    0    0    0  0.00000000000E+00  0.00000000000E+00  0.14999999963E+04  0.15000000000E+04  0.10566000000E+00 0. -1.
        994   -1    0    0    0    0 -0.00000000000E+00 -0.00000000000E+00  0.11368683772E-12  0.17120000000E+03  0.17120000000E+03 0.  0.
         13    1    1    2    0    0 -0.38096980071E+02 -0.16222626111E+02  0.83146208619E+02  0.92886256574E+02  0.10566000000E+00 0. -1.
        994    1    1    2    0    0  0.24070909399E+02  0.51286528580E+01  0.12070074038E+02  0.17338061728E+03  0.17120000000E+03 0.  0.
        998    1    1    2    0    0  0.14026070673E+02  0.11093973253E+02  0.14047837136E+04  0.14049331262E+04  0.10000000000E+02 0. -1.
</event>
<event>
 5    1  0.1218060E-008  0.3852763E+03  0.7957747E-01  0.3428501E+00
         13   -1    0    0    0    0  0.00000000000E+00  0.00000000000E+00  0.14999999963E+04  0.15000000000E+04  0.10566000000E+00 0. -1.
        994   -1    0    0    0    0 -0.00000000000E+00 -0.00000000000E+00  0.11368683772E-12  0.17120000000E+03  0.17120000000E+03 0.  0.
         13    1    1    2    0    0 -0.10007459283E+02  0.10618584908E+02  0.67628263322E+02  0.69184512362E+02  0.10566000000E+00 0. -1.
        994    1    1    2    0    0  0.22321227248E+02 -0.39737686078E+01  0.31837913358E+01  0.17272407056E+03  0.17120000000E+03 0.  0.
        998    1    1    2    0    0 -0.12313767965E+02 -0.66448163006E+01  0.14291879416E+04  0.14292914171E+04  0.10000000000E+02 0. -1.
</event>
<event>
 5    1  0.1218060E-008  0.3822863E+03  0.7957747E-01  0.3441264E+00
         13   -1    0    0    0    0  0.00000000000E+00  0.00000000000E+00  0.14999999963E+04  0.15000000000E+04  0.10566000000E+00 0. -1.
        994   -1    0    0    0    0 -0.00000000000E+00 -0.00000000000E+00  0.11368683772E-12  0.17120000000E+03  0.17120000000E+03 0.  0.
         13    1    1    2    0    0 -0.10061471507E+02 -0.53019178449E+01  0.20524270888E+02  0.23464875905E+02  0.10566000000E+00 0. -1.
        994    1    1    2    0    0  0.67988966633E+01  0.40041780479E+01  0.31900652491E+01  0.17141142014E+03  0.17120000000E+03 0.  0.
        998    1    1    2    0    0  0.32625748438E+01  0.12977397970E+01  0.14762856601E+04  0.14763237040E+04  0.10000000000E+02 0. -1.
</event>
<event>
 5    1  0.1218060E-008  0.3856668E+03  0.7957747E-01  0.3426849E+00
         13   -1    0    0    0    0  0.00000000000E+00  0.00000000000E+00  0.14999999963E+04  0.15000000000E+04  0.10566000000E+00 0.  1.
        994   -1    0    0    0    0 -0.00000000000E+00 -0.00000000000E+00  0.11368683772E-12  0.17120000000E+03  0.17120000000E+03 0.  0.
         13    1    1    2    0    0 -0.13217653199E+02 -0.46201484930E+00  0.79931003592E+02  0.81017876503E+02  0.10566000000E+00 0.  1.
        994    1    1    2    0    0 -0.11464279180E+02 -0.43982633260E+01  0.17943548061E+01  0.17164915999E+03  0.17120000000E+03 0.  0.
        998    1    1    2    0    0  0.24681932379E+02  0.48602781753E+01  0.14182746379E+04  0.14185329635E+04  0.10000000000E+02 0.  1.
</event>
<event>
 5    1  0.1218060E-008  0.3744243E+03  0.7957747E-01  0.3475802E+00
         13   -1    0    0    0    0  0.00000000000E+00  0.00000000000E+00  0.14999999963E+04  0.15000000000E+04  0.10566000000E+00 0. -1.
        994   -1    0    0    0    0 -0.00000000000E+00 -0.00000000000E+00  0.11368683772E-12  0.17120000000E+03  0.17120000000E+03 0.  0.
         13    1    1    2    0    0 -0.37659872719E+02  0.31530679512E+02  0.16805525908E+03  0.17508578192E+03  0.10566000000E+00 0. -1.
        994    1    1    2    0    0  0.22110551582E+02 -0.22945243396E+02  0.10440591623E+02  0.17445287799E+03  0.17120000000E+03 0.  0.
        998    1    1    2    0    0  0.15549321137E+02 -0.85854361160E+01  0.13215041456E+04  0.13216613401E+04  0.10000000000E+02 0. -1.
</event>
<event>
 5    1  0.1218060E-008  0.3845880E+03  0.7957747E-01  0.3431421E+00
         13   -1    0    0    0    0  0.00000000000E+00  0.00000000000E+00  0.14999999963E+04  0.15000000000E+04  0.10566000000E+00 0. -1.
        994   -1    0    0    0    0 -0.00000000000E+00 -0.00000000000E+00  0.11368683772E-12  0.17120000000E+03  0.17120000000E+03 0.  0.
         13    1    1    2    0    0 -0.17915893893E+02  0.64613308164E+01  0.99457465673E+02  0.10126463693E+03  0.10566000000E+00 0. -1.
        994    1    1    2    0    0  0.99100557405E+01 -0.50116601924E+01  0.22410328760E+01  0.17157443915E+03  0.17120000000E+03 0.  0.
        998    1    1    2    0    0  0.80058381526E+01 -0.14496706240E+01  0.13983014977E+04  0.13983609239E+04  0.10000000000E+02 0. -1.
</event>
<event>
 5    1  0.1218060E-008  0.3813028E+03  0.7957747E-01  0.3445505E+00
         13   -1    0    0    0    0  0.00000000000E+00  0.00000000000E+00  0.14999999963E+04  0.15000000000E+04  0.10566000000E+00 0. -1.
        994   -1    0    0    0    0 -0.00000000000E+00 -0.00000000000E+00  0.11368683772E-12  0.17120000000E+03  0.17120000000E+03 0.  0.
         13    1    1    2    0    0 -0.20924379009E+02  0.78186800498E+01  0.67409741231E+02  0.71014405380E+02  0.10566000000E+00 0. -1.
        994    1    1    2    0    0  0.22190839200E+02 -0.96257049851E+01  0.54268872158E+01  0.17298548681E+03  0.17120000000E+03 0.  0.
        998    1    1    2    0    0 -0.12664601903E+01  0.18070249353E+01  0.14271633678E+04  0.14272001078E+04  0.10000000000E+02 0. -1.
</event>
<event>
 5    1  0.1218060E-008  0.3816558E+03  0.7957747E-01  0.3443980E+00
         13   -1    0    0    0    0  0.00000000000E+00  0.00000000000E+00  0.14999999963E+04  0.15000000000E+04  0.10566000000E+00 0. -1.
        994   -1    0    0    0    0 -0.00000000000E+00 -0.00000000000E+00  0.11368683772E-12  0.17120000000E+03  0.17120000000E+03 0.  0.
         13    1    1    2    0    0 -0.24651773344E+02  0.14875645530E+02  0.12520272058E+03  0.12847072493E+03  0.10566000000E+00 0. -1.
        994    1    1    2    0    0  0.22557117051E+02  0.49609797279E+01  0.50751717789E+01  0.17282543857E+03  0.17120000000E+03 0.  0.
        998    1    1    2    0    0  0.20946562921E+01 -0.19836625258E+02  0.13697221039E+04  0.13699038365E+04  0.10000000000E+02 0. -1.
</event>
<event>
 5    1  0.1218060E-008  0.3820751E+03  0.7957747E-01  0.3442173E+00
         13   -1    0    0    0    0  0.00000000000E+00  0.00000000000E+00  0.14999999963E+04  0.15000000000E+04  0.10566000000E+00 0.  1.
        994   -1    0    0    0    0 -0.00000000000E+00 -0.00000000000E+00  0.11368683772E-12  0.17120000000E+03  0.17120000000E+03 0.  0.
         13    1    1    2    0    0 -0.10680192414E+02  0.87253867729E+01  0.28917166434E+02  0.32037674119E+02  0.10566000000E+00 0.  1.
        994    1    1    2    0    0  0.13618424877E+02 -0.99136432667E+01  0.40319419292E+01  0.17207393287E+03  0.17120000000E+03 0.  0.
        998    1    1    2    0    0 -0.29382324631E+01  0.11882564937E+01  0.14670508879E+04  0.14670883930E+04  0.10000000000E+02 0.  1.
</event>
<event>
 5    1  0.1218060E-008  0.3696069E+03  0.7957747E-01  0.3497699E+00
         13   -1    0    0    0    0  0.00000000000E+00  0.00000000000E+00  0.14999999963E+04  0.15000000000E+04  0.10566000000E+00 0. -1.
        994   -1    0    0    0    0 -0.00000000000E+00 -0.00000000000E+00  0.11368683772E-12  0.17120000000E+03  0.17120000000E+03 0.  0.
         13    1    1    2    0    0 -0.40843481378E+02  0.14322217368E+02  0.89954429000E+02  0.99825479424E+02  0.10566000000E+00 0. -1.
        994    1    1    2    0    0  0.43976536010E+02 -0.80147562225E+01  0.16425008498E+02  0.17770028965E+03  0.17120000000E+03 0.  0.
        998    1    1    2    0    0 -0.31330546316E+01 -0.63074611459E+01  0.13936205588E+04  0.13936742309E+04  0.10000000000E+02 0. -1.
</event>
<event>
 5    1  0.1218060E-008  0.3806563E+03  0.7957747E-01  0.3448306E+00
         13   -1    0    0    0    0  0.00000000000E+00  0.00000000000E+00  0.14999999963E+04  0.15000000000E+04  0.10566000000E+00 0. -1.
        994   -1    0    0    0    0 -0.00000000000E+00 -0.00000000000E+00  0.11368683772E-12  0.17120000000E+03  0.17120000000E+03 0.  0.
         13    1    1    2    0    0  0.12097830162E+02 -0.34377380525E+02  0.17992327137E+03  0.18357711331E+03  0.10566000000E+00 0. -1.
        994    1    1    2    0    0 -0.49018721126E+01  0.15363286465E+02  0.46701886939E+01  0.17202124748E+03  0.17120000000E+03 0.  0.
        998    1    1    2    0    0 -0.71959580492E+01  0.19014094060E+02  0.13154065362E+04  0.13156016392E+04  0.10000000000E+02 0. -1.
</event>
<event>
 5    1  0.1218060E-008  0.3844120E+03  0.7957747E-01  0.3432170E+00
         13   -1    0    0    0    0  0.00000000000E+00  0.00000000000E+00  0.14999999963E+04  0.15000000000E+04  0.10566000000E+00 0.  1.
        994   -1    0    0    0    0 -0.00000000000E+00 -0.00000000000E+00  0.11368683772E-12  0.17120000000E+03  0.17120000000E+03 0.  0.
         13    1    1    2    0    0 -0.12181612849E+02 -0.25746284786E+01  0.39336229048E+02  0.41259792573E+02  0.10566000000E+00 0.  1.
        994    1    1    2    0    0  0.11292397737E+02  0.33102381252E+01  0.23787396752E+01  0.17162043679E+03  0.17120000000E+03 0.  0.
        998    1    1    2    0    0  0.88921511233E+00 -0.73560964659E+00  0.14582850276E+04  0.14583197706E+04  0.10000000000E+02 0.  0.
</event>
<event>
 5    1  0.1218060E-008  0.3794731E+03  0.7957747E-01  0.3453456E+00
         13   -1    0    0    0    0  0.00000000000E+00  0.00000000000E+00  0.14999999963E+04  0.15000000000E+04  0.10566000000E+00 0.  1.
        994   -1    0    0    0    0 -0.00000000000E+00 -0.00000000000E+00  0.11368683772E-12  0.17120000000E+03  0.17120000000E+03 0.  0.
         13    1    1    2    0    0 -0.27529595918E+02  0.13113512877E+02  0.10834660929E+03  0.11255594956E+03  0.10566000000E+00 0.  1.
        994    1    1    2    0    0  0.96763861539E+01 -0.50517293448E+01  0.47984596403E+01  0.17161473606E+03  0.17120000000E+03 0.  0.
        998    1    1    2    0    0  0.17853209764E+02 -0.80617835319E+01  0.13868549273E+04  0.13870293144E+04  0.10000000000E+02 0.  1.
</event>
<event>
 5    1  0.1337896E-008  0.3860147E+03  0.7957747E-01  0.3425380E+00
         13   -1    0    0    0    0  0.00000000000E+00  0.00000000000E+00  0.14999999963E+04  0.15000000000E+04  0.10566000000E+00 0.  1.
        994   -1    0    0    0    0 -0.00000000000E+00 -0.00000000000E+00  0.11368683772E-12  0.17120000000E+03  0.17120000000E+03 0.  0.
         13    1    1    2    0    0  0.10349457607E+02  0.48891285415E+01  0.51055514511E+02  0.52322954587E+02  0.10566000000E+00 0.  1.
        994    1    1    2    0    0 -0.24843672550E+02 -0.16066820313E+02  0.40017489250E+01  0.17378378743E+03  0.17120000000E+03 0.  0.
        998    1    1    2    0    0  0.14494214943E+02  0.11177691771E+02  0.14449427328E+04  0.14450932580E+04  0.10000000000E+02 0.  1.
</event>
<event>
 5    1  0.1218060E-008  0.3744817E+03  0.7957747E-01  0.3475544E+00
         13   -1    0    0    0    0  0.00000000000E+00  0.00000000000E+00  0.14999999963E+04  0.15000000000E+04  0.10566000000E+00 0. -1.
        994   -1    0    0    0    0 -0.00000000000E+00 -0.00000000000E+00  0.11368683772E-12  0.17120000000E+03  0.17120000000E+03 0.  0.
         13    1    1    2    0    0  0.13669210549E+02 -0.24929129235E+02  0.56451863857E+02  0.63207063675E+02  0.10566000000E+00 0. -1.
        994    1    1    2    0    0 -0.30916389746E+02 -0.16033905883E+01  0.10215561784E+02  0.17427619378E+03  0.17120000000E+03 0.  0.
        998    1    1    2    0    0  0.17247179197E+02  0.26532519823E+02  0.14333325706E+04  0.14337167425E+04  0.10000000000E+02 0. -1.
</event>
<event>
 5    1  0.1218060E-008  0.3844457E+03  0.7957747E-01  0.3432027E+00
         13   -1    0    0    0    0  0.00000000000E+00  0.00000000000E+00  0.14999999963E+04  0.15000000000E+04  0.10566000000E+00 0.  1.
        994   -1    0    0    0    0 -0.00000000000E+00 -0.00000000000E+00  0.11368683772E-12  0.17120000000E+03  0.17120000000E+03 0.  0.
         13    1    1    2    0    0 -0.10403305737E+02  0.12667447005E+02  0.71306680348E+02  0.73166568939E+02  0.10566000000E+00 0.  1.
        994    1    1    2    0    0  0.53114019631E+01 -0.63346155356E+01  0.21307910742E+01  0.17141271428E+03  0.17120000000E+03 0.  0.
        998    1    1    2    0    0  0.50919037738E+01 -0.63328314695E+01  0.14265625249E+04  0.14266207168E+04  0.10000000000E+02 0.  1.
</event>
<event>
 5    1  0.1218060E-008  0.3834966E+03  0.7957747E-01  0.3436073E+00
         13   -1    0    0    0    0  0.00000000000E+00  0.00000000000E+00  0.14999999963E+04  0.15000000000E+04  0.10566000000E+00 0. -1.
        994   -1    0    0    0    0 -0.00000000000E+00 -0.00000000000E+00  0.11368683772E-12  0.17120000000E+03  0.17120000000E+03 0.  0.
         13    1    1    2    0    0  0.98286740427E+01  0.23556911222E+02  0.13549826132E+03  0.13788154657E+03  0.10566000000E+00 0. -1.
        994    1    1    2    0    0 -0.11009968760E+02 -0.13077715618E+02  0.33447780924E+01  0.17208391441E+03  0.17120000000E+03 0.  0.
        998    1    1    2    0    0  0.11812947169E+01 -0.10479195604E+02  0.13611569569E+04  0.13612345390E+04  0.10000000000E+02 0.  0.
</event>
<event>
 5    1  0.1218060E-008  0.3808014E+03  0.7957747E-01  0.3447676E+00
         13   -1    0    0    0    0  0.00000000000E+00  0.00000000000E+00  0.14999999963E+04  0.15000000000E+04  0.10566000000E+00 0.  1.
        994   -1    0    0    0    0 -0.00000000000E+00 -0.00000000000E+00  0.11368683772E-12  0.17120000000E+03  0.17120000000E+03 0.  0.
         13    1    1    2    0    0  0.97947704555E+01 -0.44090100484E+01  0.13861479747E+02  0.17536495736E+02  0.10566000000E+00 0.  1.
        994    1    1    2    0    0 -0.73164779373E+01  0.35292304632E+01  0.39491793190E+01  0.17143810059E+03  0.17120000000E+03 0.  0.
        998    1    1    2    0    0 -0.24782925182E+01  0.87977958520E+00  0.14821893372E+04  0.14822254037E+04  0.10000000000E+02 0.  1.
</event>
<event>
 5    1  0.1218060E-008  0.3822563E+03  0.7957747E-01  0.3441393E+00
         13   -1    0    0    0    0  0.00000000000E+00  0.00000000000E+00  0.14999999963E+04  0.15000000000E+04  0.10566000000E+00 0. -1.
        994   -1    0    0    0    0 -0.00000000000E+00 -0.00000000000E+00  0.11368683772E-12  0.17120000000E+03  0.17120000000E+03 0.  0.
         13    1    1    2    0    0  0.66003706680E+01 -0.14465738624E+02  0.40518342100E+02  0.43526655022E+02  0.10566000000E+00 0. -1.
        994    1    1    2    0    0 -0.11323973686E+02  0.10739749187E+02  0.38071434864E+01  0.17195205417E+03  0.17120000000E+03 0.  0.
        998    1    1    2    0    0  0.47236030183E+01  0.37259894376E+01  0.14556745107E+04  0.14557212908E+04  0.10000000000E+02 0. -1.
</event>
<event>
 5    1  0.1218060E-008  0.3853878E+03  0.7957747E-01  0.3428029E+00
         13   -1    0    0    0    0  0.00000000000E+00  0.00000000000E+00  0.14999999963E+04  0.15000000000E+04  0.10566000000E+00 0. -1.
        994   -1    0    0    0    0 -0.00000000000E+00 -0.00000000000E+00  0.11368683772E-12  0.17120000000E+03  0.17120000000E+03 0.  0.
         13    1    1    2    0    0  0.17538808644E+00  0.11798079728E+02  0.45521282120E+02  0.47025777359E+02  0.10566000000E+00 0. -1.
        994    1    1    2    0    0 -0.17373961966E+01 -0.19430072505E+02  0.26886306100E+01  0.17232879910E+03  0.17120000000E+03 0.  0.
        998    1    1    2    0    0  0.15620081102E+01  0.76319927766E+01  0.14517900835E+04  0.14518454235E+04  0.10000000000E+02 0. -1.
</event>
<event>
 5    1  0.1218060E-008  0.3828969E+03  0.7957747E-01  0.3438641E+00
         13   -1    0    0    0    0  0.00000000000E+00  0.00000000000E+00  0.14999999963E+04  0.15000000000E+04  0.10566000000E+00 0.  1.
        994   -1    0    0    0    0 -0.00000000000E+00 -0.00000000000E+00  0.11368683772E-12  0.17120000000E+03  0.17120000000E+03 0.  0.
         13    1    1    2    0    0 -0.24848634858E+02  0.10879357610E+02  0.13589665132E+03  0.13857750929E+03  0.10566000000E+00 0.  1.
        994    1    1    2    0    0  0.14154883976E+02 -0.10135823311E+02  0.36821608848E+01  0.17212232268E+03  0.17120000000E+03 0.  0.
        998    1    1    2    0    0  0.10693750882E+02 -0.74353429920E+00  0.13604211841E+04  0.13605001680E+04  0.10000000000E+02 0.  1.
</event>
<event>
 5    1  0.1218060E-008  0.3800689E+03  0.7957747E-01  0.3450859E+00
         13   -1    0    0    0    0  0.00000000000E+00  0.00000000000E+00  0.14999999963E+04  0.15000000000E+04  0.10566000000E+00 0.  1.
        994   -1    0    0    0    0 -0.00000000000E+00 -0.00000000000E+00  0.11368683772E-12  0.17120000000E+03  0.17120000000E+03 0.  0.
         13    1    1    2    0    0  0.12484925672E+01 -0.11311159916E+02  0.14051541103E+02  0.18081981190E+02  0.10566000000E+00 0.  1.
        994    1    1    2    0    0 -0.28935186072E+01  0.73089831584E+01  0.43049375826E+01  0.17143443695E+03  0.17120000000E+03 0.  0.
        998    1    1    2    0    0  0.16450260400E+01  0.40021767575E+01  0.14816435176E+04  0.14816835819E+04  0.10000000000E+02 0.  1.
</event>
<event>
 5    1  0.1218060E-008  0.3989649E+03  0.7957747E-01  0.3372522E+00
         13   -1    0    0    0    0  0.00000000000E+00  0.00000000000E+00  0.14999999963E+04  0.15000000000E+04  0.10566000000E+00 0. -1.
        994   -1    0    0    0    0 -0.00000000000E+00 -0.00000000000E+00  0.11368683772E-12  0.17120000000E+03  0.17120000000E+03 0.  0.
         13    1    1    2    0    0 -0.34278641794E+02  0.38669644830E+02  0.41809786050E+02  0.66471317786E+02  0.10566000000E+00 0. -1.
        994    1    1    2    0    0  0.27207607492E+02  0.30004109917E+01  0.30087626484E+02  0.17596579679E+03  0.17120000000E+03 0.  0.
        998    1    1    2    0    0  0.70710343026E+01 -0.41670055822E+02  0.14281025837E+04  0.14287628854E+04  0.10000000000E+02 0. -1.
</event>
<event>
 5    1  0.1218060E-008  0.3807612E+03  0.7957747E-01  0.3447851E+00
         13   -1    0    0    0    0  0.00000000000E+00  0.00000000000E+00  0.14999999963E+04  0.15000000000E+04  0.10566000000E+00 0. -1.
        994   -1    0    0    0    0 -0.00000000000E+00 -0.00000000000E+00  0.11368683772E-12  0.17120000000E+03  0.17120000000E+03 0.  0.
         13    1    1    2    0    0  0.90991248582E+01  0.18802977698E+02  0.56322726876E+02  0.60071680269E+02  0.10566000000E+00 0. -1.
        994    1    1    2    0    0 -0.12239088449E+02 -0.11571107996E+02  0.46959016153E+01  0.17209060787E+03  0.17120000000E+03 0.  0.
        998    1    1    2    0    0  0.31399635910E+01 -0.72318697019E+01  0.14389813678E+04  0.14390377119E+04  0.10000000000E+02 0. -1.
</event>
<event>
 5    1  0.1218060E-008  0.3855349E+03  0.7957747E-01  0.3427407E+00
         13   -1    0    0    0    0  0.00000000000E+00  0.00000000000E+00  0.14999999963E+04  0.15000000000E+04  0.10566000000E+00 0.  1.
        994   -1    0    0    0    0 -0.00000000000E+00 -0.00000000000E+00  0.11368683772E-12  0.17120000000E+03  0.17120000000E+03 0.  0.
         13    1    1    2    0    0  0.10075428319E+02 -0.17210709411E+01  0.42202146137E+02  0.43422444008E+02  0.10566000000E+00 0.  1.
        994    1    1    2    0    0  0.14784487874E+02  0.39016111937E+02  0.71008894423E+01  0.17635390754E+03  0.17120000000E+03 0.  0.
        998    1    1    2    0    0 -0.24859916193E+02 -0.37295040996E+02  0.14506969607E+04  0.14514236485E+04  0.10000000000E+02 0.  1.
</event>
<event>
 5    1  0.1218060E-008  0.2874674E+03  0.7957747E-01  0.3989763E+00
         13   -1    0    0    0    0  0.00000000000E+00  0.00000000000E+00  0.14999999963E+04  0.15000000000E+04  0.10566000000E+00 0. -1.
        994   -1    0    0    0    0 -0.00000000000E+00 -0.00000000000E+00  0.11368683772E-12  0.17120000000E+03  0.17120000000E+03 0.  0.
         13    1    1    2    0    0 -0.46185492623E+02  0.15981312717E+03  0.65656836267E+03  0.67731481703E+03  0.10566000000E+00 0. -1.
        994    1    1    2    0    0  0.26024154913E+01 -0.11316679461E+03  0.68652991091E+02  0.21641665637E+03  0.17120000000E+03 0.  0.
        998    1    1    2    0    0  0.43583077132E+02 -0.46646332563E+02  0.77477864252E+03  0.77746852660E+03  0.10000000000E+02 0.  1.
</event>
<event>
 5    1  0.1218060E-008  0.3749428E+03  0.7957747E-01  0.3473479E+00
         13   -1    0    0    0    0  0.00000000000E+00  0.00000000000E+00  0.14999999963E+04  0.15000000000E+04  0.10566000000E+00 0.  1.
        994   -1    0    0    0    0 -0.00000000000E+00 -0.00000000000E+00  0.11368683772E-12  0.17120000000E+03  0.17120000000E+03 0.  0.
         13    1    1    2    0    0  0.78474954451E+02 -0.16952976524E+03  0.61940480865E+03  0.64696289533E+03  0.10566000000E+00 0.  1.
        994    1    1    2    0    0 -0.85679101212E+02  0.22223169516E+03  0.23358115307E+03  0.37496323792E+03  0.17120000000E+03 0.  0.
        998    1    1    2    0    0  0.72041467605E+01 -0.52701929918E+02  0.64701403455E+03  0.64927386676E+03  0.10000000000E+02 0.  1.
</event>
<event>
 5    1  0.1218060E-008  0.3823480E+03  0.7957747E-01  0.3440998E+00
         13   -1    0    0    0    0  0.00000000000E+00  0.00000000000E+00  0.14999999963E+04  0.15000000000E+04  0.10566000000E+00 0.  1.
        994   -1    0    0    0    0 -0.00000000000E+00 -0.00000000000E+00  0.11368683772E-12  0.17120000000E+03  0.17120000000E+03 0.  0.
         13    1    1    2    0    0  0.16970842716E+02  0.96306181373E+01  0.62260068023E+02  0.65246345051E+02  0.10566000000E+00 0.  1.
        994    1    1    2    0    0 -0.13784932103E+02 -0.98461161550E+01  0.39050883731E+01  0.17208038840E+03  0.17120000000E+03 0.  0.
        998    1    1    2    0    0 -0.31859106130E+01  0.21549801763E+00  0.14338348399E+04  0.14338732665E+04  0.10000000000E+02 0.  1.
</event>
<event>
 5    1  0.1218060E-008  0.3816892E+03  0.7957747E-01  0.3443836E+00
         13   -1    0    0    0    0  0.00000000000E+00  0.00000000000E+00  0.14999999963E+04  0.15000000000E+04  0.10566000000E+00 0.  1.
        994   -1    0    0    0    0 -0.00000000000E+00 -0.00000000000E+00  0.11368683772E-12  0.17120000000E+03  0.17120000000E+03 0.  0.
         13    1    1    2    0    0 -0.15626714277E+02 -0.16059953675E+02  0.79449976850E+02  0.82549538440E+02  0.10566000000E+00 0.  1.
        994    1    1    2    0    0  0.80060835388E+01 -0.23678097682E+01  0.35146282660E+01  0.17143948352E+03  0.17120000000E+03 0.  0.
        998    1    1    2    0    0  0.76206307381E+01  0.18427763443E+02  0.14170353912E+04  0.14172109780E+04  0.10000000000E+02 0.  1.
</event>
<event>
 5    1  0.1218060E-008  0.3795188E+03  0.7957747E-01  0.3453256E+00
         13   -1    0    0    0    0  0.00000000000E+00  0.00000000000E+00  0.14999999963E+04  0.15000000000E+04  0.10566000000E+00 0.  1.
        994   -1    0    0    0    0 -0.00000000000E+00 -0.00000000000E+00  0.11368683772E-12  0.17120000000E+03  0.17120000000E+03 0.  0.
         13    1    1    2    0    0  0.10808916614E+02 -0.18143703107E+02  0.48777832716E+02  0.53153690081E+02  0.10566000000E+00 0.  1.
        994    1    1    2    0    0 -0.93750145657E+01  0.13946881742E+02  0.53223600066E+01  0.17210512463E+03  0.17120000000E+03 0.  0.
        998    1    1    2    0    0 -0.14339020485E+01  0.41968213646E+01  0.14458998036E+04  0.14459411853E+04  0.10000000000E+02 0.  1.
</event>
<event>
 5    1  0.1218060E-008  0.3854672E+03  0.7957747E-01  0.3427693E+00
         13   -1    0    0    0    0  0.00000000000E+00  0.00000000000E+00  0.14999999963E+04  0.15000000000E+04  0.10566000000E+00 0. -1.
        994   -1    0    0    0    0 -0.00000000000E+00 -0.00000000000E+00  0.11368683772E-12  0.17120000000E+03  0.17120000000E+03 0.  0.
         13    1    1    2    0    0  0.35602983361E+01 -0.14591990658E+02  0.81037093991E+02  0.82417374880E+02  0.10566000000E+00 0. -1.
        994    1    1    2    0    0 -0.85500383623E+00  0.99022788201E+01  0.17228195291E+01  0.17149692203E+03  0.17120000000E+03 0.  0.
        998    1    1    2    0    0 -0.27052944998E+01  0.46897118379E+01  0.14172400828E+04  0.14172857031E+04  0.10000000000E+02 0. -1.
</event>
<event>
 5    1  0.1218060E-008  0.3720498E+03  0.7957747E-01  0.3486523E+00
         13   -1    0    0    0    0  0.00000000000E+00  0.00000000000E+00  0.14999999963E+04  0.15000000000E+04  0.10566000000E+00 0. -1.
        994   -1    0    0    0    0 -0.00000000000E+00 -0.00000000000E+00  0.11368683772E-12  0.17120000000E+03  0.17120000000E+03 0.  0.
         13    1    1    2    0    0  0.40324805767E+02  0.29360244079E+02  0.13591462170E+03  0.14477882942E+03  0.10566000000E+00 0. -1.
        994    1    1    2    0    0 -0.33381956586E+02 -0.39774611069E+02  0.17516698743E+02  0.17975719581E+03  0.17120000000E+03 0.  0.
        998    1    1    2    0    0 -0.69428491813E+01  0.10414366990E+02  0.13465686758E+04  0.13466639748E+04  0.10000000000E+02 0. -1.
</event>
<event>
 5    1  0.1218060E-008  0.3859929E+03  0.7957747E-01  0.3425472E+00
         13   -1    0    0    0    0  0.00000000000E+00  0.00000000000E+00  0.14999999963E+04  0.15000000000E+04  0.10566000000E+00 0. -1.
        994   -1    0    0    0    0 -0.00000000000E+00 -0.00000000000E+00  0.11368683772E-12  0.17120000000E+03  0.17120000000E+03 0.  0.
         13    1    1    2    0    0 -0.39498816875E+01  0.99195051089E+01  0.53085261583E+02  0.54148446961E+02  0.10566000000E+00 0. -1.
        994    1    1    2    0    0  0.87329235971E+01  0.29164292979E+01  0.14159152525E+01  0.17145324240E+03  0.17120000000E+03 0.  0.
        998    1    1    2    0    0 -0.47830419097E+01 -0.12835934407E+02  0.14454988194E+04  0.14455983106E+04  0.10000000000E+02 0. -1.
</event>
<event>
 5    1  0.1218060E-008  0.3771919E+03  0.7957747E-01  0.3463477E+00
         13   -1    0    0    0    0  0.00000000000E+00  0.00000000000E+00  0.14999999963E+04  0.15000000000E+04  0.10566000000E+00 0. -1.
        994   -1    0    0    0    0 -0.00000000000E+00 -0.00000000000E+00  0.11368683772E-12  0.17120000000E+03  0.17120000000E+03 0.  0.
         13    1    1    2    0    0  0.57289707964E+02 -0.32425489085E+02  0.13533176034E+03  0.15049325401E+03  0.10566000000E+00 0. -1.
        994    1    1    2    0    0 -0.70420302054E+02 -0.14042758384E+02  0.33526930186E+02  0.18865236031E+03  0.17120000000E+03 0.  0.
        998    1    1    2    0    0  0.13130594090E+02  0.46468247470E+02  0.13311413058E+04  0.13320543857E+04  0.10000000000E+02 0. -1.
</event>
<event>
 5    1  0.1218060E-008  0.3838012E+03  0.7957747E-01  0.3434773E+00
         13   -1    0    0    0    0  0.00000000000E+00  0.00000000000E+00  0.14999999963E+04  0.15000000000E+04  0.10566000000E+00 0.  1.
        994   -1    0    0    0    0 -0.00000000000E+00 -0.00000000000E+00  0.11368683772E-12  0.17120000000E+03  0.17120000000E+03 0.  0.
         13    1    1    2    0    0 -0.12909970322E+02 -0.89417444065E+01  0.59220367349E+02  0.61267325710E+02  0.10566000000E+00 0.  1.
        994    1    1    2    0    0 -0.54330813527E-01 -0.70207748113E+01  0.23892639515E+01  0.17136056376E+03  0.17120000000E+03 0.  0.
        998    1    1    2    0    0  0.12964301136E+02  0.15962519218E+02  0.14383903650E+04  0.14385721105E+04  0.10000000000E+02 0.  1.
</event>
<event>
 5    1  0.1218060E-008  0.3761107E+03  0.7957747E-01  0.3468270E+00
         13   -1    0    0    0    0  0.00000000000E+00  0.00000000000E+00  0.14999999963E+04  0.15000000000E+04  0.10566000000E+00 0.  1.
        994   -1    0    0    0    0 -0.00000000000E+00 -0.00000000000E+00  0.11368683772E-12  0.17120000000E+03  0.17120000000E+03 0.  0.
         13    1    1    2    0    0 -0.22831077701E+02  0.99767843933E+02  0.32257915578E+03  0.33842606830E+03  0.10566000000E+00 0.  1.
        994    1    1    2    0    0  0.44252894637E+02 -0.73922119787E+02  0.41227332728E+02  0.19604063722E+03  0.17120000000E+03 0.  0.
        998    1    1    2    0    0 -0.21421816936E+02 -0.25845724146E+02  0.11361935078E+04  0.11367332945E+04  0.10000000000E+02 0.  1.
</event>
<event>
 5    1  0.1218060E-008  0.3782519E+03  0.7957747E-01  0.3458806E+00
         13   -1    0    0    0    0  0.00000000000E+00  0.00000000000E+00  0.14999999963E+04  0.15000000000E+04  0.10566000000E+00 0. -1.
        994   -1    0    0    0    0 -0.00000000000E+00 -0.00000000000E+00  0.11368683772E-12  0.17120000000E+03  0.17120000000E+03 0.  0.
         13    1    1    2    0    0  0.33697892423E+02 -0.20344170407E+02  0.18042771962E+03  0.18467161773E+03  0.10566000000E+00 0. -1.
        994    1    1    2    0    0 -0.13525165805E+02 -0.25174530210E+02  0.77690668586E+01  0.17374258396E+03  0.17120000000E+03 0.  0.
        998    1    1    2    0    0 -0.20172726618E+02  0.45518700617E+02  0.13118032098E+04  0.13127857983E+04  0.10000000000E+02 0. -1.
</event>
<event>
 5    1  0.1218060E-008  0.2861347E+03  0.7957747E-01  0.4000263E+00
         13   -1    0    0    0    0  0.00000000000E+00  0.00000000000E+00  0.14999999963E+04  0.15000000000E+04  0.10566000000E+00 0.  1.
        994   -1    0    0    0    0 -0.00000000000E+00 -0.00000000000E+00  0.11368683772E-12  0.17120000000E+03  0.17120000000E+03 0.  0.
         13    1    1    2    0    0  0.64877932343E+02  0.16824712300E+03  0.65520414966E+03  0.67956510313E+03  0.10566000000E+00 0.  1.
        994    1    1    2    0    0 -0.90891458746E+02 -0.83024630971E+02  0.86272572209E+02  0.22783051450E+03  0.17120000000E+03 0.  0.
        998    1    1    2    0    0  0.26013526403E+02 -0.85222492026E+02  0.75852327441E+03  0.76380438237E+03  0.10000000000E+02 0.  1.
</event>
<event>
 5    1  0.1218060E-008  0.3722852E+03  0.7957747E-01  0.3485454E+00
         13   -1    0    0    0    0  0.00000000000E+00  0.00000000000E+00  0.14999999963E+04  0.15000000000E+04  0.10566000000E+00 0.  1.
        994   -1    0    0    0    0 -0.00000000000E+00 -0.00000000000E+00  0.11368683772E-12  0.17120000000E+03  0.17120000000E+03 0.  0.
         13    1    1    2    0    0  0.88689212292E+02  0.20290122148E+02  0.34780451498E+03  0.35950724227E+03  0.10566000000E+00 0.  1.
        994    1    1    2    0    0 -0.10421688714E+03 -0.13792401769E+02  0.47000913832E+02  0.20632478235E+03  0.17120000000E+03 0.  0.
        998    1    1    2    0    0  0.15527674844E+02 -0.64977203784E+01  0.11051945675E+04  0.11053679754E+04  0.10000000000E+02 0.  1.
</event>
<event>
 5    1  0.1218060E-008  0.3723673E+03  0.7957747E-01  0.3485081E+00
         13   -1    0    0    0    0  0.00000000000E+00  0.00000000000E+00  0.14999999963E+04  0.15000000000E+04  0.10566000000E+00 0.  1.
        994   -1    0    0    0    0 -0.00000000000E+00 -0.00000000000E+00  0.11368683772E-12  0.17120000000E+03  0.17120000000E+03 0.  0.
         13    1    1    2    0    0 -0.21818693133E+02  0.15947822800E+02  0.21492108644E+02  0.34529846801E+02  0.10566000000E+00 0.  1.
        994    1    1    2    0    0  0.42547395052E+02 -0.70550905001E+02  0.36526501088E+02  0.19347179718E+03  0.17120000000E+03 0.  0.
        998    1    1    2    0    0 -0.20728701918E+02  0.54603082201E+02  0.14419813865E+04  0.14431983560E+04  0.10000000000E+02 0.  1.
</event>
<event>
 5    1  0.1218060E-008  0.3825359E+03  0.7957747E-01  0.3440190E+00
         13   -1    0    0    0    0  0.00000000000E+00  0.00000000000E+00  0.14999999963E+04  0.15000000000E+04  0.10566000000E+00 0. -1.
        994   -1    0    0    0    0 -0.00000000000E+00 -0.00000000000E+00  0.11368683772E-12  0.17120000000E+03  0.17120000000E+03 0.  0.
         13    1    1    2    0    0 -0.14358774340E+02  0.13826107595E+02  0.63043418995E+02  0.66119736042E+02  0.10566000000E+00 0. -1.
        994    1    1    2    0    0  0.22372635044E+02 -0.20641276991E+02  0.59363478416E+01  0.17398642861E+03  0.17120000000E+03 0.  0.
        998    1    1    2    0    0 -0.80138607034E+01  0.68151693965E+01  0.14310202294E+04  0.14310938353E+04  0.10000000000E+02 0. -1.
</event>
<event>
 5    1  0.1218060E-008  0.3792372E+03  0.7957747E-01  0.3454487E+00
         13   -1    0    0    0    0  0.00000000000E+00  0.00000000000E+00  0.14999999963E+04  0.15000000000E+04  0.10566000000E+00 0.  1.
        994   -1    0    0    0    0 -0.00000000000E+00 -0.00000000000E+00  0.11368683772E-12  0.17120000000E+03  0.17120000000E+03 0.  0.
         13    1    1    2    0    0  0.25482752721E+02 -0.18129314016E+01  0.75070219303E+02  0.79298211813E+02  0.10566000000E+00 0.  1.
        994    1    1    2    0    0 -0.12529125923E+01  0.95500866208E+01  0.48296977814E+01  0.17153874176E+03  0.17120000000E+03 0.  0.
        998    1    1    2    0    0 -0.24229840129E+02 -0.77371552192E+01  0.14201000792E+04  0.14203630464E+04  0.10000000000E+02 0.  1.
</event>
<event>
 5    1  0.1218060E-008  0.3723771E+03  0.7957747E-01  0.3485037E+00
         13   -1    0    0    0    0  0.00000000000E+00  0.00000000000E+00  0.14999999963E+04  0.15000000000E+04  0.10566000000E+00 0.  1.
        994   -1    0    0    0    0 -0.00000000000E+00 -0.00000000000E+00  0.11368683772E-12  0.17120000000E+03  0.17120000000E+03 0.  0.
         13    1    1    2    0    0 -0.33704855803E+02  0.24894838842E+01  0.90896657880E+02  0.96976432253E+02  0.10566000000E+00 0.  1.
        994    1    1    2    0    0 -0.52085528958E+02  0.21597058000E+02  0.19015412507E+02  0.18124668591E+03  0.17120000000E+03 0.  0.
        998    1    1    2    0    0  0.85790384761E+02 -0.24086541884E+02  0.13900879259E+04  0.13929768818E+04  0.10000000000E+02 0.  1.
</event>
<event>
 5    1  0.1218060E-008  0.3836410E+03  0.7957747E-01  0.3435456E+00
         13   -1    0    0    0    0  0.00000000000E+00  0.00000000000E+00  0.14999999963E+04  0.15000000000E+04  0.10566000000E+00 0.  1.
        994   -1    0    0    0    0 -0.00000000000E+00 -0.00000000000E+00  0.11368683772E-12  0.17120000000E+03  0.17120000000E+03 0.  0.
         13    1    1    2    0    0  0.25257144242E+02 -0.49786439210E+01  0.15165499645E+03  0.15382444325E+03  0.10566000000E+00 0.  1.
        994    1    1    2    0    0 -0.91342445158E+01 -0.17760954781E+01  0.25924212489E+01  0.17147229976E+03  0.17120000000E+03 0.  0.
        998    1    1    2    0    0 -0.16122899726E+02  0.67547393991E+01  0.13457525786E+04  0.13459032570E+04  0.10000000000E+02 0.  1.
</event>
<event>
 5    1  0.1218060E-008  0.3848213E+03  0.7957747E-01  0.3430431E+00
         13   -1    0    0    0    0  0.00000000000E+00  0.00000000000E+00  0.14999999963E+04  0.15000000000E+04  0.10566000000E+00 0. -1.
        994   -1    0    0    0    0 -0.00000000000E+00 -0.00000000000E+00  0.11368683772E-12  0.17120000000E+03  0.17120000000E+03 0.  0.
         13    1    1    2    0    0  0.67337097369E+01 -0.74840396106E+01  0.27772055104E+02  0.29540682193E+02  0.10566000000E+00 0. -1.
        994    1    1    2    0    0 -0.11338708834E+02  0.14908475145E+02  0.28741750971E+01  0.17224555098E+03  0.17120000000E+03 0.  0.
        998    1    1    2    0    0  0.46049990970E+01 -0.74244355347E+01  0.14693537661E+04  0.14694137668E+04  0.10000000000E+02 0. -1.
</event>
<event>
 5    1  0.1218060E-008  0.3765939E+03  0.7957747E-01  0.3466125E+00
         13   -1    0    0    0    0  0.00000000000E+00  0.00000000000E+00  0.14999999963E+04  0.15000000000E+04  0.10566000000E+00 0. -1.
        994   -1    0    0    0    0 -0.00000000000E+00 -0.00000000000E+00  0.11368683772E-12  0.17120000000E+03  0.17120000000E+03 0.  0.
         13    1    1    2    0    0  0.16765778599E+02 -0.26554242233E+02  0.84406669253E+02  0.90059514161E+02  0.10566000000E+00 0. -1.
        994    1    1    2    0    0 -0.12924754226E+02  0.65855450504E+01  0.65742217774E+01  0.17193917258E+03  0.17120000000E+03 0.  0.
        998    1    1    2    0    0 -0.38410243724E+01  0.19968697183E+02  0.14090191052E+04  0.14092013133E+04  0.10000000000E+02 0. -1.
</event>
<event>
 5    1  0.1218060E-008  0.3785420E+03  0.7957747E-01  0.3457532E+00
         13   -1    0    0    0    0  0.00000000000E+00  0.00000000000E+00  0.14999999963E+04  0.15000000000E+04  0.10566000000E+00 0.  1.
        994   -1    0    0    0    0 -0.00000000000E+00 -0.00000000000E+00  0.11368683772E-12  0.17120000000E+03  0.17120000000E+03 0.  0.
         13    1    1    2    0    0  0.24635276433E+02  0.17238292025E+02  0.93594519627E+02  0.98305650016E+02  0.10566000000E+00 0.  1.
        994    1    1    2    0    0 -0.35659285659E+01 -0.16977700413E+02  0.58825632730E+01  0.17217724213E+03  0.17120000000E+03 0.  0.
        998    1    1    2    0    0 -0.21069347867E+02 -0.26059161166E+00  0.14005229134E+04  0.14007171079E+04  0.10000000000E+02 0.  1.
</event>
<event>
 5    1  0.1218060E-008  0.3772069E+03  0.7957747E-01  0.3463411E+00
         13   -1    0    0    0    0  0.00000000000E+00  0.00000000000E+00  0.14999999963E+04  0.15000000000E+04  0.10566000000E+00 0. -1.
        994   -1    0    0    0    0 -0.00000000000E+00 -0.00000000000E+00  0.11368683772E-12  0.17120000000E+03  0.17120000000E+03 0.  0.
         13    1    1    2    0    0  0.12726176044E+02  0.32975890884E+02  0.12734253419E+03  0.13215709256E+03  0.10566000000E+00 0. -1.
        994    1    1    2    0    0 -0.59044539499E+01  0.84823835010E+01  0.59102540727E+01  0.17161347415E+03  0.17120000000E+03 0.  0.
        998    1    1    2    0    0 -0.68217220944E+01 -0.41458274385E+02  0.13667472080E+04  0.13674294333E+04  0.10000000000E+02 0. -1.
</event>
<event>
 5    1  0.1218060E-008  0.3857744E+03  0.7957747E-01  0.3426395E+00
         13   -1    0    0    0    0  0.00000000000E+00  0.00000000000E+00  0.14999999963E+04  0.15000000000E+04  0.10566000000E+00 0.  1.
        994   -1    0    0    0    0 -0.00000000000E+00 -0.00000000000E+00  0.11368683772E-12  0.17120000000E+03  0.17120000000E+03 0.  0.
         13    1    1    2    0    0 -0.85598580862E+01  0.93831109249E+01  0.65280035822E+02  0.66504196725E+02  0.10566000000E+00 0.  1.
        994    1    1    2    0    0  0.62704277324E+01 -0.56757321266E+01  0.14808495476E+01  0.17141518344E+03  0.17120000000E+03 0.  0.
        998    1    1    2    0    0  0.22894303538E+01 -0.37073787984E+01  0.14332391109E+04  0.14332806198E+04  0.10000000000E+02 0.  1.
</event>
<event>
 5    1  0.1218060E-008  0.3770569E+03  0.7957747E-01  0.3464074E+00
         13   -1    0    0    0    0  0.00000000000E+00  0.00000000000E+00  0.14999999963E+04  0.15000000000E+04  0.10566000000E+00 0. -1.
        994   -1    0    0    0    0 -0.00000000000E+00 -0.00000000000E+00  0.11368683772E-12  0.17120000000E+03  0.17120000000E+03 0.  0.
         13    1    1    2    0    0 -0.46946722975E+02  0.17572654189E+02  0.25106816863E+03  0.25602349391E+03  0.10566000000E+00 0. -1.
        994    1    1    2    0    0  0.11620109170E+02 -0.29480879258E+01  0.61115191880E+01  0.17172800828E+03  0.17120000000E+03 0.  0.
        998    1    1    2    0    0  0.35326613804E+02 -0.14624566263E+02  0.12428203085E+04  0.12434484978E+04  0.10000000000E+02 0. -1.
</event>
<event>
 5    1  0.1218060E-008  0.3823271E+03  0.7957747E-01  0.3441088E+00
         13   -1    0    0    0    0  0.00000000000E+00  0.00000000000E+00  0.14999999963E+04  0.15000000000E+04  0.10566000000E+00 0. -1.
        994   -1    0    0    0    0 -0.00000000000E+00 -0.00000000000E+00  0.11368683772E-12  0.17120000000E+03  0.17120000000E+03 0.  0.
         13    1    1    2    0    0 -0.28228522572E+02 -0.11163820115E+02  0.14733626508E+03  0.15043093611E+03  0.10566000000E+00 0. -1.
        994    1    1    2    0    0  0.19715940864E+02  0.17452418817E+02  0.52663858927E+01  0.17329304679E+03  0.17120000000E+03 0.  0.
        998    1    1    2    0    0  0.85125817072E+01 -0.62885987021E+01  0.13473973453E+04  0.13474760171E+04  0.10000000000E+02 0. -1.
</event>
<event>
 5    1  0.1218060E-008  0.3712723E+03  0.7957747E-01  0.3490064E+00
         13   -1    0    0    0    0  0.00000000000E+00  0.00000000000E+00  0.14999999963E+04  0.15000000000E+04  0.10566000000E+00 0. -1.
        994   -1    0    0    0    0 -0.00000000000E+00 -0.00000000000E+00  0.11368683772E-12  0.17120000000E+03  0.17120000000E+03 0.  0.
         13    1    1    2    0    0  0.51645340557E+02  0.47082504231E+02  0.23800092321E+03  0.24804929756E+03  0.10566000000E+00 0. -1.
        994    1    1    2    0    0 -0.41721885049E+02 -0.56962758957E+02  0.25968935932E+02  0.18700079474E+03  0.17120000000E+03 0.  0.
        998    1    1    2    0    0 -0.99234555078E+01  0.98802547253E+01  0.12360301371E+04  0.12361499077E+04  0.10000000000E+02 0. -1.
</event>
<event>
 5    1  0.1218060E-008  0.3846185E+03  0.7957747E-01  0.3431292E+00
         13   -1    0    0    0    0  0.00000000000E+00  0.00000000000E+00  0.14999999963E+04  0.15000000000E+04  0.10566000000E+00 0. -1.
        994   -1    0    0    0    0 -0.00000000000E+00 -0.00000000000E+00  0.11368683772E-12  0.17120000000E+03  0.17120000000E+03 0.  0.
         13    1    1    2    0    0  0.47117942032E+02  0.91606987335E+02  0.40920564203E+03  0.42197299584E+03  0.10566000000E+00 0. -1.
        994    1    1    2    0    0  0.64842160588E+02 -0.39373412487E+02  0.40423269961E+02  0.19156787871E+03  0.17120000000E+03 0.  0.
        998    1    1    2    0    0 -0.11196010262E+03 -0.52233574848E+02  0.10503710843E+04  0.10576591254E+04  0.10000000000E+02 0. -1.
</event>
<event>
 5    1  0.1218060E-008  0.3834906E+03  0.7957747E-01  0.3436099E+00
         13   -1    0    0    0    0  0.00000000000E+00  0.00000000000E+00  0.14999999963E+04  0.15000000000E+04  0.10566000000E+00 0. -1.
        994   -1    0    0    0    0 -0.00000000000E+00 -0.00000000000E+00  0.11368683772E-12  0.17120000000E+03  0.17120000000E+03 0.  0.
         13    1    1    2    0    0 -0.14981000177E+02  0.12123692193E+02  0.74063191272E+02  0.76529613511E+02  0.10566000000E+00 0. -1.
        994    1    1    2    0    0  0.10066881285E+02 -0.19644178238E+02  0.39932792236E+01  0.17266332012E+03  0.17120000000E+03 0.  0.
        998    1    1    2    0    0  0.49141188915E+01  0.75204860447E+01  0.14219435258E+04  0.14220070664E+04  0.10000000000E+02 0. -1.
</event>
<event>
 5    1  0.1218060E-008  0.3064380E+03  0.7957747E-01  0.3851103E+00
         13   -1    0    0    0    0  0.00000000000E+00  0.00000000000E+00  0.14999999963E+04  0.15000000000E+04  0.10566000000E+00 0.  1.
        994   -1    0    0    0    0 -0.00000000000E+00 -0.00000000000E+00  0.11368683772E-12  0.17120000000E+03  0.17120000000E+03 0.  0.
         13    1    1    2    0    0 -0.13067636717E+03 -0.15655464285E+03  0.65532646435E+03  0.68632241343E+03  0.10566000000E+00 0.  1.
        994    1    1    2    0    0  0.13167146885E+03  0.15081238606E+03  0.17759051039E+03  0.31769416249E+03  0.17120000000E+03 0.  0.
        998    1    1    2    0    0 -0.99510168455E+00  0.57422567851E+01  0.66708302154E+03  0.66718342408E+03  0.10000000000E+02 0.  1.
</event>
<event>
 5    1  0.1218060E-008  0.3852546E+03  0.7957747E-01  0.3428593E+00
         13   -1    0    0    0    0  0.00000000000E+00  0.00000000000E+00  0.14999999963E+04  0.15000000000E+04  0.10566000000E+00 0.  1.
        994   -1    0    0    0    0 -0.00000000000E+00 -0.00000000000E+00  0.11368683772E-12  0.17120000000E+03  0.17120000000E+03 0.  0.
         13    1    1    2    0    0 -0.93822945450E+01  0.11990549221E+02  0.82004632265E+02  0.83406064518E+02  0.10566000000E+00 0.  1.
        994    1    1    2    0    0  0.14941595573E+02  0.85861503144E+01  0.24802288429E+01  0.17208301715E+03  0.17120000000E+03 0.  0.
        998    1    1    2    0    0 -0.55593010281E+01 -0.20576699536E+02  0.14155151352E+04  0.14157109183E+04  0.10000000000E+02 0.  1.
</event>
<event>
 5    1  0.1218060E-008  0.3701646E+03  0.7957747E-01  0.3495135E+00
         13   -1    0    0    0    0  0.00000000000E+00  0.00000000000E+00  0.14999999963E+04  0.15000000000E+04  0.10566000000E+00 0.  1.
        994   -1    0    0    0    0 -0.00000000000E+00 -0.00000000000E+00  0.11368683772E-12  0.17120000000E+03  0.17120000000E+03 0.  0.
         13    1    1    2    0    0 -0.15531452316E+02 -0.14457150216E+02  0.15528406882E+02  0.26294063736E+02  0.10566000000E+00 0.  1.
        994    1    1    2    0    0  0.14662898885E+02  0.12188494384E+02  0.12298627358E+02  0.17269700702E+03  0.17120000000E+03 0.  0.
        998    1    1    2    0    0  0.86855343037E+00  0.22686558323E+01  0.14721729620E+04  0.14722089292E+04  0.10000000000E+02 0.  1.
</event>
<event>
 5    1  0.1218060E-008  0.3831938E+03  0.7957747E-01  0.3437369E+00
         13   -1    0    0    0    0  0.00000000000E+00  0.00000000000E+00  0.14999999963E+04  0.15000000000E+04  0.10566000000E+00 0. -1.
        994   -1    0    0    0    0 -0.00000000000E+00 -0.00000000000E+00  0.11368683772E-12  0.17120000000E+03  0.17120000000E+03 0.  0.
         13    1    1    2    0    0 -0.88124901305E+01  0.81176491988E+01  0.27637386837E+02  0.30122956794E+02  0.10566000000E+00 0. -1.
        994    1    1    2    0    0  0.39774213149E+01 -0.61143655449E+01  0.27055833077E+01  0.17137667731E+03  0.17120000000E+03 0.  0.
        998    1    1    2    0    0  0.48350688157E+01 -0.20032836539E+01  0.14696570261E+04  0.14697003659E+04  0.10000000000E+02 0. -1.
</event>
<event>
 5    1  0.1218060E-008  0.3816624E+03  0.7957747E-01  0.3443952E+00
         13   -1    0    0    0    0  0.00000000000E+00  0.00000000000E+00  0.14999999963E+04  0.15000000000E+04  0.10566000000E+00 0.  1.
        994   -1    0    0    0    0 -0.00000000000E+00 -0.00000000000E+00  0.11368683772E-12  0.17120000000E+03  0.17120000000E+03 0.  0.
         13    1    1    2    0    0  0.25585265914E+02 -0.75164227002E+00  0.10484006375E+03  0.10791951134E+03  0.10566000000E+00 0.  1.
        994    1    1    2    0    0 -0.48751042612E+01 -0.48006160531E+01  0.34519615785E+01  0.17137143459E+03  0.17120000000E+03 0.  0.
        998    1    1    2    0    0 -0.20710161653E+02  0.55522583231E+01  0.13917079710E+04  0.13919090541E+04  0.10000000000E+02 0.  1.
</event>
<event>
 5    1  0.1218060E-008  0.3696711E+03  0.7957747E-01  0.3497404E+00
         13   -1    0    0    0    0  0.00000000000E+00  0.00000000000E+00  0.14999999963E+04  0.15000000000E+04  0.10566000000E+00 0.  1.
        994   -1    0    0    0    0 -0.00000000000E+00 -0.00000000000E+00  0.11368683772E-12  0.17120000000E+03  0.17120000000E+03 0.  0.
         13    1    1    2    0    0 -0.30218714623E+02  0.21377371038E+02  0.63559632620E+02  0.73552707420E+02  0.10566000000E+00 0.  1.
        994    1    1    2    0    0  0.38837239938E+02 -0.32647632983E+02  0.18405274945E+02  0.17950597007E+03  0.17120000000E+03 0.  0.
        998    1    1    2    0    0 -0.86185253148E+01  0.11270261945E+02  0.14180350887E+04  0.14181413225E+04  0.10000000000E+02 0.  1.
</event>
<event>
 5    1  0.1218060E-008  0.3849987E+03  0.7957747E-01  0.3429678E+00
         13   -1    0    0    0    0  0.00000000000E+00  0.00000000000E+00  0.14999999963E+04  0.15000000000E+04  0.10566000000E+00 0. -1.
        994   -1    0    0    0    0 -0.00000000000E+00 -0.00000000000E+00  0.11368683772E-12  0.17120000000E+03  0.17120000000E+03 0.  0.
         13    1    1    2    0    0  0.18219909655E+02 -0.46988723138E+01  0.89918901028E+02  0.91866557762E+02  0.10566000000E+00 0. -1.
        994    1    1    2    0    0 -0.39208879981E+02  0.16519716347E+01  0.67120059611E+01  0.17576847358E+03  0.17120000000E+03 0.  0.
        998    1    1    2    0    0  0.20988970326E+02  0.30469006791E+01  0.14033690893E+04  0.14035649687E+04  0.10000000000E+02 0. -1.
</event>
<event>
 5    1  0.1218060E-008  0.3803222E+03  0.7957747E-01  0.3449757E+00
         13   -1    0    0    0    0  0.00000000000E+00  0.00000000000E+00  0.14999999963E+04  0.15000000000E+04  0.10566000000E+00 0.  1.
        994   -1    0    0    0    0 -0.00000000000E+00 -0.00000000000E+00  0.11368683772E-12  0.17120000000E+03  0.17120000000E+03 0.  0.
         13    1    1    2    0    0 -0.19610023045E+02  0.80085699301E+01  0.56421074522E+02  0.60266400344E+02  0.10566000000E+00 0.  1.
        994    1    1    2    0    0  0.71531377421E+01 -0.25549828312E+01  0.41632721103E+01  0.17141898422E+03  0.17120000000E+03 0.  0.
        998    1    1    2    0    0  0.12456885303E+02 -0.54535870989E+01  0.14394156496E+04  0.14395146154E+04  0.10000000000E+02 0.  1.
</event>
<event>
 5    1  0.1218060E-008  0.3837416E+03  0.7957747E-01  0.3435027E+00
         13   -1    0    0    0    0  0.00000000000E+00  0.00000000000E+00  0.14999999963E+04  0.15000000000E+04  0.10566000000E+00 0. -1.
        994   -1    0    0    0    0 -0.00000000000E+00 -0.00000000000E+00  0.11368683772E-12  0.17120000000E+03  0.17120000000E+03 0.  0.
         13    1    1    2    0    0  0.12370313818E+02  0.20471286516E+02  0.11645454050E+03  0.11888553067E+03  0.10566000000E+00 0. -1.
        994    1    1    2    0    0 -0.92083377782E+01 -0.24744947678E+02  0.45615168472E+01  0.17328402510E+03  0.17120000000E+03 0.  0.
        998    1    1    2    0    0 -0.31619760401E+01  0.42736611624E+01  0.13789839389E+04  0.13790304442E+04  0.10000000000E+02 0. -1.
</event>
<event>
 5    1  0.1218060E-008  0.3738675E+03  0.7957747E-01  0.3478303E+00
         13   -1    0    0    0    0  0.00000000000E+00  0.00000000000E+00  0.14999999963E+04  0.15000000000E+04  0.10566000000E+00 0.  1.
        994   -1    0    0    0    0 -0.00000000000E+00 -0.00000000000E+00  0.11368683772E-12  0.17120000000E+03  0.17120000000E+03 0.  0.
         13    1    1    2    0    0  0.60825279860E+01  0.73041344791E+02  0.40492305232E+03  0.41150300686E+03  0.10566000000E+00 0.  1.
        994    1    1    2    0    0 -0.18373229624E+02 -0.30146406364E+02  0.11526259086E+02  0.17518183705E+03  0.17120000000E+03 0.  0.
        998    1    1    2    0    0  0.12290701638E+02 -0.42894938426E+02  0.10835506849E+04  0.10845151561E+04  0.10000000000E+02 0.  1.
</event>
<event>
 5    1  0.1218060E-008  0.3807792E+03  0.7957747E-01  0.3447773E+00
         13   -1    0    0    0    0  0.00000000000E+00  0.00000000000E+00  0.14999999963E+04  0.15000000000E+04  0.10566000000E+00 0.  1.
        994   -1    0    0    0    0 -0.00000000000E+00 -0.00000000000E+00  0.11368683772E-12  0.17120000000E+03  0.17120000000E+03 0.  0.
         13    1    1    2    0    0  0.19052022817E+02  0.21372358102E+01  0.46527469721E+02  0.50322598830E+02  0.10566000000E+00 0.  1.
        994    1    1    2    0    0 -0.19035777827E+02 -0.53802575037E+01  0.50461871436E+01  0.17241291139E+03  0.17120000000E+03 0.  0.
        998    1    1    2    0    0 -0.16244990095E-01  0.32430216935E+01  0.14484263394E+04  0.14484644898E+04  0.10000000000E+02 0.  1.
</event>
<event>
 5    1  0.1218060E-008  0.3769047E+03  0.7957747E-01  0.3464748E+00
         13   -1    0    0    0    0  0.00000000000E+00  0.00000000000E+00  0.14999999963E+04  0.15000000000E+04  0.10566000000E+00 0. -1.
        994   -1    0    0    0    0 -0.00000000000E+00 -0.00000000000E+00  0.11368683772E-12  0.17120000000E+03  0.17120000000E+03 0.  0.
         13    1    1    2    0    0  0.36286784130E+02 -0.63874557900E+02  0.22052084168E+03  0.23243524394E+03  0.10566000000E+00 0. -1.
        994    1    1    2    0    0 -0.15657654731E+02 -0.72570325764E+01  0.15705084781E+02  0.17278285899E+03  0.17120000000E+03 0.  0.
        998    1    1    2    0    0 -0.20629129399E+02  0.71131590476E+02  0.12637740698E+04  0.12659818971E+04  0.10000000000E+02 0. -1.
</event>
<event>
 5    1  0.1250345E-008  0.3860311E+03  0.7957747E-01  0.3425311E+00
         13   -1    0    0    0    0  0.00000000000E+00  0.00000000000E+00  0.14999999963E+04  0.15000000000E+04  0.10566000000E+00 0.  1.
        994   -1    0    0    0    0 -0.00000000000E+00 -0.00000000000E+00  0.11368683772E-12  0.17120000000E+03  0.17120000000E+03 0.  0.
         13    1    1    2    0    0  0.99443163509E+01 -0.84855366822E+01  0.77252780722E+02  0.78351113928E+02  0.10566000000E+00 0.  1.
        994    1    1    2    0    0 -0.30651340403E+01  0.97901127087E+01  0.14640921998E+01  0.17151333744E+03  0.17120000000E+03 0.  0.
        998    1    1    2    0    0 -0.68791823105E+01 -0.13045760265E+01  0.14212831234E+04  0.14213355486E+04  0.10000000000E+02 0.  1.
</event>
<event>
 5    1  0.1218060E-008  0.3685971E+03  0.7957747E-01  0.3502363E+00
         13   -1    0    0    0    0  0.00000000000E+00  0.00000000000E+00  0.14999999963E+04  0.15000000000E+04  0.10566000000E+00 0.  1.
        994   -1    0    0    0    0 -0.00000000000E+00 -0.00000000000E+00  0.11368683772E-12  0.17120000000E+03  0.17120000000E+03 0.  0.
         13    1    1    2    0    0 -0.70997697911E+02  0.40511904605E+02  0.39725177365E+03  0.40557474078E+03  0.10566000000E+00 0.  1.
        994    1    1    2    0    0  0.11472153213E+02 -0.28854838306E+02  0.13361677004E+02  0.17450554835E+03  0.17120000000E+03 0.  0.
        998    1    1    2    0    0  0.59525544698E+02 -0.11657066299E+02  0.10893865456E+04  0.10911197109E+04  0.10000000000E+02 0.  1.
</event>
<event>
 5    1  0.1218060E-008  0.3752237E+03  0.7957747E-01  0.3472223E+00
         13   -1    0    0    0    0  0.00000000000E+00  0.00000000000E+00  0.14999999963E+04  0.15000000000E+04  0.10566000000E+00 0. -1.
        994   -1    0    0    0    0 -0.00000000000E+00 -0.00000000000E+00  0.11368683772E-12  0.17120000000E+03  0.17120000000E+03 0.  0.
         13    1    1    2    0    0 -0.77343669988E+02  0.12673790822E+03  0.43472480314E+03  0.45938024151E+03  0.10566000000E+00 0. -1.
        994    1    1    2    0    0  0.91314528023E+02 -0.14678916020E+03  0.12939726025E+03  0.27556939514E+03  0.17120000000E+03 0.  0.
        998    1    1    2    0    0 -0.13970858035E+02  0.20051251986E+02  0.93587793289E+03  0.93625036334E+03  0.10000000000E+02 0. -1.
</event>
<event>
 5    1  0.1218060E-008  0.3788133E+03  0.7957747E-01  0.3456342E+00
         13   -1    0    0    0    0  0.00000000000E+00  0.00000000000E+00  0.14999999963E+04  0.15000000000E+04  0.10566000000E+00 0.  1.
        994   -1    0    0    0    0 -0.00000000000E+00 -0.00000000000E+00  0.11368683772E-12  0.17120000000E+03  0.17120000000E+03 0.  0.
         13    1    1    2    0    0 -0.46666001487E+02  0.23553646141E+01  0.23251240746E+03  0.23716090366E+03  0.10566000000E+00 0.  1.
        994    1    1    2    0    0  0.25114056635E+02  0.49563641016E+01  0.69356780629E+01  0.17324209943E+03  0.17120000000E+03 0.  0.
        998    1    1    2    0    0  0.21551944852E+02 -0.73117287157E+01  0.12605519108E+04  0.12607969969E+04  0.10000000000E+02 0.  1.
</event>
<event>
 5    1  0.1218060E-008  0.3721198E+03  0.7957747E-01  0.3486205E+00
         13   -1    0    0    0    0  0.00000000000E+00  0.00000000000E+00  0.14999999963E+04  0.15000000000E+04  0.10566000000E+00 0. -1.
        994   -1    0    0    0    0 -0.00000000000E+00 -0.00000000000E+00  0.11368683772E-12  0.17120000000E+03  0.17120000000E+03 0.  0.
         13    1    1    2    0    0  0.11812849968E+02 -0.11628652730E+02  0.13035946739E+02  0.21088292015E+02  0.10566000000E+00 0. -1.
        994    1    1    2    0    0 -0.11681763594E+02  0.14054229505E+02  0.93124995272E+01  0.17242432431E+03  0.17120000000E+03 0.  0.
        998    1    1    2    0    0 -0.13108637434E+00 -0.24255767755E+01  0.14776515500E+04  0.14776873837E+04  0.10000000000E+02 0. -1.
</event>
<event>
 5    1  0.1218060E-008  0.3806632E+03  0.7957747E-01  0.3448276E+00
         13   -1    0    0    0    0  0.00000000000E+00  0.00000000000E+00  0.14999999963E+04  0.15000000000E+04  0.10566000000E+00 0.  1.
        994   -1    0    0    0    0 -0.00000000000E+00 -0.00000000000E+00  0.11368683772E-12  0.17120000000E+03  0.17120000000E+03 0.  0.
         13    1    1    2    0    0  0.10454509455E+02 -0.65146797095E+01  0.18525786119E+02  0.22247555709E+02  0.10566000000E+00 0.  1.
        994    1    1    2    0    0 -0.62615215328E+01  0.13433327568E+01  0.39355355546E+01  0.17136493117E+03  0.17120000000E+03 0.  0.
        998    1    1    2    0    0 -0.41929879225E+01  0.51713469527E+01  0.14775386746E+04  0.14775875131E+04  0.10000000000E+02 0.  1.
</event>
<event>
 5    1  0.1218060E-008  0.3802193E+03  0.7957747E-01  0.3450204E+00
         13   -1    0    0    0    0  0.00000000000E+00  0.00000000000E+00  0.14999999963E+04  0.15000000000E+04  0.10566000000E+00 0. -1.
        994   -1    0    0    0    0 -0.00000000000E+00 -0.00000000000E+00  0.11368683772E-12  0.17120000000E+03  0.17120000000E+03 0.  0.
         13    1    1    2    0    0  0.15712754704E+01 -0.38146853123E+02  0.15999779373E+03  0.16448998897E+03  0.10566000000E+00 0. -1.
        994    1    1    2    0    0 -0.19145599414E+02  0.39853293312E+02  0.10580400578E+02  0.17713335045E+03  0.17120000000E+03 0.  0.
        998    1    1    2    0    0  0.17574323944E+02 -0.17064401885E+01  0.13294218020E+04  0.13295766606E+04  0.10000000000E+02 0. -1.
</event>
<event>
 5    1  0.1218060E-008  0.3795881E+03  0.7957747E-01  0.3452954E+00
         13   -1    0    0    0    0  0.00000000000E+00  0.00000000000E+00  0.14999999963E+04  0.15000000000E+04  0.10566000000E+00 0. -1.
        994   -1    0    0    0    0 -0.00000000000E+00 -0.00000000000E+00  0.11368683772E-12  0.17120000000E+03  0.17120000000E+03 0.  0.
         13    1    1    2    0    0 -0.51731838455E+01 -0.21335945944E+02  0.53380729111E+02  0.57719128761E+02  0.10566000000E+00 0. -1.
        994    1    1    2    0    0  0.13977556584E+02  0.13875717358E+02  0.56407789792E+01  0.17242147780E+03  0.17120000000E+03 0.  0.
        998    1    1    2    0    0 -0.88043727383E+01  0.74602285856E+01  0.14409784882E+04  0.14410593934E+04  0.10000000000E+02 0. -1.
</event>
<event>
 5    1  0.1218060E-008  0.3823217E+03  0.7957747E-01  0.3441111E+00
         13   -1    0    0    0    0  0.00000000000E+00  0.00000000000E+00  0.14999999963E+04  0.15000000000E+04  0.10566000000E+00 0.  1.
        994   -1    0    0    0    0 -0.00000000000E+00 -0.00000000000E+00  0.11368683772E-12  0.17120000000E+03  0.17120000000E+03 0.  0.
         13    1    1    2    0    0 -0.32149684918E+02 -0.13566317216E+02  0.16746158336E+03  0.17105858724E+03  0.10566000000E+00 0.  1.
        994    1    1    2    0    0  0.37169866925E+02  0.33395038978E+02  0.11293494389E+02  0.17870033758E+03  0.17120000000E+03 0.  0.
        998    1    1    2    0    0 -0.50201820077E+01 -0.19828721762E+02  0.13212449185E+04  0.13214410752E+04  0.10000000000E+02 0.  1.
</event>
<event>
 5    1  0.1218060E-008  0.3826956E+03  0.7957747E-01  0.3439505E+00
         13   -1    0    0    0    0  0.00000000000E+00  0.00000000000E+00  0.14999999963E+04  0.15000000000E+04  0.10566000000E+00 0.  1.
        994   -1    0    0    0    0 -0.00000000000E+00 -0.00000000000E+00  0.11368683772E-12  0.17120000000E+03  0.17120000000E+03 0.  0.
         13    1    1    2    0    0 -0.73723850161E+01  0.11375751376E+02  0.31744846203E+02  0.34518201064E+02  0.10566000000E+00 0.  1.
        994    1    1    2    0    0  0.81100518105E+01 -0.94835656588E+01  0.32946653277E+01  0.17168577628E+03  0.17120000000E+03 0.  0.
        998    1    1    2    0    0 -0.73766679431E+00 -0.18921857174E+01  0.14649604847E+04  0.14649960227E+04  0.10000000000E+02 0.  1.
</event>
<event>
 5    1  0.1218060E-008  0.3806972E+03  0.7957747E-01  0.3448128E+00
         13   -1    0    0    0    0  0.00000000000E+00  0.00000000000E+00  0.14999999963E+04  0.15000000000E+04  0.10566000000E+00 0. -1.
        994   -1    0    0    0    0 -0.00000000000E+00 -0.00000000000E+00  0.11368683772E-12  0.17120000000E+03  0.17120000000E+03 0.  0.
         13    1    1    2    0    0 -0.54417781772E+01  0.84539277463E+01  0.11676002439E+02  0.15408505478E+02  0.10566000000E+00 0. -1.
        994    1    1    2    0    0  0.79880387361E+01 -0.53791016990E+01  0.40909996484E+01  0.17151944431E+03  0.17120000000E+03 0.  0.
        998    1    1    2    0    0 -0.25462605588E+01 -0.30748260472E+01  0.14842329942E+04  0.14842720502E+04  0.10000000000E+02 0. -1.
</event>
<event>
 5    1  0.1218060E-008  0.2861816E+03  0.7957747E-01  0.3999892E+00
         13   -1    0    0    0    0  0.00000000000E+00  0.00000000000E+00  0.14999999963E+04  0.15000000000E+04  0.10566000000E+00 0.  1.
        994   -1    0    0    0    0 -0.00000000000E+00 -0.00000000000E+00  0.11368683772E-12  0.17120000000E+03  0.17120000000E+03 0.  0.
         13    1    1    2    0    0  0.12189987710E+03 -0.13980529966E+03  0.53146317641E+03  0.56290160854E+03  0.10566000000E+00 0.  1.
        994    1    1    2    0    0 -0.11071033801E+03  0.15103655395E+03  0.16090150958E+03  0.30044559467E+03  0.17120000000E+03 0.  0.
        998    1    1    2    0    0 -0.11189539081E+02 -0.11231254291E+02  0.80763531029E+03  0.80785279679E+03  0.10000000000E+02 0. -1.
</event>
<event>
 5    1  0.1218060E-008  0.3735508E+03  0.7957747E-01  0.3479729E+00
         13   -1    0    0    0    0  0.00000000000E+00  0.00000000000E+00  0.14999999963E+04  0.15000000000E+04  0.10566000000E+00 0.  1.
        994   -1    0    0    0    0 -0.00000000000E+00 -0.00000000000E+00  0.11368683772E-12  0.17120000000E+03  0.17120000000E+03 0.  0.
         13    1    1    2    0    0  0.48368181538E+02 -0.43413504650E+02  0.15295793791E+03  0.16619372824E+03  0.10566000000E+00 0.  1.
        994    1    1    2    0    0 -0.35997024652E+02  0.37792062718E+02  0.22535327677E+02  0.18039209179E+03  0.17120000000E+03 0.  0.
        998    1    1    2    0    0 -0.12371156886E+02  0.56214419320E+01  0.13245067307E+04  0.13246141800E+04  0.10000000000E+02 0.  1.
</event>
<event>
 5    1  0.1218060E-008  0.3848825E+03  0.7957747E-01  0.3430171E+00
         13   -1    0    0    0    0  0.00000000000E+00  0.00000000000E+00  0.14999999963E+04  0.15000000000E+04  0.10566000000E+00 0.  1.
        994   -1    0    0    0    0 -0.00000000000E+00 -0.00000000000E+00  0.11368683772E-12  0.17120000000E+03  0.17120000000E+03 0.  0.
         13    1    1    2    0    0  0.13824126437E+02  0.12449544760E+02  0.10644355252E+03  0.10805710839E+03  0.10566000000E+00 0.  1.
        994    1    1    2    0    0 -0.66248328822E+01 -0.32493701884E+01  0.18676272916E+01  0.17136911871E+03  0.17120000000E+03 0.  0.
        998    1    1    2    0    0 -0.71992935551E+01 -0.92001745719E+01  0.13916888165E+04  0.13917737729E+04  0.10000000000E+02 0.  1.
</event>
<event>
 5    1  0.1218060E-008  0.3813203E+03  0.7957747E-01  0.3445430E+00
         13   -1    0    0    0    0  0.00000000000E+00  0.00000000000E+00  0.14999999963E+04  0.15000000000E+04  0.10566000000E+00 0. -1.
        994   -1    0    0    0    0 -0.00000000000E+00 -0.00000000000E+00  0.11368683772E-12  0.17120000000E+03  0.17120000000E+03 0.  0.
         13    1    1    2    0    0  0.82342489161E+01  0.38775155955E+02  0.23863359093E+03  0.24190352924E+03  0.10566000000E+00 0. -1.
        994    1    1    2    0    0  0.46559560483E+02 -0.32092986303E+02  0.14185655392E+02  0.18085470760E+03  0.17120000000E+03 0.  0.
        998    1    1    2    0    0 -0.54793809399E+02 -0.66821696519E+01  0.12471807500E+04  0.12484417632E+04  0.10000000000E+02 0. -1.
</event>
<event>
 5    1  0.1218060E-008  0.3824584E+03  0.7957747E-01  0.3440524E+00
         13   -1    0    0    0    0  0.00000000000E+00  0.00000000000E+00  0.14999999963E+04  0.15000000000E+04  0.10566000000E+00 0.  1.
        994   -1    0    0    0    0 -0.00000000000E+00 -0.00000000000E+00  0.11368683772E-12  0.17120000000E+03  0.17120000000E+03 0.  0.
         13    1    1    2    0    0  0.73742694484E+01  0.81456977840E+01  0.19598937944E+02  0.22469129375E+02  0.10566000000E+00 0.  1.
        994    1    1    2    0    0 -0.55030583823E+01 -0.80735137198E+01  0.32139235187E+01  0.17150870118E+03  0.17120000000E+03 0.  0.
        998    1    1    2    0    0 -0.18712110661E+01 -0.72184064279E-01  0.14771871348E+04  0.14772221694E+04  0.10000000000E+02 0.  1.
</event>
<event>
 5    1  0.1218060E-008  0.3805121E+03  0.7957747E-01  0.3448932E+00
         13   -1    0    0    0    0  0.00000000000E+00  0.00000000000E+00  0.14999999963E+04  0.15000000000E+04  0.10566000000E+00 0.  1.
        994   -1    0    0    0    0 -0.00000000000E+00 -0.00000000000E+00  0.11368683772E-12  0.17120000000E+03  0.17120000000E+03 0.  0.
         13    1    1    2    0    0  0.13792397431E+02  0.24308548226E+02  0.10269214999E+03  0.10642755554E+03  0.10566000000E+00 0.  1.
        994    1    1    2    0    0  0.91600728467E+01 -0.18251167647E+02  0.52677654482E+01  0.17249406195E+03  0.17120000000E+03 0.  0.
        998    1    1    2    0    0 -0.22952470277E+02 -0.60573805793E+01  0.13920400808E+04  0.13922783825E+04  0.10000000000E+02 0.  1.
</event>
<event>
 5    1  0.1218060E-008  0.3692928E+03  0.7957747E-01  0.3499147E+00
         13   -1    0    0    0    0  0.00000000000E+00  0.00000000000E+00  0.14999999963E+04  0.15000000000E+04  0.10566000000E+00 0.  1.
        994   -1    0    0    0    0 -0.00000000000E+00 -0.00000000000E+00  0.11368683772E-12  0.17120000000E+03  0.17120000000E+03 0.  0.
         13    1    1    2    0    0  0.42170826391E+02  0.80298043706E+02  0.34163233915E+03  0.35346685947E+03  0.10566000000E+00 0.  1.
        994    1    1    2    0    0 -0.32939377373E+02 -0.77357012086E+02  0.34557789727E+02  0.19383702105E+03  0.17120000000E+03 0.  0.
        998    1    1    2    0    0 -0.92314490184E+01 -0.29410316200E+01  0.11238098674E+04  0.11238961195E+04  0.10000000000E+02 0.  1.
</event>
<event>
 5    1  0.1218060E-008  0.3836997E+03  0.7957747E-01  0.3435206E+00
         13   -1    0    0    0    0  0.00000000000E+00  0.00000000000E+00  0.14999999963E+04  0.15000000000E+04  0.10566000000E+00 0.  1.
        994   -1    0    0    0    0 -0.00000000000E+00 -0.00000000000E+00  0.11368683772E-12  0.17120000000E+03  0.17120000000E+03 0.  0.
         13    1    1    2    0    0 -0.57939997273E+01  0.13437541585E+02  0.44831814897E+02  0.47159736510E+02  0.10566000000E+00 0.  1.
        994    1    1    2    0    0  0.41532928071E+01 -0.17224395880E+02  0.33145427762E+01  0.17214632104E+03  0.17120000000E+03 0.  0.
        998    1    1    2    0    0  0.16407069202E+01  0.37868542951E+01  0.14518536386E+04  0.14518939424E+04  0.10000000000E+02 0.  1.
</event>
<event>
 5    1  0.1218060E-008  0.3840955E+03  0.7957747E-01  0.3433517E+00
         13   -1    0    0    0    0  0.00000000000E+00  0.00000000000E+00  0.14999999963E+04  0.15000000000E+04  0.10566000000E+00 0.  1.
        994   -1    0    0    0    0 -0.00000000000E+00 -0.00000000000E+00  0.11368683772E-12  0.17120000000E+03  0.17120000000E+03 0.  0.
         13    1    1    2    0    0 -0.87513248016E+01  0.10056041121E+02  0.43322991343E+02  0.45327722111E+02  0.10566000000E+00 0.  1.
        994    1    1    2    0    0  0.69522325566E+01  0.12405765936E+01  0.22443782002E+01  0.17136029237E+03  0.17120000000E+03 0.  0.
        998    1    1    2    0    0  0.17990922451E+01 -0.11296617715E+02  0.14544326267E+04  0.14545119855E+04  0.10000000000E+02 0.  1.
</event>
<event>
 5    1  0.1218060E-008  0.3846508E+03  0.7957747E-01  0.3431154E+00
         13   -1    0    0    0    0  0.00000000000E+00  0.00000000000E+00  0.14999999963E+04  0.15000000000E+04  0.10566000000E+00 0. -1.
        994   -1    0    0    0    0 -0.00000000000E+00 -0.00000000000E+00  0.11368683772E-12  0.17120000000E+03  0.17120000000E+03 0.  0.
         13    1    1    2    0    0  0.66200992124E+01 -0.11413624604E+02  0.47585335996E+02  0.49380886040E+02  0.10566000000E+00 0. -1.
        994    1    1    2    0    0 -0.90840622567E+01  0.70480856775E+01  0.22389464996E+01  0.17160025810E+03  0.17120000000E+03 0.  0.
        998    1    1    2    0    0  0.24639630443E+01  0.43655389270E+01  0.14501757138E+04  0.14502188559E+04  0.10000000000E+02 0. -1.
</event>
<event>
 5    1  0.1218060E-008  0.3689957E+03  0.7957747E-01  0.3500519E+00
         13   -1    0    0    0    0  0.00000000000E+00  0.00000000000E+00  0.14999999963E+04  0.15000000000E+04  0.10566000000E+00 0.  1.
        994   -1    0    0    0    0 -0.00000000000E+00 -0.00000000000E+00  0.11368683772E-12  0.17120000000E+03  0.17120000000E+03 0.  0.
         13    1    1    2    0    0 -0.24171202428E+02 -0.13732479415E+02  0.34441449257E+02  0.44261186254E+02  0.10566000000E+00 0.  1.
        994    1    1    2    0    0  0.30562468218E+02  0.89300726052E+01  0.13320633487E+02  0.17464446724E+03  0.17120000000E+03 0.  0.
        998    1    1    2    0    0 -0.63912657903E+01  0.48024068100E+01  0.14522379135E+04  0.14522943465E+04  0.10000000000E+02 0.  1.
</event>
<event>
 5    1  0.1218060E-008  0.3766453E+03  0.7957747E-01  0.3465897E+00
         13   -1    0    0    0    0  0.00000000000E+00  0.00000000000E+00  0.14999999963E+04  0.15000000000E+04  0.10566000000E+00 0.  1.
        994   -1    0    0    0    0 -0.00000000000E+00 -0.00000000000E+00  0.11368683772E-12  0.17120000000E+03  0.17120000000E+03 0.  0.
         13    1    1    2    0    0  0.20941020118E+02 -0.28057911655E+02  0.14588651263E+03  0.15002885876E+03  0.10566000000E+00 0.  1.
        994    1    1    2    0    0  0.42528426920E+02 -0.18380452605E+02  0.13127062777E+02  0.17784338029E+03  0.17120000000E+03 0.  0.
        998    1    1    2    0    0 -0.63469447038E+02  0.46438364260E+02  0.13409864209E+04  0.13433277610E+04  0.10000000000E+02 0.  1.
</event>
<event>
 5    1  0.1218060E-008  0.3862958E+03  0.7957747E-01  0.3424195E+00
         13   -1    0    0    0    0  0.00000000000E+00  0.00000000000E+00  0.14999999963E+04  0.15000000000E+04  0.10566000000E+00 0.  1.
        994   -1    0    0    0    0 -0.00000000000E+00 -0.00000000000E+00  0.11368683772E-12  0.17120000000E+03  0.17120000000E+03 0.  0.
         13    1    1    2    0    0 -0.11655006155E+02  0.19760335121E+01  0.68606396624E+02  0.69617474090E+02  0.10566000000E+00 0.  1.
        994    1    1    2    0    0  0.13163711232E+02 -0.35502094235E+01  0.15971693923E+01  0.17174946355E+03  0.17120000000E+03 0.  0.
        998    1    1    2    0    0 -0.15087050771E+01  0.15741759113E+01  0.14297964303E+04  0.14298330624E+04  0.10000000000E+02 0.  1.
</event>
<event>
 5    1  0.1218060E-008  0.3861509E+03  0.7957747E-01  0.3424806E+00
         13   -1    0    0    0    0  0.00000000000E+00  0.00000000000E+00  0.14999999963E+04  0.15000000000E+04  0.10566000000E+00 0.  1.
        994   -1    0    0    0    0 -0.00000000000E+00 -0.00000000000E+00  0.11368683772E-12  0.17120000000E+03  0.17120000000E+03 0.  0.
         13    1    1    2    0    0 -0.10868888816E+02  0.10896998408E+01  0.62482150403E+02  0.63429886275E+02  0.10566000000E+00 0.  1.
        994    1    1    2    0    0 -0.50120032870E+01 -0.89173156231E+01  0.14027486341E+01  0.17151106786E+03  0.17120000000E+03 0.  0.
        998    1    1    2    0    0  0.15880892103E+02  0.78276157823E+01  0.14361150972E+04  0.14362590459E+04  0.10000000000E+02 0.  1.
</event>
<event>
 5    1  0.1218060E-008  0.3841661E+03  0.7957747E-01  0.3433217E+00
         13   -1    0    0    0    0  0.00000000000E+00  0.00000000000E+00  0.14999999963E+04  0.15000000000E+04  0.10566000000E+00 0. -1.
        994   -1    0    0    0    0 -0.00000000000E+00 -0.00000000000E+00  0.11368683772E-12  0.17120000000E+03  0.17120000000E+03 0.  0.
         13    1    1    2    0    0  0.15111420846E+02  0.11754398845E+02  0.94525566685E+02  0.96444879871E+02  0.10566000000E+00 0. -1.
        994    1    1    2    0    0  0.76183857812E+00 -0.74330271874E+01  0.22288389038E+01  0.17137747231E+03  0.17120000000E+03 0.  0.
        998    1    1    2    0    0 -0.15873259424E+02 -0.43213716580E+01  0.14032455907E+04  0.14033776478E+04  0.10000000000E+02 0. -1.
</event>
<event>
 5    1  0.1218060E-008  0.3840711E+03  0.7957747E-01  0.3433621E+00
         13   -1    0    0    0    0  0.00000000000E+00  0.00000000000E+00  0.14999999963E+04  0.15000000000E+04  0.10566000000E+00 0. -1.
        994   -1    0    0    0    0 -0.00000000000E+00 -0.00000000000E+00  0.11368683772E-12  0.17120000000E+03  0.17120000000E+03 0.  0.
         13    1    1    2    0    0  0.24975559741E+01  0.17887718233E+02  0.80503369835E+02  0.82504617860E+02  0.10566000000E+00 0. -1.
        994    1    1    2    0    0 -0.15340685632E+02 -0.38889174645E+01  0.29186195361E+01  0.17195469943E+03  0.17120000000E+03 0.  0.
        998    1    1    2    0    0  0.12843129658E+02 -0.13998800768E+02  0.14165780069E+04  0.14167406827E+04  0.10000000000E+02 0. -1.
</event>
<event>
 5    1  0.1218060E-008  0.3822999E+03  0.7957747E-01  0.3441205E+00
         13   -1    0    0    0    0  0.00000000000E+00  0.00000000000E+00  0.14999999963E+04  0.15000000000E+04  0.10566000000E+00 0.  1.
        994   -1    0    0    0    0 -0.00000000000E+00 -0.00000000000E+00  0.11368683772E-12  0.17120000000E+03  0.17120000000E+03 0.  0.
         13    1    1    2    0    0  0.35042219352E+02  0.11239531737E+02  0.19917174920E+03  0.20254303507E+03  0.10566000000E+00 0.  1.
        994    1    1    2    0    0 -0.32368567196E+02 -0.19715590334E+02  0.77569856968E+01  0.17551649345E+03  0.17120000000E+03 0.  0.
        998    1    1    2    0    0 -0.26736521554E+01  0.84760585970E+01  0.12930712614E+04  0.12931404715E+04  0.10000000000E+02 0.  1.
</event>
<event>
 5    1  0.1218060E-008  0.3798092E+03  0.7957747E-01  0.3451990E+00
         13   -1    0    0    0    0  0.00000000000E+00  0.00000000000E+00  0.14999999963E+04  0.15000000000E+04  0.10566000000E+00 0.  1.
        994   -1    0    0    0    0 -0.00000000000E+00 -0.00000000000E+00  0.11368683772E-12  0.17120000000E+03  0.17120000000E+03 0.  0.
         13    1    1    2    0    0  0.23990703450E+01  0.26895666389E+02  0.10278020518E+03  0.10626812386E+03  0.10566000000E+00 0.  1.
        994    1    1    2    0    0  0.15826636792E+01  0.19793228060E+02  0.55494566385E+01  0.17243698319E+03  0.17120000000E+03 0.  0.
        998    1    1    2    0    0 -0.39817340243E+01 -0.46688894448E+02  0.13916703345E+04  0.13924948930E+04  0.10000000000E+02 0.  1.
</event>
<event>
 5    1  0.1218060E-008  0.3843439E+03  0.7957747E-01  0.3432460E+00
         13   -1    0    0    0    0  0.00000000000E+00  0.00000000000E+00  0.14999999963E+04  0.15000000000E+04  0.10566000000E+00 0.  1.
        994   -1    0    0    0    0 -0.00000000000E+00 -0.00000000000E+00  0.11368683772E-12  0.17120000000E+03  0.17120000000E+03 0.  0.
         13    1    1    2    0    0  0.40064375751E+01  0.12935385752E+02  0.44938551228E+02  0.46934638564E+02  0.10566000000E+00 0.  1.
        994    1    1    2    0    0 -0.35048428388E+01 -0.15785438480E+02  0.28184169469E+01  0.17198502105E+03  0.17120000000E+03 0.  0.
        998    1    1    2    0    0 -0.50159473632E+00  0.28500527280E+01  0.14522430281E+04  0.14522803404E+04  0.10000000000E+02 0.  1.
</event>
<event>
 5    1  0.1218060E-008  0.3700623E+03  0.7957747E-01  0.3495604E+00
         13   -1    0    0    0    0  0.00000000000E+00  0.00000000000E+00  0.14999999963E+04  0.15000000000E+04  0.10566000000E+00 0. -1.
        994   -1    0    0    0    0 -0.00000000000E+00 -0.00000000000E+00  0.11368683772E-12  0.17120000000E+03  0.17120000000E+03 0.  0.
         13    1    1    2    0    0  0.60262988009E+02 -0.57802785028E+01  0.16452259387E+03  0.17530754234E+03  0.10566000000E+00 0. -1.
        994    1    1    2    0    0 -0.68269553539E+02  0.64977522608E+02  0.40602276615E+02  0.19960159130E+03  0.17120000000E+03 0.  0.
        998    1    1    2    0    0  0.80065655305E+01 -0.59197244105E+02  0.12948751258E+04  0.12962908664E+04  0.10000000000E+02 0. -1.
</event>
<event>
 5    1  0.1218060E-008  0.3831574E+03  0.7957747E-01  0.3437525E+00
         13   -1    0    0    0    0  0.00000000000E+00  0.00000000000E+00  0.14999999963E+04  0.15000000000E+04  0.10566000000E+00 0.  1.
        994   -1    0    0    0    0 -0.00000000000E+00 -0.00000000000E+00  0.11368683772E-12  0.17120000000E+03  0.17120000000E+03 0.  0.
         13    1    1    2    0    0 -0.24798482622E+01 -0.18145417420E+02  0.64908148715E+02  0.67442455133E+02  0.10566000000E+00 0.  1.
        994    1    1    2    0    0  0.31495952473E+01  0.12129532237E+02  0.30674635749E+01  0.17168545318E+03  0.17120000000E+03 0.  0.
        998    1    1    2    0    0 -0.66974698508E+00  0.60158851832E+01  0.14320243840E+04  0.14320720917E+04  0.10000000000E+02 0.  1.
</event>
<event>
 5    1  0.1218060E-008  0.3696269E+03  0.7957747E-01  0.3497607E+00
         13   -1    0    0    0    0  0.00000000000E+00  0.00000000000E+00  0.14999999963E+04  0.15000000000E+04  0.10566000000E+00 0. -1.
        994   -1    0    0    0    0 -0.00000000000E+00 -0.00000000000E+00  0.11368683772E-12  0.17120000000E+03  0.17120000000E+03 0.  0.
         13    1    1    2    0    0  0.29357795856E+02 -0.71335147301E+01  0.45418830725E+02  0.54549505574E+02  0.10566000000E+00 0. -1.
        994    1    1    2    0    0 -0.15435092492E+02 -0.76637793034E+01  0.10493011101E+02  0.17238479885E+03  0.17120000000E+03 0.  0.
        998    1    1    2    0    0 -0.13922703364E+02  0.14797294034E+02  0.14440881545E+04  0.14442656956E+04  0.10000000000E+02 0. -1.
</event>
<event>
 5    1  0.1218060E-008  0.3800527E+03  0.7957747E-01  0.3450929E+00
         13   -1    0    0    0    0  0.00000000000E+00  0.00000000000E+00  0.14999999963E+04  0.15000000000E+04  0.10566000000E+00 0.  1.
        994   -1    0    0    0    0 -0.00000000000E+00 -0.00000000000E+00  0.11368683772E-12  0.17120000000E+03  0.17120000000E+03 0.  0.
         13    1    1    2    0    0 -0.26708960690E+02 -0.10696647906E+02  0.96716976405E+02  0.10090575576E+03  0.10566000000E+00 0.  1.
        994    1    1    2    0    0  0.24155421643E+02  0.13770506974E+01  0.60655207960E+01  0.17300754667E+03  0.17120000000E+03 0.  0.
        998    1    1    2    0    0  0.25535390474E+01  0.93195972083E+01  0.13972174991E+04  0.13972866976E+04  0.10000000000E+02 0.  1.
</event>
<event>
 5    1  0.1218060E-008  0.3724209E+03  0.7957747E-01  0.3484839E+00
         13   -1    0    0    0    0  0.00000000000E+00  0.00000000000E+00  0.14999999963E+04  0.15000000000E+04  0.10566000000E+00 0.  1.
        994   -1    0    0    0    0 -0.00000000000E+00 -0.00000000000E+00  0.11368683772E-12  0.17120000000E+03  0.17120000000E+03 0.  0.
         13    1    1    2    0    0 -0.78906119181E+01 -0.41732850068E+02  0.99534024758E+02  0.10821703091E+03  0.10566000000E+00 0.  1.
        994    1    1    2    0    0  0.28641195356E+02  0.46713243262E+02  0.18375790312E+02  0.18069187817E+03  0.17120000000E+03 0.  0.
        998    1    1    2    0    0 -0.20750583438E+02 -0.49803931937E+01  0.13820901812E+04  0.13822910909E+04  0.10000000000E+02 0.  1.
</event>
<event>
 5    1  0.1218060E-008  0.3248915E+03  0.7957747E-01  0.3732921E+00
         13   -1    0    0    0    0  0.00000000000E+00  0.00000000000E+00  0.14999999963E+04  0.15000000000E+04  0.10566000000E+00 0.  1.
        994   -1    0    0    0    0 -0.00000000000E+00 -0.00000000000E+00  0.11368683772E-12  0.17120000000E+03  0.17120000000E+03 0.  0.
         13    1    1    2    0    0 -0.14530300365E+03 -0.13160603362E+03  0.85519097268E+03  0.87737376407E+03  0.10566000000E+00 0.  1.
        994    1    1    2    0    0  0.87105914147E+02  0.18881404752E+03  0.18508674028E+03  0.32680992373E+03  0.17120000000E+03 0.  0.
        998    1    1    2    0    0  0.58197089503E+02 -0.57208013907E+02  0.45972228332E+03  0.46701631220E+03  0.10000000000E+02 0.  1.
</event>
<event>
 5    1  0.1246500E-008  0.3857659E+03  0.7957747E-01  0.3426430E+00
         13   -1    0    0    0    0  0.00000000000E+00  0.00000000000E+00  0.14999999963E+04  0.15000000000E+04  0.10566000000E+00 0.  1.
        994   -1    0    0    0    0 -0.00000000000E+00 -0.00000000000E+00  0.11368683772E-12  0.17120000000E+03  0.17120000000E+03 0.  0.
         13    1    1    2    0    0  0.40205488980E+01 -0.93610264430E+01  0.41553196722E+02  0.42784026825E+02  0.10566000000E+00 0.  1.
        994    1    1    2    0    0 -0.38516823944E+01  0.69713894915E+01  0.14584862293E+01  0.17139137350E+03  0.17120000000E+03 0.  0.
        998    1    1    2    0    0 -0.16886650363E+00  0.23896369515E+01  0.14569883133E+04  0.14570245997E+04  0.10000000000E+02 0.  1.
</event>
<event>
 5    1  0.1218060E-008  0.3831349E+03  0.7957747E-01  0.3437621E+00
         13   -1    0    0    0    0  0.00000000000E+00  0.00000000000E+00  0.14999999963E+04  0.15000000000E+04  0.10566000000E+00 0.  1.
        994   -1    0    0    0    0 -0.00000000000E+00 -0.00000000000E+00  0.11368683772E-12  0.17120000000E+03  0.17120000000E+03 0.  0.
         13    1    1    2    0    0  0.13960356162E+02  0.12066817724E+00  0.36750969998E+02  0.39313497235E+02  0.10566000000E+00 0.  1.
        994    1    1    2    0    0 -0.12968815673E+02 -0.34508437135E+01  0.31550660513E+01  0.17175416427E+03  0.17120000000E+03 0.  0.
        998    1    1    2    0    0 -0.99154048904E+00  0.33301755363E+01  0.14600939602E+04  0.14601323385E+04  0.10000000000E+02 0.  1.
</event>
<event>
 5    1  0.1218060E-008  0.3852235E+03  0.7957747E-01  0.3428725E+00
         13   -1    0    0    0    0  0.00000000000E+00  0.00000000000E+00  0.14999999963E+04  0.15000000000E+04  0.10566000000E+00 0. -1.
        994   -1    0    0    0    0 -0.00000000000E+00 -0.00000000000E+00  0.11368683772E-12  0.17120000000E+03  0.17120000000E+03 0.  0.
         13    1    1    2    0    0 -0.99648303616E+01 -0.49553209425E+01  0.43503598219E+02  0.44904646439E+02  0.10566000000E+00 0. -1.
        994    1    1    2    0    0 -0.87126794648E+01  0.76682357817E+01  0.19620616662E+01  0.17160420248E+03  0.17120000000E+03 0.  0.
        998    1    1    2    0    0  0.18677509826E+02 -0.27129148391E+01  0.14545343364E+04  0.14546911511E+04  0.10000000000E+02 0. -1.
</event>
<event>
 5    1  0.1218060E-008  0.3797468E+03  0.7957747E-01  0.3452262E+00
         13   -1    0    0    0    0  0.00000000000E+00  0.00000000000E+00  0.14999999963E+04  0.15000000000E+04  0.10566000000E+00 0.  1.
        994   -1    0    0    0    0 -0.00000000000E+00 -0.00000000000E+00  0.11368683772E-12  0.17120000000E+03  0.17120000000E+03 0.  0.
         13    1    1    2    0    0 -0.80262915017E+01 -0.76082985205E+01  0.12330373783E+02  0.16563720697E+02  0.10566000000E+00 0.  1.
        994    1    1    2    0    0  0.90132992683E+01  0.98441258951E+01  0.48572581782E+01  0.17178818159E+03  0.17120000000E+03 0.  0.
        998    1    1    2    0    0 -0.98700776663E+00 -0.22358273746E+01  0.14828123643E+04  0.14828480977E+04  0.10000000000E+02 0.  1.
</event>
<event>
 5    1  0.1218060E-008  0.3752171E+03  0.7957747E-01  0.3472252E+00
         13   -1    0    0    0    0  0.00000000000E+00  0.00000000000E+00  0.14999999963E+04  0.15000000000E+04  0.10566000000E+00 0.  1.
        994   -1    0    0    0    0 -0.00000000000E+00 -0.00000000000E+00  0.11368683772E-12  0.17120000000E+03  0.17120000000E+03 0.  0.
         13    1    1    2    0    0  0.25730588540E+02 -0.45190695620E+02  0.26618711614E+03  0.27121919940E+03  0.10566000000E+00 0.  1.
        994    1    1    2    0    0 -0.21961032658E+02 -0.18366956976E+02  0.93563459158E+01  0.17382926472E+03  0.17120000000E+03 0.  0.
        998    1    1    2    0    0 -0.37695558825E+01  0.63557652596E+02  0.12244565342E+04  0.12261515359E+04  0.10000000000E+02 0.  1.
</event>
<event>
 5    1  0.1218060E-008  0.3702710E+03  0.7957747E-01  0.3494646E+00
         13   -1    0    0    0    0  0.00000000000E+00  0.00000000000E+00  0.14999999963E+04  0.15000000000E+04  0.10566000000E+00 0.  1.
        994   -1    0    0    0    0 -0.00000000000E+00 -0.00000000000E+00  0.11368683772E-12  0.17120000000E+03  0.17120000000E+03 0.  0.
         13    1    1    2    0    0  0.39637323799E+02  0.16013601213E+02  0.87544698553E+02  0.97425039238E+02  0.10566000000E+00 0.  1.
        994    1    1    2    0    0 -0.54396767092E+02 -0.12857027614E+02  0.19998762211E+02  0.18120072273E+03  0.17120000000E+03 0.  0.
        998    1    1    2    0    0  0.14759443294E+02 -0.31565735984E+01  0.13924565355E+04  0.13925742380E+04  0.10000000000E+02 0.  1.
</event>
<event>
 5    1  0.1218060E-008  0.3802406E+03  0.7957747E-01  0.3450111E+00
         13   -1    0    0    0    0  0.00000000000E+00  0.00000000000E+00  0.14999999963E+04  0.15000000000E+04  0.10566000000E+00 0.  1.
        994   -1    0    0    0    0 -0.00000000000E+00 -0.00000000000E+00  0.11368683772E-12  0.17120000000E+03  0.17120000000E+03 0.  0.
         13    1    1    2    0    0  0.19120894300E+02  0.41527575634E+02  0.14731111807E+03  0.15424242221E+03  0.10566000000E+00 0.  1.
        994    1    1    2    0    0 -0.62736698530E+02 -0.10472033487E+03  0.55509891653E+02  0.21746960695E+03  0.17120000000E+03 0.  0.
        998    1    1    2    0    0  0.43615804231E+02  0.63192759232E+02  0.12971789866E+04  0.12994879708E+04  0.10000000000E+02 0.  1.
</event>
<event>
 5    1  0.1218060E-008  0.3817637E+03  0.7957747E-01  0.3443515E+00
         13   -1    0    0    0    0  0.00000000000E+00  0.00000000000E+00  0.14999999963E+04  0.15000000000E+04  0.10566000000E+00 0.  1.
        994   -1    0    0    0    0 -0.00000000000E+00 -0.00000000000E+00  0.11368683772E-12  0.17120000000E+03  0.17120000000E+03 0.  0.
         13    1    1    2    0    0  0.91034526382E+01  0.24196825490E+02  0.10062465739E+03  0.10389269489E+03  0.10566000000E+00 0.  1.
        994    1    1    2    0    0 -0.11742110639E+02 -0.14901020719E+02  0.44425805338E+01  0.17230523527E+03  0.17120000000E+03 0.  0.
        998    1    1    2    0    0  0.26386580004E+01 -0.92958047704E+01  0.13949327584E+04  0.13950020698E+04  0.10000000000E+02 0.  1.
</event>
<event>
 5    1  0.1218060E-008  0.3786876E+03  0.7957747E-01  0.3456893E+00
         13   -1    0    0    0    0  0.00000000000E+00  0.00000000000E+00  0.14999999963E+04  0.15000000000E+04  0.10566000000E+00 0. -1.
        994   -1    0    0    0    0 -0.00000000000E+00 -0.00000000000E+00  0.11368683772E-12  0.17120000000E+03  0.17120000000E+03 0.  0.
         13    1    1    2    0    0  0.94745104802E+02  0.64824067071E+01  0.57298360592E+03  0.58080020687E+03  0.10566000000E+00 0. -1.
        994    1    1    2    0    0 -0.95050866321E+02  0.67959203679E+00  0.35757149659E+02  0.19905562736E+03  0.17120000000E+03 0.  0.
        998    1    1    2    0    0  0.30576151928E+00 -0.71619987439E+01  0.89125924070E+03  0.89134416577E+03  0.10000000000E+02 0. -1.
</event>
<event>
 5    1  0.1218060E-008  0.3687120E+03  0.7957747E-01  0.3501831E+00
         13   -1    0    0    0    0  0.00000000000E+00  0.00000000000E+00  0.14999999963E+04  0.15000000000E+04  0.10566000000E+00 0.  1.
        994   -1    0    0    0    0 -0.00000000000E+00 -0.00000000000E+00  0.11368683772E-12  0.17120000000E+03  0.17120000000E+03 0.  0.
         13    1    1    2    0    0  0.36951178522E+02  0.26875475759E+02  0.10729378837E+03  0.11661753290E+03  0.10566000000E+00 0.  1.
        994    1    1    2    0    0  0.59352611562E+00 -0.92084261904E+01  0.10555742130E+02  0.17177313841E+03  0.17120000000E+03 0.  0.
        998    1    1    2    0    0 -0.37544704638E+02 -0.17667049569E+02  0.13821504658E+04  0.13828093287E+04  0.10000000000E+02 0.  1.
</event>
<event>
 5    1  0.1218060E-008  0.3834332E+03  0.7957747E-01  0.3436344E+00
         13   -1    0    0    0    0  0.00000000000E+00  0.00000000000E+00  0.14999999963E+04  0.15000000000E+04  0.10566000000E+00 0. -1.
        994   -1    0    0    0    0 -0.00000000000E+00 -0.00000000000E+00  0.11368683772E-12  0.17120000000E+03  0.17120000000E+03 0.  0.
         13    1    1    2    0    0 -0.19522910153E+01  0.17915914049E+02  0.63800849616E+02  0.66297443331E+02  0.10566000000E+00 0. -1.
        994    1    1    2    0    0 -0.18385733861E+02 -0.22826716267E+02  0.52548666695E+01  0.17377038818E+03  0.17120000000E+03 0.  0.
        998    1    1    2    0    0  0.20338024877E+02  0.49108022177E+01  0.14309442800E+04  0.14311321685E+04  0.10000000000E+02 0. -1.
</event>
<event>
 5    1  0.1218060E-008  0.3850222E+03  0.7957747E-01  0.3429578E+00
         13   -1    0    0    0    0  0.00000000000E+00  0.00000000000E+00  0.14999999963E+04  0.15000000000E+04  0.10566000000E+00 0.  1.
        994   -1    0    0    0    0 -0.00000000000E+00 -0.00000000000E+00  0.11368683772E-12  0.17120000000E+03  0.17120000000E+03 0.  0.
         13    1    1    2    0    0 -0.11362346675E+02  0.11892591680E+02  0.81939387368E+02  0.83573985337E+02  0.10566000000E+00 0.  1.
        994    1    1    2    0    0  0.55274737307E+01 -0.13458043849E+02  0.23154901307E+01  0.17183269015E+03  0.17120000000E+03 0.  0.
        998    1    1    2    0    0  0.58348729439E+01  0.15654521688E+01  0.14157451188E+04  0.14157933245E+04  0.10000000000E+02 0.  1.
</event>
<event>
 5    1  0.1218060E-008  0.3745523E+03  0.7957747E-01  0.3475228E+00
         13   -1    0    0    0    0  0.00000000000E+00  0.00000000000E+00  0.14999999963E+04  0.15000000000E+04  0.10566000000E+00 0. -1.
        994   -1    0    0    0    0 -0.00000000000E+00 -0.00000000000E+00  0.11368683772E-12  0.17120000000E+03  0.17120000000E+03 0.  0.
         13    1    1    2    0    0  0.30556631045E+02 -0.10506313607E+03  0.49407113928E+03  0.50604176912E+03  0.10566000000E+00 0. -1.
        994    1    1    2    0    0 -0.53148026468E+02  0.11187497921E+03  0.61072757785E+02  0.21995464404E+03  0.17120000000E+03 0.  0.
        998    1    1    2    0    0  0.22591395423E+02 -0.68118431381E+01  0.94485609921E+03  0.94520358684E+03  0.10000000000E+02 0. -1.
</event>
<event>
 5    1  0.1218060E-008  0.3714725E+03  0.7957747E-01  0.3489151E+00
         13   -1    0    0    0    0  0.00000000000E+00  0.00000000000E+00  0.14999999963E+04  0.15000000000E+04  0.10566000000E+00 0. -1.
        994   -1    0    0    0    0 -0.00000000000E+00 -0.00000000000E+00  0.11368683772E-12  0.17120000000E+03  0.17120000000E+03 0.  0.
         13    1    1    2    0    0  0.10447260544E+02  0.28825424017E+02  0.36323924338E+02  0.47534082151E+02  0.10566000000E+00 0. -1.
        994    1    1    2    0    0 -0.99534090276E+02 -0.11136136926E+03  0.89644497971E+02  0.24424161338E+03  0.17120000000E+03 0.  0.
        998    1    1    2    0    0  0.89086829732E+02  0.82535945244E+02  0.13740315740E+04  0.13794243045E+04  0.10000000000E+02 0. -1.
</event>
<event>
 5    1  0.1218060E-008  0.3724910E+03  0.7957747E-01  0.3484521E+00
         13   -1    0    0    0    0  0.00000000000E+00  0.00000000000E+00  0.14999999963E+04  0.15000000000E+04  0.10566000000E+00 0. -1.
        994   -1    0    0    0    0 -0.00000000000E+00 -0.00000000000E+00  0.11368683772E-12  0.17120000000E+03  0.17120000000E+03 0.  0.
         13    1    1    2    0    0  0.12928491108E+01 -0.17861012291E+02  0.16031635832E+02  0.24035634595E+02  0.10566000000E+00 0. -1.
        994    1    1    2    0    0  0.32153491652E+02  0.29947106840E+02  0.14620746595E+02  0.17735242447E+03  0.17120000000E+03 0.  0.
        998    1    1    2    0    0 -0.33446340763E+02 -0.12086094549E+02  0.14693476139E+04  0.14698119409E+04  0.10000000000E+02 0. -1.
</event>
<event>
 5    1  0.1218060E-008  0.3830790E+03  0.7957747E-01  0.3437861E+00
         13   -1    0    0    0    0  0.00000000000E+00  0.00000000000E+00  0.14999999963E+04  0.15000000000E+04  0.10566000000E+00 0.  1.
        994   -1    0    0    0    0 -0.00000000000E+00 -0.00000000000E+00  0.11368683772E-12  0.17120000000E+03  0.17120000000E+03 0.  0.
         13    1    1    2    0    0  0.50632361839E+01  0.21618120233E+02  0.11759449965E+03  0.11967229000E+03  0.10566000000E+00 0.  1.
        994    1    1    2    0    0 -0.19768425901E+01  0.17517523684E+02  0.36160072835E+01  0.17214321669E+03  0.17120000000E+03 0.  0.
        998    1    1    2    0    0 -0.30863935938E+01 -0.39135643917E+02  0.13787894893E+04  0.13793844933E+04  0.10000000000E+02 0.  1.
</event>
<event>
 5    1  0.1218060E-008  0.3767535E+03  0.7957747E-01  0.3465417E+00
         13   -1    0    0    0    0  0.00000000000E+00  0.00000000000E+00  0.14999999963E+04  0.15000000000E+04  0.10566000000E+00 0.  1.
        994   -1    0    0    0    0 -0.00000000000E+00 -0.00000000000E+00  0.11368683772E-12  0.17120000000E+03  0.17120000000E+03 0.  0.
         13    1    1    2    0    0  0.43222484690E+02  0.56477920591E+02  0.34603009901E+03  0.35326304545E+03  0.10566000000E+00 0.  1.
        994    1    1    2    0    0 -0.36770946232E+02 -0.57071611170E+02  0.21518850294E+02  0.18542322456E+03  0.17120000000E+03 0.  0.
        998    1    1    2    0    0 -0.64515384582E+01  0.59369057841E+00  0.11324510470E+04  0.11325137300E+04  0.10000000000E+02 0.  0.
</event>
<event>
 5    1  0.1218060E-008  0.3710447E+03  0.7957747E-01  0.3491104E+00
         13   -1    0    0    0    0  0.00000000000E+00  0.00000000000E+00  0.14999999963E+04  0.15000000000E+04  0.10566000000E+00 0.  1.
        994   -1    0    0    0    0 -0.00000000000E+00 -0.00000000000E+00  0.11368683772E-12  0.17120000000E+03  0.17120000000E+03 0.  0.
         13    1    1    2    0    0  0.10659146615E+02  0.22402128671E+02  0.32543564858E+02  0.40921480340E+02  0.10566000000E+00 0.  1.
        994    1    1    2    0    0  0.17056435899E+01 -0.86541590856E+01  0.89921552250E+01  0.17166275818E+03  0.17120000000E+03 0.  0.
        998    1    1    2    0    0 -0.12364790205E+02 -0.13747969585E+02  0.14584642762E+04  0.14586157615E+04  0.10000000000E+02 0.  1.
</event>
<event>
 5    1  0.1218060E-008  0.3763527E+03  0.7957747E-01  0.3467195E+00
         13   -1    0    0    0    0  0.00000000000E+00  0.00000000000E+00  0.14999999963E+04  0.15000000000E+04  0.10566000000E+00 0. -1.
        994   -1    0    0    0    0 -0.00000000000E+00 -0.00000000000E+00  0.11368683772E-12  0.17120000000E+03  0.17120000000E+03 0.  0.
         13    1    1    2    0    0 -0.58064537883E+01 -0.18785584821E+02  0.29473496848E+02  0.35430372326E+02  0.10566000000E+00 0. -1.
        994    1    1    2    0    0  0.87745589712E+01  0.16003203900E+02  0.71136674067E+01  0.17231697445E+03  0.17120000000E+03 0.  0.
        998    1    1    2    0    0 -0.29681051828E+01  0.27823809203E+01  0.14634128320E+04  0.14634526532E+04  0.10000000000E+02 0. -1.
</event>
<event>
 5    1  0.1218060E-008  0.3824513E+03  0.7957747E-01  0.3440554E+00
         13   -1    0    0    0    0  0.00000000000E+00  0.00000000000E+00  0.14999999963E+04  0.15000000000E+04  0.10566000000E+00 0.  1.
        994   -1    0    0    0    0 -0.00000000000E+00 -0.00000000000E+00  0.11368683772E-12  0.17120000000E+03  0.17120000000E+03 0.  0.
         13    1    1    2    0    0 -0.14167103682E+02 -0.18979373359E+01  0.34481241047E+02  0.37326614379E+02  0.10566000000E+00 0.  1.
        994    1    1    2    0    0  0.69324906435E+01  0.47214767914E+01  0.31341759771E+01  0.17143399555E+03  0.17120000000E+03 0.  0.
        998    1    1    2    0    0  0.72346130389E+01 -0.28235394554E+01  0.14623845793E+04  0.14624393901E+04  0.10000000000E+02 0.  1.
</event>
<event>
 5    1  0.1218060E-008  0.3828750E+03  0.7957747E-01  0.3438735E+00
         13   -1    0    0    0    0  0.00000000000E+00  0.00000000000E+00  0.14999999963E+04  0.15000000000E+04  0.10566000000E+00 0. -1.
        994   -1    0    0    0    0 -0.00000000000E+00 -0.00000000000E+00  0.11368683772E-12  0.17120000000E+03  0.17120000000E+03 0.  0.
         13    1    1    2    0    0  0.17028886956E+02 -0.10021561527E+02  0.68725746331E+02  0.71509817922E+02  0.10566000000E+00 0. -1.
        994    1    1    2    0    0 -0.22299802609E+02  0.39276260701E+01  0.43885103951E+01  0.17274665399E+03  0.17120000000E+03 0.  0.
        998    1    1    2    0    0  0.52709156536E+01  0.60939354566E+01  0.14268857396E+04  0.14269435281E+04  0.10000000000E+02 0. -1.
</event>
<event>
 5    1  0.1218060E-008  0.3738949E+03  0.7957747E-01  0.3478180E+00
         13   -1    0    0    0    0  0.00000000000E+00  0.00000000000E+00  0.14999999963E+04  0.15000000000E+04  0.10566000000E+00 0.  1.
        994   -1    0    0    0    0 -0.00000000000E+00 -0.00000000000E+00  0.11368683772E-12  0.17120000000E+03  0.17120000000E+03 0.  0.
         13    1    1    2    0    0  0.11462153586E+02 -0.41701258863E+02  0.11874838137E+03  0.12637865800E+03  0.10566000000E+00 0.  1.
        994    1    1    2    0    0 -0.12217624260E+02  0.38650860357E+02  0.12874355770E+02  0.17640393529E+03  0.17120000000E+03 0.  0.
        998    1    1    2    0    0  0.75547067419E+00  0.30503985067E+01  0.13683772591E+04  0.13684174067E+04  0.10000000000E+02 0.  0.
</event>
<event>
 5    1  0.1218060E-008  0.3849081E+03  0.7957747E-01  0.3430062E+00
         13   -1    0    0    0    0  0.00000000000E+00  0.00000000000E+00  0.14999999963E+04  0.15000000000E+04  0.10566000000E+00 0.  1.
        994   -1    0    0    0    0 -0.00000000000E+00 -0.00000000000E+00  0.11368683772E-12  0.17120000000E+03  0.17120000000E+03 0.  0.
         13    1    1    2    0    0  0.90256664762E+01  0.13757585244E+02  0.83569510130E+02  0.85173986607E+02  0.10566000000E+00 0.  1.
        994    1    1    2    0    0 -0.57176181507E+01 -0.33099000355E+01  0.18193496999E+01  0.17133708480E+03  0.17120000000E+03 0.  0.
        998    1    1    2    0    0 -0.33080483255E+01 -0.10447685209E+02  0.14146111364E+04  0.14146889286E+04  0.10000000000E+02 0.  1.
</event>
<event>
 5    1  0.1218060E-008  0.3846555E+03  0.7957747E-01  0.3431135E+00
         13   -1    0    0    0    0  0.00000000000E+00  0.00000000000E+00  0.14999999963E+04  0.15000000000E+04  0.10566000000E+00 0.  1.
        994   -1    0    0    0    0 -0.00000000000E+00 -0.00000000000E+00  0.11368683772E-12  0.17120000000E+03  0.17120000000E+03 0.  0.
         13    1    1    2    0    0 -0.12897709895E+02  0.84088736171E+01  0.65393989312E+02  0.67182178279E+02  0.10566000000E+00 0.  1.
        994    1    1    2    0    0  0.11632382885E+02 -0.18568079318E+01  0.22582738932E+01  0.17161963719E+03  0.17120000000E+03 0.  0.
        998    1    1    2    0    0  0.12653270107E+01 -0.65520656852E+01  0.14323477331E+04  0.14323981845E+04  0.10000000000E+02 0.  1.
</event>
<event>
 5    1  0.1218060E-008  0.3789323E+03  0.7957747E-01  0.3455821E+00
         13   -1    0    0    0    0  0.00000000000E+00  0.00000000000E+00  0.14999999963E+04  0.15000000000E+04  0.10566000000E+00 0.  1.
        994   -1    0    0    0    0 -0.00000000000E+00 -0.00000000000E+00  0.11368683772E-12  0.17120000000E+03  0.17120000000E+03 0.  0.
         13    1    1    2    0    0  0.11152472937E+02  0.10833302412E+02  0.25006928868E+02  0.29446489591E+02  0.10566000000E+00 0.  1.
        994    1    1    2    0    0 -0.54249730837E+00  0.78551832926E+01  0.48810980535E+01  0.17145046902E+03  0.17120000000E+03 0.  0.
        998    1    1    2    0    0 -0.10609975629E+02 -0.18688485705E+02  0.14701119694E+04  0.14703030414E+04  0.10000000000E+02 0.  1.
</event>
<event>
 5    1  0.1218060E-008  0.3820671E+03  0.7957747E-01  0.3442207E+00
         13   -1    0    0    0    0  0.00000000000E+00  0.00000000000E+00  0.14999999963E+04  0.15000000000E+04  0.10566000000E+00 0. -1.
        994   -1    0    0    0    0 -0.00000000000E+00 -0.00000000000E+00  0.11368683772E-12  0.17120000000E+03  0.17120000000E+03 0.  0.
         13    1    1    2    0    0  0.11423251781E+02  0.77092960615E+00  0.20043432941E+02  0.23083227283E+02  0.10566000000E+00 0. -1.
        994    1    1    2    0    0 -0.73512426758E+01  0.84071366119E+01  0.35075146510E+01  0.17159971846E+03  0.17120000000E+03 0.  0.
        998    1    1    2    0    0 -0.40720091050E+01 -0.91780662180E+01  0.14764490487E+04  0.14765170543E+04  0.10000000000E+02 0. -1.
</event>
<event>
 5    1  0.1218060E-008  0.3371784E+03  0.7957747E-01  0.3661820E+00
         13   -1    0    0    0    0  0.00000000000E+00  0.00000000000E+00  0.14999999963E+04  0.15000000000E+04  0.10566000000E+00 0. -1.
        994   -1    0    0    0    0 -0.00000000000E+00 -0.00000000000E+00  0.11368683772E-12  0.17120000000E+03  0.17120000000E+03 0.  0.
         13    1    1    2    0    0 -0.18496873291E+03 -0.15380569801E+03  0.82676458013E+03  0.86105128013E+03  0.10566000000E+00 0. -1.
        994    1    1    2    0    0  0.18273051629E+03  0.14675438619E+03  0.23966191354E+03  0.37639681754E+03  0.17120000000E+03 0.  0.
        998    1    1    2    0    0  0.22382166244E+01  0.70513118122E+01  0.43357350261E+03  0.43375190234E+03  0.10000000000E+02 0.  0.
</event>
<event>
 5    1  0.1218060E-008  0.3737907E+03  0.7957747E-01  0.3478649E+00
         13   -1    0    0    0    0  0.00000000000E+00  0.00000000000E+00  0.14999999963E+04  0.15000000000E+04  0.10566000000E+00 0. -1.
        994   -1    0    0    0    0 -0.00000000000E+00 -0.00000000000E+00  0.11368683772E-12  0.17120000000E+03  0.17120000000E+03 0.  0.
         13    1    1    2    0    0 -0.13541906319E+02 -0.85380768429E+01  0.14048559714E+02  0.21299182543E+02  0.10566000000E+00 0. -1.
        994    1    1    2    0    0  0.21265878926E+02  0.43970185113E+01  0.89122025369E+01  0.17280173243E+03  0.17120000000E+03 0.  0.
        998    1    1    2    0    0 -0.77239726068E+01  0.41410583315E+01  0.14770392340E+04  0.14770990850E+04  0.10000000000E+02 0. -1.
</event>
<event>
 5    1  0.1530786E-008  0.3863718E+03  0.7957747E-01  0.3423875E+00
         13   -1    0    0    0    0  0.00000000000E+00  0.00000000000E+00  0.14999999963E+04  0.15000000000E+04  0.10566000000E+00 0. -1.
        994   -1    0    0    0    0 -0.00000000000E+00 -0.00000000000E+00  0.11368683772E-12  0.17120000000E+03  0.17120000000E+03 0.  0.
         13    1    1    2    0    0  0.37202129801E+01  0.93748043916E+01  0.54153737652E+02  0.55085074273E+02  0.10566000000E+00 0. -1.
        994    1    1    2    0    0 -0.33509767300E+01 -0.69700848271E+01  0.11464176938E+01  0.17137842747E+03  0.17120000000E+03 0.  0.
        998    1    1    2    0    0 -0.36923625011E+00 -0.24047195645E+01  0.14446998409E+04  0.14447364983E+04  0.10000000000E+02 0. -1.
</event>
<event>
 5    1  0.1218060E-008  0.3725596E+03  0.7957747E-01  0.3484209E+00
         13   -1    0    0    0    0  0.00000000000E+00  0.00000000000E+00  0.14999999963E+04  0.15000000000E+04  0.10566000000E+00 0. -1.
        994   -1    0    0    0    0 -0.00000000000E+00 -0.00000000000E+00  0.11368683772E-12  0.17120000000E+03  0.17120000000E+03 0.  0.
         13    1    1    2    0    0  0.77900188951E+01  0.34139297727E+02  0.71177580746E+02  0.79324871311E+02  0.10566000000E+00 0. -1.
        994    1    1    2    0    0 -0.11258009869E+02 -0.33243244158E+02  0.12171103219E+02  0.17518399419E+03  0.17120000000E+03 0.  0.
        998    1    1    2    0    0  0.34679909740E+01 -0.89605356823E+00  0.14166513123E+04  0.14166911345E+04  0.10000000000E+02 0. -1.
</event>
<event>
 5    1  0.1218060E-008  0.3840413E+03  0.7957747E-01  0.3433748E+00
         13   -1    0    0    0    0  0.00000000000E+00  0.00000000000E+00  0.14999999963E+04  0.15000000000E+04  0.10566000000E+00 0. -1.
        994   -1    0    0    0    0 -0.00000000000E+00 -0.00000000000E+00  0.11368683772E-12  0.17120000000E+03  0.17120000000E+03 0.  0.
         13    1    1    2    0    0 -0.10518404532E+02  0.10580468302E+02  0.55272894806E+02  0.57251089140E+02  0.10566000000E+00 0. -1.
        994    1    1    2    0    0  0.44841364577E+01  0.49391402807E+01  0.22537021689E+01  0.17134474535E+03  0.17120000000E+03 0.  0.
        998    1    1    2    0    0  0.60342680740E+01 -0.15519608583E+02  0.14424733993E+04  0.14426041655E+04  0.10000000000E+02 0. -1.
</event>
<event>
 5    1  0.1218060E-008  0.3848117E+03  0.7957747E-01  0.3430471E+00
         13   -1    0    0    0    0  0.00000000000E+00  0.00000000000E+00  0.14999999963E+04  0.15000000000E+04  0.10566000000E+00 0. -1.
        994   -1    0    0    0    0 -0.00000000000E+00 -0.00000000000E+00  0.11368683772E-12  0.17120000000E+03  0.17120000000E+03 0.  0.
         13    1    1    2    0    0  0.31399241396E+01  0.18380658609E+02  0.10264227800E+03  0.10432236641E+03  0.10566000000E+00 0. -1.
        994    1    1    2    0    0 -0.33817469043E+01 -0.91022923181E+01  0.20340023714E+01  0.17148721557E+03  0.17120000000E+03 0.  0.
        998    1    1    2    0    0  0.24182276473E+00 -0.92783662905E+01  0.13953237159E+04  0.13953904180E+04  0.10000000000E+02 0. -1.
</event>
<event>
 5    1  0.1218060E-008  0.3753642E+03  0.7957747E-01  0.3471596E+00
         13   -1    0    0    0    0  0.00000000000E+00  0.00000000000E+00  0.14999999963E+04  0.15000000000E+04  0.10566000000E+00 0.  1.
        994   -1    0    0    0    0 -0.00000000000E+00 -0.00000000000E+00  0.11368683772E-12  0.17120000000E+03  0.17120000000E+03 0.  0.
         13    1    1    2    0    0 -0.14105664976E+03 -0.46555849733E+02  0.72399777854E+03  0.73907862916E+03  0.10566000000E+00 0.  1.
        994    1    1    2    0    0  0.14366579414E+03  0.59174543884E+02  0.93438098861E+02  0.24936239766E+03  0.17120000000E+03 0.  0.
        998    1    1    2    0    0 -0.26091443806E+01 -0.12618694151E+02  0.68256411888E+03  0.68275897318E+03  0.10000000000E+02 0.  0.
</event>
<event>
 5    1  0.1218060E-008  0.3812179E+03  0.7957747E-01  0.3445872E+00
         13   -1    0    0    0    0  0.00000000000E+00  0.00000000000E+00  0.14999999963E+04  0.15000000000E+04  0.10566000000E+00 0.  1.
        994   -1    0    0    0    0 -0.00000000000E+00 -0.00000000000E+00  0.11368683772E-12  0.17120000000E+03  0.17120000000E+03 0.  0.
         13    1    1    2    0    0  0.10731046554E+02 -0.12562024792E+02  0.37993410053E+02  0.41430305315E+02  0.10566000000E+00 0.  1.
        994    1    1    2    0    0 -0.10883682683E+02  0.16859815890E+00  0.39141963067E+01  0.17159033745E+03  0.17120000000E+03 0.  0.
        998    1    1    2    0    0  0.15263612981E+00  0.12393426633E+02  0.14580923899E+04  0.14581793572E+04  0.10000000000E+02 0.  1.
</event>
<event>
 5    1  0.1218060E-008  0.3722946E+03  0.7957747E-01  0.3485411E+00
         13   -1    0    0    0    0  0.00000000000E+00  0.00000000000E+00  0.14999999963E+04  0.15000000000E+04  0.10566000000E+00 0.  1.
        994   -1    0    0    0    0 -0.00000000000E+00 -0.00000000000E+00  0.11368683772E-12  0.17120000000E+03  0.17120000000E+03 0.  0.
         13    1    1    2    0    0  0.16483093343E+02  0.90456575704E+01  0.90563734662E+01  0.20869723319E+02  0.10566000000E+00 0.  1.
        994    1    1    2    0    0 -0.62470991440E+01 -0.25349805773E+02  0.14563302687E+02  0.17379058860E+03  0.17120000000E+03 0.  0.
        998    1    1    2    0    0 -0.10235994199E+02  0.16304148203E+02  0.14763803201E+04  0.14765396881E+04  0.10000000000E+02 0.  1.
</event>
<event>
 5    1  0.1218060E-008  0.3738046E+03  0.7957747E-01  0.3478586E+00
         13   -1    0    0    0    0  0.00000000000E+00  0.00000000000E+00  0.14999999963E+04  0.15000000000E+04  0.10566000000E+00 0. -1.
        994   -1    0    0    0    0 -0.00000000000E+00 -0.00000000000E+00  0.11368683772E-12  0.17120000000E+03  0.17120000000E+03 0.  0.
         13    1    1    2    0    0  0.50476701170E+01 -0.32173093240E+02  0.68188707069E+02  0.75566512676E+02  0.10566000000E+00 0. -1.
        994    1    1    2    0    0 -0.49263573422E+01  0.27885625935E+02  0.10035515552E+02  0.17381607723E+03  0.17120000000E+03 0.  0.
        998    1    1    2    0    0 -0.12131277482E+00  0.42874673042E+01  0.14217757737E+04  0.14218174101E+04  0.10000000000E+02 0. -1.
</event>
<event>
 5    1  0.1218060E-008  0.3303891E+03  0.7957747E-01  0.3700420E+00
         13   -1    0    0    0    0  0.00000000000E+00  0.00000000000E+00  0.14999999963E+04  0.15000000000E+04  0.10566000000E+00 0.  1.
        994   -1    0    0    0    0 -0.00000000000E+00 -0.00000000000E+00  0.11368683772E-12  0.17120000000E+03  0.17120000000E+03 0.  0.
         13    1    1    2    0    0  0.22919160513E+03  0.50740621659E+01  0.77540649999E+03  0.80858505388E+03  0.10566000000E+00 0.  1.
        994    1    1    2    0    0 -0.23627696879E+03 -0.36018992662E+02  0.24733745043E+03  0.38419972436E+03  0.17120000000E+03 0.  0.
        998    1    1    2    0    0  0.70853636623E+01  0.30944930496E+02  0.47725604586E+03  0.47841522176E+03  0.10000000000E+02 0. -1.
</event>
<event>
 5    1  0.1218060E-008  0.3751676E+03  0.7957747E-01  0.3472473E+00
         13   -1    0    0    0    0  0.00000000000E+00  0.00000000000E+00  0.14999999963E+04  0.15000000000E+04  0.10566000000E+00 0.  1.
        994   -1    0    0    0    0 -0.00000000000E+00 -0.00000000000E+00  0.11368683772E-12  0.17120000000E+03  0.17120000000E+03 0.  0.
         13    1    1    2    0    0 -0.15069860918E+02 -0.20577466761E+01  0.21550596378E+01  0.15361981498E+02  0.10566000000E+00 0.  1.
        994    1    1    2    0    0  0.15631217498E+02  0.15688879960E+01  0.14576967652E+02  0.17253615376E+03  0.17120000000E+03 0.  0.
        998    1    1    2    0    0 -0.56135657976E+00  0.48885868008E+00  0.14832679690E+04  0.14833018647E+04  0.10000000000E+02 0.  1.
</event>
<event>
 5    1  0.1218060E-008  0.3710405E+03  0.7957747E-01  0.3491122E+00
         13   -1    0    0    0    0  0.00000000000E+00  0.00000000000E+00  0.14999999963E+04  0.15000000000E+04  0.10566000000E+00 0. -1.
        994   -1    0    0    0    0 -0.00000000000E+00 -0.00000000000E+00  0.11368683772E-12  0.17120000000E+03  0.17120000000E+03 0.  0.
         13    1    1    2    0    0  0.30755996992E+02 -0.33861899413E+01  0.50280766239E+02  0.59038667421E+02  0.10566000000E+00 0. -1.
        994    1    1    2    0    0 -0.27910603136E+02  0.83307193055E+01  0.11654767542E+02  0.17405078643E+03  0.17120000000E+03 0.  0.
        998    1    1    2    0    0 -0.28453938560E+01 -0.49445293642E+01  0.14380644625E+04  0.14381105461E+04  0.10000000000E+02 0. -1.
</event>
<event>
 5    1  0.1218060E-008  0.3697569E+03  0.7957747E-01  0.3497009E+00
         13   -1    0    0    0    0  0.00000000000E+00  0.00000000000E+00  0.14999999963E+04  0.15000000000E+04  0.10566000000E+00 0. -1.
        994   -1    0    0    0    0 -0.00000000000E+00 -0.00000000000E+00  0.11368683772E-12  0.17120000000E+03  0.17120000000E+03 0.  0.
         13    1    1    2    0    0 -0.11328513573E+03  0.73793650913E+02  0.73873804535E+03  0.75100794650E+03  0.10566000000E+00 0. -1.
        994    1    1    2    0    0  0.82635387426E+02 -0.43121758120E+02  0.41807158527E+02  0.19936241316E+03  0.17120000000E+03 0.  0.
        998    1    1    2    0    0  0.30649748306E+02 -0.30671892793E+02  0.71945479240E+03  0.72082964034E+03  0.10000000000E+02 0.  1.
</event>
<event>
 5    1  0.1218060E-008  0.3792400E+03  0.7957747E-01  0.3454474E+00
         13   -1    0    0    0    0  0.00000000000E+00  0.00000000000E+00  0.14999999963E+04  0.15000000000E+04  0.10566000000E+00 0. -1.
        994   -1    0    0    0    0 -0.00000000000E+00 -0.00000000000E+00  0.11368683772E-12  0.17120000000E+03  0.17120000000E+03 0.  0.
         13    1    1    2    0    0 -0.16348544325E+01  0.19366009382E+02  0.39345122661E+02  0.43883538025E+02  0.10566000000E+00 0. -1.
        994    1    1    2    0    0  0.94285810129E+00 -0.18320109712E+02  0.56458648918E+01  0.17227254915E+03  0.17120000000E+03 0.  0.
        998    1    1    2    0    0  0.69199633119E+00 -0.10458996703E+01  0.14550090087E+04  0.14550439128E+04  0.10000000000E+02 0.  0.
</event>
<event>
 5    1  0.1218060E-008  0.3764750E+03  0.7957747E-01  0.3466652E+00
         13   -1    0    0    0    0  0.00000000000E+00  0.00000000000E+00  0.14999999963E+04  0.15000000000E+04  0.10566000000E+00 0.  1.
        994   -1    0    0    0    0 -0.00000000000E+00 -0.00000000000E+00  0.11368683772E-12  0.17120000000E+03  0.17120000000E+03 0.  0.
         13    1    1    2    0    0 -0.23967482364E+02 -0.10290702930E+02  0.57635939510E+02  0.63263350093E+02  0.10566000000E+00 0.  1.
        994    1    1    2    0    0  0.53959373264E+01 -0.16438558172E+01  0.60308863582E+01  0.17139903731E+03  0.17120000000E+03 0.  0.
        998    1    1    2    0    0  0.18571545038E+02  0.11934558747E+02  0.14363331704E+04  0.14365376126E+04  0.10000000000E+02 0.  1.
</event>
<event>
 5    1  0.1218060E-008  0.3767235E+03  0.7957747E-01  0.3465550E+00
         13   -1    0    0    0    0  0.00000000000E+00  0.00000000000E+00  0.14999999963E+04  0.15000000000E+04  0.10566000000E+00 0. -1.
        994   -1    0    0    0    0 -0.00000000000E+00 -0.00000000000E+00  0.11368683772E-12  0.17120000000E+03  0.17120000000E+03 0.  0.
         13    1    1    2    0    0  0.25093880118E+02 -0.20730826342E+01  0.54950744522E+02  0.60444983072E+02  0.10566000000E+00 0. -1.
        994    1    1    2    0    0 -0.50608663758E+01 -0.25124643791E+02  0.80194008135E+01  0.17329342424E+03  0.17120000000E+03 0.  0.
        998    1    1    2    0    0 -0.20033013743E+02  0.27197726426E+02  0.14370298509E+04  0.14374615927E+04  0.10000000000E+02 0. -1.
</event>
<event>
 5    1  0.1218060E-008  0.3833936E+03  0.7957747E-01  0.3436514E+00
         13   -1    0    0    0    0  0.00000000000E+00  0.00000000000E+00  0.14999999963E+04  0.15000000000E+04  0.10566000000E+00 0.  1.
        994   -1    0    0    0    0 -0.00000000000E+00 -0.00000000000E+00  0.11368683772E-12  0.17120000000E+03  0.17120000000E+03 0.  0.
         13    1    1    2    0    0  0.18063340398E+02  0.24121486766E+02  0.17699741173E+03  0.17954449397E+03  0.10566000000E+00 0.  1.
        994    1    1    2    0    0 -0.21778181701E+02 -0.13374054707E+02  0.45920047858E+01  0.17315796558E+03  0.17120000000E+03 0.  0.
        998    1    1    2    0    0  0.37148413036E+01 -0.10747432059E+02  0.13184105798E+04  0.13184975404E+04  0.10000000000E+02 0.  1.
</event>
<event>
 5    1  0.1218060E-008  0.3826455E+03  0.7957747E-01  0.3439720E+00
         13   -1    0    0    0    0  0.00000000000E+00  0.00000000000E+00  0.14999999963E+04  0.15000000000E+04  0.10566000000E+00 0.  1.
        994   -1    0    0    0    0 -0.00000000000E+00 -0.00000000000E+00  0.11368683772E-12  0.17120000000E+03  0.17120000000E+03 0.  0.
         13    1    1    2    0    0 -0.80122806338E+01 -0.34659645905E+02  0.20564099619E+03  0.20869527588E+03  0.10566000000E+00 0.  1.
        994    1    1    2    0    0 -0.18378419463E+01  0.32136025823E+02  0.62448407782E+01  0.17431161710E+03  0.17120000000E+03 0.  0.
        998    1    1    2    0    0  0.98501225801E+01  0.25236200818E+01  0.12881141593E+04  0.12881931070E+04  0.10000000000E+02 0.  1.
</event>
<event>
 5    1  0.1218060E-008  0.3860094E+03  0.7957747E-01  0.3425403E+00
         13   -1    0    0    0    0  0.00000000000E+00  0.00000000000E+00  0.14999999963E+04  0.15000000000E+04  0.10566000000E+00 0. -1.
        994   -1    0    0    0    0 -0.00000000000E+00 -0.00000000000E+00  0.11368683772E-12  0.17120000000E+03  0.17120000000E+03 0.  0.
         13    1    1    2    0    0  0.24637225819E+01  0.13709515373E+02  0.81290912304E+02  0.82475719627E+02  0.10566000000E+00 0. -1.
        994    1    1    2    0    0 -0.13098807807E+01 -0.17067315437E+02  0.20908745049E+01  0.17206632675E+03  0.17120000000E+03 0.  0.
        998    1    1    2    0    0 -0.11538418012E+01  0.33578000640E+01  0.14166182095E+04  0.14166579536E+04  0.10000000000E+02 0. -1.
</event>
<event>
 5    1  0.1218060E-008  0.3730576E+03  0.7957747E-01  0.3481956E+00
         13   -1    0    0    0    0  0.00000000000E+00  0.00000000000E+00  0.14999999963E+04  0.15000000000E+04  0.10566000000E+00 0.  1.
        994   -1    0    0    0    0 -0.00000000000E+00 -0.00000000000E+00  0.11368683772E-12  0.17120000000E+03  0.17120000000E+03 0.  0.
         13    1    1    2    0    0 -0.54276268990E+02  0.77039219729E+02  0.40230254038E+03  0.41319281203E+03  0.10566000000E+00 0.  1.
        994    1    1    2    0    0  0.30583365811E+02 -0.10028092731E+03  0.46277689079E+02  0.20601619148E+03  0.17120000000E+03 0.  0.
        998    1    1    2    0    0  0.23692903179E+02  0.23241707582E+02  0.10514197668E+04  0.10519909965E+04  0.10000000000E+02 0.  1.
</event>
<event>
 5    1  0.1218060E-008  0.3769859E+03  0.7957747E-01  0.3464388E+00
         13   -1    0    0    0    0  0.00000000000E+00  0.00000000000E+00  0.14999999963E+04  0.15000000000E+04  0.10566000000E+00 0.  1.
        994   -1    0    0    0    0 -0.00000000000E+00 -0.00000000000E+00  0.11368683772E-12  0.17120000000E+03  0.17120000000E+03 0.  0.
         13    1    1    2    0    0  0.13688414367E+02 -0.10917334469E+02  0.36605544151E+01  0.17887752862E+02  0.10566000000E+00 0.  1.
        994    1    1    2    0    0 -0.13269908622E+02  0.22764199816E+02  0.17173636484E+02  0.17406514027E+03  0.17120000000E+03 0.  0.
        998    1    1    2    0    0 -0.41850574486E+00 -0.11846865347E+02  0.14791658054E+04  0.14792471069E+04  0.10000000000E+02 0.  1.
</event>
<event>
 5    1  0.1218060E-008  0.3711336E+03  0.7957747E-01  0.3490697E+00
         13   -1    0    0    0    0  0.00000000000E+00  0.00000000000E+00  0.14999999963E+04  0.15000000000E+04  0.10566000000E+00 0.  1.
        994   -1    0    0    0    0 -0.00000000000E+00 -0.00000000000E+00  0.11368683772E-12  0.17120000000E+03  0.17120000000E+03 0.  0.
         13    1    1    2    0    0 -0.27784795295E+02 -0.46944175825E+02  0.11193534068E+03  0.12452020780E+03  0.10566000000E+00 0.  1.
        994    1    1    2    0    0  0.42254160571E+02  0.49826949563E+02  0.26674750381E+02  0.18517321971E+03  0.17120000000E+03 0.  0.
        998    1    1    2    0    0 -0.14469365275E+02 -0.28827737386E+01  0.13613899052E+04  0.13615065725E+04  0.10000000000E+02 0.  1.
</event>
<event>
 5    1  0.1218060E-008  0.3710682E+03  0.7957747E-01  0.3490996E+00
         13   -1    0    0    0    0  0.00000000000E+00  0.00000000000E+00  0.14999999963E+04  0.15000000000E+04  0.10566000000E+00 0.  1.
        994   -1    0    0    0    0 -0.00000000000E+00 -0.00000000000E+00  0.11368683772E-12  0.17120000000E+03  0.17120000000E+03 0.  0.
         13    1    1    2    0    0  0.48517977511E+02 -0.35375276252E+02  0.26900012247E+03  0.27562017590E+03  0.10566000000E+00 0.  1.
        994    1    1    2    0    0  0.18124388901E+02  0.13645514884E+02  0.10486891719E+02  0.17301476367E+03  0.17120000000E+03 0.  0.
        998    1    1    2    0    0 -0.66642366412E+02  0.21729761367E+02  0.12205129821E+04  0.12225650604E+04  0.10000000000E+02 0.  1.
</event>
<event>
 5    1  0.1218060E-008  0.3780462E+03  0.7957747E-01  0.3459710E+00
         13   -1    0    0    0    0  0.00000000000E+00  0.00000000000E+00  0.14999999963E+04  0.15000000000E+04  0.10566000000E+00 0. -1.
        994   -1    0    0    0    0 -0.00000000000E+00 -0.00000000000E+00  0.11368683772E-12  0.17120000000E+03  0.17120000000E+03 0.  0.
         13    1    1    2    0    0 -0.20006184756E+02 -0.57549512313E+02  0.31886116508E+03  0.32463001641E+03  0.10566000000E+00 0. -1.
        994    1    1    2    0    0  0.41855374127E+01  0.50596988758E+02  0.13844843629E+02  0.17910525869E+03  0.17120000000E+03 0.  0.
        998    1    1    2    0    0  0.15820647343E+02  0.69525235550E+01  0.11672939876E+04  0.11674647249E+04  0.10000000000E+02 0. -1.
</event>
<event>
 5    1  0.1218060E-008  0.2028215E+03  0.7957747E-01  0.4987922E+00
         13   -1    0    0    0    0  0.00000000000E+00  0.00000000000E+00  0.14999999963E+04  0.15000000000E+04  0.10566000000E+00 0. -1.
        994   -1    0    0    0    0 -0.00000000000E+00 -0.00000000000E+00  0.11368683772E-12  0.17120000000E+03  0.17120000000E+03 0.  0.
         13    1    1    2    0    0 -0.56610279964E+02 -0.15511467175E+03  0.35006979268E+03  0.38705833682E+03  0.10566000000E+00 0. -1.
        994    1    1    2    0    0 -0.22218997967E+02 -0.39551642418E+02  0.81041912328E+02  0.19476973030E+03  0.17120000000E+03 0.  0.
        998    1    1    2    0    0  0.78829277931E+02  0.19466631416E+03  0.10688882913E+04  0.10893719329E+04  0.10000000000E+02 0. -1.
</event>
<event>
 5    1  0.1218060E-008  0.3785164E+03  0.7957747E-01  0.3457644E+00
         13   -1    0    0    0    0  0.00000000000E+00  0.00000000000E+00  0.14999999963E+04  0.15000000000E+04  0.10566000000E+00 0.  1.
        994   -1    0    0    0    0 -0.00000000000E+00 -0.00000000000E+00  0.11368683772E-12  0.17120000000E+03  0.17120000000E+03 0.  0.
         13    1    1    2    0    0 -0.24523765121E+02  0.57692621266E+01  0.66032551292E+02  0.70675373613E+02  0.10566000000E+00 0.  1.
        994    1    1    2    0    0  0.68997390089E+01  0.79592227396E+01  0.52567400128E+01  0.17160428008E+03  0.17120000000E+03 0.  0.
        998    1    1    2    0    0  0.17624026112E+02 -0.13728484866E+02  0.14287107050E+04  0.14289203463E+04  0.10000000000E+02 0.  1.
</event>
<event>
 5    1  0.1218060E-008  0.3816585E+03  0.7957747E-01  0.3443968E+00
         13   -1    0    0    0    0  0.00000000000E+00  0.00000000000E+00  0.14999999963E+04  0.15000000000E+04  0.10566000000E+00 0. -1.
        994   -1    0    0    0    0 -0.00000000000E+00 -0.00000000000E+00  0.11368683772E-12  0.17120000000E+03  0.17120000000E+03 0.  0.
         13    1    1    2    0    0 -0.11928479851E+03 -0.15750482464E+03  0.11748593912E+04  0.11913568875E+04  0.10566000000E+00 0. -1.
        994    1    1    2    0    0  0.12336240045E+03  0.14759320193E+03  0.13805202293E+03  0.29218117006E+03  0.17120000000E+03 0.  0.
        998    1    1    2    0    0 -0.40776019312E+01  0.99116227049E+01  0.18708858211E+03  0.18766194249E+03  0.10000000000E+02 0.  1.
</event>
<event>
 5    1  0.1218060E-008  0.3727801E+03  0.7957747E-01  0.3483211E+00
         13   -1    0    0    0    0  0.00000000000E+00  0.00000000000E+00  0.14999999963E+04  0.15000000000E+04  0.10566000000E+00 0.  1.
        994   -1    0    0    0    0 -0.00000000000E+00 -0.00000000000E+00  0.11368683772E-12  0.17120000000E+03  0.17120000000E+03 0.  0.
         13    1    1    2    0    0  0.12932433238E+03  0.12247712889E+03  0.59919699951E+03  0.62510997867E+03  0.10566000000E+00 0.  1.
        994    1    1    2    0    0 -0.16538513388E+03 -0.14696832352E+03  0.20007233017E+03  0.34393358069E+03  0.17120000000E+03 0.  0.
        998    1    1    2    0    0  0.36060801504E+02  0.24491194629E+02  0.70073066660E+03  0.70215644064E+03  0.10000000000E+02 0.  1.
</event>
<event>
 5    1  0.1218060E-008  0.3793071E+03  0.7957747E-01  0.3454181E+00
         13   -1    0    0    0    0  0.00000000000E+00  0.00000000000E+00  0.14999999963E+04  0.15000000000E+04  0.10566000000E+00 0.  1.
        994   -1    0    0    0    0 -0.00000000000E+00 -0.00000000000E+00  0.11368683772E-12  0.17120000000E+03  0.17120000000E+03 0.  0.
         13    1    1    2    0    0 -0.42238796601E+02 -0.39532691468E+01  0.24651730435E+03  0.25014103379E+03  0.10566000000E+00 0.  1.
        994    1    1    2    0    0 -0.80028999203E-01 -0.10096425126E+02  0.48249912882E+01  0.17156533667E+03  0.17120000000E+03 0.  0.
        998    1    1    2    0    0  0.42318825600E+02  0.14049694273E+02  0.12486577006E+04  0.12494936295E+04  0.10000000000E+02 0.  1.
</event>
<event>
 5    1  0.1218060E-008  0.3861745E+03  0.7957747E-01  0.3424706E+00
         13   -1    0    0    0    0  0.00000000000E+00  0.00000000000E+00  0.14999999963E+04  0.15000000000E+04  0.10566000000E+00 0. -1.
        994   -1    0    0    0    0 -0.00000000000E+00 -0.00000000000E+00  0.11368683772E-12  0.17120000000E+03  0.17120000000E+03 0.  0.
         13    1    1    2    0    0  0.12594536178E+02  0.45615402444E+01  0.75700035904E+02  0.76876111965E+02  0.10566000000E+00 0. -1.
        994    1    1    2    0    0 -0.20564415639E+02 -0.18438960011E+02  0.35515072973E+01  0.17345011860E+03  0.17120000000E+03 0.  0.
        998    1    1    2    0    0  0.79698794609E+01  0.13877419767E+02  0.14207484531E+04  0.14208737694E+04  0.10000000000E+02 0. -1.
</event>
<event>
 5    1  0.1218060E-008  0.3842139E+03  0.7957747E-01  0.3433013E+00
         13   -1    0    0    0    0  0.00000000000E+00  0.00000000000E+00  0.14999999963E+04  0.15000000000E+04  0.10566000000E+00 0.  1.
        994   -1    0    0    0    0 -0.00000000000E+00 -0.00000000000E+00  0.11368683772E-12  0.17120000000E+03  0.17120000000E+03 0.  0.
         13    1    1    2    0    0  0.74304310013E+01 -0.92338022497E+01  0.34637072016E+02  0.36608910537E+02  0.10566000000E+00 0.  1.
        994    1    1    2    0    0 -0.92469891541E+01 -0.25547322586E+00  0.23031139510E+01  0.17146520466E+03  0.17120000000E+03 0.  0.
        998    1    1    2    0    0  0.18165581528E+01  0.94892754756E+01  0.14630598103E+04  0.14631258848E+04  0.10000000000E+02 0.  1.
</event>
<event>
 5    1  0.1218060E-008  0.3803649E+03  0.7957747E-01  0.3449571E+00
         13   -1    0    0    0    0  0.00000000000E+00  0.00000000000E+00  0.14999999963E+04  0.15000000000E+04  0.10566000000E+00 0.  1.
        994   -1    0    0    0    0 -0.00000000000E+00 -0.00000000000E+00  0.11368683772E-12  0.17120000000E+03  0.17120000000E+03 0.  0.
         13    1    1    2    0    0  0.26871157138E+02  0.54994442210E+01  0.10592424057E+03  0.10941781791E+03  0.10566000000E+00 0.  1.
        994    1    1    2    0    0  0.42237427080E+01  0.53022044874E+01  0.41025273739E+01  0.17138326670E+03  0.17120000000E+03 0.  0.
        998    1    1    2    0    0 -0.31094899846E+02 -0.10801648708E+02  0.13899732283E+04  0.13903989154E+04  0.10000000000E+02 0.  1.
</event>
<event>
 5    1  0.1218060E-008  0.4209163E+03  0.7957747E-01  0.3290306E+00
         13   -1    0    0    0    0  0.00000000000E+00  0.00000000000E+00  0.14999999963E+04  0.15000000000E+04  0.10566000000E+00 0. -1.
        994   -1    0    0    0    0 -0.00000000000E+00 -0.00000000000E+00  0.11368683772E-12  0.17120000000E+03  0.17120000000E+03 0.  0.
         13    1    1    2    0    0 -0.59345776923E+02 -0.84796574387E+02  0.99226536297E+02  0.14338164783E+03  0.10566000000E+00 0. -1.
        994    1    1    2    0    0  0.70722499247E+02  0.11413314982E+03  0.12362091459E+03  0.25023912227E+03  0.17120000000E+03 0.  0.
        998    1    1    2    0    0 -0.11376722324E+02 -0.29336575437E+02  0.12771525454E+04  0.12775792299E+04  0.10000000000E+02 0. -1.
</event>
<event>
 5    1  0.1218060E-008  0.3259239E+03  0.7957747E-01  0.3726730E+00
         13   -1    0    0    0    0  0.00000000000E+00  0.00000000000E+00  0.14999999963E+04  0.15000000000E+04  0.10566000000E+00 0. -1.
        994   -1    0    0    0    0 -0.00000000000E+00 -0.00000000000E+00  0.11368683772E-12  0.17120000000E+03  0.17120000000E+03 0.  0.
         13    1    1    2    0    0 -0.16990798576E+03  0.33882769360E+02  0.95030701738E+03  0.96597111972E+03  0.10566000000E+00 0. -1.
        994    1    1    2    0    0  0.10956904861E+03 -0.33949045765E+02  0.64122780695E+02  0.21582188287E+03  0.17120000000E+03 0.  0.
        998    1    1    2    0    0  0.60338937151E+02  0.66276404818E-01  0.48557019820E+03  0.48940699741E+03  0.10000000000E+02 0.  1.
</event>
<event>
 5    1  0.1218060E-008  0.3689629E+03  0.7957747E-01  0.3500671E+00
         13   -1    0    0    0    0  0.00000000000E+00  0.00000000000E+00  0.14999999963E+04  0.15000000000E+04  0.10566000000E+00 0.  1.
        994   -1    0    0    0    0 -0.00000000000E+00 -0.00000000000E+00  0.11368683772E-12  0.17120000000E+03  0.17120000000E+03 0.  0.
         13    1    1    2    0    0 -0.45835923990E+01  0.14491398819E+02  0.63825988783E+01  0.16485105140E+02  0.10566000000E+00 0.  1.
        994    1    1    2    0    0  0.32616418130E+01 -0.12711728375E+02  0.10991600821E+02  0.17205371729E+03  0.17120000000E+03 0.  0.
        998    1    1    2    0    0  0.13219505860E+01 -0.17796704446E+01  0.14826257966E+04  0.14826611776E+04  0.10000000000E+02 0.  1.
</event>
<event>
 5    1  0.1218060E-008  0.3851968E+03  0.7957747E-01  0.3428838E+00
         13   -1    0    0    0    0  0.00000000000E+00  0.00000000000E+00  0.14999999963E+04  0.15000000000E+04  0.10566000000E+00 0.  1.
        994   -1    0    0    0    0 -0.00000000000E+00 -0.00000000000E+00  0.11368683772E-12  0.17120000000E+03  0.17120000000E+03 0.  0.
         13    1    1    2    0    0 -0.10855573081E+02  0.27756247247E+01  0.53048844126E+02  0.54219356199E+02  0.10566000000E+00 0.  1.
        994    1    1    2    0    0 -0.38149632223E+02 -0.13420625755E+02  0.69261933674E+01  0.17604806102E+03  0.17120000000E+03 0.  0.
        998    1    1    2    0    0  0.49005205304E+02  0.10645001030E+02  0.14400249588E+04  0.14409325828E+04  0.10000000000E+02 0.  1.
</event>
<event>
 5    1  0.1218060E-008  0.3743244E+03  0.7957747E-01  0.3476250E+00
         13   -1    0    0    0    0  0.00000000000E+00  0.00000000000E+00  0.14999999963E+04  0.15000000000E+04  0.10566000000E+00 0. -1.
        994   -1    0    0    0    0 -0.00000000000E+00 -0.00000000000E+00  0.11368683772E-12  0.17120000000E+03  0.17120000000E+03 0.  0.
         13    1    1    2    0    0  0.72845390967E+01  0.29439224575E+02  0.66939295149E+02  0.73488862098E+02  0.10566000000E+00 0. -1.
        994    1    1    2    0    0  0.66977871342E+01 -0.28803183849E+01  0.72071721267E+01  0.17150667601E+03  0.17120000000E+03 0.  0.
        998    1    1    2    0    0 -0.13982326231E+02 -0.26558906190E+02  0.14258535290E+04  0.14262044619E+04  0.10000000000E+02 0. -1.
</event>
<event>
 5    1  0.1218060E-008  0.3800053E+03  0.7957747E-01  0.3451136E+00
         13   -1    0    0    0    0  0.00000000000E+00  0.00000000000E+00  0.14999999963E+04  0.15000000000E+04  0.10566000000E+00 0.  1.
        994   -1    0    0    0    0 -0.00000000000E+00 -0.00000000000E+00  0.11368683772E-12  0.17120000000E+03  0.17120000000E+03 0.  0.
         13    1    1    2    0    0 -0.17317366102E+02  0.44335416022E+01  0.39846226437E+02  0.43672421334E+02  0.10566000000E+00 0.  1.
        994    1    1    2    0    0 -0.53498163671E+01  0.15241891231E+02  0.50032350480E+01  0.17203316001E+03  0.17120000000E+03 0.  0.
        998    1    1    2    0    0  0.22667182469E+02 -0.19675432833E+02  0.14551505348E+04  0.14554944187E+04  0.10000000000E+02 0.  1.
</event>
<event>
 5    1  0.1218060E-008  0.3807717E+03  0.7957747E-01  0.3447805E+00
         13   -1    0    0    0    0  0.00000000000E+00  0.00000000000E+00  0.14999999963E+04  0.15000000000E+04  0.10566000000E+00 0. -1.
        994   -1    0    0    0    0 -0.00000000000E+00 -0.00000000000E+00  0.11368683772E-12  0.17120000000E+03  0.17120000000E+03 0.  0.
         13    1    1    2    0    0  0.18356721305E+02  0.22758367693E+02  0.98475819793E+02  0.10272492767E+03  0.10566000000E+00 0. -1.
        994    1    1    2    0    0 -0.14317581421E+02 -0.45016706352E+02  0.11220898944E+02  0.17795180685E+03  0.17120000000E+03 0.  0.
        998    1    1    2    0    0 -0.40391398840E+01  0.22258338659E+02  0.13903032775E+04  0.13905232655E+04  0.10000000000E+02 0. -1.
</event>
<event>
 5    1  0.1218060E-008  0.3819466E+03  0.7957747E-01  0.3442726E+00
         13   -1    0    0    0    0  0.00000000000E+00  0.00000000000E+00  0.14999999963E+04  0.15000000000E+04  0.10566000000E+00 0.  1.
        994   -1    0    0    0    0 -0.00000000000E+00 -0.00000000000E+00  0.11368683772E-12  0.17120000000E+03  0.17120000000E+03 0.  0.
         13    1    1    2    0    0 -0.16269006765E+02 -0.18226949710E+02  0.10238356647E+03  0.10525829243E+03  0.10566000000E+00 0.  1.
        994    1    1    2    0    0  0.57855153504E+01 -0.50869356130E+01  0.33508909399E+01  0.17140600215E+03  0.17120000000E+03 0.  0.
        998    1    1    2    0    0  0.10483491415E+02  0.23313885323E+02  0.13942655389E+04  0.13945357054E+04  0.10000000000E+02 0.  1.
</event>
<event>
 5    1  0.1218060E-008  0.3697121E+03  0.7957747E-01  0.3497215E+00
         13   -1    0    0    0    0  0.00000000000E+00  0.00000000000E+00  0.14999999963E+04  0.15000000000E+04  0.10566000000E+00 0. -1.
        994   -1    0    0    0    0 -0.00000000000E+00 -0.00000000000E+00  0.11368683772E-12  0.17120000000E+03  0.17120000000E+03 0.  0.
         13    1    1    2    0    0  0.25182852480E+02 -0.16309978833E+02  0.60154493123E+02  0.67221764894E+02  0.10566000000E+00 0. -1.
        994    1    1    2    0    0  0.22992700951E+02 -0.11814561142E+03  0.61372348616E+02  0.21808955722E+03  0.17120000000E+03 0.  0.
        998    1    1    2    0    0 -0.48175553432E+02  0.13445559025E+03  0.13784731545E+04  0.13858886779E+04  0.10000000000E+02 0. -1.
</event>
<event>
 5    1  0.1218060E-008  0.3817293E+03  0.7957747E-01  0.3443663E+00
         13   -1    0    0    0    0  0.00000000000E+00  0.00000000000E+00  0.14999999963E+04  0.15000000000E+04  0.10566000000E+00 0.  1.
        994   -1    0    0    0    0 -0.00000000000E+00 -0.00000000000E+00  0.11368683772E-12  0.17120000000E+03  0.17120000000E+03 0.  0.
         13    1    1    2    0    0  0.44312864865E+01  0.25343417936E+02  0.89709222301E+02  0.93325670973E+02  0.10566000000E+00 0.  1.
        994    1    1    2    0    0 -0.16715959483E+02 -0.34624245336E+02  0.81920082372E+01  0.17565537471E+03  0.17120000000E+03 0.  0.
        998    1    1    2    0    0  0.12284672997E+02  0.92808273999E+01  0.14020987657E+04  0.14022189543E+04  0.10000000000E+02 0.  1.
</event>
<event>
 5    1  0.1218060E-008  0.3808591E+03  0.7957747E-01  0.3447426E+00
         13   -1    0    0    0    0  0.00000000000E+00  0.00000000000E+00  0.14999999963E+04  0.15000000000E+04  0.10566000000E+00 0.  1.
        994   -1    0    0    0    0 -0.00000000000E+00 -0.00000000000E+00  0.11368683772E-12  0.17120000000E+03  0.17120000000E+03 0.  0.
         13    1    1    2    0    0 -0.13664066699E+02 -0.23365809436E+01  0.25612770894E+02  0.29123727889E+02  0.10566000000E+00 0.  1.
        994    1    1    2    0    0 -0.35527896449E+01 -0.10688968571E+02  0.41231380571E+01  0.17161968602E+03  0.17120000000E+03 0.  0.
        998    1    1    2    0    0  0.17216856344E+02  0.13025549514E+02  0.14702640873E+04  0.14704565861E+04  0.10000000000E+02 0.  1.
</event>
<event>
 5    1  0.1218060E-008  0.3693529E+03  0.7957747E-01  0.3498870E+00
         13   -1    0    0    0    0  0.00000000000E+00  0.00000000000E+00  0.14999999963E+04  0.15000000000E+04  0.10566000000E+00 0.  1.
        994   -1    0    0    0    0 -0.00000000000E+00 -0.00000000000E+00  0.11368683772E-12  0.17120000000E+03  0.17120000000E+03 0.  0.
         13    1    1    2    0    0  0.27805291928E+02  0.87948995293E+01  0.40533816769E+02  0.49934817341E+02  0.10566000000E+00 0.  1.
        994    1    1    2    0    0 -0.21218703165E+02  0.34988824274E+01  0.11211967865E+02  0.17290929346E+03  0.17120000000E+03 0.  0.
        998    1    1    2    0    0 -0.65865887633E+01 -0.12293781957E+02  0.14482542116E+04  0.14483558892E+04  0.10000000000E+02 0.  1.
</event>
<event>
 5    1  0.1218060E-008  0.3828638E+03  0.7957747E-01  0.3438783E+00
         13   -1    0    0    0    0  0.00000000000E+00  0.00000000000E+00  0.14999999963E+04  0.15000000000E+04  0.10566000000E+00 0.  1.
        994   -1    0    0    0    0 -0.00000000000E+00 -0.00000000000E+00  0.11368683772E-12  0.17120000000E+03  0.17120000000E+03 0.  0.
         13    1    1    2    0    0 -0.19564367298E+02  0.17199670629E+02  0.11457907915E+03  0.11750306243E+03  0.10566000000E+00 0.  1.
        994    1    1    2    0    0  0.17039206278E+02 -0.25017412293E+02  0.57344685243E+01  0.17394979045E+03  0.17120000000E+03 0.  0.
        998    1    1    2    0    0  0.25251610201E+01  0.78177416642E+01  0.13796864486E+04  0.13797471471E+04  0.10000000000E+02 0.  1.
</event>
<event>
 5    1  0.1218060E-008  0.3706509E+03  0.7957747E-01  0.3492905E+00
         13   -1    0    0    0    0  0.00000000000E+00  0.00000000000E+00  0.14999999963E+04  0.15000000000E+04  0.10566000000E+00 0. -1.
        994   -1    0    0    0    0 -0.00000000000E+00 -0.00000000000E+00  0.11368683772E-12  0.17120000000E+03  0.17120000000E+03 0.  0.
         13    1    1    2    0    0 -0.27811251532E+02 -0.62112791063E+02  0.30000912659E+03  0.30763119433E+03  0.10566000000E+00 0. -1.
        994    1    1    2    0    0 -0.19625450828E+01  0.18828551930E+02  0.10166542675E+02  0.17254322514E+03  0.17120000000E+03 0.  0.
        998    1    1    2    0    0  0.29773796614E+02  0.43284239134E+02  0.11898243270E+04  0.11910255805E+04  0.10000000000E+02 0.  0.
</event>
<event>
 5    1  0.1218060E-008  0.3795371E+03  0.7957747E-01  0.3453177E+00
         13   -1    0    0    0    0  0.00000000000E+00  0.00000000000E+00  0.14999999963E+04  0.15000000000E+04  0.10566000000E+00 0. -1.
        994   -1    0    0    0    0 -0.00000000000E+00 -0.00000000000E+00  0.11368683772E-12  0.17120000000E+03  0.17120000000E+03 0.  0.
         13    1    1    2    0    0  0.38615843264E+02  0.17023508664E+02  0.19894611755E+03  0.20337293834E+03  0.10566000000E+00 0. -1.
        994    1    1    2    0    0 -0.17550760487E+02 -0.27711530699E+02  0.79777536802E+01  0.17449654060E+03  0.17120000000E+03 0.  0.
        998    1    1    2    0    0 -0.21065082777E+02  0.10688022034E+02  0.12930761251E+04  0.12933305211E+04  0.10000000000E+02 0.  1.
</event>
<event>
 5    1  0.1218060E-008  0.3750130E+03  0.7957747E-01  0.3473165E+00
         13   -1    0    0    0    0  0.00000000000E+00  0.00000000000E+00  0.14999999963E+04  0.15000000000E+04  0.10566000000E+00 0.  1.
        994   -1    0    0    0    0 -0.00000000000E+00 -0.00000000000E+00  0.11368683772E-12  0.17120000000E+03  0.17120000000E+03 0.  0.
         13    1    1    2    0    0  0.19112880473E+02 -0.11043523379E+02  0.32684649077E+02  0.39440576288E+02  0.10566000000E+00 0.  1.
        994    1    1    2    0    0 -0.25353988044E+02  0.10358611400E+02  0.92259777368E+01  0.17362224571E+03  0.17120000000E+03 0.  0.
        998    1    1    2    0    0  0.62411075709E+01  0.68491197857E+00  0.14580893695E+04  0.14581371780E+04  0.10000000000E+02 0.  1.
</event>
<event>
 5    1  0.1218060E-008  0.3839986E+03  0.7957747E-01  0.3433930E+00
         13   -1    0    0    0    0  0.00000000000E+00  0.00000000000E+00  0.14999999963E+04  0.15000000000E+04  0.10566000000E+00 0. -1.
        994   -1    0    0    0    0 -0.00000000000E+00 -0.00000000000E+00  0.11368683772E-12  0.17120000000E+03  0.17120000000E+03 0.  0.
         13    1    1    2    0    0 -0.92354288641E+01  0.13697461505E+02  0.62060060574E+02  0.64221303945E+02  0.10566000000E+00 0. -1.
        994    1    1    2    0    0  0.11473823137E+02 -0.11004131402E+02  0.29624321045E+01  0.17196207585E+03  0.17120000000E+03 0.  0.
        998    1    1    2    0    0 -0.22383942734E+01 -0.26933301029E+01  0.14349775036E+04  0.14350166202E+04  0.10000000000E+02 0. -1.
</event>
<event>
 5    1  0.1218060E-008  0.3754789E+03  0.7957747E-01  0.3471084E+00
         13   -1    0    0    0    0  0.00000000000E+00  0.00000000000E+00  0.14999999963E+04  0.15000000000E+04  0.10566000000E+00 0. -1.
        994   -1    0    0    0    0 -0.00000000000E+00 -0.00000000000E+00  0.11368683772E-12  0.17120000000E+03  0.17120000000E+03 0.  0.
         13    1    1    2    0    0  0.48993945450E+02 -0.91796153917E+01  0.24775736633E+03  0.25272197325E+03  0.10566000000E+00 0. -1.
        994    1    1    2    0    0 -0.21085126544E+02 -0.88905608992E+02  0.35315530101E+02  0.19724456022E+03  0.17120000000E+03 0.  0.
        998    1    1    2    0    0 -0.27908818906E+02  0.98085224384E+02  0.12169270998E+04  0.12212334665E+04  0.10000000000E+02 0. -1.
</event>
<event>
 5    1  0.1218060E-008  0.3855684E+03  0.7957747E-01  0.3427265E+00
         13   -1    0    0    0    0  0.00000000000E+00  0.00000000000E+00  0.14999999963E+04  0.15000000000E+04  0.10566000000E+00 0. -1.
        994   -1    0    0    0    0 -0.00000000000E+00 -0.00000000000E+00  0.11368683772E-12  0.17120000000E+03  0.17120000000E+03 0.  0.
         13    1    1    2    0    0 -0.63776108198E+01 -0.95233266289E+01  0.47147129624E+02  0.48520414937E+02  0.10566000000E+00 0. -1.
        994    1    1    2    0    0  0.94875354474E+01  0.10679672998E+02  0.20183553476E+01  0.17180681739E+03  0.17120000000E+03 0.  0.
        998    1    1    2    0    0 -0.31099246277E+01 -0.11563463692E+01  0.14508345113E+04  0.14508727677E+04  0.10000000000E+02 0. -1.
</event>
<event>
 5    1  0.1218060E-008  0.3839331E+03  0.7957747E-01  0.3434210E+00
         13   -1    0    0    0    0  0.00000000000E+00  0.00000000000E+00  0.14999999963E+04  0.15000000000E+04  0.10566000000E+00 0. -1.
        994   -1    0    0    0    0 -0.00000000000E+00 -0.00000000000E+00  0.11368683772E-12  0.17120000000E+03  0.17120000000E+03 0.  0.
         13    1    1    2    0    0  0.86194416609E+01 -0.67519218876E+01  0.27053533863E+02  0.29185408721E+02  0.10566000000E+00 0. -1.
        994    1    1    2    0    0 -0.51106725289E+01  0.64657577569E+01  0.23849413210E+01  0.17141485625E+03  0.17120000000E+03 0.  0.
        998    1    1    2    0    0 -0.35087691320E+01  0.28616413076E+00  0.14705615211E+04  0.14705997350E+04  0.10000000000E+02 0. -1.
</event>
<event>
 5    1  0.1218060E-008  0.3756554E+03  0.7957747E-01  0.3470297E+00
         13   -1    0    0    0    0  0.00000000000E+00  0.00000000000E+00  0.14999999963E+04  0.15000000000E+04  0.10566000000E+00 0. -1.
        994   -1    0    0    0    0 -0.00000000000E+00 -0.00000000000E+00  0.11368683772E-12  0.17120000000E+03  0.17120000000E+03 0.  0.
         13    1    1    2    0    0  0.79259021348E+01  0.29870195107E+02  0.28179605703E+02  0.41822838521E+02  0.10566000000E+00 0. -1.
        994    1    1    2    0    0 -0.32212282511E+01 -0.28131735930E+02  0.16825912419E+02  0.17433967479E+03  0.17120000000E+03 0.  0.
        998    1    1    2    0    0 -0.47046738838E+01 -0.17384591769E+01  0.14549944782E+04  0.14550374867E+04  0.10000000000E+02 0. -1.
</event>
<event>
 5    1  0.1218060E-008  0.3811843E+03  0.7957747E-01  0.3446018E+00
         13   -1    0    0    0    0  0.00000000000E+00  0.00000000000E+00  0.14999999963E+04  0.15000000000E+04  0.10566000000E+00 0.  1.
        994   -1    0    0    0    0 -0.00000000000E+00 -0.00000000000E+00  0.11368683772E-12  0.17120000000E+03  0.17120000000E+03 0.  0.
         13    1    1    2    0    0 -0.10249681148E+03  0.10934636146E+03  0.85802969085E+03  0.87102077166E+03  0.10566000000E+00 0.  1.
        994    1    1    2    0    0  0.12192171990E+03 -0.11151129427E+03  0.10052877315E+03  0.25829275786E+03  0.17120000000E+03 0.  0.
        998    1    1    2    0    0 -0.19424908416E+02  0.21649328167E+01  0.54144153228E+03  0.54188647047E+03  0.10000000000E+02 0. -1.
</event>
<event>
 5    1  0.1218060E-008  0.3735579E+03  0.7957747E-01  0.3479698E+00
         13   -1    0    0    0    0  0.00000000000E+00  0.00000000000E+00  0.14999999963E+04  0.15000000000E+04  0.10566000000E+00 0.  1.
        994   -1    0    0    0    0 -0.00000000000E+00 -0.00000000000E+00  0.11368683772E-12  0.17120000000E+03  0.17120000000E+03 0.  0.
         13    1    1    2    0    0  0.13781157347E+02  0.17830958317E+02  0.32880655726E+02  0.39862414093E+02  0.10566000000E+00 0.  1.
        994    1    1    2    0    0 -0.83858437006E+01  0.12371717186E+02  0.81845330868E+01  0.17204594835E+03  0.17120000000E+03 0.  0.
        998    1    1    2    0    0 -0.53953136460E+01 -0.30202675504E+02  0.14589348075E+04  0.14592916376E+04  0.10000000000E+02 0.  1.
</event>
<event>
 5    1  0.1218060E-008  0.3844310E+03  0.7957747E-01  0.3432089E+00
         13   -1    0    0    0    0  0.00000000000E+00  0.00000000000E+00  0.14999999963E+04  0.15000000000E+04  0.10566000000E+00 0. -1.
        994   -1    0    0    0    0 -0.00000000000E+00 -0.00000000000E+00  0.11368683772E-12  0.17120000000E+03  0.17120000000E+03 0.  0.
         13    1    1    2    0    0  0.21774141006E+00 -0.13980658689E+02  0.52876875343E+02  0.54694436086E+02  0.10566000000E+00 0. -1.
        994    1    1    2    0    0  0.90701371159E+01  0.20341080968E+01  0.21976431765E+01  0.17146624921E+03  0.17120000000E+03 0.  0.
        998    1    1    2    0    0 -0.92878785260E+01  0.11946550592E+02  0.14449254778E+04  0.14450393147E+04  0.10000000000E+02 0. -1.
</event>
<event>
 5    1  0.1218060E-008  0.3769779E+03  0.7957747E-01  0.3464424E+00
         13   -1    0    0    0    0  0.00000000000E+00  0.00000000000E+00  0.14999999963E+04  0.15000000000E+04  0.10566000000E+00 0.  1.
        994   -1    0    0    0    0 -0.00000000000E+00 -0.00000000000E+00  0.11368683772E-12  0.17120000000E+03  0.17120000000E+03 0.  0.
         13    1    1    2    0    0 -0.13933125366E+01 -0.37141981988E+02  0.13355464139E+03  0.13863016103E+03  0.10566000000E+00 0.  1.
        994    1    1    2    0    0 -0.24502688881E+02  0.31485527685E+01  0.77300042128E+01  0.17314585791E+03  0.17120000000E+03 0.  0.
        998    1    1    2    0    0  0.25896001418E+02  0.33993429219E+02  0.13587153507E+04  0.13594239811E+04  0.10000000000E+02 0.  1.
</event>
<event>
 5    1  0.1218060E-008  0.3787415E+03  0.7957747E-01  0.3456657E+00
         13   -1    0    0    0    0  0.00000000000E+00  0.00000000000E+00  0.14999999963E+04  0.15000000000E+04  0.10566000000E+00 0.  1.
        994   -1    0    0    0    0 -0.00000000000E+00 -0.00000000000E+00  0.11368683772E-12  0.17120000000E+03  0.17120000000E+03 0.  0.
         13    1    1    2    0    0  0.10505556880E+02 -0.16140341565E+02  0.38855475382E+02  0.43366305842E+02  0.10566000000E+00 0.  1.
        994    1    1    2    0    0  0.20223059416E+02  0.10370731698E+02  0.65055987771E+01  0.17282443989E+03  0.17120000000E+03 0.  0.
        998    1    1    2    0    0 -0.30728616296E+02  0.57696098677E+01  0.14546389221E+04  0.14550092543E+04  0.10000000000E+02 0.  1.
</event>
<event>
 5    1  0.1218060E-008  0.3771211E+03  0.7957747E-01  0.3463790E+00
         13   -1    0    0    0    0  0.00000000000E+00  0.00000000000E+00  0.14999999963E+04  0.15000000000E+04  0.10566000000E+00 0. -1.
        994   -1    0    0    0    0 -0.00000000000E+00 -0.00000000000E+00  0.11368683772E-12  0.17120000000E+03  0.17120000000E+03 0.  0.
         13    1    1    2    0    0 -0.84687880247E+01  0.10221082904E+03  0.37054198279E+03  0.38447385622E+03  0.10566000000E+00 0. -1.
        994    1    1    2    0    0  0.45898644666E+02 -0.16794980006E+03  0.11588071207E+03  0.27028059559E+03  0.17120000000E+03 0.  0.
        998    1    1    2    0    0 -0.37429856641E+02  0.65738971024E+02  0.10135773014E+04  0.10164455482E+04  0.10000000000E+02 0. -1.
</event>
<event>
 5    1  0.1218060E-008  0.3718894E+03  0.7957747E-01  0.3487252E+00
         13   -1    0    0    0    0  0.00000000000E+00  0.00000000000E+00  0.14999999963E+04  0.15000000000E+04  0.10566000000E+00 0. -1.
        994   -1    0    0    0    0 -0.00000000000E+00 -0.00000000000E+00  0.11368683772E-12  0.17120000000E+03  0.17120000000E+03 0.  0.
         13    1    1    2    0    0  0.11603973774E+02 -0.22042167074E+02  0.20748624681E+02  0.32419530022E+02  0.10566000000E+00 0. -1.
        994    1    1    2    0    0 -0.11310352765E+02  0.19398076862E+02  0.13717788355E+02  0.17321035530E+03  0.17120000000E+03 0.  0.
        998    1    1    2    0    0 -0.29362100910E+00  0.26440902120E+01  0.14655335832E+04  0.14655701147E+04  0.10000000000E+02 0. -1.
</event>
<event>
 5    1  0.1218060E-008  0.3773142E+03  0.7957747E-01  0.3462937E+00
         13   -1    0    0    0    0  0.00000000000E+00  0.00000000000E+00  0.14999999963E+04  0.15000000000E+04  0.10566000000E+00 0.  1.
        994   -1    0    0    0    0 -0.00000000000E+00 -0.00000000000E+00  0.11368683772E-12  0.17120000000E+03  0.17120000000E+03 0.  0.
         13    1    1    2    0    0  0.23668569383E+02  0.52840350059E+02  0.10066428725E+03  0.11612757494E+03  0.10566000000E+00 0.  1.
        994    1    1    2    0    0 -0.26946923947E+02 -0.52409235205E+02  0.27428307061E+02  0.18312459331E+03  0.17120000000E+03 0.  0.
        998    1    1    2    0    0  0.32783545638E+01 -0.43111485371E+00  0.13719074020E+04  0.13719478318E+04  0.10000000000E+02 0.  1.
</event>
<event>
 5    1  0.1218060E-008  0.3784055E+03  0.7957747E-01  0.3458131E+00
         13   -1    0    0    0    0  0.00000000000E+00  0.00000000000E+00  0.14999999963E+04  0.15000000000E+04  0.10566000000E+00 0. -1.
        994   -1    0    0    0    0 -0.00000000000E+00 -0.00000000000E+00  0.11368683772E-12  0.17120000000E+03  0.17120000000E+03 0.  0.
         13    1    1    2    0    0 -0.73314377772E+02 -0.27897331492E+02  0.22979808845E+03  0.24281769233E+03  0.10566000000E+00 0. -1.
        994    1    1    2    0    0 -0.19109692507E+02  0.10050841069E+03  0.54202442692E+02  0.20667478260E+03  0.17120000000E+03 0.  0.
        998    1    1    2    0    0  0.92424070280E+02 -0.72611079201E+02  0.12159994651E+04  0.12217075251E+04  0.10000000000E+02 0. -1.
</event>
<event>
 5    1  0.1218060E-008  0.3848034E+03  0.7957747E-01  0.3430507E+00
         13   -1    0    0    0    0  0.00000000000E+00  0.00000000000E+00  0.14999999963E+04  0.15000000000E+04  0.10566000000E+00 0. -1.
        994   -1    0    0    0    0 -0.00000000000E+00 -0.00000000000E+00  0.11368683772E-12  0.17120000000E+03  0.17120000000E+03 0.  0.
         13    1    1    2    0    0 -0.16225269881E+02  0.17345852863E+01  0.83431662776E+02  0.85012479592E+02  0.10566000000E+00 0. -1.
        994    1    1    2    0    0  0.50556842241E+00  0.10449738482E+02  0.20880530691E+01  0.17153207455E+03  0.17120000000E+03 0.  0.
        998    1    1    2    0    0  0.15719701459E+02 -0.12184323768E+02  0.14144802804E+04  0.14146554459E+04  0.10000000000E+02 0. -1.
</event>
<event>
 5    1  0.1218060E-008  0.3848437E+03  0.7957747E-01  0.3430335E+00
         13   -1    0    0    0    0  0.00000000000E+00  0.00000000000E+00  0.14999999963E+04  0.15000000000E+04  0.10566000000E+00 0. -1.
        994   -1    0    0    0    0 -0.00000000000E+00 -0.00000000000E+00  0.11368683772E-12  0.17120000000E+03  0.17120000000E+03 0.  0.
         13    1    1    2    0    0 -0.18907028729E+02 -0.13836173103E+02  0.13479209144E+03  0.13681313716E+03  0.10566000000E+00 0. -1.
        994    1    1    2    0    0  0.26502729481E+02  0.22385111394E+02  0.56776613855E+01  0.17477174749E+03  0.17120000000E+03 0.  0.
        998    1    1    2    0    0 -0.75957007519E+01 -0.85489382905E+01  0.13595302435E+04  0.13596151153E+04  0.10000000000E+02 0. -1.
</event>
<event>
 5    1  0.1218060E-008  0.3771797E+03  0.7957747E-01  0.3463531E+00
         13   -1    0    0    0    0  0.00000000000E+00  0.00000000000E+00  0.14999999963E+04  0.15000000000E+04  0.10566000000E+00 0.  1.
        994   -1    0    0    0    0 -0.00000000000E+00 -0.00000000000E+00  0.11368683772E-12  0.17120000000E+03  0.17120000000E+03 0.  0.
         13    1    1    2    0    0  0.78896142368E+01 -0.14753128530E+02  0.23405821828E+02  0.28770548721E+02  0.10566000000E+00 0.  1.
        994    1    1    2    0    0 -0.72513113774E+01 -0.18541686563E+01  0.57526682877E+01  0.17146006139E+03  0.17120000000E+03 0.  0.
        998    1    1    2    0    0 -0.63830285942E+00  0.16607297186E+02  0.14708415062E+04  0.14709693899E+04  0.10000000000E+02 0.  1.
</event>
<event>
 5    1  0.1218060E-008  0.3782762E+03  0.7957747E-01  0.3458699E+00
         13   -1    0    0    0    0  0.00000000000E+00  0.00000000000E+00  0.14999999963E+04  0.15000000000E+04  0.10566000000E+00 0.  1.
        994   -1    0    0    0    0 -0.00000000000E+00 -0.00000000000E+00  0.11368683772E-12  0.17120000000E+03  0.17120000000E+03 0.  0.
         13    1    1    2    0    0 -0.13130262800E+02  0.54621158001E+01  0.21992887854E+02  0.26190395003E+02  0.10566000000E+00 0.  1.
        994    1    1    2    0    0 -0.62748381035E+02  0.24059306954E+02  0.20343003089E+02  0.18503915085E+03  0.17120000000E+03 0.  0.
        998    1    1    2    0    0  0.75878643835E+02 -0.29521422754E+02  0.14576641053E+04  0.14599704541E+04  0.10000000000E+02 0.  1.
</event>
<event>
 5    1  0.1218060E-008  0.3772295E+03  0.7957747E-01  0.3463311E+00
         13   -1    0    0    0    0  0.00000000000E+00  0.00000000000E+00  0.14999999963E+04  0.15000000000E+04  0.10566000000E+00 0.  1.
        994   -1    0    0    0    0 -0.00000000000E+00 -0.00000000000E+00  0.11368683772E-12  0.17120000000E+03  0.17120000000E+03 0.  0.
         13    1    1    2    0    0  0.25768899092E+02  0.27474751970E+02  0.14362537030E+03  0.14848284855E+03  0.10566000000E+00 0.  1.
        994    1    1    2    0    0  0.44450142385E+01 -0.27694905635E+01  0.56308250127E+01  0.17137261864E+03  0.17120000000E+03 0.  0.
        998    1    1    2    0    0 -0.30213913330E+02 -0.24705261406E+02  0.13507438010E+04  0.13513445328E+04  0.10000000000E+02 0.  1.
</event>
<event>
 5    1  0.1218060E-008  0.3771022E+03  0.7957747E-01  0.3463874E+00
         13   -1    0    0    0    0  0.00000000000E+00  0.00000000000E+00  0.14999999963E+04  0.15000000000E+04  0.10566000000E+00 0.  1.
        994   -1    0    0    0    0 -0.00000000000E+00 -0.00000000000E+00  0.11368683772E-12  0.17120000000E+03  0.17120000000E+03 0.  0.
         13    1    1    2    0    0 -0.28967152185E+02 -0.18649167648E+02  0.10299249160E+03  0.10860180409E+03  0.10566000000E+00 0.  1.
        994    1    1    2    0    0  0.22853732628E+02  0.68730050991E+01  0.75278299331E+01  0.17301918829E+03  0.17120000000E+03 0.  0.
        998    1    1    2    0    0  0.61134195572E+01  0.11776162549E+02  0.13894796747E+04  0.13895790076E+04  0.10000000000E+02 0.  1.
</event>
<event>
 5    1  0.1218060E-008  0.3731776E+03  0.7957747E-01  0.3481414E+00
         13   -1    0    0    0    0  0.00000000000E+00  0.00000000000E+00  0.14999999963E+04  0.15000000000E+04  0.10566000000E+00 0.  1.
        994   -1    0    0    0    0 -0.00000000000E+00 -0.00000000000E+00  0.11368683772E-12  0.17120000000E+03  0.17120000000E+03 0.  0.
         13    1    1    2    0    0 -0.65669675014E+02  0.40926848586E+01  0.24431272734E+03  0.25301773888E+03  0.10566000000E+00 0.  1.
        994    1    1    2    0    0  0.63442777883E+02  0.25670543671E+02  0.23811324898E+02  0.18590422822E+03  0.17120000000E+03 0.  0.
        998    1    1    2    0    0  0.22268971305E+01 -0.29763228530E+02  0.12318759440E+04  0.12322780329E+04  0.10000000000E+02 0. -1.
</event>
<event>
 5    1  0.1218060E-008  0.3700789E+03  0.7957747E-01  0.3495528E+00
         13   -1    0    0    0    0  0.00000000000E+00  0.00000000000E+00  0.14999999963E+04  0.15000000000E+04  0.10566000000E+00 0.  1.
        994   -1    0    0    0    0 -0.00000000000E+00 -0.00000000000E+00  0.11368683772E-12  0.17120000000E+03  0.17120000000E+03 0.  0.
         13    1    1    2    0    0  0.65657986531E+02 -0.48227141283E+01  0.27353982420E+03  0.28135080656E+03  0.10566000000E+00 0.  1.
        994    1    1    2    0    0  0.16464513071E+02 -0.18032978245E+02  0.13068441056E+02  0.17342575543E+03  0.17120000000E+03 0.  0.
        998    1    1    2    0    0 -0.82122499602E+02  0.22855692373E+02  0.12133917310E+04  0.12164234380E+04  0.10000000000E+02 0.  1.
</event>
<event>
 5    1  0.1218060E-008  0.3767318E+03  0.7957747E-01  0.3465514E+00
         13   -1    0    0    0    0  0.00000000000E+00  0.00000000000E+00  0.14999999963E+04  0.15000000000E+04  0.10566000000E+00 0.  1.
        994   -1    0    0    0    0 -0.00000000000E+00 -0.00000000000E+00  0.11368683772E-12  0.17120000000E+03  0.17120000000E+03 0.  0.
         13    1    1    2    0    0  0.68390734785E+02  0.42266785025E+01  0.17686040999E+03  0.18967016950E+03  0.10566000000E+00 0.  1.
        994    1    1    2    0    0 -0.12707688987E+02 -0.14915970533E+03  0.99829318576E+02  0.24836552881E+03  0.17120000000E+03 0.  0.
        998    1    1    2    0    0 -0.55683045798E+02  0.14493302683E+03  0.12233102677E+04  0.12331643017E+04  0.10000000000E+02 0.  1.
</event>
<event>
 5    1  0.1218060E-008  0.3803733E+03  0.7957747E-01  0.3449535E+00
         13   -1    0    0    0    0  0.00000000000E+00  0.00000000000E+00  0.14999999963E+04  0.15000000000E+04  0.10566000000E+00 0.  1.
        994   -1    0    0    0    0 -0.00000000000E+00 -0.00000000000E+00  0.11368683772E-12  0.17120000000E+03  0.17120000000E+03 0.  0.
         13    1    1    2    0    0  0.18877355109E+02  0.12594224161E+02  0.62191571690E+02  0.66202505779E+02  0.10566000000E+00 0.  1.
        994    1    1    2    0    0 -0.14033965868E+02 -0.16418735876E+02  0.55040333768E+01  0.17264489992E+03  0.17120000000E+03 0.  0.
        998    1    1    2    0    0 -0.48433892411E+01  0.38245117155E+01  0.14323043912E+04  0.14323525943E+04  0.10000000000E+02 0.  1.
</event>
<event>
 5    1  0.1218060E-008  0.3822556E+03  0.7957747E-01  0.3441395E+00
         13   -1    0    0    0    0  0.00000000000E+00  0.00000000000E+00  0.14999999963E+04  0.15000000000E+04  0.10566000000E+00 0. -1.
        994   -1    0    0    0    0 -0.00000000000E+00 -0.00000000000E+00  0.11368683772E-12  0.17120000000E+03  0.17120000000E+03 0.  0.
         13    1    1    2    0    0  0.30480940663E+02  0.81641646786E+01  0.18084512806E+03  0.18357753902E+03  0.10566000000E+00 0. -1.
        994    1    1    2    0    0 -0.70537984870E+01 -0.24148938376E+01  0.31832974181E+01  0.17139183518E+03  0.17120000000E+03 0.  0.
        998    1    1    2    0    0 -0.23427142176E+02 -0.57492708410E+01  0.13159715708E+04  0.13162306258E+04  0.10000000000E+02 0. -1.
</event>
<event>
 5    1  0.1218060E-008  0.3796559E+03  0.7957747E-01  0.3452658E+00
         13   -1    0    0    0    0  0.00000000000E+00  0.00000000000E+00  0.14999999963E+04  0.15000000000E+04  0.10566000000E+00 0.  1.
        994   -1    0    0    0    0 -0.00000000000E+00 -0.00000000000E+00  0.11368683772E-12  0.17120000000E+03  0.17120000000E+03 0.  0.
         13    1    1    2    0    0  0.12412281089E+02 -0.11474087395E+02  0.31701304890E+02  0.35926359391E+02  0.10566000000E+00 0.  1.
        994    1    1    2    0    0 -0.79031447643E+01  0.47088640673E+01  0.45902242548E+01  0.17150843494E+03  0.17120000000E+03 0.  0.
        998    1    1    2    0    0 -0.45091363243E+01  0.67652233272E+01  0.14637084671E+04  0.14637652057E+04  0.10000000000E+02 0.  1.
</event>
<event>
 5    1  0.1218060E-008  0.3816554E+03  0.7957747E-01  0.3443982E+00
         13   -1    0    0    0    0  0.00000000000E+00  0.00000000000E+00  0.14999999963E+04  0.15000000000E+04  0.10566000000E+00 0. -1.
        994   -1    0    0    0    0 -0.00000000000E+00 -0.00000000000E+00  0.11368683772E-12  0.17120000000E+03  0.17120000000E+03 0.  0.
         13    1    1    2    0    0 -0.10851518279E+02  0.62955482369E+01  0.21858130703E+02  0.25202746248E+02  0.10566000000E+00 0. -1.
        994    1    1    2    0    0  0.17690889925E+02 -0.77356265511E+01  0.45402989252E+01  0.17234518217E+03  0.17120000000E+03 0.  0.
        998    1    1    2    0    0 -0.68393716452E+01  0.14400783142E+01  0.14736015667E+04  0.14736520716E+04  0.10000000000E+02 0. -1.
</event>
<event>
 5    1  0.1218060E-008  0.4163263E+03  0.7957747E-01  0.3306789E+00
         13   -1    0    0    0    0  0.00000000000E+00  0.00000000000E+00  0.14999999963E+04  0.15000000000E+04  0.10566000000E+00 0.  1.
        994   -1    0    0    0    0 -0.00000000000E+00 -0.00000000000E+00  0.11368683772E-12  0.17120000000E+03  0.17120000000E+03 0.  0.
         13    1    1    2    0    0  0.64514901221E+02  0.69251965482E+02  0.18424571781E+03  0.20713402158E+03  0.10566000000E+00 0.  1.
        994    1    1    2    0    0  0.13853832511E+02  0.12522110500E+03  0.10840822636E+03  0.23860854418E+03  0.17120000000E+03 0.  0.
        998    1    1    2    0    0 -0.78368733731E+02 -0.19447307049E+03  0.12073460521E+04  0.12254574342E+04  0.10000000000E+02 0.  1.
</event>
<event>
 5    1  0.1218060E-008  0.3835221E+03  0.7957747E-01  0.3435965E+00
         13   -1    0    0    0    0  0.00000000000E+00  0.00000000000E+00  0.14999999963E+04  0.15000000000E+04  0.10566000000E+00 0.  1.
        994   -1    0    0    0    0 -0.00000000000E+00 -0.00000000000E+00  0.11368683772E-12  0.17120000000E+03  0.17120000000E+03 0.  0.
         13    1    1    2    0    0  0.20524217037E+02 -0.37633719053E+01  0.84985002783E+02  0.87509247027E+02  0.10566000000E+00 0.  1.
        994    1    1    2    0    0 -0.24694364252E+02  0.57425539421E+01  0.44926651589E+01  0.17312542445E+03  0.17120000000E+03 0.  0.
        998    1    1    2    0    0  0.41701472150E+01 -0.19791820367E+01  0.14105223283E+04  0.14105653285E+04  0.10000000000E+02 0.  1.
</event>
<event>
 5    1  0.1218060E-008  0.3789342E+03  0.7957747E-01  0.3455813E+00
         13   -1    0    0    0    0  0.00000000000E+00  0.00000000000E+00  0.14999999963E+04  0.15000000000E+04  0.10566000000E+00 0. -1.
        994   -1    0    0    0    0 -0.00000000000E+00 -0.00000000000E+00  0.11368683772E-12  0.17120000000E+03  0.17120000000E+03 0.  0.
         13    1    1    2    0    0  0.26177549784E+02 -0.18146734956E+02  0.12196193023E+03  0.12605273378E+03  0.10566000000E+00 0. -1.
        994    1    1    2    0    0  0.13139920604E+01 -0.65035154053E+01  0.48198440520E+01  0.17139630447E+03  0.17120000000E+03 0.  0.
        998    1    1    2    0    0 -0.27491541845E+02  0.24650250362E+02  0.13732182220E+04  0.13737509618E+04  0.10000000000E+02 0. -1.
</event>
<event>
 5    1  0.1218060E-008  0.3837376E+03  0.7957747E-01  0.3435044E+00
         13   -1    0    0    0    0  0.00000000000E+00  0.00000000000E+00  0.14999999963E+04  0.15000000000E+04  0.10566000000E+00 0.  1.
        994   -1    0    0    0    0 -0.00000000000E+00 -0.00000000000E+00  0.11368683772E-12  0.17120000000E+03  0.17120000000E+03 0.  0.
         13    1    1    2    0    0  0.78789153510E+01 -0.63652292622E+01  0.21784302433E+02  0.24024163819E+02  0.10566000000E+00 0.  1.
        994    1    1    2    0    0 -0.82280806496E+01  0.49369341287E+01  0.25623154904E+01  0.17148784240E+03  0.17120000000E+03 0.  0.
        998    1    1    2    0    0  0.34916529861E+00  0.14282951335E+01  0.14756533784E+04  0.14756879938E+04  0.10000000000E+02 0.  1.
</event>
<event>
 5    1  0.1218060E-008  0.3849415E+03  0.7957747E-01  0.3429920E+00
         13   -1    0    0    0    0  0.00000000000E+00  0.00000000000E+00  0.14999999963E+04  0.15000000000E+04  0.10566000000E+00 0.  1.
        994   -1    0    0    0    0 -0.00000000000E+00 -0.00000000000E+00  0.11368683772E-12  0.17120000000E+03  0.17120000000E+03 0.  0.
         13    1    1    2    0    0  0.16798129625E+02  0.34063347342E+01  0.83179854723E+02  0.84927496555E+02  0.10566000000E+00 0.  1.
        994    1    1    2    0    0 -0.18596449617E+02 -0.90486744320E+01  0.30673029718E+01  0.17247189567E+03  0.17120000000E+03 0.  0.
        998    1    1    2    0    0  0.17983199923E+01  0.56423396977E+01  0.14137528386E+04  0.14138006078E+04  0.10000000000E+02 0.  1.
</event>
<event>
 5    1  0.1218060E-008  0.3748540E+03  0.7957747E-01  0.3473876E+00
         13   -1    0    0    0    0  0.00000000000E+00  0.00000000000E+00  0.14999999963E+04  0.15000000000E+04  0.10566000000E+00 0.  1.
        994   -1    0    0    0    0 -0.00000000000E+00 -0.00000000000E+00  0.11368683772E-12  0.17120000000E+03  0.17120000000E+03 0.  0.
         13    1    1    2    0    0  0.62978547517E+01  0.29206174150E+02  0.60575517191E+02  0.67543082769E+02  0.10566000000E+00 0.  1.
        994    1    1    2    0    0 -0.19919264081E+02 -0.29711363075E+02  0.11117669688E+02  0.17525006350E+03  0.17120000000E+03 0.  0.
        998    1    1    2    0    0  0.13621409329E+02  0.50518892477E+00  0.14283068094E+04  0.14284068537E+04  0.10000000000E+02 0.  1.
</event>
<event>
 5    1  0.1218060E-008  0.3804985E+03  0.7957747E-01  0.3448991E+00
         13   -1    0    0    0    0  0.00000000000E+00  0.00000000000E+00  0.14999999963E+04  0.15000000000E+04  0.10566000000E+00 0.  1.
        994   -1    0    0    0    0 -0.00000000000E+00 -0.00000000000E+00  0.11368683772E-12  0.17120000000E+03  0.17120000000E+03 0.  0.
         13    1    1    2    0    0  0.28166560128E+02 -0.75029459989E+01  0.11162562794E+03  0.11536871883E+03  0.10566000000E+00 0.  1.
        994    1    1    2    0    0 -0.17633704526E+02 -0.18085381902E+02  0.60140151234E+01  0.17315783826E+03  0.17120000000E+03 0.  0.
        998    1    1    2    0    0 -0.10532855603E+02  0.25588327901E+02  0.13823603532E+04  0.13826734429E+04  0.10000000000E+02 0.  1.
</event>
<event>
 5    1  0.1218060E-008  0.3724188E+03  0.7957747E-01  0.3484848E+00
         13   -1    0    0    0    0  0.00000000000E+00  0.00000000000E+00  0.14999999963E+04  0.15000000000E+04  0.10566000000E+00 0. -1.
        994   -1    0    0    0    0 -0.00000000000E+00 -0.00000000000E+00  0.11368683772E-12  0.17120000000E+03  0.17120000000E+03 0.  0.
         13    1    1    2    0    0  0.16820513716E+02  0.90252287522E+01  0.93864354553E+01  0.21272065492E+02  0.10566000000E+00 0. -1.
        994    1    1    2    0    0 -0.18053007874E+02 -0.67034364487E+01  0.13532132712E+02  0.17281031731E+03  0.17120000000E+03 0.  0.
        998    1    1    2    0    0  0.12324941580E+01 -0.23217923035E+01  0.14770814281E+04  0.14771176172E+04  0.10000000000E+02 0. -1.
</event>
<event>
 5    1  0.1218060E-008  0.3716452E+03  0.7957747E-01  0.3488364E+00
         13   -1    0    0    0    0  0.00000000000E+00  0.00000000000E+00  0.14999999963E+04  0.15000000000E+04  0.10566000000E+00 0. -1.
        994   -1    0    0    0    0 -0.00000000000E+00 -0.00000000000E+00  0.11368683772E-12  0.17120000000E+03  0.17120000000E+03 0.  0.
         13    1    1    2    0    0 -0.33145771283E+02  0.19945744625E+02  0.83255123713E+02  0.91803603802E+02  0.10566000000E+00 0. -1.
        994    1    1    2    0    0  0.38052247657E+02 -0.12392052455E+01  0.13411704547E+02  0.17589435181E+03  0.17120000000E+03 0.  0.
        998    1    1    2    0    0 -0.49064763743E+01 -0.18706539379E+02  0.14033331680E+04  0.14035020444E+04  0.10000000000E+02 0. -1.
</event>
<event>
 5    1  0.1218060E-008  0.4265483E+03  0.7957747E-01  0.3270555E+00
         13   -1    0    0    0    0  0.00000000000E+00  0.00000000000E+00  0.14999999963E+04  0.15000000000E+04  0.10566000000E+00 0.  1.
        994   -1    0    0    0    0 -0.00000000000E+00 -0.00000000000E+00  0.11368683772E-12  0.17120000000E+03  0.17120000000E+03 0.  0.
         13    1    1    2    0    0  0.75259086554E+02  0.15758983746E+01  0.46831577728E+02  0.88654505814E+02  0.10566000000E+00 0.  1.
        994    1    1    2    0    0 -0.79154908253E+02 -0.29418160030E+00  0.72863420916E+02  0.20219818038E+03  0.17120000000E+03 0.  0.
        998    1    1    2    0    0  0.38958216988E+01 -0.12817167743E+01  0.13803049976E+04  0.13803473138E+04  0.10000000000E+02 0.  1.
</event>
<event>
 5    1  0.1218060E-008  0.3832117E+03  0.7957747E-01  0.3437292E+00
         13   -1    0    0    0    0  0.00000000000E+00  0.00000000000E+00  0.14999999963E+04  0.15000000000E+04  0.10566000000E+00 0. -1.
        994   -1    0    0    0    0 -0.00000000000E+00 -0.00000000000E+00  0.11368683772E-12  0.17120000000E+03  0.17120000000E+03 0.  0.
         13    1    1    2    0    0  0.17147304408E+02 -0.48163070751E+01  0.58946552499E+02  0.61578682009E+02  0.10566000000E+00 0. -1.
        994    1    1    2    0    0 -0.23043309934E+02  0.14744951973E+01  0.42862073664E+01  0.17280329812E+03  0.17120000000E+03 0.  0.
        998    1    1    2    0    0  0.58960055261E+01  0.33418118778E+01  0.14367672364E+04  0.14368180199E+04  0.10000000000E+02 0. -1.
</event>
<event>
 5    1  0.1218060E-008  0.4431836E+03  0.7957747E-01  0.3215080E+00
         13   -1    0    0    0    0  0.00000000000E+00  0.00000000000E+00  0.14999999963E+04  0.15000000000E+04  0.10566000000E+00 0.  1.
        994   -1    0    0    0    0 -0.00000000000E+00 -0.00000000000E+00  0.11368683772E-12  0.17120000000E+03  0.17120000000E+03 0.  0.
         13    1    1    2    0    0  0.32886765461E+02  0.45011265132E+02  0.72074955841E+01  0.56209540897E+02  0.10566000000E+00 0.  1.
        994    1    1    2    0    0 -0.34314691857E+02 -0.43079430635E+02  0.71297551529E+02  0.19345830630E+03  0.17120000000E+03 0.  0.
        998    1    1    2    0    0  0.14279263959E+01 -0.19318344968E+01  0.14214949492E+04  0.14215321528E+04  0.10000000000E+02 0.  0.
</event>
<event>
 5    1  0.1218060E-008  0.3815888E+03  0.7957747E-01  0.3444269E+00
         13   -1    0    0    0    0  0.00000000000E+00  0.00000000000E+00  0.14999999963E+04  0.15000000000E+04  0.10566000000E+00 0.  1.
        994   -1    0    0    0    0 -0.00000000000E+00 -0.00000000000E+00  0.11368683772E-12  0.17120000000E+03  0.17120000000E+03 0.  0.
         13    1    1    2    0    0 -0.29287163871E+01 -0.14534486883E+02  0.29948455195E+02  0.33417806948E+02  0.10566000000E+00 0.  1.
        994    1    1    2    0    0  0.46273750363E+01  0.27067522522E+02  0.58449078451E+01  0.17348679005E+03  0.17120000000E+03 0.  0.
        998    1    1    2    0    0 -0.16986586492E+01 -0.12533035640E+02  0.14642066332E+04  0.14642954030E+04  0.10000000000E+02 0.  1.
</event>
<event>
 5    1  0.1218060E-008  0.3842757E+03  0.7957747E-01  0.3432750E+00
         13   -1    0    0    0    0  0.00000000000E+00  0.00000000000E+00  0.14999999963E+04  0.15000000000E+04  0.10566000000E+00 0. -1.
        994   -1    0    0    0    0 -0.00000000000E+00 -0.00000000000E+00  0.11368683772E-12  0.17120000000E+03  0.17120000000E+03 0.  0.
         13    1    1    2    0    0  0.19660533451E+01  0.12512965323E+02  0.40973356717E+02  0.42886673824E+02  0.10566000000E+00 0. -1.
        994    1    1    2    0    0  0.63992308996E+01 -0.38438727314E+01  0.21739022766E+01  0.17137646094E+03  0.17120000000E+03 0.  0.
        998    1    1    2    0    0 -0.83652842447E+01 -0.86690925917E+01  0.14568527373E+04  0.14569368652E+04  0.10000000000E+02 0. -1.
</event>
<event>
 5    1  0.1218060E-008  0.3811896E+03  0.7957747E-01  0.3445995E+00
         13   -1    0    0    0    0  0.00000000000E+00  0.00000000000E+00  0.14999999963E+04  0.15000000000E+04  0.10566000000E+00 0. -1.
        994   -1    0    0    0    0 -0.00000000000E+00 -0.00000000000E+00  0.11368683772E-12  0.17120000000E+03  0.17120000000E+03 0.  0.
         13    1    1    2    0    0 -0.26523288874E+02 -0.87329868046E+01  0.10524767689E+03  0.10888909296E+03  0.10566000000E+00 0. -1.
        994    1    1    2    0    0  0.24610765984E+02  0.30666813303E+00  0.55535920580E+01  0.17304931734E+03  0.17120000000E+03 0.  0.
        998    1    1    2    0    0  0.19125228901E+01  0.84263186715E+01  0.13891987273E+04  0.13892615897E+04  0.10000000000E+02 0. -1.
</event>
<event>
 5    1  0.1218060E-008  0.3836898E+03  0.7957747E-01  0.3435248E+00
         13   -1    0    0    0    0  0.00000000000E+00  0.00000000000E+00  0.14999999963E+04  0.15000000000E+04  0.10566000000E+00 0.  1.
        994   -1    0    0    0    0 -0.00000000000E+00 -0.00000000000E+00  0.11368683772E-12  0.17120000000E+03  0.17120000000E+03 0.  0.
         13    1    1    2    0    0  0.18829390377E+02  0.10358057861E+02  0.10653329191E+03  0.10867929312E+03  0.10566000000E+00 0.  1.
        994    1    1    2    0    0 -0.53619699002E+00 -0.10215402429E+02  0.26277173581E+01  0.17152546998E+03  0.17120000000E+03 0.  0.
        998    1    1    2    0    0 -0.18293193387E+02 -0.14265543230E+00  0.13908389870E+04  0.13909952369E+04  0.10000000000E+02 0.  1.
</event>
<event>
 5    1  0.1218060E-008  0.3765429E+03  0.7957747E-01  0.3466351E+00
         13   -1    0    0    0    0  0.00000000000E+00  0.00000000000E+00  0.14999999963E+04  0.15000000000E+04  0.10566000000E+00 0. -1.
        994   -1    0    0    0    0 -0.00000000000E+00 -0.00000000000E+00  0.11368683772E-12  0.17120000000E+03  0.17120000000E+03 0.  0.
         13    1    1    2    0    0 -0.11633684735E+03  0.65062614520E+02  0.69220598568E+03  0.70492307640E+03  0.10566000000E+00 0. -1.
        994    1    1    2    0    0  0.11707335448E+03 -0.76247838907E+02  0.75037713297E+02  0.23336666790E+03  0.17120000000E+03 0.  0.
        998    1    1    2    0    0 -0.73650713580E+00  0.11185224387E+02  0.73275629730E+03  0.73291025571E+03  0.10000000000E+02 0. -1.
</event>
<event>
 5    1  0.1218060E-008  0.3838229E+03  0.7957747E-01  0.3434680E+00
         13   -1    0    0    0    0  0.00000000000E+00  0.00000000000E+00  0.14999999963E+04  0.15000000000E+04  0.10566000000E+00 0. -1.
        994   -1    0    0    0    0 -0.00000000000E+00 -0.00000000000E+00  0.11368683772E-12  0.17120000000E+03  0.17120000000E+03 0.  0.
         13    1    1    2    0    0 -0.10719019385E+02 -0.18861502955E+02  0.10819559403E+03  0.11034922474E+03  0.10566000000E+00 0. -1.
        994    1    1    2    0    0 -0.24130184890E+01  0.13274306517E+02  0.28168418209E+01  0.17175390671E+03  0.17120000000E+03 0.  0.
        998    1    1    2    0    0  0.13132037873E+02  0.55871964377E+01  0.13889875604E+04  0.13890968685E+04  0.10000000000E+02 0. -1.
</event>
<event>
 5    1  0.1218060E-008  0.3256145E+03  0.7957747E-01  0.3728581E+00
         13   -1    0    0    0    0  0.00000000000E+00  0.00000000000E+00  0.14999999963E+04  0.15000000000E+04  0.10566000000E+00 0. -1.
        994   -1    0    0    0    0 -0.00000000000E+00 -0.00000000000E+00  0.11368683772E-12  0.17120000000E+03  0.17120000000E+03 0.  0.
         13    1    1    2    0    0 -0.22182622639E+03  0.13054581802E+03  0.63622093853E+03  0.68631347000E+03  0.10566000000E+00 0. -1.
        994    1    1    2    0    0  0.22288212732E+03 -0.13339154592E+03  0.33940126257E+03  0.46040460927E+03  0.17120000000E+03 0.  0.
        998    1    1    2    0    0 -0.10559009334E+01  0.28457278919E+01  0.52437779519E+03  0.52448192074E+03  0.10000000000E+02 0.  0.
</event>
<event>
 5    1  0.1218060E-008  0.3840917E+03  0.7957747E-01  0.3433534E+00
         13   -1    0    0    0    0  0.00000000000E+00  0.00000000000E+00  0.14999999963E+04  0.15000000000E+04  0.10566000000E+00 0. -1.
        994   -1    0    0    0    0 -0.00000000000E+00 -0.00000000000E+00  0.11368683772E-12  0.17120000000E+03  0.17120000000E+03 0.  0.
         13    1    1    2    0    0  0.51713721753E+01  0.17149524937E+02  0.77138535487E+02  0.79190997700E+02  0.10566000000E+00 0. -1.
        994    1    1    2    0    0 -0.12030652484E+02 -0.74964145842E+01  0.27447988856E+01  0.17180776103E+03  0.17120000000E+03 0.  0.
        998    1    1    2    0    0  0.68592803088E+01 -0.96531103531E+01  0.14201166619E+04  0.14202012413E+04  0.10000000000E+02 0. -1.
</event>
<event>
 5    1  0.1218060E-008  0.3829835E+03  0.7957747E-01  0.3438270E+00
         13   -1    0    0    0    0  0.00000000000E+00  0.00000000000E+00  0.14999999963E+04  0.15000000000E+04  0.10566000000E+00 0.  1.
        994   -1    0    0    0    0 -0.00000000000E+00 -0.00000000000E+00  0.11368683772E-12  0.17120000000E+03  0.17120000000E+03 0.  0.
         13    1    1    2    0    0 -0.19738677601E+02 -0.14302544480E+02  0.10552333703E+03  0.10830218831E+03  0.10566000000E+00 0.  1.
        994    1    1    2    0    0  0.21412209905E+02  0.11879692890E+02  0.46220249880E+01  0.17300408363E+03  0.17120000000E+03 0.  0.
        998    1    1    2    0    0 -0.16735323046E+01  0.24228515901E+01  0.13898546343E+04  0.13898937281E+04  0.10000000000E+02 0.  0.
</event>
<event>
 5    1  0.1218060E-008  0.3701224E+03  0.7957747E-01  0.3495329E+00
         13   -1    0    0    0    0  0.00000000000E+00  0.00000000000E+00  0.14999999963E+04  0.15000000000E+04  0.10566000000E+00 0.  1.
        994   -1    0    0    0    0 -0.00000000000E+00 -0.00000000000E+00  0.11368683772E-12  0.17120000000E+03  0.17120000000E+03 0.  0.
         13    1    1    2    0    0  0.32294172180E+02  0.38150208452E+02  0.13042979109E+03  0.13967925233E+03  0.10566000000E+00 0.  1.
        994    1    1    2    0    0 -0.17785136818E+02 -0.29954640642E+02  0.13411095215E+02  0.17522239886E+03  0.17120000000E+03 0.  0.
        998    1    1    2    0    0 -0.14509035361E+02 -0.81955678098E+01  0.13561591100E+04  0.13562983488E+04  0.10000000000E+02 0.  1.
</event>
<event>
 5    1  0.1218060E-008  0.3820127E+03  0.7957747E-01  0.3442441E+00
         13   -1    0    0    0    0  0.00000000000E+00  0.00000000000E+00  0.14999999963E+04  0.15000000000E+04  0.10566000000E+00 0. -1.
        994   -1    0    0    0    0 -0.00000000000E+00 -0.00000000000E+00  0.11368683772E-12  0.17120000000E+03  0.17120000000E+03 0.  0.
         13    1    1    2    0    0 -0.15183420259E+02  0.12190191079E+01  0.36329718993E+02  0.39393932331E+02  0.10566000000E+00 0. -1.
        994    1    1    2    0    0  0.86374801536E+01  0.46081171912E+01  0.34389078313E+01  0.17151415946E+03  0.17120000000E+03 0.  0.
        998    1    1    2    0    0  0.65459401050E+01 -0.58271362991E+01  0.14602313695E+04  0.14602919082E+04  0.10000000000E+02 0. -1.
</event>
<event>
 5    1  0.1218060E-008  0.3726362E+03  0.7957747E-01  0.3483863E+00
         13   -1    0    0    0    0  0.00000000000E+00  0.00000000000E+00  0.14999999963E+04  0.15000000000E+04  0.10566000000E+00 0. -1.
        994   -1    0    0    0    0 -0.00000000000E+00 -0.00000000000E+00  0.11368683772E-12  0.17120000000E+03  0.17120000000E+03 0.  0.
         13    1    1    2    0    0  0.50835736128E+02  0.55701082372E+02  0.33580320935E+03  0.34416665908E+03  0.10566000000E+00 0. -1.
        994    1    1    2    0    0 -0.39380960991E+02 -0.33950428245E+02  0.17218622596E+02  0.17974819229E+03  0.17120000000E+03 0.  0.
        998    1    1    2    0    0 -0.11454775138E+02 -0.21750654127E+02  0.11469781643E+04  0.11472851486E+04  0.10000000000E+02 0. -1.
</event>
<event>
 5    1  0.1218060E-008  0.3808931E+03  0.7957747E-01  0.3447279E+00
         13   -1    0    0    0    0  0.00000000000E+00  0.00000000000E+00  0.14999999963E+04  0.15000000000E+04  0.10566000000E+00 0. -1.
        994   -1    0    0    0    0 -0.00000000000E+00 -0.00000000000E+00  0.11368683772E-12  0.17120000000E+03  0.17120000000E+03 0.  0.
         13    1    1    2    0    0 -0.30738932807E+01  0.10099728709E+02  0.13504998353E+02  0.17142038515E+02  0.10566000000E+00 0. -1.
        994    1    1    2    0    0  0.33641190013E+01 -0.84611840966E+01  0.39593795092E+01  0.17148768358E+03  0.17120000000E+03 0.  0.
        998    1    1    2    0    0 -0.29022572064E+00 -0.16385446122E+01  0.14825356184E+04  0.14825702779E+04  0.10000000000E+02 0. -1.
</event>
<event>
 5    1  0.1218060E-008  0.3831228E+03  0.7957747E-01  0.3437673E+00
         13   -1    0    0    0    0  0.00000000000E+00  0.00000000000E+00  0.14999999963E+04  0.15000000000E+04  0.10566000000E+00 0. -1.
        994   -1    0    0    0    0 -0.00000000000E+00 -0.00000000000E+00  0.11368683772E-12  0.17120000000E+03  0.17120000000E+03 0.  0.
         13    1    1    2    0    0 -0.14450158995E+02 -0.18098966506E+00  0.38815391690E+02  0.41418421606E+02  0.10566000000E+00 0. -1.
        994    1    1    2    0    0  0.16527489561E+02  0.36119428125E+01  0.35125459296E+01  0.17206970105E+03  0.17120000000E+03 0.  0.
        998    1    1    2    0    0 -0.20773305655E+01 -0.34309531474E+01  0.14576720587E+04  0.14577118773E+04  0.10000000000E+02 0. -1.
</event>
<event>
 5    1  0.1218060E-008  0.3732484E+03  0.7957747E-01  0.3481094E+00
         13   -1    0    0    0    0  0.00000000000E+00  0.00000000000E+00  0.14999999963E+04  0.15000000000E+04  0.10566000000E+00 0.  1.
        994   -1    0    0    0    0 -0.00000000000E+00 -0.00000000000E+00  0.11368683772E-12  0.17120000000E+03  0.17120000000E+03 0.  0.
         13    1    1    2    0    0  0.18590051722E+02  0.40094617047E+02  0.12659855400E+03  0.13409091460E+03  0.10566000000E+00 0.  1.
        994    1    1    2    0    0  0.17182814172E+01 -0.29565426070E+02  0.10585851945E+02  0.17406483611E+03  0.17120000000E+03 0.  0.
        998    1    1    2    0    0 -0.20308333139E+02 -0.10529190977E+02  0.13628155903E+04  0.13630442493E+04  0.10000000000E+02 0.  1.
</event>
<event>
 5    1  0.1218060E-008  0.3693330E+03  0.7957747E-01  0.3498962E+00
         13   -1    0    0    0    0  0.00000000000E+00  0.00000000000E+00  0.14999999963E+04  0.15000000000E+04  0.10566000000E+00 0. -1.
        994   -1    0    0    0    0 -0.00000000000E+00 -0.00000000000E+00  0.11368683772E-12  0.17120000000E+03  0.17120000000E+03 0.  0.
         13    1    1    2    0    0 -0.19530596344E+02 -0.46864744766E+02  0.12454727813E+03  0.13449826820E+03  0.10566000000E+00 0. -1.
        994    1    1    2    0    0  0.17095682283E+02  0.39535982714E+02  0.16075671206E+02  0.17726596821E+03  0.17120000000E+03 0.  0.
        998    1    1    2    0    0  0.24349140608E+01  0.73287620518E+01  0.13593770469E+04  0.13594357636E+04  0.10000000000E+02 0. -1.
</event>
<event>
 5    1  0.1218060E-008  0.3742494E+03  0.7957747E-01  0.3476587E+00
         13   -1    0    0    0    0  0.00000000000E+00  0.00000000000E+00  0.14999999963E+04  0.15000000000E+04  0.10566000000E+00 0. -1.
        994   -1    0    0    0    0 -0.00000000000E+00 -0.00000000000E+00  0.11368683772E-12  0.17120000000E+03  0.17120000000E+03 0.  0.
         13    1    1    2    0    0  0.16105794577E+02 -0.16791475144E+02  0.37948006423E+02  0.44513061139E+02  0.10566000000E+00 0. -1.
        994    1    1    2    0    0 -0.54610423880E+01 -0.16943819332E+02  0.81454282901E+01  0.17231571025E+03  0.17120000000E+03 0.  0.
        998    1    1    2    0    0 -0.10644752189E+02  0.33735294476E+02  0.14539065616E+04  0.14543712286E+04  0.10000000000E+02 0. -1.
</event>
<event>
 5    1  0.1218060E-008  0.3819329E+03  0.7957747E-01  0.3442785E+00
         13   -1    0    0    0    0  0.00000000000E+00  0.00000000000E+00  0.14999999963E+04  0.15000000000E+04  0.10566000000E+00 0.  1.
        994   -1    0    0    0    0 -0.00000000000E+00 -0.00000000000E+00  0.11368683772E-12  0.17120000000E+03  0.17120000000E+03 0.  0.
         13    1    1    2    0    0 -0.20674730288E+02 -0.10185136388E+01  0.64148393983E+02  0.67405559542E+02  0.10566000000E+00 0.  1.
        994    1    1    2    0    0  0.21873958002E+02 -0.19834342362E+01  0.47646416379E+01  0.17266889083E+03  0.17120000000E+03 0.  0.
        998    1    1    2    0    0 -0.11992277138E+01  0.30019478750E+01  0.14310869607E+04  0.14311255496E+04  0.10000000000E+02 0.  1.
</event>
<event>
 5    1  0.1218060E-008  0.3835861E+03  0.7957747E-01  0.3435691E+00
         13   -1    0    0    0    0  0.00000000000E+00  0.00000000000E+00  0.14999999963E+04  0.15000000000E+04  0.10566000000E+00 0. -1.
        994   -1    0    0    0    0 -0.00000000000E+00 -0.00000000000E+00  0.11368683772E-12  0.17120000000E+03  0.17120000000E+03 0.  0.
         13    1    1    2    0    0  0.12164284423E+02  0.34080591518E+01  0.34261146206E+02  0.36516051075E+02  0.10566000000E+00 0. -1.
        994    1    1    2    0    0 -0.50817191608E+01  0.69823220917E+01  0.25801907488E+01  0.17143708489E+03  0.17120000000E+03 0.  0.
        998    1    1    2    0    0 -0.70825652627E+01 -0.10390381244E+02  0.14631586593E+04  0.14632468640E+04  0.10000000000E+02 0. -1.
</event>
<event>
 5    1  0.1218060E-008  0.3744492E+03  0.7957747E-01  0.3475690E+00
         13   -1    0    0    0    0  0.00000000000E+00  0.00000000000E+00  0.14999999963E+04  0.15000000000E+04  0.10566000000E+00 0.  1.
        994   -1    0    0    0    0 -0.00000000000E+00 -0.00000000000E+00  0.11368683772E-12  0.17120000000E+03  0.17120000000E+03 0.  0.
         13    1    1    2    0    0 -0.29284841994E+01  0.24319493892E+02  0.38033017153E+02  0.45238648970E+02  0.10566000000E+00 0.  1.
        994    1    1    2    0    0  0.22781580220E+01 -0.36678191637E+02  0.11574793893E+02  0.17548189536E+03  0.17120000000E+03 0.  0.
        998    1    1    2    0    0  0.65032617741E+00  0.12358697745E+02  0.14503921852E+04  0.14504794557E+04  0.10000000000E+02 0.  1.
</event>
<event>
 5    1  0.1218060E-008  0.3777053E+03  0.7957747E-01  0.3461211E+00
         13   -1    0    0    0    0  0.00000000000E+00  0.00000000000E+00  0.14999999963E+04  0.15000000000E+04  0.10566000000E+00 0.  1.
        994   -1    0    0    0    0 -0.00000000000E+00 -0.00000000000E+00  0.11368683772E-12  0.17120000000E+03  0.17120000000E+03 0.  0.
         13    1    1    2    0    0  0.11483104376E+02  0.31614799882E+02  0.13237959479E+03  0.13658596391E+03  0.10566000000E+00 0.  1.
        994    1    1    2    0    0 -0.15287147172E+02  0.28430526996E+02  0.88139293497E+01  0.17443943672E+03  0.17120000000E+03 0.  0.
        998    1    1    2    0    0  0.38040427961E+01 -0.60045326878E+02  0.13588064721E+04  0.13601745994E+04  0.10000000000E+02 0.  1.
</event>
<event>
 5    1  0.1218060E-008  0.3846648E+03  0.7957747E-01  0.3431095E+00
         13   -1    0    0    0    0  0.00000000000E+00  0.00000000000E+00  0.14999999963E+04  0.15000000000E+04  0.10566000000E+00 0. -1.
        994   -1    0    0    0    0 -0.00000000000E+00 -0.00000000000E+00  0.11368683772E-12  0.17120000000E+03  0.17120000000E+03 0.  0.
         13    1    1    2    0    0  0.94802002044E+01  0.15516966191E+02  0.93656966476E+02  0.95405916846E+02  0.10566000000E+00 0. -1.
        994    1    1    2    0    0 -0.10015909292E+02 -0.44983633073E+01  0.21936354024E+01  0.17156574759E+03  0.17120000000E+03 0.  0.
        998    1    1    2    0    0  0.53570908773E+00 -0.11018602884E+02  0.14041493944E+04  0.14042283356E+04  0.10000000000E+02 0. -1.
</event>
<event>
 5    1  0.1218060E-008  0.4434621E+03  0.7957747E-01  0.3214185E+00
         13   -1    0    0    0    0  0.00000000000E+00  0.00000000000E+00  0.14999999963E+04  0.15000000000E+04  0.10566000000E+00 0. -1.
        994   -1    0    0    0    0 -0.00000000000E+00 -0.00000000000E+00  0.11368683772E-12  0.17120000000E+03  0.17120000000E+03 0.  0.
         13    1    1    2    0    0 -0.56864749749E+02  0.75884939923E+02  0.63040890567E+02  0.11386961368E+03  0.10566000000E+00 0. -1.
        994    1    1    2    0    0  0.16642270855E+02 -0.85301030341E+02  0.94131559404E+02  0.21383035667E+03  0.17120000000E+03 0.  0.
        998    1    1    2    0    0  0.40222478895E+02  0.94160904176E+01  0.13428275463E+04  0.13435000297E+04  0.10000000000E+02 0. -1.
</event>
<event>
 5    1  0.1218060E-008  0.3862778E+03  0.7957747E-01  0.3424271E+00
         13   -1    0    0    0    0  0.00000000000E+00  0.00000000000E+00  0.14999999963E+04  0.15000000000E+04  0.10566000000E+00 0. -1.
        994   -1    0    0    0    0 -0.00000000000E+00 -0.00000000000E+00  0.11368683772E-12  0.17120000000E+03  0.17120000000E+03 0.  0.
         13    1    1    2    0    0 -0.11091324696E+02 -0.13975378843E+01  0.62260859510E+02  0.63256591645E+02  0.10566000000E+00 0. -1.
        994    1    1    2    0    0  0.98521814134E+01  0.55553762691E+01  0.14161495159E+01  0.17157905806E+03  0.17120000000E+03 0.  0.
        998    1    1    2    0    0  0.12391432828E+01 -0.41578383848E+01  0.14363229873E+04  0.14363643503E+04  0.10000000000E+02 0. -1.
</event>
<event>
 5    1  0.1218060E-008  0.3804535E+03  0.7957747E-01  0.3449186E+00
         13   -1    0    0    0    0  0.00000000000E+00  0.00000000000E+00  0.14999999963E+04  0.15000000000E+04  0.10566000000E+00 0. -1.
        994   -1    0    0    0    0 -0.00000000000E+00 -0.00000000000E+00  0.11368683772E-12  0.17120000000E+03  0.17120000000E+03 0.  0.
         13    1    1    2    0    0  0.28181159519E+02 -0.51530952436E+02  0.33387675632E+03  0.33900341648E+03  0.10566000000E+00 0. -1.
        994    1    1    2    0    0 -0.14009607348E+02  0.63523649257E+02  0.18160428559E+02  0.18404011595E+03  0.17120000000E+03 0.  0.
        998    1    1    2    0    0 -0.14171552170E+02 -0.11992696821E+02  0.11479628114E+04  0.11481564676E+04  0.10000000000E+02 0. -1.
</event>
<event>
 5    1  0.1218060E-008  0.3840923E+03  0.7957747E-01  0.3433531E+00
         13   -1    0    0    0    0  0.00000000000E+00  0.00000000000E+00  0.14999999963E+04  0.15000000000E+04  0.10566000000E+00 0.  1.
        994   -1    0    0    0    0 -0.00000000000E+00 -0.00000000000E+00  0.11368683772E-12  0.17120000000E+03  0.17120000000E+03 0.  0.
         13    1    1    2    0    0  0.10279438663E+02 -0.66392254645E+01  0.35183308483E+02  0.37250805815E+02  0.10566000000E+00 0.  1.
        994    1    1    2    0    0 -0.71376019306E+01  0.75647518002E+01  0.24383114017E+01  0.17153295950E+03  0.17120000000E+03 0.  0.
        998    1    1    2    0    0 -0.31418367325E+01 -0.92552633571E+00  0.14623783764E+04  0.14624162347E+04  0.10000000000E+02 0.  1.
</event>
<event>
 5    1  0.1218060E-008  0.3722506E+03  0.7957747E-01  0.3485611E+00
         13   -1    0    0    0    0  0.00000000000E+00  0.00000000000E+00  0.14999999963E+04  0.15000000000E+04  0.10566000000E+00 0.  1.
        994   -1    0    0    0    0 -0.00000000000E+00 -0.00000000000E+00  0.11368683772E-12  0.17120000000E+03  0.17120000000E+03 0.  0.
         13    1    1    2    0    0 -0.70102257227E+02  0.22659538368E+02  0.39412500680E+03  0.40095175931E+03  0.10566000000E+00 0.  1.
        994    1    1    2    0    0  0.22088808681E+02 -0.39370827844E+01  0.98265860176E+01  0.17294339502E+03  0.17120000000E+03 0.  0.
        998    1    1    2    0    0  0.48013448546E+02 -0.18722455583E+02  0.10960484035E+04  0.10973048457E+04  0.10000000000E+02 0.  1.
</event>
<event>
 5    1  0.1218060E-008  0.3776164E+03  0.7957747E-01  0.3461603E+00
         13   -1    0    0    0    0  0.00000000000E+00  0.00000000000E+00  0.14999999963E+04  0.15000000000E+04  0.10566000000E+00 0.  1.
        994   -1    0    0    0    0 -0.00000000000E+00 -0.00000000000E+00  0.11368683772E-12  0.17120000000E+03  0.17120000000E+03 0.  0.
         13    1    1    2    0    0 -0.27402830671E+02 -0.41564264207E+02  0.19787018324E+03  0.20403706469E+03  0.10566000000E+00 0.  1.
        994    1    1    2    0    0  0.57121551207E+02  0.26484832987E+02  0.18817448950E+02  0.18337899110E+03  0.17120000000E+03 0.  0.
        998    1    1    2    0    0 -0.29718720535E+02  0.15079431220E+02  0.12833123641E+04  0.12837839442E+04  0.10000000000E+02 0.  1.
</event>
<event>
 5    1  0.1218060E-008  0.3778033E+03  0.7957747E-01  0.3460779E+00
         13   -1    0    0    0    0  0.00000000000E+00  0.00000000000E+00  0.14999999963E+04  0.15000000000E+04  0.10566000000E+00 0.  1.
        994   -1    0    0    0    0 -0.00000000000E+00 -0.00000000000E+00  0.11368683772E-12  0.17120000000E+03  0.17120000000E+03 0.  0.
         13    1    1    2    0    0 -0.36060372850E+01 -0.15210209827E+02  0.20746948885E+02  0.25976932843E+02  0.10566000000E+00 0.  1.
        994    1    1    2    0    0  0.46748401620E+01  0.16270157578E+02  0.62117154186E+01  0.17214702311E+03  0.17120000000E+03 0.  0.
        998    1    1    2    0    0 -0.10688028770E+01 -0.10599477510E+01  0.14730413320E+04  0.14730760440E+04  0.10000000000E+02 0.  1.
</event>
<event>
 5    1  0.1218060E-008  0.3820028E+03  0.7957747E-01  0.3442484E+00
         13   -1    0    0    0    0  0.00000000000E+00  0.00000000000E+00  0.14999999963E+04  0.15000000000E+04  0.10566000000E+00 0. -1.
        994   -1    0    0    0    0 -0.00000000000E+00 -0.00000000000E+00  0.11368683772E-12  0.17120000000E+03  0.17120000000E+03 0.  0.
         13    1    1    2    0    0  0.22710143863E+02  0.43415982301E+01  0.88365253784E+02  0.91340184748E+02  0.10566000000E+00 0. -1.
        994    1    1    2    0    0 -0.84302517799E+01  0.98112241088E+01  0.36814414929E+01  0.17172746512E+03  0.17120000000E+03 0.  0.
        998    1    1    2    0    0 -0.14279892084E+02 -0.14152822339E+02  0.14079533010E+04  0.14081323501E+04  0.10000000000E+02 0. -1.
</event>
<event>
 5    1  0.1218060E-008  0.3732517E+03  0.7957747E-01  0.3481079E+00
         13   -1    0    0    0    0  0.00000000000E+00  0.00000000000E+00  0.14999999963E+04  0.15000000000E+04  0.10566000000E+00 0.  1.
        994   -1    0    0    0    0 -0.00000000000E+00 -0.00000000000E+00  0.11368683772E-12  0.17120000000E+03  0.17120000000E+03 0.  0.
         13    1    1    2    0    0  0.12573051874E+02 -0.10345888333E+01  0.70018713707E+01  0.14428768977E+02  0.10566000000E+00 0.  1.
        994    1    1    2    0    0 -0.12596970019E+02 -0.11625196676E+02  0.85845915674E+01  0.17227003240E+03  0.17120000000E+03 0.  0.
        998    1    1    2    0    0  0.23918144861E-01  0.12659785509E+02  0.14844135333E+04  0.14845011986E+04  0.10000000000E+02 0.  1.
</event>
<event>
 5    1  0.1218060E-008  0.3760556E+03  0.7957747E-01  0.3468515E+00
         13   -1    0    0    0    0  0.00000000000E+00  0.00000000000E+00  0.14999999963E+04  0.15000000000E+04  0.10566000000E+00 0.  1.
        994   -1    0    0    0    0 -0.00000000000E+00 -0.00000000000E+00  0.11368683772E-12  0.17120000000E+03  0.17120000000E+03 0.  0.
         13    1    1    2    0    0 -0.71606737967E+01 -0.37420233474E+02  0.12443517860E+03  0.13013713520E+03  0.10566000000E+00 0.  1.
        994    1    1    2    0    0  0.21913795115E+02  0.49646513658E+01  0.78495852126E+01  0.17284651621E+03  0.17120000000E+03 0.  0.
        998    1    1    2    0    0 -0.14753121318E+02  0.32455582108E+02  0.13677152325E+04  0.13682163486E+04  0.10000000000E+02 0.  1.
</event>
<event>
 5    1  0.1218060E-008  0.3828582E+03  0.7957747E-01  0.3438807E+00
         13   -1    0    0    0    0  0.00000000000E+00  0.00000000000E+00  0.14999999963E+04  0.15000000000E+04  0.10566000000E+00 0.  1.
        994   -1    0    0    0    0 -0.00000000000E+00 -0.00000000000E+00  0.11368683772E-12  0.17120000000E+03  0.17120000000E+03 0.  0.
         13    1    1    2    0    0 -0.18016304596E+02 -0.39606931283E+01  0.57411224847E+02  0.60302025039E+02  0.10566000000E+00 0.  1.
        994    1    1    2    0    0  0.27679956915E+02  0.10134626695E+02  0.55800547809E+01  0.17380871004E+03  0.17120000000E+03 0.  0.
        998    1    1    2    0    0 -0.96636523194E+01 -0.61739335664E+01  0.14370087167E+04  0.14370892649E+04  0.10000000000E+02 0.  1.
</event>
<event>
 5    1  0.1218060E-008  0.3732568E+03  0.7957747E-01  0.3481056E+00
         13   -1    0    0    0    0  0.00000000000E+00  0.00000000000E+00  0.14999999963E+04  0.15000000000E+04  0.10566000000E+00 0.  1.
        994   -1    0    0    0    0 -0.00000000000E+00 -0.00000000000E+00  0.11368683772E-12  0.17120000000E+03  0.17120000000E+03 0.  0.
         13    1    1    2    0    0  0.48849869181E+02 -0.26192622231E+02  0.11057938527E+03  0.12369387531E+03  0.10566000000E+00 0.  1.
        994    1    1    2    0    0 -0.45348266738E+02  0.23713528414E+02  0.21990623236E+02  0.18003284210E+03  0.17120000000E+03 0.  0.
        998    1    1    2    0    0 -0.35016024432E+01  0.24790938177E+01  0.13674299878E+04  0.13674732826E+04  0.10000000000E+02 0.  1.
</event>
<event>
 5    1  0.1218060E-008  0.3859736E+03  0.7957747E-01  0.3425553E+00
         13   -1    0    0    0    0  0.00000000000E+00  0.00000000000E+00  0.14999999963E+04  0.15000000000E+04  0.10566000000E+00 0. -1.
        994   -1    0    0    0    0 -0.00000000000E+00 -0.00000000000E+00  0.11368683772E-12  0.17120000000E+03  0.17120000000E+03 0.  0.
         13    1    1    2    0    0  0.93015101595E+01 -0.42660935856E+01  0.44479958517E+02  0.45642036758E+02  0.10566000000E+00 0. -1.
        994    1    1    2    0    0 -0.13146226449E+02  0.20832085705E+01  0.17285248959E+01  0.17172533542E+03  0.17120000000E+03 0.  0.
        998    1    1    2    0    0  0.38447162892E+01  0.21828850151E+01  0.14537915129E+04  0.14538326278E+04  0.10000000000E+02 0. -1.
</event>
<event>
 5    1  0.1218060E-008  0.3855383E+03  0.7957747E-01  0.3427392E+00
         13   -1    0    0    0    0  0.00000000000E+00  0.00000000000E+00  0.14999999963E+04  0.15000000000E+04  0.10566000000E+00 0.  1.
        994   -1    0    0    0    0 -0.00000000000E+00 -0.00000000000E+00  0.11368683772E-12  0.17120000000E+03  0.17120000000E+03 0.  0.
         13    1    1    2    0    0  0.12869789468E+02  0.65035314266E+01  0.86570006442E+02  0.87762774463E+02  0.10566000000E+00 0.  1.
        994    1    1    2    0    0  0.12562583063E+02 -0.14135444524E+02  0.25380440306E+01  0.17226000973E+03  0.17120000000E+03 0.  0.
        998    1    1    2    0    0 -0.25432372531E+02  0.76319130978E+01  0.14108919458E+04  0.14111772158E+04  0.10000000000E+02 0.  1.
</event>
<event>
 5    1  0.1218060E-008  0.3817493E+03  0.7957747E-01  0.3443577E+00
         13   -1    0    0    0    0  0.00000000000E+00  0.00000000000E+00  0.14999999963E+04  0.15000000000E+04  0.10566000000E+00 0.  1.
        994   -1    0    0    0    0 -0.00000000000E+00 -0.00000000000E+00  0.11368683772E-12  0.17120000000E+03  0.17120000000E+03 0.  0.
         13    1    1    2    0    0 -0.17169981858E+02 -0.47083948794E+01  0.48367758611E+02  0.51540551961E+02  0.10566000000E+00 0.  1.
        994    1    1    2    0    0  0.70166476080E+01  0.37042642777E+01  0.34619834393E+01  0.17141872782E+03  0.17120000000E+03 0.  0.
        998    1    1    2    0    0  0.10153334250E+02  0.10041306017E+01  0.14481702542E+04  0.14482407202E+04  0.10000000000E+02 0.  1.
</event>
<event>
 5    1  0.1218060E-008  0.2791310E+03  0.7957747E-01  0.4057275E+00
         13   -1    0    0    0    0  0.00000000000E+00  0.00000000000E+00  0.14999999963E+04  0.15000000000E+04  0.10566000000E+00 0. -1.
        994   -1    0    0    0    0 -0.00000000000E+00 -0.00000000000E+00  0.11368683772E-12  0.17120000000E+03  0.17120000000E+03 0.  0.
         13    1    1    2    0    0  0.13296151666E+03 -0.53594385662E+02  0.67117875282E+03  0.68631774893E+03  0.10566000000E+00 0. -1.
        994    1    1    2    0    0 -0.32302285330E+02  0.49047912504E+02  0.34647899435E+02  0.18427982064E+03  0.17120000000E+03 0.  0.
        998    1    1    2    0    0 -0.10065923133E+03  0.45464731575E+01  0.79417334402E+03  0.80060243044E+03  0.10000000000E+02 0.  1.
</event>
<event>
 5    1  0.1218060E-008  0.2799917E+03  0.7957747E-01  0.4050098E+00
         13   -1    0    0    0    0  0.00000000000E+00  0.00000000000E+00  0.14999999963E+04  0.15000000000E+04  0.10566000000E+00 0. -1.
        994   -1    0    0    0    0 -0.00000000000E+00 -0.00000000000E+00  0.11368683772E-12  0.17120000000E+03  0.17120000000E+03 0.  0.
         13    1    1    2    0    0 -0.96593290336E+02  0.82412619321E+02  0.70673838988E+03  0.71805380470E+03  0.10566000000E+00 0. -1.
        994    1    1    2    0    0  0.31247440754E+02  0.10963020064E+02  0.24697657148E+02  0.17611361285E+03  0.17120000000E+03 0.  0.
        998    1    1    2    0    0  0.65345849582E+02 -0.93375639385E+02  0.76856394925E+03  0.77703258245E+03  0.10000000000E+02 0. -1.
</event>
<event>
 5    1  0.1218060E-008  0.3713508E+03  0.7957747E-01  0.3489706E+00
         13   -1    0    0    0    0  0.00000000000E+00  0.00000000000E+00  0.14999999963E+04  0.15000000000E+04  0.10566000000E+00 0.  1.
        994   -1    0    0    0    0 -0.00000000000E+00 -0.00000000000E+00  0.11368683772E-12  0.17120000000E+03  0.17120000000E+03 0.  0.
         13    1    1    2    0    0 -0.43722359617E+02 -0.88195001570E+02  0.38676121810E+03  0.39909178647E+03  0.10566000000E+00 0.  1.
        994    1    1    2    0    0  0.45609270086E+02  0.95461725805E+02  0.48132203842E+02  0.20692823794E+03  0.17120000000E+03 0.  0.
        998    1    1    2    0    0 -0.18869104691E+01 -0.72667242351E+01  0.10651065743E+04  0.10651799756E+04  0.10000000000E+02 0.  1.
</event>
<event>
 5    1  0.1218060E-008  0.3810207E+03  0.7957747E-01  0.3446726E+00
         13   -1    0    0    0    0  0.00000000000E+00  0.00000000000E+00  0.14999999963E+04  0.15000000000E+04  0.10566000000E+00 0.  1.
        994   -1    0    0    0    0 -0.00000000000E+00 -0.00000000000E+00  0.11368683772E-12  0.17120000000E+03  0.17120000000E+03 0.  0.
         13    1    1    2    0    0  0.22405796683E+02 -0.19987725340E+02  0.11170039248E+03  0.11566554255E+03  0.10566000000E+00 0.  1.
        994    1    1    2    0    0 -0.26117920617E+02  0.24078048324E+02  0.78344632492E+01  0.17502204719E+03  0.17120000000E+03 0.  0.
        998    1    1    2    0    0  0.37121239337E+01 -0.40903229833E+01  0.13804651406E+04  0.13805124103E+04  0.10000000000E+02 0.  1.
</event>
<event>
 5    1  0.1218060E-008  0.3743357E+03  0.7957747E-01  0.3476199E+00
         13   -1    0    0    0    0  0.00000000000E+00  0.00000000000E+00  0.14999999963E+04  0.15000000000E+04  0.10566000000E+00 0.  1.
        994   -1    0    0    0    0 -0.00000000000E+00 -0.00000000000E+00  0.11368683772E-12  0.17120000000E+03  0.17120000000E+03 0.  0.
         13    1    1    2    0    0  0.19446162803E+02  0.88169192241E+02  0.42307966029E+03  0.43260648380E+03  0.10566000000E+00 0.  1.
        994    1    1    2    0    0 -0.18417704029E+02 -0.85267121033E+02  0.33404983345E+02  0.19502570770E+03  0.17120000000E+03 0.  0.
        998    1    1    2    0    0 -0.10284587745E+01 -0.29020712079E+01  0.10435153526E+04  0.10435678085E+04  0.10000000000E+02 0.  0.
</event>
<event>
 5    1  0.1218060E-008  0.3838688E+03  0.7957747E-01  0.3434484E+00
         13   -1    0    0    0    0  0.00000000000E+00  0.00000000000E+00  0.14999999963E+04  0.15000000000E+04  0.10566000000E+00 0. -1.
        994   -1    0    0    0    0 -0.00000000000E+00 -0.00000000000E+00  0.11368683772E-12  0.17120000000E+03  0.17120000000E+03 0.  0.
         13    1    1    2    0    0  0.15999073893E+02 -0.30682567292E+02  0.19829168661E+03  0.20128833658E+03  0.10566000000E+00 0. -1.
        994    1    1    2    0    0 -0.32190117913E+02  0.44791566687E+02  0.12300795922E+02  0.18028654336E+03  0.17120000000E+03 0.  0.
        998    1    1    2    0    0  0.16191044020E+02 -0.14108999395E+02  0.12894075137E+04  0.12896251201E+04  0.10000000000E+02 0. -1.
</event>
<event>
 5    1  0.1218060E-008  0.3768746E+03  0.7957747E-01  0.3464881E+00
         13   -1    0    0    0    0  0.00000000000E+00  0.00000000000E+00  0.14999999963E+04  0.15000000000E+04  0.10566000000E+00 0. -1.
        994   -1    0    0    0    0 -0.00000000000E+00 -0.00000000000E+00  0.11368683772E-12  0.17120000000E+03  0.17120000000E+03 0.  0.
         13    1    1    2    0    0  0.16921576616E+02  0.17496217310E+02  0.48248881893E+02  0.54040939511E+02  0.10566000000E+00 0. -1.
        994    1    1    2    0    0 -0.23373983173E+02 -0.11062679938E+02  0.79813368565E+01  0.17332590030E+03  0.17120000000E+03 0.  0.
        998    1    1    2    0    0  0.64524065570E+01 -0.64335373720E+01  0.14437697775E+04  0.14438331602E+04  0.10000000000E+02 0. -1.
</event>
<event>
 5    1  0.1218060E-008  0.3862297E+03  0.7957747E-01  0.3424474E+00
         13   -1    0    0    0    0  0.00000000000E+00  0.00000000000E+00  0.14999999963E+04  0.15000000000E+04  0.10566000000E+00 0.  1.
        994   -1    0    0    0    0 -0.00000000000E+00 -0.00000000000E+00  0.11368683772E-12  0.17120000000E+03  0.17120000000E+03 0.  0.
         13    1    1    2    0    0 -0.10907214067E+02 -0.10074059651E+01  0.61685647004E+02  0.62650717440E+02  0.10566000000E+00 0.  1.
        994    1    1    2    0    0  0.41943786217E+01 -0.95315181023E+01  0.13761292513E+01  0.17152194140E+03  0.17120000000E+03 0.  0.
        998    1    1    2    0    0  0.67128354456E+01  0.10538924067E+02  0.14369382200E+04  0.14370273412E+04  0.10000000000E+02 0.  1.
</event>
<event>
 5    1  0.1218060E-008  0.3825966E+03  0.7957747E-01  0.3439930E+00
         13   -1    0    0    0    0  0.00000000000E+00  0.00000000000E+00  0.14999999963E+04  0.15000000000E+04  0.10566000000E+00 0.  1.
        994   -1    0    0    0    0 -0.00000000000E+00 -0.00000000000E+00  0.11368683772E-12  0.17120000000E+03  0.17120000000E+03 0.  0.
         13    1    1    2    0    0 -0.32174697235E+02  0.42067238667E+01  0.17147595277E+03  0.17451911417E+03  0.10566000000E+00 0.  1.
        994    1    1    2    0    0  0.27429298144E+02 -0.13217351611E+02  0.59069373055E+01  0.17398677159E+03  0.17120000000E+03 0.  0.
        998    1    1    2    0    0  0.47453990903E+01  0.90106277445E+01  0.13226171062E+04  0.13226941142E+04  0.10000000000E+02 0.  1.
</event>
<event>
 5    1  0.1218060E-008  0.3806350E+03  0.7957747E-01  0.3448398E+00
         13   -1    0    0    0    0  0.00000000000E+00  0.00000000000E+00  0.14999999963E+04  0.15000000000E+04  0.10566000000E+00 0.  1.
        994   -1    0    0    0    0 -0.00000000000E+00 -0.00000000000E+00  0.11368683772E-12  0.17120000000E+03  0.17120000000E+03 0.  0.
         13    1    1    2    0    0  0.10670731525E+03  0.96796671809E+01  0.30306915197E+03  0.32145150353E+03  0.10566000000E+00 0.  1.
        994    1    1    2    0    0 -0.85724925077E+02 -0.47300709745E+00  0.43881477389E+02  0.19642813081E+03  0.17120000000E+03 0.  0.
        998    1    1    2    0    0 -0.20982390170E+02 -0.92066600835E+01  0.11530493669E+04  0.11533203657E+04  0.10000000000E+02 0.  1.
</event>
<event>
 5    1  0.1218060E-008  0.3777466E+03  0.7957747E-01  0.3461029E+00
         13   -1    0    0    0    0  0.00000000000E+00  0.00000000000E+00  0.14999999963E+04  0.15000000000E+04  0.10566000000E+00 0.  1.
        994   -1    0    0    0    0 -0.00000000000E+00 -0.00000000000E+00  0.11368683772E-12  0.17120000000E+03  0.17120000000E+03 0.  0.
         13    1    1    2    0    0 -0.10276601206E+02  0.11601274776E+02  0.20606700399E+02  0.25784595675E+02  0.10566000000E+00 0.  1.
        994    1    1    2    0    0  0.91929735579E+01 -0.44267123878E+01  0.56257020861E+01  0.17159602288E+03  0.17120000000E+03 0.  0.
        998    1    1    2    0    0  0.10836276486E+01 -0.71745623887E+01  0.14737675938E+04  0.14738193814E+04  0.10000000000E+02 0.  1.
</event>
<event>
 5    1  0.1218060E-008  0.3742737E+03  0.7957747E-01  0.3476477E+00
         13   -1    0    0    0    0  0.00000000000E+00  0.00000000000E+00  0.14999999963E+04  0.15000000000E+04  0.10566000000E+00 0.  1.
        994   -1    0    0    0    0 -0.00000000000E+00 -0.00000000000E+00  0.11368683772E-12  0.17120000000E+03  0.17120000000E+03 0.  0.
         13    1    1    2    0    0  0.49454473381E+02  0.74828746719E+02  0.43256602853E+03  0.44176743483E+03  0.10566000000E+00 0.  1.
        994    1    1    2    0    0 -0.24190372974E+02 -0.83559096983E+02  0.33292940716E+02  0.19489781101E+03  0.17120000000E+03 0.  0.
        998    1    1    2    0    0 -0.25264100407E+02  0.87303502642E+01  0.10341410270E+04  0.10345347542E+04  0.10000000000E+02 0.  1.
</event>
<event>
 5    1  0.1218060E-008  0.3782177E+03  0.7957747E-01  0.3458956E+00
         13   -1    0    0    0    0  0.00000000000E+00  0.00000000000E+00  0.14999999963E+04  0.15000000000E+04  0.10566000000E+00 0.  1.
        994   -1    0    0    0    0 -0.00000000000E+00 -0.00000000000E+00  0.11368683772E-12  0.17120000000E+03  0.17120000000E+03 0.  0.
         13    1    1    2    0    0  0.11254621857E+02 -0.37953410862E+00  0.10529959393E+02  0.15417579841E+02  0.10566000000E+00 0.  1.
        994    1    1    2    0    0  0.48269014116E+00  0.16319797213E+02  0.59324380915E+01  0.17207905913E+03  0.17120000000E+03 0.  0.
        998    1    1    2    0    0 -0.11737311999E+02 -0.15940263105E+02  0.14835375988E+04  0.14837033610E+04  0.10000000000E+02 0.  1.
</event>
<event>
 5    1  0.1218060E-008  0.3847629E+03  0.7957747E-01  0.3430678E+00
         13   -1    0    0    0    0  0.00000000000E+00  0.00000000000E+00  0.14999999963E+04  0.15000000000E+04  0.10566000000E+00 0. -1.
        994   -1    0    0    0    0 -0.00000000000E+00 -0.00000000000E+00  0.11368683772E-12  0.17120000000E+03  0.17120000000E+03 0.  0.
         13    1    1    2    0    0 -0.14274798306E+02 -0.55864746607E+01  0.62775151407E+02  0.64619728907E+02  0.10566000000E+00 0. -1.
        994    1    1    2    0    0  0.19383074789E+02  0.88701508186E+01  0.32447597610E+01  0.17255246051E+03  0.17120000000E+03 0.  0.
        998    1    1    2    0    0 -0.51082764833E+01 -0.32836761579E+01  0.14339800851E+04  0.14340278106E+04  0.10000000000E+02 0. -1.
</event>
<event>
 5    1  0.1218060E-008  0.3793536E+03  0.7957747E-01  0.3453978E+00
         13   -1    0    0    0    0  0.00000000000E+00  0.00000000000E+00  0.14999999963E+04  0.15000000000E+04  0.10566000000E+00 0.  1.
        994   -1    0    0    0    0 -0.00000000000E+00 -0.00000000000E+00  0.11368683772E-12  0.17120000000E+03  0.17120000000E+03 0.  0.
         13    1    1    2    0    0 -0.29407831635E+02 -0.29916955790E+02  0.17556722899E+03  0.18050957832E+03  0.10566000000E+00 0.  1.
        994    1    1    2    0    0  0.44400643934E+02  0.14617143523E+02  0.11815023976E+02  0.17785981238E+03  0.17120000000E+03 0.  0.
        998    1    1    2    0    0 -0.14992812299E+02  0.15299812266E+02  0.13126177433E+04  0.13128306093E+04  0.10000000000E+02 0.  1.
</event>
<event>
 5    1  0.1218060E-008  0.3863072E+03  0.7957747E-01  0.3424147E+00
         13   -1    0    0    0    0  0.00000000000E+00  0.00000000000E+00  0.14999999963E+04  0.15000000000E+04  0.10566000000E+00 0. -1.
        994   -1    0    0    0    0 -0.00000000000E+00 -0.00000000000E+00  0.11368683772E-12  0.17120000000E+03  0.17120000000E+03 0.  0.
         13    1    1    2    0    0 -0.67879374069E+01  0.74615300129E+01  0.50222609001E+02  0.51225698076E+02  0.10566000000E+00 0. -1.
        994    1    1    2    0    0  0.11973516834E+02 -0.75439346246E+01  0.16386363474E+01  0.17179173782E+03  0.17120000000E+03 0.  0.
        998    1    1    2    0    0 -0.51855794274E+01  0.82404611705E-01  0.14481387509E+04  0.14481825641E+04  0.10000000000E+02 0. -1.
</event>
<event>
 5    1  0.1273978E-008  0.3863162E+03  0.7957747E-01  0.3424109E+00
         13   -1    0    0    0    0  0.00000000000E+00  0.00000000000E+00  0.14999999963E+04  0.15000000000E+04  0.10566000000E+00 0. -1.
        994   -1    0    0    0    0 -0.00000000000E+00 -0.00000000000E+00  0.11368683772E-12  0.17120000000E+03  0.17120000000E+03 0.  0.
         13    1    1    2    0    0 -0.68447318699E+01  0.73020466281E+01  0.46768575930E+02  0.47827618568E+02  0.10566000000E+00 0. -1.
        994    1    1    2    0    0  0.21015477012E+02 -0.11660806718E+02  0.28718960856E+01  0.17290260980E+03  0.17120000000E+03 0.  0.
        998    1    1    2    0    0 -0.14170745142E+02  0.43587600899E+01  0.14503595243E+04  0.14504697716E+04  0.10000000000E+02 0. -1.
</event>
<event>
 5    1  0.1218060E-008  0.3876661E+03  0.7957747E-01  0.3418443E+00
         13   -1    0    0    0    0  0.00000000000E+00  0.00000000000E+00  0.14999999963E+04  0.15000000000E+04  0.10566000000E+00 0. -1.
        994   -1    0    0    0    0 -0.00000000000E+00 -0.00000000000E+00  0.11368683772E-12  0.17120000000E+03  0.17120000000E+03 0.  0.
         13    1    1    2    0    0 -0.74549995654E+02 -0.50991669929E+02  0.18603534470E+03  0.20680186870E+03  0.10566000000E+00 0. -1.
        994    1    1    2    0    0  0.58422529531E+02  0.31128561354E+02  0.37133169338E+02  0.18727117118E+03  0.17120000000E+03 0.  0.
        998    1    1    2    0    0  0.16127466123E+02  0.19863108576E+02  0.12768314822E+04  0.12771269601E+04  0.10000000000E+02 0. -1.
</event>
<event>
 5    1  0.1218060E-008  0.3853714E+03  0.7957747E-01  0.3428098E+00
         13   -1    0    0    0    0  0.00000000000E+00  0.00000000000E+00  0.14999999963E+04  0.15000000000E+04  0.10566000000E+00 0.  1.
        994   -1    0    0    0    0 -0.00000000000E+00 -0.00000000000E+00  0.11368683772E-12  0.17120000000E+03  0.17120000000E+03 0.  0.
         13    1    1    2    0    0  0.16852999805E+02  0.12126097496E+01  0.93127069347E+02  0.94647536862E+02  0.10566000000E+00 0.  1.
        994    1    1    2    0    0 -0.18213965346E+02 -0.82340748640E+01  0.27593290645E+01  0.17238504117E+03  0.17120000000E+03 0.  0.
        998    1    1    2    0    0  0.13609655409E+01  0.70214651143E+01  0.14041135979E+04  0.14041674220E+04  0.10000000000E+02 0.  1.
</event>
<event>
 5    1  0.1218060E-008  0.3742801E+03  0.7957747E-01  0.3476449E+00
         13   -1    0    0    0    0  0.00000000000E+00  0.00000000000E+00  0.14999999963E+04  0.15000000000E+04  0.10566000000E+00 0.  1.
        994   -1    0    0    0    0 -0.00000000000E+00 -0.00000000000E+00  0.11368683772E-12  0.17120000000E+03  0.17120000000E+03 0.  0.
         13    1    1    2    0    0  0.47136303174E+02 -0.28029558110E+02  0.16853596589E+03  0.17723394191E+03  0.10566000000E+00 0.  1.
        994    1    1    2    0    0 -0.76051400990E+02  0.19441090873E+02  0.28344340961E+02  0.19045895430E+03  0.17120000000E+03 0.  0.
        998    1    1    2    0    0  0.28915097816E+02  0.85884672365E+01  0.13031196894E+04  0.13035071038E+04  0.10000000000E+02 0.  1.
</event>
<event>
 5    1  0.1218060E-008  0.3835170E+03  0.7957747E-01  0.3435986E+00
         13   -1    0    0    0    0  0.00000000000E+00  0.00000000000E+00  0.14999999963E+04  0.15000000000E+04  0.10566000000E+00 0.  1.
        994   -1    0    0    0    0 -0.00000000000E+00 -0.00000000000E+00  0.11368683772E-12  0.17120000000E+03  0.17120000000E+03 0.  0.
         13    1    1    2    0    0  0.81358316518E+01  0.92758061267E+01  0.31439317191E+02  0.33773868085E+02  0.10566000000E+00 0.  1.
        994    1    1    2    0    0 -0.74187707558E+01 -0.43838727910E+01  0.26136497612E+01  0.17143665788E+03  0.17120000000E+03 0.  0.
        998    1    1    2    0    0 -0.71706089591E+00 -0.48919333357E+01  0.14659470293E+04  0.14659894740E+04  0.10000000000E+02 0.  1.
</event>
<event>
 5    1  0.1218060E-008  0.3851576E+03  0.7957747E-01  0.3429004E+00
         13   -1    0    0    0    0  0.00000000000E+00  0.00000000000E+00  0.14999999963E+04  0.15000000000E+04  0.10566000000E+00 0.  1.
        994   -1    0    0    0    0 -0.00000000000E+00 -0.00000000000E+00  0.11368683772E-12  0.17120000000E+03  0.17120000000E+03 0.  0.
         13    1    1    2    0    0 -0.14598796234E+02  0.40231970216E+01  0.71461127779E+02  0.73048031549E+02  0.10566000000E+00 0.  1.
        994    1    1    2    0    0  0.14074101284E+02 -0.58776224033E+01  0.23169327377E+01  0.17189367338E+03  0.17120000000E+03 0.  0.
        998    1    1    2    0    0  0.52469494951E+00  0.18544253817E+01  0.14262219358E+04  0.14262582951E+04  0.10000000000E+02 0.  1.
</event>
<event>
 5    1  0.1218060E-008  0.3851307E+03  0.7957747E-01  0.3429118E+00
         13   -1    0    0    0    0  0.00000000000E+00  0.00000000000E+00  0.14999999963E+04  0.15000000000E+04  0.10566000000E+00 0.  1.
        994   -1    0    0    0    0 -0.00000000000E+00 -0.00000000000E+00  0.11368683772E-12  0.17120000000E+03  0.17120000000E+03 0.  0.
         13    1    1    2    0    0  0.17768721960E+02 -0.96386647147E+01  0.11833621960E+03  0.12005042012E+03  0.10566000000E+00 0.  1.
        994    1    1    2    0    0 -0.14887512212E+02  0.24209246137E+02  0.42249692376E+01  0.17359440078E+03  0.17120000000E+03 0.  0.
        998    1    1    2    0    0 -0.28812097475E+01 -0.14570581422E+02  0.13774388074E+04  0.13775551791E+04  0.10000000000E+02 0.  1.
</event>
<event>
 5    1  0.1218060E-008  0.3701240E+03  0.7957747E-01  0.3495321E+00
         13   -1    0    0    0    0  0.00000000000E+00  0.00000000000E+00  0.14999999963E+04  0.15000000000E+04  0.10566000000E+00 0.  1.
        994   -1    0    0    0    0 -0.00000000000E+00 -0.00000000000E+00  0.11368683772E-12  0.17120000000E+03  0.17120000000E+03 0.  0.
         13    1    1    2    0    0  0.33705981618E+02 -0.27328086749E+02  0.98881830957E+02  0.10798400428E+03  0.10566000000E+00 0.  1.
        994    1    1    2    0    0 -0.21185555986E+02  0.17731594608E+02  0.11846646185E+02  0.17381892951E+03  0.17120000000E+03 0.  0.
        998    1    1    2    0    0 -0.12520425632E+02  0.95964921406E+01  0.13892715191E+04  0.13893970662E+04  0.10000000000E+02 0.  1.
</event>
<event>
 5    1  0.1218060E-008  0.3755515E+03  0.7957747E-01  0.3470760E+00
         13   -1    0    0    0    0  0.00000000000E+00  0.00000000000E+00  0.14999999963E+04  0.15000000000E+04  0.10566000000E+00 0.  1.
        994   -1    0    0    0    0 -0.00000000000E+00 -0.00000000000E+00  0.11368683772E-12  0.17120000000E+03  0.17120000000E+03 0.  0.
         13    1    1    2    0    0  0.59959383435E+02 -0.80579115710E+02  0.28458358293E+03  0.30178791955E+03  0.10566000000E+00 0.  1.
        994    1    1    2    0    0 -0.63714142987E+02  0.79816707154E+02  0.52096553046E+02  0.20604293144E+03  0.17120000000E+03 0.  0.
        998    1    1    2    0    0  0.37547595525E+01  0.76240855617E+00  0.11633198603E+04  0.11633691490E+04  0.10000000000E+02 0.  1.
</event>
<event>
 5    1  0.1218060E-008  0.3850742E+03  0.7957747E-01  0.3429358E+00
         13   -1    0    0    0    0  0.00000000000E+00  0.00000000000E+00  0.14999999963E+04  0.15000000000E+04  0.10566000000E+00 0.  1.
        994   -1    0    0    0    0 -0.00000000000E+00 -0.00000000000E+00  0.11368683772E-12  0.17120000000E+03  0.17120000000E+03 0.  0.
         13    1    1    2    0    0  0.11883265459E+02  0.70604599400E+01  0.55257237846E+02  0.56959947252E+02  0.10566000000E+00 0.  1.
        994    1    1    2    0    0 -0.19949536952E+02 -0.11951979976E+02  0.33735140305E+01  0.17280525006E+03  0.17120000000E+03 0.  0.
        998    1    1    2    0    0  0.80662714926E+01  0.48915200358E+01  0.14413692444E+04  0.14414348027E+04  0.10000000000E+02 0.  1.
</event>
<event>
 5    1  0.1218060E-008  0.3847961E+03  0.7957747E-01  0.3430537E+00
         13   -1    0    0    0    0  0.00000000000E+00  0.00000000000E+00  0.14999999963E+04  0.15000000000E+04  0.10566000000E+00 0.  1.
        994   -1    0    0    0    0 -0.00000000000E+00 -0.00000000000E+00  0.11368683772E-12  0.17120000000E+03  0.17120000000E+03 0.  0.
         13    1    1    2    0    0 -0.25041764618E+00  0.10972850596E+02  0.36909345055E+02  0.38506844530E+02  0.10566000000E+00 0.  1.
        994    1    1    2    0    0 -0.16233300864E+02  0.60393250494E+01  0.27192370790E+01  0.17209540306E+03  0.17120000000E+03 0.  0.
        998    1    1    2    0    0  0.16483718510E+02 -0.17012175646E+02  0.14603714141E+04  0.14605977524E+04  0.10000000000E+02 0.  1.
</event>
<event>
 5    1  0.1218060E-008  0.3783476E+03  0.7957747E-01  0.3458385E+00
         13   -1    0    0    0    0  0.00000000000E+00  0.00000000000E+00  0.14999999963E+04  0.15000000000E+04  0.10566000000E+00 0.  1.
        994   -1    0    0    0    0 -0.00000000000E+00 -0.00000000000E+00  0.11368683772E-12  0.17120000000E+03  0.17120000000E+03 0.  0.
         13    1    1    2    0    0  0.28582785496E+02 -0.13825913610E+02  0.11497444515E+03  0.11927810242E+03  0.10566000000E+00 0.  1.
        994    1    1    2    0    0  0.15091123241E+02  0.12738417870E+02  0.62816007067E+01  0.17244972542E+03  0.17120000000E+03 0.  0.
        998    1    1    2    0    0 -0.43673908738E+02  0.10874957400E+01  0.13787439504E+04  0.13794721722E+04  0.10000000000E+02 0.  1.
</event>
<event>
 5    1  0.1218060E-008  0.3843804E+03  0.7957747E-01  0.3432304E+00
         13   -1    0    0    0    0  0.00000000000E+00  0.00000000000E+00  0.14999999963E+04  0.15000000000E+04  0.10566000000E+00 0.  1.
        994   -1    0    0    0    0 -0.00000000000E+00 -0.00000000000E+00  0.11368683772E-12  0.17120000000E+03  0.17120000000E+03 0.  0.
         13    1    1    2    0    0  0.10257275126E+02  0.72816002065E+01  0.37562126091E+02  0.39612597429E+02  0.10566000000E+00 0.  1.
        994    1    1    2    0    0 -0.21473383384E+02 -0.12791001657E+02  0.39994027372E+01  0.17306111966E+03  0.17120000000E+03 0.  0.
        998    1    1    2    0    0  0.11216108259E+02  0.55094014501E+01  0.14584384675E+04  0.14585262829E+04  0.10000000000E+02 0.  1.
</event>
<event>
 5    1  0.1218060E-008  0.3820456E+03  0.7957747E-01  0.3442300E+00
         13   -1    0    0    0    0  0.00000000000E+00  0.00000000000E+00  0.14999999963E+04  0.15000000000E+04  0.10566000000E+00 0.  1.
        994   -1    0    0    0    0 -0.00000000000E+00 -0.00000000000E+00  0.11368683772E-12  0.17120000000E+03  0.17120000000E+03 0.  0.
         13    1    1    2    0    0  0.26834543579E+02 -0.87318543164E+01  0.13215010041E+03  0.13512956083E+03  0.10566000000E+00 0.  1.
        994    1    1    2    0    0 -0.20839819983E+02 -0.23682336080E+02  0.64154984252E+01  0.17420031504E+03  0.17120000000E+03 0.  0.
        998    1    1    2    0    0 -0.59947235965E+01  0.32414190397E+02  0.13614343974E+04  0.13618701241E+04  0.10000000000E+02 0. -1.
</event>
<event>
 5    1  0.1218060E-008  0.3795783E+03  0.7957747E-01  0.3452997E+00
         13   -1    0    0    0    0  0.00000000000E+00  0.00000000000E+00  0.14999999963E+04  0.15000000000E+04  0.10566000000E+00 0.  1.
        994   -1    0    0    0    0 -0.00000000000E+00 -0.00000000000E+00  0.11368683772E-12  0.17120000000E+03  0.17120000000E+03 0.  0.
         13    1    1    2    0    0  0.21732301852E+02  0.44624429578E+01  0.52844890283E+02  0.57313174175E+02  0.10566000000E+00 0.  1.
        994    1    1    2    0    0 -0.24374010069E+02 -0.56273325563E+01  0.64437449133E+01  0.17313786728E+03  0.17120000000E+03 0.  0.
        998    1    1    2    0    0  0.26417082171E+01  0.11648895985E+01  0.14407113611E+04  0.14407489585E+04  0.10000000000E+02 0.  1.
</event>
<event>
 5    1  0.1218060E-008  0.3822829E+03  0.7957747E-01  0.3441278E+00
         13   -1    0    0    0    0  0.00000000000E+00  0.00000000000E+00  0.14999999963E+04  0.15000000000E+04  0.10566000000E+00 0.  1.
        994   -1    0    0    0    0 -0.00000000000E+00 -0.00000000000E+00  0.11368683772E-12  0.17120000000E+03  0.17120000000E+03 0.  0.
         13    1    1    2    0    0 -0.79140677760E+02  0.83871408978E+01  0.16211421220E+03  0.18059518258E+03  0.10566000000E+00 0.  1.
        994    1    1    2    0    0  0.70018164913E+02 -0.52173619901E+01  0.35830772297E+02  0.18847559133E+03  0.17120000000E+03 0.  0.
        998    1    1    2    0    0  0.91225128470E+01 -0.31697789076E+01  0.13020550118E+04  0.13021292261E+04  0.10000000000E+02 0.  1.
</event>
<event>
 5    1  0.1218060E-008  0.3853590E+03  0.7957747E-01  0.3428151E+00
         13   -1    0    0    0    0  0.00000000000E+00  0.00000000000E+00  0.14999999963E+04  0.15000000000E+04  0.10566000000E+00 0. -1.
        994   -1    0    0    0    0 -0.00000000000E+00 -0.00000000000E+00  0.11368683772E-12  0.17120000000E+03  0.17120000000E+03 0.  0.
         13    1    1    2    0    0  0.45397149957E+01 -0.12443512241E+02  0.59256944432E+02  0.60719409060E+02  0.10566000000E+00 0. -1.
        994    1    1    2    0    0 -0.17417636508E+02  0.70794123755E+01  0.26140242146E+01  0.17224913719E+03  0.17120000000E+03 0.  0.
        998    1    1    2    0    0  0.12877921512E+02  0.53640998654E+01  0.14381290276E+04  0.14382314537E+04  0.10000000000E+02 0. -1.
</event>
<event>
 5    1  0.1218060E-008  0.3818618E+03  0.7957747E-01  0.3443092E+00
         13   -1    0    0    0    0  0.00000000000E+00  0.00000000000E+00  0.14999999963E+04  0.15000000000E+04  0.10566000000E+00 0.  1.
        994   -1    0    0    0    0 -0.00000000000E+00 -0.00000000000E+00  0.11368683772E-12  0.17120000000E+03  0.17120000000E+03 0.  0.
         13    1    1    2    0    0 -0.10514409589E+02 -0.61816584496E+02  0.37399827348E+03  0.37921835749E+03  0.10566000000E+00 0.  1.
        994    1    1    2    0    0  0.25403657540E+02  0.77860079689E+02  0.25811893819E+02  0.19152867067E+03  0.17120000000E+03 0.  0.
        998    1    1    2    0    0 -0.14889247951E+02 -0.16043495193E+02  0.11001898290E+04  0.11004529718E+04  0.10000000000E+02 0.  1.
</event>
<event>
 5    1  0.1218060E-008  0.3714116E+03  0.7957747E-01  0.3489428E+00
         13   -1    0    0    0    0  0.00000000000E+00  0.00000000000E+00  0.14999999963E+04  0.15000000000E+04  0.10566000000E+00 0.  1.
        994   -1    0    0    0    0 -0.00000000000E+00 -0.00000000000E+00  0.11368683772E-12  0.17120000000E+03  0.17120000000E+03 0.  0.
         13    1    1    2    0    0  0.53019318941E+02 -0.13465753621E+02  0.16915630797E+03  0.17778144557E+03  0.10566000000E+00 0.  1.
        994    1    1    2    0    0 -0.37239978868E+02  0.15153627420E+01  0.13327971640E+02  0.17571621205E+03  0.17120000000E+03 0.  0.
        998    1    1    2    0    0 -0.15779340074E+02  0.11950390879E+02  0.13175157167E+04  0.13177023424E+04  0.10000000000E+02 0.  0.
</event>
<event>
 5    1  0.1218060E-008  0.3704018E+03  0.7957747E-01  0.3494046E+00
         13   -1    0    0    0    0  0.00000000000E+00  0.00000000000E+00  0.14999999963E+04  0.15000000000E+04  0.10566000000E+00 0. -1.
        994   -1    0    0    0    0 -0.00000000000E+00 -0.00000000000E+00  0.11368683772E-12  0.17120000000E+03  0.17120000000E+03 0.  0.
         13    1    1    2    0    0 -0.73057443062E+02  0.51469727356E+02  0.32858513357E+03  0.34052125336E+03  0.10566000000E+00 0. -1.
        994    1    1    2    0    0  0.45927856887E+02 -0.45860049649E+02  0.26048446826E+02  0.18493370102E+03  0.17120000000E+03 0.  0.
        998    1    1    2    0    0  0.27129586176E+02 -0.56096777067E+01  0.11453664159E+04  0.11457450456E+04  0.10000000000E+02 0. -1.
</event>
<event>
 5    1  0.1218060E-008  0.3772370E+03  0.7957747E-01  0.3463278E+00
         13   -1    0    0    0    0  0.00000000000E+00  0.00000000000E+00  0.14999999963E+04  0.15000000000E+04  0.10566000000E+00 0. -1.
        994   -1    0    0    0    0 -0.00000000000E+00 -0.00000000000E+00  0.11368683772E-12  0.17120000000E+03  0.17120000000E+03 0.  0.
         13    1    1    2    0    0  0.42278572721E+02 -0.12862678560E+02  0.17260874840E+03  0.17817608537E+03  0.10566000000E+00 0. -1.
        994    1    1    2    0    0 -0.27505270085E+02  0.45534053411E+01  0.81612235780E+01  0.17364711041E+03  0.17120000000E+03 0.  0.
        998    1    1    2    0    0 -0.14773302636E+02  0.83092732190E+01  0.13192300243E+04  0.13193768042E+04  0.10000000000E+02 0. -1.
</event>
<event>
 5    1  0.1218060E-008  0.3813725E+03  0.7957747E-01  0.3445204E+00
         13   -1    0    0    0    0  0.00000000000E+00  0.00000000000E+00  0.14999999963E+04  0.15000000000E+04  0.10566000000E+00 0.  1.
        994   -1    0    0    0    0 -0.00000000000E+00 -0.00000000000E+00  0.11368683772E-12  0.17120000000E+03  0.17120000000E+03 0.  0.
         13    1    1    2    0    0 -0.11909783905E+02  0.98509871107E+01  0.35158391614E+02  0.38405840241E+02  0.10566000000E+00 0.  1.
        994    1    1    2    0    0 -0.62307102899E+01 -0.10200702398E+01  0.35746052575E+01  0.17135366963E+03  0.17120000000E+03 0.  0.
        998    1    1    2    0    0  0.18140494195E+02 -0.88309168709E+01  0.14612669994E+04  0.14614404901E+04  0.10000000000E+02 0.  1.
</event>
<event>
 5    1  0.1218060E-008  0.3839565E+03  0.7957747E-01  0.3434110E+00
         13   -1    0    0    0    0  0.00000000000E+00  0.00000000000E+00  0.14999999963E+04  0.15000000000E+04  0.10566000000E+00 0.  1.
        994   -1    0    0    0    0 -0.00000000000E+00 -0.00000000000E+00  0.11368683772E-12  0.17120000000E+03  0.17120000000E+03 0.  0.
         13    1    1    2    0    0  0.12992738012E+02  0.82921313668E+01  0.52971412820E+02  0.55168400591E+02  0.10566000000E+00 0.  1.
        994    1    1    2    0    0 -0.14686893798E+02 -0.84284811764E+01  0.30958808139E+01  0.17206326924E+03  0.17120000000E+03 0.  0.
        998    1    1    2    0    0  0.16941557854E+01  0.13634980960E+00  0.14439327026E+04  0.14439683302E+04  0.10000000000E+02 0.  1.
</event>
<event>
 5    1  0.1218060E-008  0.3850168E+03  0.7957747E-01  0.3429601E+00
         13   -1    0    0    0    0  0.00000000000E+00  0.00000000000E+00  0.14999999963E+04  0.15000000000E+04  0.10566000000E+00 0. -1.
        994   -1    0    0    0    0 -0.00000000000E+00 -0.00000000000E+00  0.11368683772E-12  0.17120000000E+03  0.17120000000E+03 0.  0.
         13    1    1    2    0    0  0.14269173179E+02 -0.21174327491E+01  0.65369379632E+02  0.66942212260E+02  0.10566000000E+00 0. -1.
        994    1    1    2    0    0 -0.71542763402E+01 -0.29054623886E+01  0.18178859388E+01  0.17138369261E+03  0.17120000000E+03 0.  0.
        998    1    1    2    0    0 -0.71148968384E+01  0.50228951377E+01  0.14328127307E+04  0.14328740951E+04  0.10000000000E+02 0. -1.
</event>
<event>
 5    1  0.1218060E-008  0.3757078E+03  0.7957747E-01  0.3470063E+00
         13   -1    0    0    0    0  0.00000000000E+00  0.00000000000E+00  0.14999999963E+04  0.15000000000E+04  0.10566000000E+00 0.  1.
        994   -1    0    0    0    0 -0.00000000000E+00 -0.00000000000E+00  0.11368683772E-12  0.17120000000E+03  0.17120000000E+03 0.  0.
         13    1    1    2    0    0 -0.44528971697E+01  0.15906638493E+02  0.32911843908E+01  0.16843173694E+02  0.10566000000E+00 0.  1.
        994    1    1    2    0    0  0.47117919989E+01 -0.21529806170E+02  0.15723924215E+02  0.17332748002E+03  0.17120000000E+03 0.  0.
        998    1    1    2    0    0 -0.25889482917E+00  0.56231676769E+01  0.14809848877E+04  0.14810293463E+04  0.10000000000E+02 0.  1.
</event>
<event>
 5    1  0.1218060E-008  0.3842503E+03  0.7957747E-01  0.3432858E+00
         13   -1    0    0    0    0  0.00000000000E+00  0.00000000000E+00  0.14999999963E+04  0.15000000000E+04  0.10566000000E+00 0.  1.
        994   -1    0    0    0    0 -0.00000000000E+00 -0.00000000000E+00  0.11368683772E-12  0.17120000000E+03  0.17120000000E+03 0.  0.
         13    1    1    2    0    0  0.32949140262E+02  0.18191054372E+03  0.10985750545E+04  0.11140216574E+04  0.10566000000E+00 0.  1.
        994    1    1    2    0    0 -0.26565885054E+02 -0.19216610177E+03  0.13790215170E+03  0.29318935922E+03  0.17120000000E+03 0.  0.
        998    1    1    2    0    0 -0.63832552077E+01  0.10255558053E+02  0.26352279013E+03  0.26398898336E+03  0.10000000000E+02 0.  1.
</event>
<event>
 5    1  0.1218060E-008  0.3844623E+03  0.7957747E-01  0.3431956E+00
         13   -1    0    0    0    0  0.00000000000E+00  0.00000000000E+00  0.14999999963E+04  0.15000000000E+04  0.10566000000E+00 0. -1.
        994   -1    0    0    0    0 -0.00000000000E+00 -0.00000000000E+00  0.11368683772E-12  0.17120000000E+03  0.17120000000E+03 0.  0.
         13    1    1    2    0    0 -0.46472862764E+01  0.92857925819E+01  0.26149917469E+02  0.28136321033E+02  0.10566000000E+00 0. -1.
        994    1    1    2    0    0  0.11573444354E+02 -0.21368828621E+02  0.38453354479E+01  0.17295894905E+03  0.17120000000E+03 0.  0.
        998    1    1    2    0    0 -0.69261580774E+01  0.12083036039E+02  0.14700047434E+04  0.14701047299E+04  0.10000000000E+02 0. -1.
</event>
<event>
 5    1  0.1218060E-008  0.3810011E+03  0.7957747E-01  0.3446811E+00
         13   -1    0    0    0    0  0.00000000000E+00  0.00000000000E+00  0.14999999963E+04  0.15000000000E+04  0.10566000000E+00 0. -1.
        994   -1    0    0    0    0 -0.00000000000E+00 -0.00000000000E+00  0.11368683772E-12  0.17120000000E+03  0.17120000000E+03 0.  0.
         13    1    1    2    0    0  0.12942417664E+02  0.51627142090E+01  0.24272057358E+02  0.27987563763E+02  0.10566000000E+00 0. -1.
        994    1    1    2    0    0 -0.17614139222E+02 -0.19672062415E+02  0.59552829751E+01  0.17332672424E+03  0.17120000000E+03 0.  0.
        998    1    1    2    0    0  0.46717215578E+01  0.14509348206E+02  0.14697726559E+04  0.14698857120E+04  0.10000000000E+02 0. -1.
</event>
<event>
 5    1  0.1218060E-008  0.3797870E+03  0.7957747E-01  0.3452086E+00
         13   -1    0    0    0    0  0.00000000000E+00  0.00000000000E+00  0.14999999963E+04  0.15000000000E+04  0.10566000000E+00 0. -1.
        994   -1    0    0    0    0 -0.00000000000E+00 -0.00000000000E+00  0.11368683772E-12  0.17120000000E+03  0.17120000000E+03 0.  0.
         13    1    1    2    0    0 -0.86392984712E+01  0.21212480505E+02  0.58920262090E+02  0.63215625094E+02  0.10566000000E+00 0. -1.
        994    1    1    2    0    0  0.10037525104E+02 -0.18040413550E+02  0.56677719529E+01  0.17253339407E+03  0.17120000000E+03 0.  0.
        998    1    1    2    0    0 -0.13982266326E+01 -0.31720669552E+01  0.14354119622E+04  0.14354509808E+04  0.10000000000E+02 0. -1.
</event>
<event>
 5    1  0.1218060E-008  0.3817377E+03  0.7957747E-01  0.3443627E+00
         13   -1    0    0    0    0  0.00000000000E+00  0.00000000000E+00  0.14999999963E+04  0.15000000000E+04  0.10566000000E+00 0.  1.
        994   -1    0    0    0    0 -0.00000000000E+00 -0.00000000000E+00  0.11368683772E-12  0.17120000000E+03  0.17120000000E+03 0.  0.
         13    1    1    2    0    0  0.19050733217E+02  0.63182819276E+01  0.56166985252E+02  0.59645557412E+02  0.10566000000E+00 0.  1.
        994    1    1    2    0    0 -0.35437083600E+02  0.79913275769E+01  0.76572525406E+01  0.17517911327E+03  0.17120000000E+03 0.  0.
        998    1    1    2    0    0  0.16386350383E+02 -0.14309609505E+02  0.14361757585E+04  0.14363753293E+04  0.10000000000E+02 0.  1.
</event>
<event>
 5    1  0.1218060E-008  0.3792486E+03  0.7957747E-01  0.3454437E+00
         13   -1    0    0    0    0  0.00000000000E+00  0.00000000000E+00  0.14999999963E+04  0.15000000000E+04  0.10566000000E+00 0.  1.
        994   -1    0    0    0    0 -0.00000000000E+00 -0.00000000000E+00  0.11368683772E-12  0.17120000000E+03  0.17120000000E+03 0.  0.
         13    1    1    2    0    0  0.30868950532E+02  0.61772381860E+01  0.97597251792E+02  0.10254894002E+03  0.10566000000E+00 0.  1.
        994    1    1    2    0    0 -0.40927023598E+02 -0.15905306254E+01  0.10155397661E+02  0.17632391542E+03  0.17120000000E+03 0.  0.
        998    1    1    2    0    0  0.10058073066E+02 -0.45867075606E+01  0.13922473468E+04  0.13923271446E+04  0.10000000000E+02 0.  1.
</event>
<event>
 5    1  0.1218060E-008  0.3783287E+03  0.7957747E-01  0.3458468E+00
         13   -1    0    0    0    0  0.00000000000E+00  0.00000000000E+00  0.14999999963E+04  0.15000000000E+04  0.10566000000E+00 0. -1.
        994   -1    0    0    0    0 -0.00000000000E+00 -0.00000000000E+00  0.11368683772E-12  0.17120000000E+03  0.17120000000E+03 0.  0.
         13    1    1    2    0    0 -0.38467368672E+02 -0.30637396640E+02  0.70352740968E+02  0.85836518168E+02  0.10566000000E+00 0. -1.
        994    1    1    2    0    0  0.30450969760E+02  0.36332079146E+02  0.23550048903E+02  0.17919633461E+03  0.17120000000E+03 0.  0.
        998    1    1    2    0    0  0.80163989122E+01 -0.56946825062E+01  0.14060972064E+04  0.14061671472E+04  0.10000000000E+02 0. -1.
</event>
<event>
 5    1  0.1218060E-008  0.3788148E+03  0.7957747E-01  0.3456335E+00
         13   -1    0    0    0    0  0.00000000000E+00  0.00000000000E+00  0.14999999963E+04  0.15000000000E+04  0.10566000000E+00 0. -1.
        994   -1    0    0    0    0 -0.00000000000E+00 -0.00000000000E+00  0.11368683772E-12  0.17120000000E+03  0.17120000000E+03 0.  0.
         13    1    1    2    0    0  0.16686611637E+02  0.14101612669E+02  0.50007952650E+02  0.54572016456E+02  0.10566000000E+00 0. -1.
        994    1    1    2    0    0  0.12387636392E+02 -0.24743600383E+02  0.73065917555E+01  0.17357570561E+03  0.17120000000E+03 0.  0.
        998    1    1    2    0    0 -0.29074248029E+02  0.10641987715E+02  0.14426854519E+04  0.14430522779E+04  0.10000000000E+02 0. -1.
</event>
<event>
 5    1  0.1218060E-008  0.3838456E+03  0.7957747E-01  0.3434583E+00
         13   -1    0    0    0    0  0.00000000000E+00  0.00000000000E+00  0.14999999963E+04  0.15000000000E+04  0.10566000000E+00 0.  1.
        994   -1    0    0    0    0 -0.00000000000E+00 -0.00000000000E+00  0.11368683772E-12  0.17120000000E+03  0.17120000000E+03 0.  0.
         13    1    1    2    0    0 -0.15805753485E+02  0.19305415467E+02  0.12885016311E+03  0.13124365359E+03  0.10566000000E+00 0.  1.
        994    1    1    2    0    0  0.75100616874E+01 -0.28639521483E+02  0.51034712922E+01  0.17381630717E+03  0.17120000000E+03 0.  0.
        998    1    1    2    0    0  0.82956917978E+01  0.93341060156E+01  0.13660463619E+04  0.13661400392E+04  0.10000000000E+02 0.  1.
</event>
<event>
 5    1  0.1218060E-008  0.3825581E+03  0.7957747E-01  0.3440095E+00
         13   -1    0    0    0    0  0.00000000000E+00  0.00000000000E+00  0.14999999963E+04  0.15000000000E+04  0.10566000000E+00 0.  1.
        994   -1    0    0    0    0 -0.00000000000E+00 -0.00000000000E+00  0.11368683772E-12  0.17120000000E+03  0.17120000000E+03 0.  0.
         13    1    1    2    0    0  0.21669474847E+02  0.25782895662E+02  0.17874528656E+03  0.18189066079E+03  0.10566000000E+00 0.  1.
        994    1    1    2    0    0  0.28301889513E+01 -0.47243519934E+02  0.10308411576E+02  0.17792038527E+03  0.17120000000E+03 0.  0.
        998    1    1    2    0    0 -0.24499663798E+02  0.21460624271E+02  0.13109462981E+04  0.13113889539E+04  0.10000000000E+02 0.  1.
</event>
<event>
 5    1  0.1218060E-008  0.3838521E+03  0.7957747E-01  0.3434555E+00
         13   -1    0    0    0    0  0.00000000000E+00  0.00000000000E+00  0.14999999963E+04  0.15000000000E+04  0.10566000000E+00 0.  1.
        994   -1    0    0    0    0 -0.00000000000E+00 -0.00000000000E+00  0.11368683772E-12  0.17120000000E+03  0.17120000000E+03 0.  0.
         13    1    1    2    0    0  0.41854294117E+01  0.19617715918E+02  0.10454861123E+03  0.10645560517E+03  0.10566000000E+00 0.  1.
        994    1    1    2    0    0  0.16632830120E+01  0.66546696078E+01  0.23564271061E+01  0.17135356397E+03  0.17120000000E+03 0.  0.
        998    1    1    2    0    0 -0.58487124237E+01 -0.26272385525E+02  0.13930949579E+04  0.13933908309E+04  0.10000000000E+02 0.  1.
</event>
<event>
 5    1  0.1218060E-008  0.3845773E+03  0.7957747E-01  0.3431467E+00
         13   -1    0    0    0    0  0.00000000000E+00  0.00000000000E+00  0.14999999963E+04  0.15000000000E+04  0.10566000000E+00 0.  1.
        994   -1    0    0    0    0 -0.00000000000E+00 -0.00000000000E+00  0.11368683772E-12  0.17120000000E+03  0.17120000000E+03 0.  0.
         13    1    1    2    0    0 -0.79550929988E+01  0.87569725669E+01  0.37149255820E+02  0.38987773021E+02  0.10566000000E+00 0.  1.
        994    1    1    2    0    0  0.62620749435E+01 -0.94930699456E+01  0.22661838665E+01  0.17159227124E+03  0.17120000000E+03 0.  0.
        998    1    1    2    0    0  0.16930180553E+01  0.73609737871E+00  0.14605845566E+04  0.14606199557E+04  0.10000000000E+02 0.  1.
</event>
<event>
 5    1  0.1218060E-008  0.3828423E+03  0.7957747E-01  0.3438875E+00
         13   -1    0    0    0    0  0.00000000000E+00  0.00000000000E+00  0.14999999963E+04  0.15000000000E+04  0.10566000000E+00 0.  1.
        994   -1    0    0    0    0 -0.00000000000E+00 -0.00000000000E+00  0.11368683772E-12  0.17120000000E+03  0.17120000000E+03 0.  0.
         13    1    1    2    0    0 -0.88834467498E+01  0.11846392965E+02  0.39392154014E+02  0.42083317531E+02  0.10566000000E+00 0.  1.
        994    1    1    2    0    0  0.73561174206E+01 -0.89185915024E+01  0.31479803677E+01  0.17161877379E+03  0.17120000000E+03 0.  0.
        998    1    1    2    0    0  0.15273293292E+01 -0.29278014627E+01  0.14574598619E+04  0.14574979087E+04  0.10000000000E+02 0.  1.
</event>
<event>
 5    1  0.1218060E-008  0.3851853E+03  0.7957747E-01  0.3428887E+00
         13   -1    0    0    0    0  0.00000000000E+00  0.00000000000E+00  0.14999999963E+04  0.15000000000E+04  0.10566000000E+00 0. -1.
        994   -1    0    0    0    0 -0.00000000000E+00 -0.00000000000E+00  0.11368683772E-12  0.17120000000E+03  0.17120000000E+03 0.  0.
         13    1    1    2    0    0  0.72817095994E+01 -0.15361566794E+02  0.95730661938E+02  0.97228451742E+02  0.10566000000E+00 0. -1.
        994    1    1    2    0    0 -0.28351491319E+01  0.84053838793E+01  0.17968130944E+01  0.17143907689E+03  0.17120000000E+03 0.  0.
        998    1    1    2    0    0 -0.44465604675E+01  0.69561829146E+01  0.14024725212E+04  0.14025324714E+04  0.10000000000E+02 0. -1.
</event>
<event>
 5    1  0.1218060E-008  0.3832049E+03  0.7957747E-01  0.3437321E+00
         13   -1    0    0    0    0  0.00000000000E+00  0.00000000000E+00  0.14999999963E+04  0.15000000000E+04  0.10566000000E+00 0. -1.
        994   -1    0    0    0    0 -0.00000000000E+00 -0.00000000000E+00  0.11368683772E-12  0.17120000000E+03  0.17120000000E+03 0.  0.
         13    1    1    2    0    0  0.38638382532E+00 -0.26981090015E+02  0.14605458080E+03  0.14852636213E+03  0.10566000000E+00 0. -1.
        994    1    1    2    0    0 -0.19030773951E+01  0.13943591565E+02  0.31794110487E+01  0.17180685116E+03  0.17120000000E+03 0.  0.
        998    1    1    2    0    0  0.15166935698E+01  0.13037498449E+02  0.13507660044E+04  0.13508667867E+04  0.10000000000E+02 0. -1.
</event>
<event>
 5    1  0.1218060E-008  0.3824476E+03  0.7957747E-01  0.3440570E+00
         13   -1    0    0    0    0  0.00000000000E+00  0.00000000000E+00  0.14999999963E+04  0.15000000000E+04  0.10566000000E+00 0.  1.
        994   -1    0    0    0    0 -0.00000000000E+00 -0.00000000000E+00  0.11368683772E-12  0.17120000000E+03  0.17120000000E+03 0.  0.
         13    1    1    2    0    0 -0.17683820736E+02  0.21718682722E+02  0.12013049998E+03  0.12335220664E+03  0.10566000000E+00 0.  1.
        994    1    1    2    0    0  0.18089034855E+02 -0.29108814700E+02  0.68073290990E+01  0.17472926488E+03  0.17120000000E+03 0.  0.
        998    1    1    2    0    0 -0.40521411875E+00  0.73901319779E+01  0.13730621672E+04  0.13731185285E+04  0.10000000000E+02 0.  1.
</event>
<event>
 5    1  0.1218060E-008  0.3778842E+03  0.7957747E-01  0.3460423E+00
         13   -1    0    0    0    0  0.00000000000E+00  0.00000000000E+00  0.14999999963E+04  0.15000000000E+04  0.10566000000E+00 0.  1.
        994   -1    0    0    0    0 -0.00000000000E+00 -0.00000000000E+00  0.11368683772E-12  0.17120000000E+03  0.17120000000E+03 0.  0.
         13    1    1    2    0    0 -0.43451901682E+01 -0.22647728801E+02  0.49150228362E+02  0.54291402722E+02  0.10566000000E+00 0.  1.
        994    1    1    2    0    0 -0.22730412552E+00  0.14980264290E+02  0.59610036837E+01  0.17195765046E+03  0.17120000000E+03 0.  0.
        998    1    1    2    0    0  0.45724942937E+01  0.76674645110E+01  0.14448887642E+04  0.14449509468E+04  0.10000000000E+02 0.  1.
</event>
<event>
 5    1  0.1218060E-008  0.3855308E+03  0.7957747E-01  0.3427424E+00
         13   -1    0    0    0    0  0.00000000000E+00  0.00000000000E+00  0.14999999963E+04  0.15000000000E+04  0.10566000000E+00 0. -1.
        994   -1    0    0    0    0 -0.00000000000E+00 -0.00000000000E+00  0.11368683772E-12  0.17120000000E+03  0.17120000000E+03 0.  0.
         13    1    1    2    0    0  0.63088385456E+01  0.86613916265E+01  0.40909119408E+02  0.42289341015E+02  0.10566000000E+00 0. -1.
        994    1    1    2    0    0 -0.73553174525E+01 -0.10398821751E+02  0.18996179632E+01  0.17168367638E+03  0.17120000000E+03 0.  0.
        998    1    1    2    0    0  0.10464789070E+01  0.17374301247E+01  0.14571912589E+04  0.14572269826E+04  0.10000000000E+02 0. -1.
</event>
<event>
 5    1  0.1218060E-008  0.3732517E+03  0.7957747E-01  0.3481079E+00
         13   -1    0    0    0    0  0.00000000000E+00  0.00000000000E+00  0.14999999963E+04  0.15000000000E+04  0.10566000000E+00 0. -1.
        994   -1    0    0    0    0 -0.00000000000E+00 -0.00000000000E+00  0.11368683772E-12  0.17120000000E+03  0.17120000000E+03 0.  0.
         13    1    1    2    0    0  0.12951664298E+02 -0.13741916198E+02  0.20761366503E+02  0.28064771013E+02  0.10566000000E+00 0. -1.
        994    1    1    2    0    0 -0.91082900402E+01 -0.36661214299E+01  0.79089835868E+01  0.17166360539E+03  0.17120000000E+03 0.  0.
        998    1    1    2    0    0 -0.38433742582E+01  0.17408037628E+02  0.14713296462E+04  0.14714716236E+04  0.10000000000E+02 0. -1.
</event>
<event>
 5    1  0.1218060E-008  0.3729348E+03  0.7957747E-01  0.3482511E+00
         13   -1    0    0    0    0  0.00000000000E+00  0.00000000000E+00  0.14999999963E+04  0.15000000000E+04  0.10566000000E+00 0. -1.
        994   -1    0    0    0    0 -0.00000000000E+00 -0.00000000000E+00  0.11368683772E-12  0.17120000000E+03  0.17120000000E+03 0.  0.
         13    1    1    2    0    0 -0.15420902685E+03  0.14403631683E+03  0.71963794496E+03  0.74993710904E+03  0.10566000000E+00 0. -1.
        994    1    1    2    0    0  0.18267203172E+03 -0.15409462800E+03  0.23874239855E+03  0.37871044139E+03  0.17120000000E+03 0.  0.
        998    1    1    2    0    0 -0.28463004873E+02  0.10058311176E+02  0.54161965277E+03  0.54255244957E+03  0.10000000000E+02 0. -1.
</event>
<event>
 5    1  0.1218060E-008  0.3763089E+03  0.7957747E-01  0.3467389E+00
         13   -1    0    0    0    0  0.00000000000E+00  0.00000000000E+00  0.14999999963E+04  0.15000000000E+04  0.10566000000E+00 0.  1.
        994   -1    0    0    0    0 -0.00000000000E+00 -0.00000000000E+00  0.11368683772E-12  0.17120000000E+03  0.17120000000E+03 0.  0.
         13    1    1    2    0    0  0.30604392083E+01 -0.56166433729E+02  0.23714490811E+03  0.24372474879E+03  0.10566000000E+00 0.  1.
        994    1    1    2    0    0 -0.21945890241E+02  0.45892554241E+02  0.14816425049E+02  0.17921136985E+03  0.17120000000E+03 0.  0.
        998    1    1    2    0    0  0.18885451033E+02  0.10273879489E+02  0.12480386631E+04  0.12482638814E+04  0.10000000000E+02 0.  1.
</event>
<event>
 5    1  0.1218060E-008  0.3780226E+03  0.7957747E-01  0.3459814E+00
         13   -1    0    0    0    0  0.00000000000E+00  0.00000000000E+00  0.14999999963E+04  0.15000000000E+04  0.10566000000E+00 0. -1.
        994   -1    0    0    0    0 -0.00000000000E+00 -0.00000000000E+00  0.11368683772E-12  0.17120000000E+03  0.17120000000E+03 0.  0.
         13    1    1    2    0    0  0.12054212306E+02 -0.18096265375E+01 -0.21853493332E+01  0.12384090530E+02  0.10566000000E+00 0. -1.
        994    1    1    2    0    0 -0.10604548396E+02 -0.42544679897E+01  0.15715204004E+02  0.17229905566E+03  0.17120000000E+03 0.  0.
        998    1    1    2    0    0 -0.14496639096E+01  0.60640945272E+01  0.14864701416E+04  0.14865168538E+04  0.10000000000E+02 0. -1.
</event>
<event>
 5    1  0.1218060E-008  0.3828480E+03  0.7957747E-01  0.3438851E+00
         13   -1    0    0    0    0  0.00000000000E+00  0.00000000000E+00  0.14999999963E+04  0.15000000000E+04  0.10566000000E+00 0. -1.
        994   -1    0    0    0    0 -0.00000000000E+00 -0.00000000000E+00  0.11368683772E-12  0.17120000000E+03  0.17120000000E+03 0.  0.
         13    1    1    2    0    0  0.33420773645E+01 -0.18111285952E+02  0.67640437730E+02  0.70102982392E+02  0.10566000000E+00 0. -1.
        994    1    1    2    0    0 -0.35996941438E+01 -0.57489486101E+01  0.28547489487E+01  0.17135809814E+03  0.17120000000E+03 0.  0.
        998    1    1    2    0    0  0.25761677933E+00  0.23860234562E+02  0.14295048096E+04  0.14297389195E+04  0.10000000000E+02 0. -1.
</event>
<event>
 5    1  0.1218060E-008  0.3846432E+03  0.7957747E-01  0.3431187E+00
         13   -1    0    0    0    0  0.00000000000E+00  0.00000000000E+00  0.14999999963E+04  0.15000000000E+04  0.10566000000E+00 0.  1.
        994   -1    0    0    0    0 -0.00000000000E+00 -0.00000000000E+00  0.11368683772E-12  0.17120000000E+03  0.17120000000E+03 0.  0.
         13    1    1    2    0    0 -0.12040672986E+02 -0.36097481428E+01  0.42909061620E+02  0.44712490656E+02  0.10566000000E+00 0.  1.
        994    1    1    2    0    0  0.98607015265E+01  0.54138902813E+01  0.22241401936E+01  0.17158359608E+03  0.17120000000E+03 0.  0.
        998    1    1    2    0    0  0.21799714591E+01 -0.18041421385E+01  0.14548667945E+04  0.14549039133E+04  0.10000000000E+02 0.  1.
</event>
<event>
 5    1  0.1218060E-008  0.3824373E+03  0.7957747E-01  0.3440614E+00
         13   -1    0    0    0    0  0.00000000000E+00  0.00000000000E+00  0.14999999963E+04  0.15000000000E+04  0.10566000000E+00 0.  1.
        994   -1    0    0    0    0 -0.00000000000E+00 -0.00000000000E+00  0.11368683772E-12  0.17120000000E+03  0.17120000000E+03 0.  0.
         13    1    1    2    0    0 -0.75777220425E+01 -0.70439221122E+01  0.17320085097E+02  0.20175113925E+02  0.10566000000E+00 0.  1.
        994    1    1    2    0    0  0.85975450087E+01 -0.48772391502E+00  0.31537896284E+01  0.17144544918E+03  0.17120000000E+03 0.  0.
        998    1    1    2    0    0 -0.10198229662E+01  0.75316460272E+01  0.14795261216E+04  0.14795794369E+04  0.10000000000E+02 0.  1.
</event>
<event>
 5    1  0.1218060E-008  0.3692724E+03  0.7957747E-01  0.3499242E+00
         13   -1    0    0    0    0  0.00000000000E+00  0.00000000000E+00  0.14999999963E+04  0.15000000000E+04  0.10566000000E+00 0.  1.
        994   -1    0    0    0    0 -0.00000000000E+00 -0.00000000000E+00  0.11368683772E-12  0.17120000000E+03  0.17120000000E+03 0.  0.
         13    1    1    2    0    0 -0.31396542702E+02 -0.64266016921E+02  0.23417990785E+03  0.24485935601E+03  0.10566000000E+00 0.  1.
        994    1    1    2    0    0  0.32580275602E+02  0.53130860185E+02  0.23237760729E+02  0.18366762422E+03  0.17120000000E+03 0.  0.
        998    1    1    2    0    0 -0.11837328997E+01  0.11135156736E+02  0.12425823277E+04  0.12426730198E+04  0.10000000000E+02 0.  1.
</event>
<event>
 5    1  0.1218060E-008  0.3720710E+03  0.7957747E-01  0.3486427E+00
         13   -1    0    0    0    0  0.00000000000E+00  0.00000000000E+00  0.14999999963E+04  0.15000000000E+04  0.10566000000E+00 0.  1.
        994   -1    0    0    0    0 -0.00000000000E+00 -0.00000000000E+00  0.11368683772E-12  0.17120000000E+03  0.17120000000E+03 0.  0.
         13    1    1    2    0    0 -0.20317076367E+02  0.60829236924E+02  0.25776621939E+03  0.26562457469E+03  0.10566000000E+00 0.  1.
        994    1    1    2    0    0 -0.43504393326E+01 -0.34650214250E+02  0.12389077655E+02  0.17516418845E+03  0.17120000000E+03 0.  0.
        998    1    1    2    0    0  0.24667515700E+02 -0.26179022674E+02  0.12298446992E+04  0.12304112369E+04  0.10000000000E+02 0.  1.
</event>
<event>
 5    1  0.1218060E-008  0.3763020E+03  0.7957747E-01  0.3467420E+00
         13   -1    0    0    0    0  0.00000000000E+00  0.00000000000E+00  0.14999999963E+04  0.15000000000E+04  0.10566000000E+00 0.  1.
        994   -1    0    0    0    0 -0.00000000000E+00 -0.00000000000E+00  0.11368683772E-12  0.17120000000E+03  0.17120000000E+03 0.  0.
         13    1    1    2    0    0 -0.11370338900E+02  0.94282271325E+01  0.15378905401E+02  0.21323648115E+02  0.10566000000E+00 0.  1.
        994    1    1    2    0    0  0.13096195502E+02 -0.68404598130E+01  0.67507812746E+01  0.17196893695E+03  0.17120000000E+03 0.  0.
        998    1    1    2    0    0 -0.17258566021E+01 -0.25877673195E+01  0.14778703096E+04  0.14779074149E+04  0.10000000000E+02 0.  1.
</event>
<event>
 5    1  0.1218060E-008  0.3421095E+03  0.7957747E-01  0.3634788E+00
         13   -1    0    0    0    0  0.00000000000E+00  0.00000000000E+00  0.14999999963E+04  0.15000000000E+04  0.10566000000E+00 0. -1.
        994   -1    0    0    0    0 -0.00000000000E+00 -0.00000000000E+00  0.11368683772E-12  0.17120000000E+03  0.17120000000E+03 0.  0.
         13    1    1    2    0    0  0.31955044061E+03 -0.18470849605E+02  0.55214642111E+03  0.63821574556E+03  0.10566000000E+00 0. -1.
        994    1    1    2    0    0 -0.27024093933E+03 -0.25031855332E+02  0.61637788497E+03  0.69490135714E+03  0.17120000000E+03 0.  0.
        998    1    1    2    0    0 -0.49309501276E+02  0.43502704937E+02  0.33147569020E+03  0.33808289730E+03  0.10000000000E+02 0.  1.
</event>
<event>
 5    1  0.1218060E-008  0.3794979E+03  0.7957747E-01  0.3453348E+00
         13   -1    0    0    0    0  0.00000000000E+00  0.00000000000E+00  0.14999999963E+04  0.15000000000E+04  0.10566000000E+00 0.  1.
        994   -1    0    0    0    0 -0.00000000000E+00 -0.00000000000E+00  0.11368683772E-12  0.17120000000E+03  0.17120000000E+03 0.  0.
         13    1    1    2    0    0  0.36962647491E+02 -0.20616975590E+01  0.14372269038E+03  0.14841398452E+03  0.10566000000E+00 0.  1.
        994    1    1    2    0    0 -0.33900491665E+02  0.55064013407E+01  0.83466472133E+01  0.17481038388E+03  0.17120000000E+03 0.  0.
        998    1    1    2    0    0 -0.30621558266E+01 -0.34447037817E+01  0.13479306587E+04  0.13479756316E+04  0.10000000000E+02 0.  1.
</event>
<event>
 5    1  0.1218060E-008  0.3708361E+03  0.7957747E-01  0.3492057E+00
         13   -1    0    0    0    0  0.00000000000E+00  0.00000000000E+00  0.14999999963E+04  0.15000000000E+04  0.10566000000E+00 0.  1.
        994   -1    0    0    0    0 -0.00000000000E+00 -0.00000000000E+00  0.11368683772E-12  0.17120000000E+03  0.17120000000E+03 0.  0.
         13    1    1    2    0    0  0.76785847577E+02  0.65176529898E+02  0.51590481249E+03  0.52564420776E+03  0.10566000000E+00 0.  1.
        994    1    1    2    0    0 -0.33789094504E+02 -0.23988662329E+02  0.17426612688E+02  0.17700363176E+03  0.17120000000E+03 0.  0.
        998    1    1    2    0    0 -0.42996753073E+02 -0.41187867569E+02  0.96666857110E+03  0.96855216048E+03  0.10000000000E+02 0.  1.
</event>
<event>
 5    1  0.1218060E-008  0.3816730E+03  0.7957747E-01  0.3443906E+00
         13   -1    0    0    0    0  0.00000000000E+00  0.00000000000E+00  0.14999999963E+04  0.15000000000E+04  0.10566000000E+00 0.  1.
        994   -1    0    0    0    0 -0.00000000000E+00 -0.00000000000E+00  0.11368683772E-12  0.17120000000E+03  0.17120000000E+03 0.  0.
         13    1    1    2    0    0 -0.12920752583E+02  0.17999792143E+02  0.71543724958E+02  0.74896289023E+02  0.10566000000E+00 0.  1.
        994    1    1    2    0    0  0.19425639168E+02 -0.10232016976E+02  0.48952544090E+01  0.17267151805E+03  0.17120000000E+03 0.  0.
        998    1    1    2    0    0 -0.65048865850E+01 -0.77677751666E+01  0.14235610169E+04  0.14236321929E+04  0.10000000000E+02 0.  1.
</event>
<event>
 5    1  0.1218060E-008  0.3820451E+03  0.7957747E-01  0.3442302E+00
         13   -1    0    0    0    0  0.00000000000E+00  0.00000000000E+00  0.14999999963E+04  0.15000000000E+04  0.10566000000E+00 0. -1.
        994   -1    0    0    0    0 -0.00000000000E+00 -0.00000000000E+00  0.11368683772E-12  0.17120000000E+03  0.17120000000E+03 0.  0.
         13    1    1    2    0    0 -0.11160530037E+02  0.22196672795E+02  0.10480721280E+03  0.10771171122E+03  0.10566000000E+00 0. -1.
        994    1    1    2    0    0 -0.31719518891E+01 -0.70561704082E+01  0.33030798979E+01  0.17140653767E+03  0.17120000000E+03 0.  0.
        998    1    1    2    0    0  0.14332481926E+02 -0.15140502387E+02  0.13918897036E+04  0.13920817511E+04  0.10000000000E+02 0. -1.
</event>
<event>
 5    1  0.1218060E-008  0.3763907E+03  0.7957747E-01  0.3467026E+00
         13   -1    0    0    0    0  0.00000000000E+00  0.00000000000E+00  0.14999999963E+04  0.15000000000E+04  0.10566000000E+00 0. -1.
        994   -1    0    0    0    0 -0.00000000000E+00 -0.00000000000E+00  0.11368683772E-12  0.17120000000E+03  0.17120000000E+03 0.  0.
         13    1    1    2    0    0 -0.45218615802E+02  0.12800055703E+02  0.22121066258E+03  0.22614759129E+03  0.10566000000E+00 0. -1.
        994    1    1    2    0    0  0.61755492661E+01  0.21321099957E+02  0.76351346621E+01  0.17280179974E+03  0.17120000000E+03 0.  0.
        998    1    1    2    0    0  0.39043066536E+02 -0.34121155660E+02  0.12711541990E+04  0.12722506090E+04  0.10000000000E+02 0. -1.
</event>
<event>
 5    1  0.1218060E-008  0.3755391E+03  0.7957747E-01  0.3470815E+00
         13   -1    0    0    0    0  0.00000000000E+00  0.00000000000E+00  0.14999999963E+04  0.15000000000E+04  0.10566000000E+00 0. -1.
        994   -1    0    0    0    0 -0.00000000000E+00 -0.00000000000E+00  0.11368683772E-12  0.17120000000E+03  0.17120000000E+03 0.  0.
         13    1    1    2    0    0 -0.87849775240E+02  0.75497944769E+02  0.69242756748E+03  0.70204947835E+03  0.10566000000E+00 0. -1.
        994    1    1    2    0    0  0.61448029008E+02 -0.84961267705E+02  0.44670350934E+02  0.20566758989E+03  0.17120000000E+03 0.  0.
        998    1    1    2    0    0  0.26401746232E+02  0.94633229357E+01  0.76290207786E+03  0.76348293176E+03  0.10000000000E+02 0. -1.
</event>
<event>
 5    1  0.1218060E-008  0.3749213E+03  0.7957747E-01  0.3473575E+00
         13   -1    0    0    0    0  0.00000000000E+00  0.00000000000E+00  0.14999999963E+04  0.15000000000E+04  0.10566000000E+00 0. -1.
        994   -1    0    0    0    0 -0.00000000000E+00 -0.00000000000E+00  0.11368683772E-12  0.17120000000E+03  0.17120000000E+03 0.  0.
         13    1    1    2    0    0  0.85105569852E+01  0.71593052344E+01  0.60539550806E+01  0.12662810422E+02  0.10566000000E+00 0. -1.
        994    1    1    2    0    0 -0.10500043954E+02 -0.71949911944E+01  0.72702243414E+01  0.17182640945E+03  0.17120000000E+03 0.  0.
        998    1    1    2    0    0  0.19894869687E+01  0.35685960029E-01  0.14866758169E+04  0.14867107801E+04  0.10000000000E+02 0. -1.
</event>
<event>
 5    1  0.1218060E-008  0.3813474E+03  0.7957747E-01  0.3445313E+00
         13   -1    0    0    0    0  0.00000000000E+00  0.00000000000E+00  0.14999999963E+04  0.15000000000E+04  0.10566000000E+00 0. -1.
        994   -1    0    0    0    0 -0.00000000000E+00 -0.00000000000E+00  0.11368683772E-12  0.17120000000E+03  0.17120000000E+03 0.  0.
         13    1    1    2    0    0 -0.27975291283E+01 -0.10005319622E+02  0.14010875254E+02  0.17442717087E+02  0.10566000000E+00 0. -1.
        994    1    1    2    0    0 -0.12354094708E+01  0.12450049949E+02  0.39756587722E+01  0.17170257960E+03  0.17120000000E+03 0.  0.
        998    1    1    2    0    0  0.40329385991E+01 -0.24447303266E+01  0.14820134623E+04  0.14820547033E+04  0.10000000000E+02 0. -1.
</event>
<event>
 5    1  0.1218060E-008  0.3839598E+03  0.7957747E-01  0.3434096E+00
         13   -1    0    0    0    0  0.00000000000E+00  0.00000000000E+00  0.14999999963E+04  0.15000000000E+04  0.10566000000E+00 0.  1.
        994   -1    0    0    0    0 -0.00000000000E+00 -0.00000000000E+00  0.11368683772E-12  0.17120000000E+03  0.17120000000E+03 0.  0.
         13    1    1    2    0    0  0.88749543565E+01  0.55437944310E+01  0.24777798592E+02  0.26897006128E+02  0.10566000000E+00 0.  1.
        994    1    1    2    0    0 -0.68756539545E+01 -0.39822705842E+01  0.23558108100E+01  0.17140047532E+03  0.17120000000E+03 0.  0.
        998    1    1    2    0    0 -0.19993004020E+01 -0.15615238467E+01  0.14728663869E+04  0.14729025185E+04  0.10000000000E+02 0.  1.
</event>
<event>
 5    1  0.1218060E-008  0.3857062E+03  0.7957747E-01  0.3426683E+00
         13   -1    0    0    0    0  0.00000000000E+00  0.00000000000E+00  0.14999999963E+04  0.15000000000E+04  0.10566000000E+00 0. -1.
        994   -1    0    0    0    0 -0.00000000000E+00 -0.00000000000E+00  0.11368683772E-12  0.17120000000E+03  0.17120000000E+03 0.  0.
         13    1    1    2    0    0  0.11134723750E+02  0.63939449135E+01  0.70963166698E+02  0.72115510096E+02  0.10566000000E+00 0. -1.
        994    1    1    2    0    0  0.14575658683E+02 -0.20724670230E+02  0.33891455166E+01  0.17309791475E+03  0.17120000000E+03 0.  0.
        998    1    1    2    0    0 -0.25710382433E+02  0.14330725317E+02  0.14256476841E+04  0.14259865752E+04  0.10000000000E+02 0. -1.
</event>
<event>
 5    1  0.1218060E-008  0.3854582E+03  0.7957747E-01  0.3427731E+00
         13   -1    0    0    0    0  0.00000000000E+00  0.00000000000E+00  0.14999999963E+04  0.15000000000E+04  0.10566000000E+00 0. -1.
        994   -1    0    0    0    0 -0.00000000000E+00 -0.00000000000E+00  0.11368683772E-12  0.17120000000E+03  0.17120000000E+03 0.  0.
         13    1    1    2    0    0  0.48174924074E+01 -0.12334336615E+02  0.62682300445E+02  0.64065794664E+02  0.10566000000E+00 0. -1.
        994    1    1    2    0    0 -0.54456601030E+01  0.75720367143E+01  0.16885426561E+01  0.17146218863E+03  0.17120000000E+03 0.  0.
        998    1    1    2    0    0  0.62816769559E+00  0.47622999011E+01  0.14356291532E+04  0.14356720167E+04  0.10000000000E+02 0. -1.
</event>
<event>
 5    1  0.1218060E-008  0.3818427E+03  0.7957747E-01  0.3443174E+00
         13   -1    0    0    0    0  0.00000000000E+00  0.00000000000E+00  0.14999999963E+04  0.15000000000E+04  0.10566000000E+00 0. -1.
        994   -1    0    0    0    0 -0.00000000000E+00 -0.00000000000E+00  0.11368683772E-12  0.17120000000E+03  0.17120000000E+03 0.  0.
         13    1    1    2    0    0  0.40889267409E+01 -0.14527141445E+02  0.34180326316E+02  0.37363926876E+02  0.10566000000E+00 0. -1.
        994    1    1    2    0    0 -0.91621455658E+01  0.95109956578E+01  0.37855269355E+01  0.17175032508E+03  0.17120000000E+03 0.  0.
        998    1    1    2    0    0  0.50732188249E+01  0.50161457867E+01  0.14620341430E+04  0.14620857480E+04  0.10000000000E+02 0. -1.
</event>
<event>
 5    1  0.1218060E-008  0.3773819E+03  0.7957747E-01  0.3462638E+00
         13   -1    0    0    0    0  0.00000000000E+00  0.00000000000E+00  0.14999999963E+04  0.15000000000E+04  0.10566000000E+00 0.  1.
        994   -1    0    0    0    0 -0.00000000000E+00 -0.00000000000E+00  0.11368683772E-12  0.17120000000E+03  0.17120000000E+03 0.  0.
         13    1    1    2    0    0  0.72156845556E+01  0.13376064876E+02  0.18498273405E+02  0.23941230089E+02  0.10566000000E+00 0.  1.
        994    1    1    2    0    0 -0.70706896360E+01 -0.15984242977E+02  0.64914440639E+01  0.17221228040E+03  0.17120000000E+03 0.  0.
        998    1    1    2    0    0 -0.14499491963E+00  0.26081781008E+01  0.14750102788E+04  0.14750464895E+04  0.10000000000E+02 0.  1.
</event>
<event>
 5    1  0.1218060E-008  0.3851510E+03  0.7957747E-01  0.3429032E+00
         13   -1    0    0    0    0  0.00000000000E+00  0.00000000000E+00  0.14999999963E+04  0.15000000000E+04  0.10566000000E+00 0. -1.
        994   -1    0    0    0    0 -0.00000000000E+00 -0.00000000000E+00  0.11368683772E-12  0.17120000000E+03  0.17120000000E+03 0.  0.
         13    1    1    2    0    0  0.17429344196E+02  0.23566739721E+01  0.97563198059E+02  0.99135890226E+02  0.10566000000E+00 0. -1.
        994    1    1    2    0    0 -0.13478661670E+02 -0.41298462135E+01  0.22087137728E+01  0.17179362144E+03  0.17120000000E+03 0.  0.
        998    1    1    2    0    0 -0.39506825263E+01  0.17731722414E+01  0.14002280844E+04  0.14002704883E+04  0.10000000000E+02 0. -1.
</event>
<event>
 5    1  0.1218060E-008  0.3690753E+03  0.7957747E-01  0.3500152E+00
         13   -1    0    0    0    0  0.00000000000E+00  0.00000000000E+00  0.14999999963E+04  0.15000000000E+04  0.10566000000E+00 0. -1.
        994   -1    0    0    0    0 -0.00000000000E+00 -0.00000000000E+00  0.11368683772E-12  0.17120000000E+03  0.17120000000E+03 0.  0.
         13    1    1    2    0    0 -0.25129928553E+02  0.13901905543E+02  0.37923619832E+02  0.47570877562E+02  0.10566000000E+00 0. -1.
        994    1    1    2    0    0  0.24777211513E+02 -0.56266088898E+01  0.11995755207E+02  0.17349036596E+03  0.17120000000E+03 0.  0.
        998    1    1    2    0    0  0.35271704020E+00 -0.82752966536E+01  0.14500806212E+04  0.14501387565E+04  0.10000000000E+02 0. -1.
</event>
<event>
 5    1  0.1218060E-008  0.3842057E+03  0.7957747E-01  0.3433048E+00
         13   -1    0    0    0    0  0.00000000000E+00  0.00000000000E+00  0.14999999963E+04  0.15000000000E+04  0.10566000000E+00 0.  1.
        994   -1    0    0    0    0 -0.00000000000E+00 -0.00000000000E+00  0.11368683772E-12  0.17120000000E+03  0.17120000000E+03 0.  0.
         13    1    1    2    0    0 -0.19203988644E+00 -0.15814854832E+02  0.62288964624E+02  0.64265642381E+02  0.10566000000E+00 0.  1.
        994    1    1    2    0    0  0.48149764254E+00  0.78210009983E+01  0.22274950437E+01  0.17139370359E+03  0.17120000000E+03 0.  0.
        998    1    1    2    0    0 -0.28945775610E+00  0.79938538339E+01  0.14354835366E+04  0.14355406540E+04  0.10000000000E+02 0.  1.
</event>
<event>
 5    1  0.1218060E-008  0.3857891E+03  0.7957747E-01  0.3426332E+00
         13   -1    0    0    0    0  0.00000000000E+00  0.00000000000E+00  0.14999999963E+04  0.15000000000E+04  0.10566000000E+00 0.  1.
        994   -1    0    0    0    0 -0.00000000000E+00 -0.00000000000E+00  0.11368683772E-12  0.17120000000E+03  0.17120000000E+03 0.  0.
         13    1    1    2    0    0  0.72327460534E+01  0.87422284484E+01  0.51383057490E+02  0.52620993290E+02  0.10566000000E+00 0.  1.
        994    1    1    2    0    0 -0.75828335638E+01 -0.75738329222E+01  0.16157437041E+01  0.17154274376E+03  0.17120000000E+03 0.  0.
        998    1    1    2    0    0  0.35008751044E+00 -0.11683955262E+01  0.14470011951E+04  0.14470362629E+04  0.10000000000E+02 0.  1.
</event>
<event>
 5    1  0.1218060E-008  0.3693379E+03  0.7957747E-01  0.3498939E+00
         13   -1    0    0    0    0  0.00000000000E+00  0.00000000000E+00  0.14999999963E+04  0.15000000000E+04  0.10566000000E+00 0. -1.
        994   -1    0    0    0    0 -0.00000000000E+00 -0.00000000000E+00  0.11368683772E-12  0.17120000000E+03  0.17120000000E+03 0.  0.
         13    1    1    2    0    0  0.20688787133E+02  0.24551412267E+02  0.46150623367E+02  0.56220004967E+02  0.10566000000E+00 0. -1.
        994    1    1    2    0    0  0.61815655505E+01 -0.16718839533E+02  0.11698124740E+02  0.17252251294E+03  0.17120000000E+03 0.  0.
        998    1    1    2    0    0 -0.26870352683E+02 -0.78325727339E+01  0.14421512482E+04  0.14424574821E+04  0.10000000000E+02 0. -1.
</event>
<event>
 5    1  0.1218060E-008  0.3841006E+03  0.7957747E-01  0.3433496E+00
         13   -1    0    0    0    0  0.00000000000E+00  0.00000000000E+00  0.14999999963E+04  0.15000000000E+04  0.10566000000E+00 0.  1.
        994   -1    0    0    0    0 -0.00000000000E+00 -0.00000000000E+00  0.11368683772E-12  0.17120000000E+03  0.17120000000E+03 0.  0.
         13    1    1    2    0    0 -0.19228477439E+02 -0.15045185913E+01  0.91536640135E+02  0.93546595726E+02  0.10566000000E+00 0.  1.
        994    1    1    2    0    0  0.80949150701E+01  0.34786377961E+01  0.23334202783E+01  0.17144244930E+03  0.17120000000E+03 0.  0.
        998    1    1    2    0    0  0.11133562368E+02 -0.19741192048E+01  0.14061299359E+04  0.14062109550E+04  0.10000000000E+02 0.  1.
</event>
<event>
 5    1  0.1218060E-008  0.3798226E+03  0.7957747E-01  0.3451931E+00
         13   -1    0    0    0    0  0.00000000000E+00  0.00000000000E+00  0.14999999963E+04  0.15000000000E+04  0.10566000000E+00 0. -1.
        994   -1    0    0    0    0 -0.00000000000E+00 -0.00000000000E+00  0.11368683772E-12  0.17120000000E+03  0.17120000000E+03 0.  0.
         13    1    1    2    0    0 -0.81611675303E+01 -0.14719065331E+02  0.32058420964E+02  0.36207859070E+02  0.10566000000E+00 0. -1.
        994    1    1    2    0    0  0.20639916420E+01  0.97529727692E+01  0.45552187506E+01  0.17155048982E+03  0.17120000000E+03 0.  0.
        998    1    1    2    0    0  0.60971758883E+01  0.49660925616E+01  0.14633863566E+04  0.14634416511E+04  0.10000000000E+02 0. -1.
</event>
<event>
 5    1  0.1218060E-008  0.3816778E+03  0.7957747E-01  0.3443886E+00
         13   -1    0    0    0    0  0.00000000000E+00  0.00000000000E+00  0.14999999963E+04  0.15000000000E+04  0.10566000000E+00 0.  1.
        994   -1    0    0    0    0 -0.00000000000E+00 -0.00000000000E+00  0.11368683772E-12  0.17120000000E+03  0.17120000000E+03 0.  0.
         13    1    1    2    0    0 -0.26896066939E+01  0.11863676588E+02  0.21168652866E+02  0.24415237753E+02  0.10566000000E+00 0.  1.
        994    1    1    2    0    0  0.14256901111E+00 -0.91011505540E+01  0.35641024915E+01  0.17147884445E+03  0.17120000000E+03 0.  0.
        998    1    1    2    0    0  0.25470376828E+01 -0.27625260339E+01  0.14752672409E+04  0.14753059178E+04  0.10000000000E+02 0.  1.
</event>
<event>
 5    1  0.1218060E-008  0.3806958E+03  0.7957747E-01  0.3448135E+00
         13   -1    0    0    0    0  0.00000000000E+00  0.00000000000E+00  0.14999999963E+04  0.15000000000E+04  0.10566000000E+00 0. -1.
        994   -1    0    0    0    0 -0.00000000000E+00 -0.00000000000E+00  0.11368683772E-12  0.17120000000E+03  0.17120000000E+03 0.  0.
         13    1    1    2    0    0 -0.37641390185E+01  0.16945782611E+02  0.38050214453E+02  0.41822939577E+02  0.10566000000E+00 0. -1.
        994    1    1    2    0    0  0.11467014691E+02 -0.12088399593E+02  0.47088269745E+01  0.17207334158E+03  0.17120000000E+03 0.  0.
        998    1    1    2    0    0 -0.77028756721E+01 -0.48573830182E+01  0.14572409549E+04  0.14573037188E+04  0.10000000000E+02 0. -1.
</event>
<event>
 5    1  0.1218060E-008  0.3794116E+03  0.7957747E-01  0.3453724E+00
         13   -1    0    0    0    0  0.00000000000E+00  0.00000000000E+00  0.14999999963E+04  0.15000000000E+04  0.10566000000E+00 0. -1.
        994   -1    0    0    0    0 -0.00000000000E+00 -0.00000000000E+00  0.11368683772E-12  0.17120000000E+03  0.17120000000E+03 0.  0.
         13    1    1    2    0    0 -0.19862090936E+02 -0.44146513419E+02  0.23252217122E+03  0.23750787056E+03  0.10566000000E+00 0. -1.
        994    1    1    2    0    0  0.17646716447E+02  0.40083071007E+02  0.10881775730E+02  0.17704776820E+03  0.17120000000E+03 0.  0.
        998    1    1    2    0    0  0.22153744887E+01  0.40634424127E+01  0.12565960493E+04  0.12566443612E+04  0.10000000000E+02 0. -1.
</event>
<event>
 5    1  0.1218060E-008  0.3837406E+03  0.7957747E-01  0.3435031E+00
         13   -1    0    0    0    0  0.00000000000E+00  0.00000000000E+00  0.14999999963E+04  0.15000000000E+04  0.10566000000E+00 0. -1.
        994   -1    0    0    0    0 -0.00000000000E+00 -0.00000000000E+00  0.11368683772E-12  0.17120000000E+03  0.17120000000E+03 0.  0.
         13    1    1    2    0    0 -0.10078534984E+02 -0.10310003333E+02  0.47343357735E+02  0.49490178034E+02  0.10566000000E+00 0. -1.
        994    1    1    2    0    0 -0.69747028419E+01  0.84948626244E+01  0.26557319124E+01  0.17157302260E+03  0.17120000000E+03 0.  0.
        998    1    1    2    0    0  0.17053237826E+02  0.18151407087E+01  0.14500009066E+04  0.14501367994E+04  0.10000000000E+02 0. -1.
</event>
<event>
 5    1  0.1218060E-008  0.3817115E+03  0.7957747E-01  0.3443740E+00
         13   -1    0    0    0    0  0.00000000000E+00  0.00000000000E+00  0.14999999963E+04  0.15000000000E+04  0.10566000000E+00 0.  1.
        994   -1    0    0    0    0 -0.00000000000E+00 -0.00000000000E+00  0.11368683772E-12  0.17120000000E+03  0.17120000000E+03 0.  0.
         13    1    1    2    0    0  0.22018594866E+02 -0.77548571821E+01  0.78546458188E+02  0.81942135607E+02  0.10566000000E+00 0.  1.
        994    1    1    2    0    0 -0.22393457311E+02  0.75864337059E+01  0.51321634396E+01  0.17290112784E+03  0.17120000000E+03 0.  0.
        998    1    1    2    0    0  0.37486244417E+00  0.16842347626E+00  0.14163213747E+04  0.14163567366E+04  0.10000000000E+02 0.  1.
</event>
<event>
 5    1  0.1218060E-008  0.3825158E+03  0.7957747E-01  0.3440277E+00
         13   -1    0    0    0    0  0.00000000000E+00  0.00000000000E+00  0.14999999963E+04  0.15000000000E+04  0.10566000000E+00 0. -1.
        994   -1    0    0    0    0 -0.00000000000E+00 -0.00000000000E+00  0.11368683772E-12  0.17120000000E+03  0.17120000000E+03 0.  0.
         13    1    1    2    0    0 -0.19144760085E+02  0.25649649322E+02  0.17757298128E+03  0.18043447895E+03  0.10566000000E+00 0. -1.
        994    1    1    2    0    0  0.14422890138E+02 -0.12776944449E+02  0.41004138709E+01  0.17232969408E+03  0.17120000000E+03 0.  0.
        998    1    1    2    0    0  0.47218699469E+01 -0.12872704872E+02  0.13183266011E+04  0.13184358270E+04  0.10000000000E+02 0. -1.
</event>
<event>
 5    1  0.1218060E-008  0.3748664E+03  0.7957747E-01  0.3473820E+00
         13   -1    0    0    0    0  0.00000000000E+00  0.00000000000E+00  0.14999999963E+04  0.15000000000E+04  0.10566000000E+00 0. -1.
        994   -1    0    0    0    0 -0.00000000000E+00 -0.00000000000E+00  0.11368683772E-12  0.17120000000E+03  0.17120000000E+03 0.  0.
         13    1    1    2    0    0 -0.19412584744E+02 -0.12106316261E+02  0.36585987290E+02  0.43150399417E+02  0.10566000000E+00 0. -1.
        994    1    1    2    0    0  0.99619743720E+01  0.36846213726E+01  0.71310986073E+01  0.17167734252E+03  0.17120000000E+03 0.  0.
        998    1    1    2    0    0  0.94506103715E+01  0.84216948879E+01  0.14562829104E+04  0.14563722581E+04  0.10000000000E+02 0. -1.
</event>
<event>
 5    1  0.1218060E-008  0.3817017E+03  0.7957747E-01  0.3443782E+00
         13   -1    0    0    0    0  0.00000000000E+00  0.00000000000E+00  0.14999999963E+04  0.15000000000E+04  0.10566000000E+00 0.  1.
        994   -1    0    0    0    0 -0.00000000000E+00 -0.00000000000E+00  0.11368683772E-12  0.17120000000E+03  0.17120000000E+03 0.  0.
         13    1    1    2    0    0 -0.31839521164E+02  0.35186506180E+02  0.28398357727E+03  0.28792104586E+03  0.10566000000E+00 0.  1.
        994    1    1    2    0    0  0.31530101492E+02 -0.33946706159E+02  0.10445225207E+02  0.17766560975E+03  0.17120000000E+03 0.  0.
        998    1    1    2    0    0  0.30941967212E+00 -0.12398000216E+01  0.12055711938E+04  0.12056133444E+04  0.10000000000E+02 0.  0.
</event>
<event>
 5    1  0.1218060E-008  0.3801532E+03  0.7957747E-01  0.3450492E+00
         13   -1    0    0    0    0  0.00000000000E+00  0.00000000000E+00  0.14999999963E+04  0.15000000000E+04  0.10566000000E+00 0.  1.
        994   -1    0    0    0    0 -0.00000000000E+00 -0.00000000000E+00  0.11368683772E-12  0.17120000000E+03  0.17120000000E+03 0.  0.
         13    1    1    2    0    0  0.16110482353E+02  0.26440019765E+02  0.12973903983E+03  0.13338235230E+03  0.10566000000E+00 0.  1.
        994    1    1    2    0    0  0.14751301941E+02 -0.10589378401E+02  0.51583126249E+01  0.17223758020E+03  0.17120000000E+03 0.  0.
        998    1    1    2    0    0 -0.30861784295E+02 -0.15850641364E+02  0.13651026438E+04  0.13655800675E+04  0.10000000000E+02 0.  1.
</event>
<event>
 5    1  0.1218060E-008  0.3815640E+03  0.7957747E-01  0.3444377E+00
         13   -1    0    0    0    0  0.00000000000E+00  0.00000000000E+00  0.14999999963E+04  0.15000000000E+04  0.10566000000E+00 0.  1.
        994   -1    0    0    0    0 -0.00000000000E+00 -0.00000000000E+00  0.11368683772E-12  0.17120000000E+03  0.17120000000E+03 0.  0.
         13    1    1    2    0    0 -0.11854587752E+02 -0.17820186693E+02  0.66567240526E+02  0.69923522364E+02  0.10566000000E+00 0.  1.
        994    1    1    2    0    0  0.85822438242E+01  0.13603608718E+02  0.42066012010E+01  0.17200537367E+03  0.17120000000E+03 0.  0.
        998    1    1    2    0    0  0.32723439279E+01  0.42165779747E+01  0.14292261546E+04  0.14292711040E+04  0.10000000000E+02 0.  1.
</event>
<event>
 5    1  0.1218060E-008  0.4115206E+03  0.7957747E-01  0.3324435E+00
         13   -1    0    0    0    0  0.00000000000E+00  0.00000000000E+00  0.14999999963E+04  0.15000000000E+04  0.10566000000E+00 0. -1.
        994   -1    0    0    0    0 -0.00000000000E+00 -0.00000000000E+00  0.11368683772E-12  0.17120000000E+03  0.17120000000E+03 0.  0.
         13    1    1    2    0    0 -0.13548926924E+03  0.12902202890E+02  0.29930565293E+03  0.32879734482E+03  0.10566000000E+00 0. -1.
        994    1    1    2    0    0  0.54086602852E+02  0.99070903925E+01  0.47380266132E+02  0.18595117818E+03  0.17120000000E+03 0.  0.
        998    1    1    2    0    0  0.81402666389E+02 -0.22809293283E+02  0.11533140772E+04  0.11564514770E+04  0.10000000000E+02 0. -1.
</event>
<event>
 5    1  0.1218060E-008  0.3730645E+03  0.7957747E-01  0.3481924E+00
         13   -1    0    0    0    0  0.00000000000E+00  0.00000000000E+00  0.14999999963E+04  0.15000000000E+04  0.10566000000E+00 0. -1.
        994   -1    0    0    0    0 -0.00000000000E+00 -0.00000000000E+00  0.11368683772E-12  0.17120000000E+03  0.17120000000E+03 0.  0.
         13    1    1    2    0    0 -0.51407011032E+01  0.91412169389E+01  0.35981288081E+01  0.11088117510E+02  0.10566000000E+00 0. -1.
        994    1    1    2    0    0  0.22300697726E+01 -0.77880561838E+01  0.79005960310E+01  0.17157355987E+03  0.17120000000E+03 0.  0.
        998    1    1    2    0    0  0.29106313306E+01 -0.13531607550E+01  0.14885012714E+04  0.14885383226E+04  0.10000000000E+02 0. -1.
</event>
<event>
 5    1  0.1218060E-008  0.3797546E+03  0.7957747E-01  0.3452228E+00
         13   -1    0    0    0    0  0.00000000000E+00  0.00000000000E+00  0.14999999963E+04  0.15000000000E+04  0.10566000000E+00 0. -1.
        994   -1    0    0    0    0 -0.00000000000E+00 -0.00000000000E+00  0.11368683772E-12  0.17120000000E+03  0.17120000000E+03 0.  0.
         13    1    1    2    0    0 -0.40770914852E+02  0.20162364280E+02  0.23672358737E+03  0.24105363804E+03  0.10566000000E+00 0. -1.
        994    1    1    2    0    0  0.23947109356E+02 -0.16031472199E+02  0.70404874880E+01  0.17375120319E+03  0.17120000000E+03 0.  0.
        998    1    1    2    0    0  0.16823805496E+02 -0.41308920816E+01  0.12562359214E+04  0.12563951588E+04  0.10000000000E+02 0.  1.
</event>
<event>
 5    1  0.2583711E-008  0.3862822E+03  0.7957747E-01  0.3424253E+00
         13   -1    0    0    0    0  0.00000000000E+00  0.00000000000E+00  0.14999999963E+04  0.15000000000E+04  0.10566000000E+00 0.  1.
        994   -1    0    0    0    0 -0.00000000000E+00 -0.00000000000E+00  0.11368683772E-12  0.17120000000E+03  0.17120000000E+03 0.  0.
         13    1    1    2    0    0  0.61455941987E+01 -0.91648770750E+01  0.62500116051E+02  0.63466833625E+02  0.10566000000E+00 0.  1.
        994    1    1    2    0    0 -0.17852738918E+01  0.70406270641E+01  0.11677045531E+01  0.17135799125E+03  0.17120000000E+03 0.  0.
        998    1    1    2    0    0 -0.43603203069E+01  0.21242500109E+01  0.14363321757E+04  0.14363751751E+04  0.10000000000E+02 0.  1.
</event>
<event>
 5    1  0.1218060E-008  0.3816824E+03  0.7957747E-01  0.3443866E+00
         13   -1    0    0    0    0  0.00000000000E+00  0.00000000000E+00  0.14999999963E+04  0.15000000000E+04  0.10566000000E+00 0.  1.
        994   -1    0    0    0    0 -0.00000000000E+00 -0.00000000000E+00  0.11368683772E-12  0.17120000000E+03  0.17120000000E+03 0.  0.
         13    1    1    2    0    0  0.10140854911E+02 -0.19050331599E+01  0.14686810635E+02  0.17949363786E+02  0.10566000000E+00 0.  1.
        994    1    1    2    0    0 -0.10719241937E+02  0.28707885717E+01  0.36957984696E+01  0.17159907488E+03  0.17120000000E+03 0.  0.
        998    1    1    2    0    0  0.57838702611E+00 -0.96575541180E+00  0.14816173872E+04  0.14816515613E+04  0.10000000000E+02 0.  1.
</event>
<event>
 5    1  0.1218060E-008  0.3754663E+03  0.7957747E-01  0.3471140E+00
         13   -1    0    0    0    0  0.00000000000E+00  0.00000000000E+00  0.14999999963E+04  0.15000000000E+04  0.10566000000E+00 0. -1.
        994   -1    0    0    0    0 -0.00000000000E+00 -0.00000000000E+00  0.11368683772E-12  0.17120000000E+03  0.17120000000E+03 0.  0.
         13    1    1    2    0    0 -0.34708839963E+02 -0.65465752464E+01  0.10699025170E+03  0.11266981114E+03  0.10566000000E+00 0. -1.
        994    1    1    2    0    0 -0.53718993304E+01 -0.38037230362E+01  0.65865045524E+01  0.17145304796E+03  0.17120000000E+03 0.  0.
        998    1    1    2    0    0  0.40080739294E+02  0.10350298283E+02  0.13864232400E+04  0.13870771409E+04  0.10000000000E+02 0. -1.
</event>
<event>
 5    1  0.1218060E-008  0.3796091E+03  0.7957747E-01  0.3452862E+00
         13   -1    0    0    0    0  0.00000000000E+00  0.00000000000E+00  0.14999999963E+04  0.15000000000E+04  0.10566000000E+00 0.  1.
        994   -1    0    0    0    0 -0.00000000000E+00 -0.00000000000E+00  0.11368683772E-12  0.17120000000E+03  0.17120000000E+03 0.  0.
         13    1    1    2    0    0 -0.22477482900E+02 -0.34199905586E+02  0.21118827641E+03  0.21511710773E+03  0.10566000000E+00 0.  1.
        994    1    1    2    0    0  0.41051958392E+01  0.10438698289E+02  0.47518514645E+01  0.17163286150E+03  0.17120000000E+03 0.  0.
        998    1    1    2    0    0  0.18372287061E+02  0.23761207296E+02  0.12840598684E+04  0.12844500308E+04  0.10000000000E+02 0.  1.
</event>
<event>
 5    1  0.1218060E-008  0.3706830E+03  0.7957747E-01  0.3492758E+00
         13   -1    0    0    0    0  0.00000000000E+00  0.00000000000E+00  0.14999999963E+04  0.15000000000E+04  0.10566000000E+00 0.  1.
        994   -1    0    0    0    0 -0.00000000000E+00 -0.00000000000E+00  0.11368683772E-12  0.17120000000E+03  0.17120000000E+03 0.  0.
         13    1    1    2    0    0 -0.90161823061E+02  0.78253701666E+02  0.56562056531E+03  0.57808254707E+03  0.10566000000E+00 0.  1.
        994    1    1    2    0    0  0.74335635840E+02 -0.73955962092E+02  0.47855184270E+02  0.20638514904E+03  0.17120000000E+03 0.  0.
        998    1    1    2    0    0  0.15826187220E+02 -0.42977395738E+01  0.88652424670E+03  0.88673230388E+03  0.10000000000E+02 0.  1.
</event>
<event>
 5    1  0.1218060E-008  0.3886436E+03  0.7957747E-01  0.3414365E+00
         13   -1    0    0    0    0  0.00000000000E+00  0.00000000000E+00  0.14999999963E+04  0.15000000000E+04  0.10566000000E+00 0. -1.
        994   -1    0    0    0    0 -0.00000000000E+00 -0.00000000000E+00  0.11368683772E-12  0.17120000000E+03  0.17120000000E+03 0.  0.
         13    1    1    2    0    0 -0.33249824799E+01 -0.19106734604E+02 -0.53505365750E+00  0.19401553087E+02  0.10566000000E+00 0. -1.
        994    1    1    2    0    0  0.41458733562E+01  0.16870469102E+02  0.22289037219E+02  0.17351669134E+03  0.17120000000E+03 0.  0.
        998    1    1    2    0    0 -0.82089087634E+00  0.22362655020E+01  0.14782460127E+04  0.14782817556E+04  0.10000000000E+02 0. -1.
</event>
<event>
 5    1  0.1218060E-008  0.3749632E+03  0.7957747E-01  0.3473387E+00
         13   -1    0    0    0    0  0.00000000000E+00  0.00000000000E+00  0.14999999963E+04  0.15000000000E+04  0.10566000000E+00 0.  1.
        994   -1    0    0    0    0 -0.00000000000E+00 -0.00000000000E+00  0.11368683772E-12  0.17120000000E+03  0.17120000000E+03 0.  0.
         13    1    1    2    0    0 -0.17234218883E+02 -0.10819195763E+02  0.29633940696E+02  0.35947947127E+02  0.10566000000E+00 0.  1.
        994    1    1    2    0    0  0.80402993128E+01 -0.23753501639E+02  0.88384818920E+01  0.17325251518E+03  0.17120000000E+03 0.  0.
        998    1    1    2    0    0  0.91939195701E+01  0.34572697402E+02  0.14615275737E+04  0.14619995377E+04  0.10000000000E+02 0.  1.
</event>
<event>
 5    1  0.1218060E-008  0.3848337E+03  0.7957747E-01  0.3430378E+00
         13   -1    0    0    0    0  0.00000000000E+00  0.00000000000E+00  0.14999999963E+04  0.15000000000E+04  0.10566000000E+00 0. -1.
        994   -1    0    0    0    0 -0.00000000000E+00 -0.00000000000E+00  0.11368683772E-12  0.17120000000E+03  0.17120000000E+03 0.  0.
         13    1    1    2    0    0  0.10598495565E+02 -0.86254908833E+00  0.34982440926E+02  0.36563020066E+02  0.10566000000E+00 0. -1.
        994    1    1    2    0    0  0.67718359093E+01 -0.25102471162E+01  0.18843667062E+01  0.17136262702E+03  0.17120000000E+03 0.  0.
        998    1    1    2    0    0 -0.17370331474E+02  0.33727962045E+01  0.14631331886E+04  0.14632743529E+04  0.10000000000E+02 0. -1.
</event>
<event>
 5    1  0.1218060E-008  0.3740877E+03  0.7957747E-01  0.3477313E+00
         13   -1    0    0    0    0  0.00000000000E+00  0.00000000000E+00  0.14999999963E+04  0.15000000000E+04  0.10566000000E+00 0. -1.
        994   -1    0    0    0    0 -0.00000000000E+00 -0.00000000000E+00  0.11368683772E-12  0.17120000000E+03  0.17120000000E+03 0.  0.
         13    1    1    2    0    0  0.13410590916E+02 -0.81090376353E+01  0.14365958409E+02  0.21260112067E+02  0.10566000000E+00 0. -1.
        994    1    1    2    0    0  0.99412979216E+01  0.17836024126E+02  0.85709431928E+01  0.17262634280E+03  0.17120000000E+03 0.  0.
        998    1    1    2    0    0 -0.23351888837E+02 -0.97269864905E+01  0.14770630947E+04  0.14773135451E+04  0.10000000000E+02 0. -1.
</event>
<event>
 5    1  0.1218060E-008  0.3770119E+03  0.7957747E-01  0.3464274E+00
         13   -1    0    0    0    0  0.00000000000E+00  0.00000000000E+00  0.14999999963E+04  0.15000000000E+04  0.10566000000E+00 0.  1.
        994   -1    0    0    0    0 -0.00000000000E+00 -0.00000000000E+00  0.11368683772E-12  0.17120000000E+03  0.17120000000E+03 0.  0.
         13    1    1    2    0    0  0.99284500989E+01 -0.21298595009E+02  0.46932805894E+02  0.52487176565E+02  0.10566000000E+00 0.  1.
        994    1    1    2    0    0  0.36659425838E+02  0.32220100923E+02  0.13734321509E+02  0.17855004899E+03  0.17120000000E+03 0.  0.
        998    1    1    2    0    0 -0.46587875937E+02 -0.10921505914E+02  0.14393328689E+04  0.14401627744E+04  0.10000000000E+02 0.  1.
</event>
<event>
 5    1  0.1218060E-008  0.3811817E+03  0.7957747E-01  0.3446029E+00
         13   -1    0    0    0    0  0.00000000000E+00  0.00000000000E+00  0.14999999963E+04  0.15000000000E+04  0.10566000000E+00 0.  1.
        994   -1    0    0    0    0 -0.00000000000E+00 -0.00000000000E+00  0.11368683772E-12  0.17120000000E+03  0.17120000000E+03 0.  0.
         13    1    1    2    0    0  0.68028537044E+01 -0.37731586502E+02  0.16072643471E+03  0.16523604152E+03  0.10566000000E+00 0.  1.
        994    1    1    2    0    0  0.36528097760E+01  0.61314293123E+02  0.16204461354E+02  0.18260561363E+03  0.17120000000E+03 0.  0.
        998    1    1    2    0    0 -0.10455663480E+02 -0.23582706621E+02  0.13230691002E+04  0.13233583449E+04  0.10000000000E+02 0.  1.
</event>
<event>
 5    1  0.1218060E-008  0.3848095E+03  0.7957747E-01  0.3430481E+00
         13   -1    0    0    0    0  0.00000000000E+00  0.00000000000E+00  0.14999999963E+04  0.15000000000E+04  0.10566000000E+00 0. -1.
        994   -1    0    0    0    0 -0.00000000000E+00 -0.00000000000E+00  0.11368683772E-12  0.17120000000E+03  0.17120000000E+03 0.  0.
         13    1    1    2    0    0  0.10710654989E+02  0.69071544357E+00  0.31297950670E+02  0.33087280008E+02  0.10566000000E+00 0. -1.
        994    1    1    2    0    0 -0.19687752595E+02 -0.97199756403E+01  0.33127641791E+01  0.17263400573E+03  0.17120000000E+03 0.  0.
        998    1    1    2    0    0  0.89770976055E+01  0.90292601967E+01  0.14653892814E+04  0.14654787143E+04  0.10000000000E+02 0. -1.
</event>
<event>
 5    1  0.1218060E-008  0.3789608E+03  0.7957747E-01  0.3455696E+00
         13   -1    0    0    0    0  0.00000000000E+00  0.00000000000E+00  0.14999999963E+04  0.15000000000E+04  0.10566000000E+00 0. -1.
        994   -1    0    0    0    0 -0.00000000000E+00 -0.00000000000E+00  0.11368683772E-12  0.17120000000E+03  0.17120000000E+03 0.  0.
         13    1    1    2    0    0  0.70963549404E+00 -0.36515629762E+02  0.20571519765E+03  0.20893216245E+03  0.10566000000E+00 0. -1.
        994    1    1    2    0    0 -0.34766854418E+01 -0.27822365490E+02  0.73003016534E+01  0.17363440260E+03  0.17120000000E+03 0.  0.
        998    1    1    2    0    0  0.27670499478E+01  0.64337995251E+02  0.12869844970E+04  0.12886334349E+04  0.10000000000E+02 0. -1.
</event>
<event>
 5    1  0.1218060E-008  0.3812535E+03  0.7957747E-01  0.3445719E+00
         13   -1    0    0    0    0  0.00000000000E+00  0.00000000000E+00  0.14999999963E+04  0.15000000000E+04  0.10566000000E+00 0.  1.
        994   -1    0    0    0    0 -0.00000000000E+00 -0.00000000000E+00  0.11368683772E-12  0.17120000000E+03  0.17120000000E+03 0.  0.
         13    1    1    2    0    0  0.28561950195E+02 -0.92935719632E+01  0.14219864567E+03  0.14533623593E+03  0.10566000000E+00 0.  1.
        994    1    1    2    0    0  0.23869119685E+01  0.14281928199E+02  0.42000607592E+01  0.17186259434E+03  0.17120000000E+03 0.  0.
        998    1    1    2    0    0 -0.30948862163E+02 -0.49883562357E+01  0.13536012899E+04  0.13540011697E+04  0.10000000000E+02 0.  1.
</event>
<event>
 5    1  0.1218060E-008  0.3811119E+03  0.7957747E-01  0.3446331E+00
         13   -1    0    0    0    0  0.00000000000E+00  0.00000000000E+00  0.14999999963E+04  0.15000000000E+04  0.10566000000E+00 0.  1.
        994   -1    0    0    0    0 -0.00000000000E+00 -0.00000000000E+00  0.11368683772E-12  0.17120000000E+03  0.17120000000E+03 0.  0.
         13    1    1    2    0    0 -0.29156841578E+02 -0.15866512335E+02  0.18566190707E+03  0.18860599811E+03  0.10566000000E+00 0.  1.
        994    1    1    2    0    0 -0.32350991542E+01 -0.49398470982E+01  0.36890420113E+01  0.17134152149E+03  0.17120000000E+03 0.  0.
        998    1    1    2    0    0  0.32391940732E+02  0.20806359433E+02  0.13106490472E+04  0.13112524804E+04  0.10000000000E+02 0.  1.
</event>
<event>
 5    1  0.1218060E-008  0.3718533E+03  0.7957747E-01  0.3487417E+00
         13   -1    0    0    0    0  0.00000000000E+00  0.00000000000E+00  0.14999999963E+04  0.15000000000E+04  0.10566000000E+00 0. -1.
        994   -1    0    0    0    0 -0.00000000000E+00 -0.00000000000E+00  0.11368683772E-12  0.17120000000E+03  0.17120000000E+03 0.  0.
         13    1    1    2    0    0  0.16245284387E+02  0.18219821333E+02  0.32301565101E+02  0.40487941739E+02  0.10566000000E+00 0. -1.
        994    1    1    2    0    0 -0.48783539201E+01 -0.21120293290E+02  0.99195492746E+01  0.17285167799E+03  0.17120000000E+03 0.  0.
        998    1    1    2    0    0 -0.11366930467E+02  0.29004719566E+01  0.14577788819E+04  0.14578603803E+04  0.10000000000E+02 0. -1.
</event>
<event>
 5    1  0.1218060E-008  0.3833039E+03  0.7957747E-01  0.3436898E+00
         13   -1    0    0    0    0  0.00000000000E+00  0.00000000000E+00  0.14999999963E+04  0.15000000000E+04  0.10566000000E+00 0. -1.
        994   -1    0    0    0    0 -0.00000000000E+00 -0.00000000000E+00  0.11368683772E-12  0.17120000000E+03  0.17120000000E+03 0.  0.
         13    1    1    2    0    0 -0.12676474985E+02  0.22010400415E+02  0.12511084185E+03  0.12766316876E+03  0.10566000000E+00 0. -1.
        994    1    1    2    0    0  0.42865784624E+01 -0.21158902420E+02  0.40173191178E+01  0.17260258619E+03  0.17120000000E+03 0.  0.
        998    1    1    2    0    0  0.83898965223E+01 -0.85149799577E+00  0.13708718353E+04  0.13709342451E+04  0.10000000000E+02 0. -1.
</event>
<event>
 5    1  0.1218060E-008  0.3857344E+03  0.7957747E-01  0.3426563E+00
         13   -1    0    0    0    0  0.00000000000E+00  0.00000000000E+00  0.14999999963E+04  0.15000000000E+04  0.10566000000E+00 0.  1.
        994   -1    0    0    0    0 -0.00000000000E+00 -0.00000000000E+00  0.11368683772E-12  0.17120000000E+03  0.17120000000E+03 0.  0.
         13    1    1    2    0    0 -0.15452937725E+02  0.24709171673E+01  0.94130085920E+02  0.95422130323E+02  0.10566000000E+00 0.  1.
        994    1    1    2    0    0  0.13753422115E+02 -0.35483548698E+01  0.19281215992E+01  0.17179902530E+03  0.17120000000E+03 0.  0.
        998    1    1    2    0    0  0.16995156099E+01  0.10774377025E+01  0.14039417888E+04  0.14039788444E+04  0.10000000000E+02 0.  1.
</event>
<event>
 5    1  0.1218060E-008  0.3813434E+03  0.7957747E-01  0.3445330E+00
         13   -1    0    0    0    0  0.00000000000E+00  0.00000000000E+00  0.14999999963E+04  0.15000000000E+04  0.10566000000E+00 0. -1.
        994   -1    0    0    0    0 -0.00000000000E+00 -0.00000000000E+00  0.11368683772E-12  0.17120000000E+03  0.17120000000E+03 0.  0.
         13    1    1    2    0    0  0.30171337513E+02 -0.16938856251E+02  0.16119190084E+03  0.16486380597E+03  0.10566000000E+00 0. -1.
        994    1    1    2    0    0 -0.22662832677E+02  0.20032794686E+02  0.65074646213E+01  0.17397328514E+03  0.17120000000E+03 0.  0.
        998    1    1    2    0    0 -0.75085048362E+01 -0.30939384356E+01  0.13323006308E+04  0.13323629089E+04  0.10000000000E+02 0. -1.
</event>
<event>
 5    1  0.1218060E-008  0.3839913E+03  0.7957747E-01  0.3433962E+00
         13   -1    0    0    0    0  0.00000000000E+00  0.00000000000E+00  0.14999999963E+04  0.15000000000E+04  0.10566000000E+00 0. -1.
        994   -1    0    0    0    0 -0.00000000000E+00 -0.00000000000E+00  0.11368683772E-12  0.17120000000E+03  0.17120000000E+03 0.  0.
         13    1    1    2    0    0  0.77558551694E+01  0.79396389186E+01  0.32052536975E+02  0.33920015421E+02  0.10566000000E+00 0. -1.
        994    1    1    2    0    0  0.52533952181E+02 -0.21182453263E+02  0.12790847501E+02  0.18078041442E+03  0.17120000000E+03 0.  0.
        998    1    1    2    0    0 -0.60289807351E+02  0.13242814345E+02  0.14551566118E+04  0.14564995702E+04  0.10000000000E+02 0. -1.
</event>
<event>
 5    1  0.1218060E-008  0.3837021E+03  0.7957747E-01  0.3435196E+00
         13   -1    0    0    0    0  0.00000000000E+00  0.00000000000E+00  0.14999999963E+04  0.15000000000E+04  0.10566000000E+00 0.  1.
        994   -1    0    0    0    0 -0.00000000000E+00 -0.00000000000E+00  0.11368683772E-12  0.17120000000E+03  0.17120000000E+03 0.  0.
         13    1    1    2    0    0  0.17291361065E+02 -0.14271879668E+02  0.10763030730E+03  0.10994076555E+03  0.10566000000E+00 0.  1.
        994    1    1    2    0    0 -0.15995603201E+02  0.72107639975E+01  0.32932661453E+01  0.17212826625E+03  0.17120000000E+03 0.  0.
        998    1    1    2    0    0 -0.12957578633E+01  0.70611156701E+01  0.13890764228E+04  0.13891309682E+04  0.10000000000E+02 0.  1.
</event>
<event>
 5    1  0.1218060E-008  0.3693785E+03  0.7957747E-01  0.3498752E+00
         13   -1    0    0    0    0  0.00000000000E+00  0.00000000000E+00  0.14999999963E+04  0.15000000000E+04  0.10566000000E+00 0.  1.
        994   -1    0    0    0    0 -0.00000000000E+00 -0.00000000000E+00  0.11368683772E-12  0.17120000000E+03  0.17120000000E+03 0.  0.
         13    1    1    2    0    0  0.18208061136E+02 -0.16856236353E+02  0.28743166090E+02  0.37971659896E+02  0.10566000000E+00 0.  1.
        994    1    1    2    0    0 -0.15381332846E+02 -0.40929766918E+01  0.10472597715E+02  0.17225693937E+03  0.17120000000E+03 0.  0.
        998    1    1    2    0    0 -0.28267282901E+01  0.20949213045E+02  0.14607842325E+04  0.14609714007E+04  0.10000000000E+02 0.  1.
</event>
<event>
 5    1  0.1218060E-008  0.3837229E+03  0.7957747E-01  0.3435107E+00
         13   -1    0    0    0    0  0.00000000000E+00  0.00000000000E+00  0.14999999963E+04  0.15000000000E+04  0.10566000000E+00 0. -1.
        994   -1    0    0    0    0 -0.00000000000E+00 -0.00000000000E+00  0.11368683772E-12  0.17120000000E+03  0.17120000000E+03 0.  0.
         13    1    1    2    0    0  0.69446491826E+01  0.16224194287E+02  0.75128052037E+02  0.77173104120E+02  0.10566000000E+00 0. -1.
        994    1    1    2    0    0  0.73101641689E+01  0.21418575023E+01  0.24571799628E+01  0.17138700005E+03  0.17120000000E+03 0.  0.
        998    1    1    2    0    0 -0.14254813351E+02 -0.18366051789E+02  0.14224147643E+04  0.14226398958E+04  0.10000000000E+02 0. -1.
</event>
<event>
 5    1  0.1218060E-008  0.3822440E+03  0.7957747E-01  0.3441446E+00
         13   -1    0    0    0    0  0.00000000000E+00  0.00000000000E+00  0.14999999963E+04  0.15000000000E+04  0.10566000000E+00 0. -1.
        994   -1    0    0    0    0 -0.00000000000E+00 -0.00000000000E+00  0.11368683772E-12  0.17120000000E+03  0.17120000000E+03 0.  0.
         13    1    1    2    0    0  0.21816214107E+01  0.14109017626E+02  0.32398215157E+02  0.35404510443E+02  0.10566000000E+00 0. -1.
        994    1    1    2    0    0  0.24393929854E+01 -0.14078185790E+02  0.36823865888E+01  0.17183464704E+03  0.17120000000E+03 0.  0.
        998    1    1    2    0    0 -0.46210143961E+01 -0.30831835215E-01  0.14639193945E+04  0.14639608425E+04  0.10000000000E+02 0. -1.
</event>
<event>
 5    1  0.1218060E-008  0.3833079E+03  0.7957747E-01  0.3436880E+00
         13   -1    0    0    0    0  0.00000000000E+00  0.00000000000E+00  0.14999999963E+04  0.15000000000E+04  0.10566000000E+00 0.  1.
        994   -1    0    0    0    0 -0.00000000000E+00 -0.00000000000E+00  0.11368683772E-12  0.17120000000E+03  0.17120000000E+03 0.  0.
         13    1    1    2    0    0  0.13105434308E+01 -0.30346225086E+02  0.16347411327E+03  0.16627208959E+03  0.10566000000E+00 0.  1.
        994    1    1    2    0    0  0.67813615873E+01  0.34111175140E+02  0.64826222027E+01  0.17481711451E+03  0.17120000000E+03 0.  0.
        998    1    1    2    0    0 -0.80919050182E+01 -0.37649500538E+01  0.13300432608E+04  0.13301107959E+04  0.10000000000E+02 0.  1.
</event>
<event>
 5    1  0.1218060E-008  0.3839117E+03  0.7957747E-01  0.3434301E+00
         13   -1    0    0    0    0  0.00000000000E+00  0.00000000000E+00  0.14999999963E+04  0.15000000000E+04  0.10566000000E+00 0.  1.
        994   -1    0    0    0    0 -0.00000000000E+00 -0.00000000000E+00  0.11368683772E-12  0.17120000000E+03  0.17120000000E+03 0.  0.
         13    1    1    2    0    0 -0.16439566622E+02 -0.10327395371E+02  0.81919413795E+02  0.84188573847E+02  0.10566000000E+00 0.  1.
        994    1    1    2    0    0  0.18624817384E+02  0.96222774476E+01  0.36231484992E+01  0.17251677962E+03  0.17120000000E+03 0.  0.
        998    1    1    2    0    0 -0.21852507624E+01  0.70511792352E+00  0.14144574340E+04  0.14144946465E+04  0.10000000000E+02 0.  1.
</event>
<event>
 5    1  0.1218060E-008  0.3853606E+03  0.7957747E-01  0.3428144E+00
         13   -1    0    0    0    0  0.00000000000E+00  0.00000000000E+00  0.14999999963E+04  0.15000000000E+04  0.10566000000E+00 0.  1.
        994   -1    0    0    0    0 -0.00000000000E+00 -0.00000000000E+00  0.11368683772E-12  0.17120000000E+03  0.17120000000E+03 0.  0.
         13    1    1    2    0    0  0.68450763373E+01  0.12018734079E+02  0.65417052134E+02  0.66863345062E+02  0.10566000000E+00 0.  1.
        994    1    1    2    0    0 -0.54506106940E+01 -0.93341557758E+01  0.18350817483E+01  0.17155070139E+03  0.17120000000E+03 0.  0.
        998    1    1    2    0    0 -0.13944656434E+01 -0.26845783036E+01  0.14327478624E+04  0.14327859536E+04  0.10000000000E+02 0.  1.
</event>
<event>
 5    1  0.1218060E-008  0.3792417E+03  0.7957747E-01  0.3454467E+00
         13   -1    0    0    0    0  0.00000000000E+00  0.00000000000E+00  0.14999999963E+04  0.15000000000E+04  0.10566000000E+00 0.  1.
        994   -1    0    0    0    0 -0.00000000000E+00 -0.00000000000E+00  0.11368683772E-12  0.17120000000E+03  0.17120000000E+03 0.  0.
         13    1    1    2    0    0 -0.10200256450E+02  0.10513440398E+02  0.21316602297E+02  0.25864770600E+02  0.10566000000E+00 0.  1.
        994    1    1    2    0    0  0.16277061038E+02 -0.11728962347E+02  0.58665019285E+01  0.17247135159E+03  0.17120000000E+03 0.  0.
        998    1    1    2    0    0 -0.60768045885E+01  0.12155219491E+01  0.14728168921E+04  0.14728638778E+04  0.10000000000E+02 0.  1.
</event>
<event>
 5    1  0.1218060E-008  0.3722243E+03  0.7957747E-01  0.3485730E+00
         13   -1    0    0    0    0  0.00000000000E+00  0.00000000000E+00  0.14999999963E+04  0.15000000000E+04  0.10566000000E+00 0.  1.
        994   -1    0    0    0    0 -0.00000000000E+00 -0.00000000000E+00  0.11368683772E-12  0.17120000000E+03  0.17120000000E+03 0.  0.
         13    1    1    2    0    0 -0.31005060837E+02  0.54357988556E+02  0.37190313447E+03  0.37713135286E+03  0.10566000000E+00 0.  1.
        994    1    1    2    0    0 -0.35309034602E+02 -0.42478419529E+01  0.12463334837E+02  0.17529845065E+03  0.17120000000E+03 0.  0.
        998    1    1    2    0    0  0.66314095439E+02 -0.50110146603E+02  0.11156335270E+04  0.11187701965E+04  0.10000000000E+02 0.  1.
</event>
<event>
 5    1  0.1218060E-008  0.3686518E+03  0.7957747E-01  0.3502110E+00
         13   -1    0    0    0    0  0.00000000000E+00  0.00000000000E+00  0.14999999963E+04  0.15000000000E+04  0.10566000000E+00 0.  1.
        994   -1    0    0    0    0 -0.00000000000E+00 -0.00000000000E+00  0.11368683772E-12  0.17120000000E+03  0.17120000000E+03 0.  0.
         13    1    1    2    0    0 -0.77426038900E+02  0.21842727880E+02  0.21808653072E+03  0.23245137622E+03  0.10566000000E+00 0.  1.
        994    1    1    2    0    0  0.13740428995E+03  0.45222445557E+02  0.87019811106E+02  0.24043064697E+03  0.17120000000E+03 0.  0.
        998    1    1    2    0    0 -0.59978251051E+02 -0.67065173437E+02  0.11948936544E+04  0.11983179768E+04  0.10000000000E+02 0.  1.
</event>
<event>
 5    1  0.1218060E-008  0.3649231E+03  0.7957747E-01  0.3519554E+00
         13   -1    0    0    0    0  0.00000000000E+00  0.00000000000E+00  0.14999999963E+04  0.15000000000E+04  0.10566000000E+00 0. -1.
        994   -1    0    0    0    0 -0.00000000000E+00 -0.00000000000E+00  0.11368683772E-12  0.17120000000E+03  0.17120000000E+03 0.  0.
         13    1    1    2    0    0  0.10673818592E+03  0.24060565860E+03  0.10140114147E+04  0.10476179092E+04  0.10566000000E+00 0. -1.
        994    1    1    2    0    0 -0.10661933806E+03 -0.23593426059E+03  0.28221116065E+03  0.41950594485E+03  0.17120000000E+03 0.  0.
        998    1    1    2    0    0 -0.11884786085E+00 -0.46713980133E+01  0.20377742089E+03  0.20407614595E+03  0.10000000000E+02 0.  0.
</event>
<event>
 5    1  0.1218060E-008  0.3844405E+03  0.7957747E-01  0.3432048E+00
         13   -1    0    0    0    0  0.00000000000E+00  0.00000000000E+00  0.14999999963E+04  0.15000000000E+04  0.10566000000E+00 0.  1.
        994   -1    0    0    0    0 -0.00000000000E+00 -0.00000000000E+00  0.11368683772E-12  0.17120000000E+03  0.17120000000E+03 0.  0.
         13    1    1    2    0    0 -0.10387206297E+02  0.82780135357E+01  0.47963380566E+02  0.49768630703E+02  0.10566000000E+00 0.  1.
        994    1    1    2    0    0  0.67623408941E+01  0.78144730356E+01  0.22600823232E+01  0.17152650878E+03  0.17120000000E+03 0.  0.
        998    1    1    2    0    0  0.36248654033E+01 -0.16092486571E+02  0.14497765334E+04  0.14499048605E+04  0.10000000000E+02 0.  1.
</event>
<event>
 5    1  0.1218060E-008  0.3836201E+03  0.7957747E-01  0.3435546E+00
         13   -1    0    0    0    0  0.00000000000E+00  0.00000000000E+00  0.14999999963E+04  0.15000000000E+04  0.10566000000E+00 0. -1.
        994   -1    0    0    0    0 -0.00000000000E+00 -0.00000000000E+00  0.11368683772E-12  0.17120000000E+03  0.17120000000E+03 0.  0.
         13    1    1    2    0    0 -0.10416582603E+02  0.39071527419E+01  0.25231106820E+02  0.27575187236E+02  0.10566000000E+00 0. -1.
        994    1    1    2    0    0  0.13636910073E+02 -0.85692356744E+01  0.31741712286E+01  0.17198521006E+03  0.17120000000E+03 0.  0.
        998    1    1    2    0    0 -0.32203274705E+01  0.46620829325E+01  0.14715947182E+04  0.14716396027E+04  0.10000000000E+02 0. -1.
</event>
<event>
 5    1  0.1218060E-008  0.3775905E+03  0.7957747E-01  0.3461718E+00
         13   -1    0    0    0    0  0.00000000000E+00  0.00000000000E+00  0.14999999963E+04  0.15000000000E+04  0.10566000000E+00 0.  1.
        994   -1    0    0    0    0 -0.00000000000E+00 -0.00000000000E+00  0.11368683772E-12  0.17120000000E+03  0.17120000000E+03 0.  0.
         13    1    1    2    0    0  0.66707133001E+02  0.38604422152E+02  0.33965464428E+03  0.34828929290E+03  0.10566000000E+00 0.  1.
        994    1    1    2    0    0 -0.88923405079E+02 -0.50308377319E+02  0.41378046472E+02  0.20361701189E+03  0.17120000000E+03 0.  0.
        998    1    1    2    0    0  0.22216272077E+02  0.11703955167E+02  0.11189673055E+04  0.11192936952E+04  0.10000000000E+02 0.  1.
</event>
<event>
 5    1  0.1654936E-008  0.3862132E+03  0.7957747E-01  0.3424543E+00
         13   -1    0    0    0    0  0.00000000000E+00  0.00000000000E+00  0.14999999963E+04  0.15000000000E+04  0.10566000000E+00 0. -1.
        994   -1    0    0    0    0 -0.00000000000E+00 -0.00000000000E+00  0.11368683772E-12  0.17120000000E+03  0.17120000000E+03 0.  0.
         13    1    1    2    0    0 -0.69883076829E+01  0.73652255663E+01  0.49614168901E+02  0.50642471422E+02  0.10566000000E+00 0. -1.
        994    1    1    2    0    0  0.61528422782E+01 -0.86325661906E+01  0.13971853187E+01  0.17153358503E+03  0.17120000000E+03 0.  0.
        998    1    1    2    0    0  0.83546540465E+00  0.12673406243E+01  0.14489886421E+04  0.14490239435E+04  0.10000000000E+02 0. -1.
</event>
<event>
 5    1  0.1218060E-008  0.3725760E+03  0.7957747E-01  0.3484135E+00
         13   -1    0    0    0    0  0.00000000000E+00  0.00000000000E+00  0.14999999963E+04  0.15000000000E+04  0.10566000000E+00 0. -1.
        994   -1    0    0    0    0 -0.00000000000E+00 -0.00000000000E+00  0.11368683772E-12  0.17120000000E+03  0.17120000000E+03 0.  0.
         13    1    1    2    0    0  0.50428606200E+02  0.64337787238E+02  0.28791839306E+03  0.29929819146E+03  0.10566000000E+00 0. -1.
        994    1    1    2    0    0 -0.65355598822E+02 -0.80779528028E+02  0.45889629543E+02  0.20545555370E+03  0.17120000000E+03 0.  0.
        998    1    1    2    0    0  0.14926992622E+02  0.16441740790E+02  0.11661919737E+04  0.11664462548E+04  0.10000000000E+02 0. -1.
</event>
<event>
 5    1  0.1218060E-008  0.3798095E+03  0.7957747E-01  0.3451989E+00
         13   -1    0    0    0    0  0.00000000000E+00  0.00000000000E+00  0.14999999963E+04  0.15000000000E+04  0.10566000000E+00 0. -1.
        994   -1    0    0    0    0 -0.00000000000E+00 -0.00000000000E+00  0.11368683772E-12  0.17120000000E+03  0.17120000000E+03 0.  0.
         13    1    1    2    0    0  0.25548828611E+01 -0.41267047979E+02  0.21068711247E+03  0.21470576890E+03  0.10566000000E+00 0. -1.
        994    1    1    2    0    0  0.18124541174E+02  0.19124066131E+02  0.65550321679E+01  0.17333965889E+03  0.17120000000E+03 0.  0.
        998    1    1    2    0    0 -0.20679424035E+02  0.22142981849E+02  0.12827578516E+04  0.12831545722E+04  0.10000000000E+02 0. -1.
</event>
<event>
 5    1  0.1218060E-008  0.3920743E+03  0.7957747E-01  0.3400213E+00
         13   -1    0    0    0    0  0.00000000000E+00  0.00000000000E+00  0.14999999963E+04  0.15000000000E+04  0.10566000000E+00 0. -1.
        994   -1    0    0    0    0 -0.00000000000E+00 -0.00000000000E+00  0.11368683772E-12  0.17120000000E+03  0.17120000000E+03 0.  0.
         13    1    1    2    0    0  0.19208727494E+02  0.14676750283E+02  0.25555272836E+01  0.24308930346E+02  0.10566000000E+00 0. -1.
        994    1    1    2    0    0 -0.71351546880E+00 -0.34725058496E+02  0.27712692568E+02  0.17687219149E+03  0.17120000000E+03 0.  0.
        998    1    1    2    0    0 -0.18495212025E+02  0.20048308213E+02  0.14697317764E+04  0.14700188782E+04  0.10000000000E+02 0. -1.
</event>
<event>
 5    1  0.1218060E-008  0.4052907E+03  0.7957747E-01  0.3347926E+00
         13   -1    0    0    0    0  0.00000000000E+00  0.00000000000E+00  0.14999999963E+04  0.15000000000E+04  0.10566000000E+00 0.  1.
        994   -1    0    0    0    0 -0.00000000000E+00 -0.00000000000E+00  0.11368683772E-12  0.17120000000E+03  0.17120000000E+03 0.  0.
         13    1    1    2    0    0  0.63459078947E+02  0.25046426302E+02  0.75282437445E+02  0.10159643066E+03  0.10566000000E+00 0.  1.
        994    1    1    2    0    0 -0.94524294152E+01  0.38142233091E+02  0.37181726998E+02  0.17954414273E+03  0.17120000000E+03 0.  0.
        998    1    1    2    0    0 -0.54006649532E+02 -0.63188659393E+02  0.13875358318E+04  0.13900594266E+04  0.10000000000E+02 0.  1.
</event>
<event>
 5    1  0.1218060E-008  0.3721595E+03  0.7957747E-01  0.3486025E+00
         13   -1    0    0    0    0  0.00000000000E+00  0.00000000000E+00  0.14999999963E+04  0.15000000000E+04  0.10566000000E+00 0. -1.
        994   -1    0    0    0    0 -0.00000000000E+00 -0.00000000000E+00  0.11368683772E-12  0.17120000000E+03  0.17120000000E+03 0.  0.
         13    1    1    2    0    0 -0.30271121363E+02 -0.24726734721E+02  0.64399332382E+02  0.75332843925E+02  0.10566000000E+00 0. -1.
        994    1    1    2    0    0  0.64984176573E+01 -0.16985089122E+02  0.13251084000E+02  0.17267238897E+03  0.17120000000E+03 0.  0.
        998    1    1    2    0    0  0.23772703705E+02  0.41711823843E+02  0.14223495799E+04  0.14231947671E+04  0.10000000000E+02 0. -1.
</event>
<event>
 5    1  0.1218060E-008  0.3797236E+03  0.7957747E-01  0.3452363E+00
         13   -1    0    0    0    0  0.00000000000E+00  0.00000000000E+00  0.14999999963E+04  0.15000000000E+04  0.10566000000E+00 0. -1.
        994   -1    0    0    0    0 -0.00000000000E+00 -0.00000000000E+00  0.11368683772E-12  0.17120000000E+03  0.17120000000E+03 0.  0.
         13    1    1    2    0    0  0.19700539456E+02 -0.22293213426E+02  0.11096071502E+03  0.11487989407E+03  0.10566000000E+00 0. -1.
        994    1    1    2    0    0 -0.54053911845E+01 -0.12988819064E+01  0.43761534974E+01  0.17134612942E+03  0.17120000000E+03 0.  0.
        998    1    1    2    0    0 -0.14295148272E+02  0.23592095332E+02  0.13846631278E+04  0.13849739765E+04  0.10000000000E+02 0. -1.
</event>
<event>
 5    1  0.1218060E-008  0.3794461E+03  0.7957747E-01  0.3453574E+00
         13   -1    0    0    0    0  0.00000000000E+00  0.00000000000E+00  0.14999999963E+04  0.15000000000E+04  0.10566000000E+00 0. -1.
        994   -1    0    0    0    0 -0.00000000000E+00 -0.00000000000E+00  0.11368683772E-12  0.17120000000E+03  0.17120000000E+03 0.  0.
         13    1    1    2    0    0 -0.35210302701E+02 -0.45159915024E+02  0.31035434090E+03  0.31559311054E+03  0.10566000000E+00 0. -1.
        994    1    1    2    0    0  0.49998510672E+02  0.28262260038E+02  0.15540508049E+02  0.18124445868E+03  0.17120000000E+03 0.  0.
        998    1    1    2    0    0 -0.14788207972E+02  0.16897654987E+02  0.11741051473E+04  0.11743624308E+04  0.10000000000E+02 0. -1.
</event>
<event>
 5    1  0.1218060E-008  0.3826409E+03  0.7957747E-01  0.3439739E+00
         13   -1    0    0    0    0  0.00000000000E+00  0.00000000000E+00  0.14999999963E+04  0.15000000000E+04  0.10566000000E+00 0. -1.
        994   -1    0    0    0    0 -0.00000000000E+00 -0.00000000000E+00  0.11368683772E-12  0.17120000000E+03  0.17120000000E+03 0.  0.
         13    1    1    2    0    0  0.15535920963E+02  0.16613236773E+01  0.42287845325E+02  0.45082123539E+02  0.10566000000E+00 0. -1.
        994    1    1    2    0    0 -0.12970525798E+02  0.70128483856E+01  0.35267780274E+01  0.17186998791E+03  0.17120000000E+03 0.  0.
        998    1    1    2    0    0 -0.25653951645E+01 -0.86741720630E+01  0.14541853729E+04  0.14542478885E+04  0.10000000000E+02 0. -1.
</event>
<event>
 5    1  0.1218060E-008  0.3821453E+03  0.7957747E-01  0.3441870E+00
         13   -1    0    0    0    0  0.00000000000E+00  0.00000000000E+00  0.14999999963E+04  0.15000000000E+04  0.10566000000E+00 0. -1.
        994   -1    0    0    0    0 -0.00000000000E+00 -0.00000000000E+00  0.11368683772E-12  0.17120000000E+03  0.17120000000E+03 0.  0.
         13    1    1    2    0    0 -0.11663470128E+02  0.31654308694E+02  0.18019096025E+03  0.18332164388E+03  0.10566000000E+00 0. -1.
        994    1    1    2    0    0  0.88482552779E+01 -0.21500955607E+02  0.48505823001E+01  0.17283966808E+03  0.17120000000E+03 0.  0.
        998    1    1    2    0    0  0.28152148505E+01 -0.10153353087E+02  0.13149584537E+04  0.13150386880E+04  0.10000000000E+02 0. -1.
</event>
<event>
 5    1  0.1218060E-008  0.3822213E+03  0.7957747E-01  0.3441543E+00
         13   -1    0    0    0    0  0.00000000000E+00  0.00000000000E+00  0.14999999963E+04  0.15000000000E+04  0.10566000000E+00 0.  1.
        994   -1    0    0    0    0 -0.00000000000E+00 -0.00000000000E+00  0.11368683772E-12  0.17120000000E+03  0.17120000000E+03 0.  0.
         13    1    1    2    0    0  0.58104851403E+01 -0.90838092038E+01  0.17708040721E+02  0.20733142488E+02  0.10566000000E+00 0.  1.
        994    1    1    2    0    0 -0.10692991772E+02  0.10791794085E+02  0.37823286183E+01  0.17191436503E+03  0.17120000000E+03 0.  0.
        998    1    1    2    0    0  0.48825066319E+01 -0.17079848809E+01  0.14785096269E+04  0.14785524925E+04  0.10000000000E+02 0.  1.
</event>
<event>
 5    1  0.1218060E-008  0.3816900E+03  0.7957747E-01  0.3443833E+00
         13   -1    0    0    0    0  0.00000000000E+00  0.00000000000E+00  0.14999999963E+04  0.15000000000E+04  0.10566000000E+00 0. -1.
        994   -1    0    0    0    0 -0.00000000000E+00 -0.00000000000E+00  0.11368683772E-12  0.17120000000E+03  0.17120000000E+03 0.  0.
         13    1    1    2    0    0 -0.18802493615E+02 -0.32396225313E+01  0.55176169707E+02  0.58381930319E+02  0.10566000000E+00 0. -1.
        994    1    1    2    0    0  0.84753754272E+01  0.25076520002E+01  0.35422264000E+01  0.17146459598E+03  0.17120000000E+03 0.  0.
        998    1    1    2    0    0  0.10327118187E+02  0.73197053104E+00  0.14412816002E+04  0.14413534737E+04  0.10000000000E+02 0. -1.
</event>
<event>
 5    1  0.1218060E-008  0.3856099E+03  0.7957747E-01  0.3427090E+00
         13   -1    0    0    0    0  0.00000000000E+00  0.00000000000E+00  0.14999999963E+04  0.15000000000E+04  0.10566000000E+00 0.  1.
        994   -1    0    0    0    0 -0.00000000000E+00 -0.00000000000E+00  0.11368683772E-12  0.17120000000E+03  0.17120000000E+03 0.  0.
         13    1    1    2    0    0  0.56047603998E+02  0.81570508922E+02  0.23376176574E+03  0.25384967230E+03  0.10566000000E+00 0.  1.
        994    1    1    2    0    0 -0.44031570006E+01 -0.86320623252E+02  0.47642430156E+02  0.19761042215E+03  0.17120000000E+03 0.  0.
        998    1    1    2    0    0 -0.51644446997E+02  0.47501143309E+01  0.12185958004E+04  0.12197399056E+04  0.10000000000E+02 0.  1.
</event>
<event>
 5    1  0.1218060E-008  0.3672909E+03  0.7957747E-01  0.3508435E+00
         13   -1    0    0    0    0  0.00000000000E+00  0.00000000000E+00  0.14999999963E+04  0.15000000000E+04  0.10566000000E+00 0.  1.
        994   -1    0    0    0    0 -0.00000000000E+00 -0.00000000000E+00  0.11368683772E-12  0.17120000000E+03  0.17120000000E+03 0.  0.
         13    1    1    2    0    0  0.29310085671E+03 -0.34741635448E+02  0.92336944904E+03  0.96939478233E+03  0.10566000000E+00 0.  1.
        994    1    1    2    0    0 -0.28858056020E+03  0.35315917881E+02  0.39348324224E+03  0.51832852102E+03  0.17120000000E+03 0.  0.
        998    1    1    2    0    0 -0.45202965064E+01 -0.57428243305E+00  0.18314730500E+03  0.18347669664E+03  0.10000000000E+02 0.  0.
</event>
<event>
 5    1  0.1218060E-008  0.3830456E+03  0.7957747E-01  0.3438004E+00
         13   -1    0    0    0    0  0.00000000000E+00  0.00000000000E+00  0.14999999963E+04  0.15000000000E+04  0.10566000000E+00 0.  1.
        994   -1    0    0    0    0 -0.00000000000E+00 -0.00000000000E+00  0.11368683772E-12  0.17120000000E+03  0.17120000000E+03 0.  0.
         13    1    1    2    0    0 -0.13688269693E+02  0.65771485232E+01  0.41415031422E+02  0.44111717283E+02  0.10566000000E+00 0.  1.
        994    1    1    2    0    0  0.20241382584E+02 -0.84390036434E+01  0.41969046260E+01  0.17264988954E+03  0.17120000000E+03 0.  0.
        998    1    1    2    0    0 -0.65531128906E+01  0.18618551201E+01  0.14543880602E+04  0.14544383932E+04  0.10000000000E+02 0.  1.
</event>
<event>
 5    1  0.1218060E-008  0.3853167E+03  0.7957747E-01  0.3428330E+00
         13   -1    0    0    0    0  0.00000000000E+00  0.00000000000E+00  0.14999999963E+04  0.15000000000E+04  0.10566000000E+00 0. -1.
        994   -1    0    0    0    0 -0.00000000000E+00 -0.00000000000E+00  0.11368683772E-12  0.17120000000E+03  0.17120000000E+03 0.  0.
         13    1    1    2    0    0 -0.16648935419E+01 -0.15783351205E+02  0.86079366605E+02  0.87530306551E+02  0.10566000000E+00 0. -1.
        994    1    1    2    0    0  0.13241178097E+01  0.97532607230E+01  0.17913235241E+01  0.17149206461E+03  0.17120000000E+03 0.  0.
        998    1    1    2    0    0  0.34077573216E+00  0.60300904821E+01  0.14121293061E+04  0.14121776288E+04  0.10000000000E+02 0. -1.
</event>
<event>
 5    1  0.1218060E-008  0.3819545E+03  0.7957747E-01  0.3442692E+00
         13   -1    0    0    0    0  0.00000000000E+00  0.00000000000E+00  0.14999999963E+04  0.15000000000E+04  0.10566000000E+00 0. -1.
        994   -1    0    0    0    0 -0.00000000000E+00 -0.00000000000E+00  0.11368683772E-12  0.17120000000E+03  0.17120000000E+03 0.  0.
         13    1    1    2    0    0  0.16331978196E+03  0.12060719858E+03  0.11187573688E+04  0.11370301267E+04  0.10566000000E+00 0. -1.
        994    1    1    2    0    0 -0.15807305158E+03 -0.12723415612E+03  0.15474965661E+03  0.30729874120E+03  0.17120000000E+03 0.  0.
        998    1    1    2    0    0 -0.52467303766E+01  0.66269575407E+01  0.22649297082E+03  0.22687113209E+03  0.10000000000E+02 0.  1.
</event>
<event>
 5    1  0.1218060E-008  0.3355667E+03  0.7957747E-01  0.3670835E+00
         13   -1    0    0    0    0  0.00000000000E+00  0.00000000000E+00  0.14999999963E+04  0.15000000000E+04  0.10566000000E+00 0.  1.
        994   -1    0    0    0    0 -0.00000000000E+00 -0.00000000000E+00  0.11368683772E-12  0.17120000000E+03  0.17120000000E+03 0.  0.
         13    1    1    2    0    0  0.15577401436E+03 -0.13170047083E+03  0.97741214628E+03  0.99847136785E+03  0.10566000000E+00 0.  1.
        994    1    1    2    0    0 -0.88086988223E+02  0.15373097864E+03  0.13985523988E+03  0.28330453475E+03  0.17120000000E+03 0.  0.
        998    1    1    2    0    0 -0.67687026141E+02 -0.22030507807E+02  0.38273261012E+03  0.38942409740E+03  0.10000000000E+02 0.  1.
</event>
<event>
 5    1  0.1218060E-008  0.3770364E+03  0.7957747E-01  0.3464165E+00
         13   -1    0    0    0    0  0.00000000000E+00  0.00000000000E+00  0.14999999963E+04  0.15000000000E+04  0.10566000000E+00 0.  1.
        994   -1    0    0    0    0 -0.00000000000E+00 -0.00000000000E+00  0.11368683772E-12  0.17120000000E+03  0.17120000000E+03 0.  0.
         13    1    1    2    0    0  0.54835893954E+01  0.10057543093E+02  0.90817640361E+01  0.14618944140E+02  0.10566000000E+00 0.  1.
        994    1    1    2    0    0 -0.27361323688E+01 -0.88856571969E+01  0.59285922860E+01  0.17155474208E+03  0.17120000000E+03 0.  0.
        998    1    1    2    0    0 -0.27474570266E+01 -0.11718858959E+01  0.14849896400E+04  0.14850263138E+04  0.10000000000E+02 0.  1.
</event>
<event>
 5    1  0.1218060E-008  0.3738499E+03  0.7957747E-01  0.3478383E+00
         13   -1    0    0    0    0  0.00000000000E+00  0.00000000000E+00  0.14999999963E+04  0.15000000000E+04  0.10566000000E+00 0. -1.
        994   -1    0    0    0    0 -0.00000000000E+00 -0.00000000000E+00  0.11368683772E-12  0.17120000000E+03  0.17120000000E+03 0.  0.
         13    1    1    2    0    0 -0.62840277647E+02 -0.75888416936E+02  0.47806325877E+03  0.48811109685E+03  0.10566000000E+00 0. -1.
        994    1    1    2    0    0  0.68184952903E+02  0.63127453169E+02  0.37332420121E+02  0.19833661472E+03  0.17120000000E+03 0.  0.
        998    1    1    2    0    0 -0.53446752563E+01  0.12760963767E+02  0.98460431739E+03  0.98475228843E+03  0.10000000000E+02 0. -1.
</event>
<event>
 5    1  0.1218060E-008  0.3791101E+03  0.7957747E-01  0.3455042E+00
         13   -1    0    0    0    0  0.00000000000E+00  0.00000000000E+00  0.14999999963E+04  0.15000000000E+04  0.10566000000E+00 0.  1.
        994   -1    0    0    0    0 -0.00000000000E+00 -0.00000000000E+00  0.11368683772E-12  0.17120000000E+03  0.17120000000E+03 0.  0.
         13    1    1    2    0    0  0.15998823034E+02  0.12379494120E+02  0.46285012886E+02  0.50512649851E+02  0.10566000000E+00 0.  1.
        994    1    1    2    0    0  0.43216814792E+01  0.82519550915E+01  0.48740029000E+01  0.17152249881E+03  0.17120000000E+03 0.  0.
        998    1    1    2    0    0 -0.20320504513E+02 -0.20631449212E+02  0.14488409805E+04  0.14491648513E+04  0.10000000000E+02 0.  1.
</event>
<event>
 5    1  0.1218060E-008  0.4200946E+03  0.7957747E-01  0.3293230E+00
         13   -1    0    0    0    0  0.00000000000E+00  0.00000000000E+00  0.14999999963E+04  0.15000000000E+04  0.10566000000E+00 0.  1.
        994   -1    0    0    0    0 -0.00000000000E+00 -0.00000000000E+00  0.11368683772E-12  0.17120000000E+03  0.17120000000E+03 0.  0.
         13    1    1    2    0    0  0.52512715893E+02  0.44310982475E+02  0.61773580111E+02  0.92396076010E+02  0.10566000000E+00 0.  1.
        994    1    1    2    0    0  0.91557478217E+02  0.15447597340E+02  0.78272611921E+02  0.20989864663E+03  0.17120000000E+03 0.  0.
        998    1    1    2    0    0 -0.14407019411E+03 -0.59758579815E+02  0.13599538042E+04  0.13689052774E+04  0.10000000000E+02 0.  1.
</event>
<event>
 5    1  0.1218060E-008  0.3857667E+03  0.7957747E-01  0.3426427E+00
         13   -1    0    0    0    0  0.00000000000E+00  0.00000000000E+00  0.14999999963E+04  0.15000000000E+04  0.10566000000E+00 0. -1.
        994   -1    0    0    0    0 -0.00000000000E+00 -0.00000000000E+00  0.11368683772E-12  0.17120000000E+03  0.17120000000E+03 0.  0.
         13    1    1    2    0    0 -0.72842963174E+01 -0.13358683065E+02  0.91313466072E+02  0.92572542561E+02  0.10566000000E+00 0. -1.
        994    1    1    2    0    0 -0.64631837627E+00  0.14633173617E+02  0.19541150145E+01  0.17183656789E+03  0.17120000000E+03 0.  0.
        998    1    1    2    0    0  0.79306146937E+01 -0.12744905519E+01  0.14067324152E+04  0.14067908896E+04  0.10000000000E+02 0. -1.
</event>
<event>
 5    1  0.1218060E-008  0.3821010E+03  0.7957747E-01  0.3442061E+00
         13   -1    0    0    0    0  0.00000000000E+00  0.00000000000E+00  0.14999999963E+04  0.15000000000E+04  0.10566000000E+00 0.  1.
        994   -1    0    0    0    0 -0.00000000000E+00 -0.00000000000E+00  0.11368683772E-12  0.17120000000E+03  0.17120000000E+03 0.  0.
         13    1    1    2    0    0 -0.20882605800E+02 -0.38019794108E+02  0.25941468832E+03  0.26301631062E+03  0.10566000000E+00 0.  1.
        994    1    1    2    0    0  0.28562826654E+02  0.32149174310E+02  0.92405491971E+01  0.17676038081E+03  0.17120000000E+03 0.  0.
        998    1    1    2    0    0 -0.76802208536E+01  0.58706197981E+01  0.12313447588E+04  0.12314233086E+04  0.10000000000E+02 0.  1.
</event>
<event>
 5    1  0.1218060E-008  0.3706291E+03  0.7957747E-01  0.3493005E+00
         13   -1    0    0    0    0  0.00000000000E+00  0.00000000000E+00  0.14999999963E+04  0.15000000000E+04  0.10566000000E+00 0. -1.
        994   -1    0    0    0    0 -0.00000000000E+00 -0.00000000000E+00  0.11368683772E-12  0.17120000000E+03  0.17120000000E+03 0.  0.
         13    1    1    2    0    0  0.31816344172E+01  0.42769268789E+02  0.73117421944E+02  0.84767338676E+02  0.10566000000E+00 0. -1.
        994    1    1    2    0    0 -0.12911166497E+02 -0.45929539239E+02  0.19289949645E+02  0.17876734308E+03  0.17120000000E+03 0.  0.
        998    1    1    2    0    0  0.97295320802E+01  0.31602704499E+01  0.14075926247E+04  0.14076653182E+04  0.10000000000E+02 0. -1.
</event>
<event>
 5    1  0.1218060E-008  0.3805162E+03  0.7957747E-01  0.3448914E+00
         13   -1    0    0    0    0  0.00000000000E+00  0.00000000000E+00  0.14999999963E+04  0.15000000000E+04  0.10566000000E+00 0. -1.
        994   -1    0    0    0    0 -0.00000000000E+00 -0.00000000000E+00  0.11368683772E-12  0.17120000000E+03  0.17120000000E+03 0.  0.
         13    1    1    2    0    0  0.17367065911E+02  0.20032827991E+02  0.87673926264E+02  0.91595074575E+02  0.10566000000E+00 0. -1.
        994    1    1    2    0    0 -0.10946902086E+02 -0.17414538223E+02  0.52860315001E+01  0.17251226894E+03  0.17120000000E+03 0.  0.
        998    1    1    2    0    0 -0.64201638253E+01 -0.26182897685E+01  0.14070400385E+04  0.14070926565E+04  0.10000000000E+02 0.  0.
</event>
<event>
 5    1  0.1218060E-008  0.3732040E+03  0.7957747E-01  0.3481294E+00
         13   -1    0    0    0    0  0.00000000000E+00  0.00000000000E+00  0.14999999963E+04  0.15000000000E+04  0.10566000000E+00 0.  1.
        994   -1    0    0    0    0 -0.00000000000E+00 -0.00000000000E+00  0.11368683772E-12  0.17120000000E+03  0.17120000000E+03 0.  0.
         13    1    1    2    0    0  0.54150258166E+02 -0.18544654092E+02  0.18218134502E+03  0.19096127433E+03  0.10566000000E+00 0.  1.
        994    1    1    2    0    0 -0.58983202557E+02  0.21683295667E+02  0.21232621681E+02  0.18360132820E+03  0.17120000000E+03 0.  0.
        998    1    1    2    0    0  0.48329443910E+01 -0.31386415748E+01  0.12965860296E+04  0.12966373975E+04  0.10000000000E+02 0.  1.
</event>
<event>
 5    1  0.1218060E-008  0.3843077E+03  0.7957747E-01  0.3432613E+00
         13   -1    0    0    0    0  0.00000000000E+00  0.00000000000E+00  0.14999999963E+04  0.15000000000E+04  0.10566000000E+00 0.  1.
        994   -1    0    0    0    0 -0.00000000000E+00 -0.00000000000E+00  0.11368683772E-12  0.17120000000E+03  0.17120000000E+03 0.  0.
         13    1    1    2    0    0  0.16524955820E+02  0.23457753870E+02  0.14039188733E+03  0.14329422031E+03  0.10566000000E+00 0.  1.
        994    1    1    2    0    0 -0.37082928233E+02 -0.55322470602E+02  0.16734030605E+02  0.18445917462E+03  0.17120000000E+03 0.  0.
        998    1    1    2    0    0  0.20557972413E+02  0.31864716732E+02  0.13428740783E+04  0.13434466051E+04  0.10000000000E+02 0.  1.
</event>
<event>
 5    1  0.1218060E-008  0.3765202E+03  0.7957747E-01  0.3466452E+00
         13   -1    0    0    0    0  0.00000000000E+00  0.00000000000E+00  0.14999999963E+04  0.15000000000E+04  0.10566000000E+00 0.  1.
        994   -1    0    0    0    0 -0.00000000000E+00 -0.00000000000E+00  0.11368683772E-12  0.17120000000E+03  0.17120000000E+03 0.  0.
         13    1    1    2    0    0  0.45617448705E+02  0.50464028250E+01  0.16997323511E+03  0.17606058510E+03  0.10566000000E+00 0.  1.
        994    1    1    2    0    0 -0.33365582965E+02 -0.17419439541E+01  0.96845814740E+01  0.17469839042E+03  0.17120000000E+03 0.  0.
        998    1    1    2    0    0 -0.12251865740E+02 -0.33044588710E+01  0.13203421797E+04  0.13204410245E+04  0.10000000000E+02 0.  1.
</event>
<event>
 5    1  0.1218060E-008  0.3853212E+03  0.7957747E-01  0.3428311E+00
         13   -1    0    0    0    0  0.00000000000E+00  0.00000000000E+00  0.14999999963E+04  0.15000000000E+04  0.10566000000E+00 0.  1.
        994   -1    0    0    0    0 -0.00000000000E+00 -0.00000000000E+00  0.11368683772E-12  0.17120000000E+03  0.17120000000E+03 0.  0.
         13    1    1    2    0    0  0.16223876820E+02  0.12860556684E+02  0.12060719961E+03  0.12237122153E+03  0.10566000000E+00 0.  1.
        994    1    1    2    0    0 -0.19978214441E+02 -0.31237357526E+02  0.60007093341E+01  0.17527221705E+03  0.17120000000E+03 0.  0.
        998    1    1    2    0    0  0.37543376210E+01  0.18376800841E+02  0.13733920873E+04  0.13735565614E+04  0.10000000000E+02 0.  1.
</event>
<event>
 5    1  0.1218060E-008  0.3833913E+03  0.7957747E-01  0.3436524E+00
         13   -1    0    0    0    0  0.00000000000E+00  0.00000000000E+00  0.14999999963E+04  0.15000000000E+04  0.10566000000E+00 0.  1.
        994   -1    0    0    0    0 -0.00000000000E+00 -0.00000000000E+00  0.11368683772E-12  0.17120000000E+03  0.17120000000E+03 0.  0.
         13    1    1    2    0    0 -0.62365665564E+02 -0.24939084577E+03  0.97589057435E+03  0.10091816955E+04  0.10566000000E+00 0.  1.
        994    1    1    2    0    0  0.58703613699E+02  0.26854733431E+03  0.31503004723E+03  0.45179326654E+03  0.17120000000E+03 0.  0.
        998    1    1    2    0    0  0.36620518645E+01 -0.19156488548E+02  0.20907937470E+03  0.21022503800E+03  0.10000000000E+02 0.  1.
</event>
<event>
 5    1  0.1218060E-008  0.3790071E+03  0.7957747E-01  0.3455493E+00
         13   -1    0    0    0    0  0.00000000000E+00  0.00000000000E+00  0.14999999963E+04  0.15000000000E+04  0.10566000000E+00 0.  1.
        994   -1    0    0    0    0 -0.00000000000E+00 -0.00000000000E+00  0.11368683772E-12  0.17120000000E+03  0.17120000000E+03 0.  0.
         13    1    1    2    0    0 -0.33330100891E+02 -0.95744741499E+01  0.15299983734E+03  0.15688061566E+03  0.10566000000E+00 0.  1.
        994    1    1    2    0    0 -0.77281998504E+01 -0.18089479420E+01  0.48465293503E+01  0.17145240218E+03  0.17120000000E+03 0.  0.
        998    1    1    2    0    0  0.41058300741E+02  0.11383422092E+02  0.13421536296E+04  0.13428669822E+04  0.10000000000E+02 0.  1.
</event>
<event>
 5    1  0.1218060E-008  0.3824288E+03  0.7957747E-01  0.3440651E+00
         13   -1    0    0    0    0  0.00000000000E+00  0.00000000000E+00  0.14999999963E+04  0.15000000000E+04  0.10566000000E+00 0. -1.
        994   -1    0    0    0    0 -0.00000000000E+00 -0.00000000000E+00  0.11368683772E-12  0.17120000000E+03  0.17120000000E+03 0.  0.
         13    1    1    2    0    0 -0.16916088142E+02 -0.45496378585E+01  0.50647365301E+02  0.53591230800E+02  0.10566000000E+00 0. -1.
        994    1    1    2    0    0  0.16409983739E+02  0.21778706734E+01  0.38213921456E+01  0.17204090713E+03  0.17120000000E+03 0.  0.
        998    1    1    2    0    0  0.50610440220E+00  0.23717671851E+01  0.14455312388E+04  0.14455678621E+04  0.10000000000E+02 0. -1.
</event>
<event>
 5    1  0.1218060E-008  0.3833612E+03  0.7957747E-01  0.3436652E+00
         13   -1    0    0    0    0  0.00000000000E+00  0.00000000000E+00  0.14999999963E+04  0.15000000000E+04  0.10566000000E+00 0. -1.
        994   -1    0    0    0    0 -0.00000000000E+00 -0.00000000000E+00  0.11368683772E-12  0.17120000000E+03  0.17120000000E+03 0.  0.
         13    1    1    2    0    0 -0.80682044757E+01  0.21380923028E+02  0.10291144720E+03  0.10541829501E+03  0.10566000000E+00 0. -1.
        994    1    1    2    0    0 -0.12424918104E+02 -0.25375214941E+02  0.50897274264E+01  0.17359039561E+03  0.17120000000E+03 0.  0.
        998    1    1    2    0    0  0.20493122580E+02  0.39942919130E+01  0.13919988217E+04  0.13921913094E+04  0.10000000000E+02 0. -1.
</event>
<event>
 5    1  0.1218060E-008  0.3805341E+03  0.7957747E-01  0.3448836E+00
         13   -1    0    0    0    0  0.00000000000E+00  0.00000000000E+00  0.14999999963E+04  0.15000000000E+04  0.10566000000E+00 0. -1.
        994   -1    0    0    0    0 -0.00000000000E+00 -0.00000000000E+00  0.11368683772E-12  0.17120000000E+03  0.17120000000E+03 0.  0.
         13    1    1    2    0    0  0.26671951486E+02  0.49454514580E+02  0.29735442042E+03  0.30261659656E+03  0.10566000000E+00 0. -1.
        994    1    1    2    0    0 -0.34902507073E+02 -0.56843105658E+02  0.18856755374E+02  0.18470067917E+03  0.17120000000E+03 0.  0.
        998    1    1    2    0    0  0.82305555873E+01  0.73885910789E+01  0.11837888205E+04  0.11838827243E+04  0.10000000000E+02 0. -1.
</event>
<event>
 5    1  0.1218060E-008  0.3829061E+03  0.7957747E-01  0.3438602E+00
         13   -1    0    0    0    0  0.00000000000E+00  0.00000000000E+00  0.14999999963E+04  0.15000000000E+04  0.10566000000E+00 0. -1.
        994   -1    0    0    0    0 -0.00000000000E+00 -0.00000000000E+00  0.11368683772E-12  0.17120000000E+03  0.17120000000E+03 0.  0.
         13    1    1    2    0    0  0.44069465125E+01 -0.14312507475E+02  0.41482095266E+02  0.44102657964E+02  0.10566000000E+00 0. -1.
        994    1    1    2    0    0 -0.56357295208E-01  0.80951273935E+01  0.28903466422E+01  0.17141565963E+03  0.17120000000E+03 0.  0.
        998    1    1    2    0    0 -0.43505892173E+01  0.62173800817E+01  0.14556275544E+04  0.14556816824E+04  0.10000000000E+02 0. -1.
</event>
<event>
 5    1  0.1218060E-008  0.3834263E+03  0.7957747E-01  0.3436374E+00
         13   -1    0    0    0    0  0.00000000000E+00  0.00000000000E+00  0.14999999963E+04  0.15000000000E+04  0.10566000000E+00 0. -1.
        994   -1    0    0    0    0 -0.00000000000E+00 -0.00000000000E+00  0.11368683772E-12  0.17120000000E+03  0.17120000000E+03 0.  0.
         13    1    1    2    0    0  0.45108304830E+01 -0.19900797051E+02  0.99760255879E+02  0.10182587653E+03  0.10566000000E+00 0. -1.
        994    1    1    2    0    0 -0.19527987235E+02 -0.13892968092E+02  0.43143002926E+01  0.17292313331E+03  0.17120000000E+03 0.  0.
        998    1    1    2    0    0  0.15017156752E+02  0.33793765143E+02  0.13959254401E+04  0.13964509902E+04  0.10000000000E+02 0. -1.
</event>
<event>
 5    1  0.1218060E-008  0.3787354E+03  0.7957747E-01  0.3456683E+00
         13   -1    0    0    0    0  0.00000000000E+00  0.00000000000E+00  0.14999999963E+04  0.15000000000E+04  0.10566000000E+00 0.  1.
        994   -1    0    0    0    0 -0.00000000000E+00 -0.00000000000E+00  0.11368683772E-12  0.17120000000E+03  0.17120000000E+03 0.  0.
         13    1    1    2    0    0 -0.40128884815E+02  0.74053773606E+01  0.15787624033E+03  0.16306466642E+03  0.10566000000E+00 0.  1.
        994    1    1    2    0    0  0.39572564730E+02  0.11496889727E-01  0.10047819431E+02  0.17600109854E+03  0.17120000000E+03 0.  0.
        998    1    1    2    0    0  0.55632008475E+00 -0.74168742504E+01  0.13320759365E+04  0.13321342350E+04  0.10000000000E+02 0.  1.
</event>
<event>
 5    1  0.1218060E-008  0.3850739E+03  0.7957747E-01  0.3429359E+00
         13   -1    0    0    0    0  0.00000000000E+00  0.00000000000E+00  0.14999999963E+04  0.15000000000E+04  0.10566000000E+00 0. -1.
        994   -1    0    0    0    0 -0.00000000000E+00 -0.00000000000E+00  0.11368683772E-12  0.17120000000E+03  0.17120000000E+03 0.  0.
         13    1    1    2    0    0 -0.10779517976E+02 -0.73244908036E+01  0.51921473091E+02  0.53532202507E+02  0.10566000000E+00 0. -1.
        994    1    1    2    0    0  0.10949668935E+02  0.74840313242E+01  0.21720367804E+01  0.17172671230E+03  0.17120000000E+03 0.  0.
        998    1    1    2    0    0 -0.17015095907E+00 -0.15954052061E+00  0.14459064864E+04  0.14459410852E+04  0.10000000000E+02 0.  0.
</event>
<event>
 5    1  0.1218060E-008  0.3847905E+03  0.7957747E-01  0.3430561E+00
         13   -1    0    0    0    0  0.00000000000E+00  0.00000000000E+00  0.14999999963E+04  0.15000000000E+04  0.10566000000E+00 0. -1.
        994   -1    0    0    0    0 -0.00000000000E+00 -0.00000000000E+00  0.11368683772E-12  0.17120000000E+03  0.17120000000E+03 0.  0.
         13    1    1    2    0    0 -0.28786898916E+02 -0.11580175322E+02  0.17587632515E+03  0.17859249403E+03  0.10566000000E+00 0. -1.
        994    1    1    2    0    0  0.59562429872E+02  0.31099580703E+02  0.16736000315E+02  0.18467376825E+03  0.17120000000E+03 0.  0.
        998    1    1    2    0    0 -0.30775530956E+02 -0.19519405381E+02  0.13073876708E+04  0.13079337377E+04  0.10000000000E+02 0. -1.
</event>
<event>
 5    1  0.1218060E-008  0.3833531E+03  0.7957747E-01  0.3436687E+00
         13   -1    0    0    0    0  0.00000000000E+00  0.00000000000E+00  0.14999999963E+04  0.15000000000E+04  0.10566000000E+00 0. -1.
        994   -1    0    0    0    0 -0.00000000000E+00 -0.00000000000E+00  0.11368683772E-12  0.17120000000E+03  0.17120000000E+03 0.  0.
         13    1    1    2    0    0 -0.11116427053E+02  0.14924911666E+02  0.87217454472E+02  0.89180846976E+02  0.10566000000E+00 0. -1.
        994    1    1    2    0    0 -0.52473924486E+02 -0.14436475566E+02  0.12305379600E+02  0.18006328594E+03  0.17120000000E+03 0.  0.
        998    1    1    2    0    0  0.63590351540E+02 -0.48843609999E+00  0.14004771622E+04  0.14019558671E+04  0.10000000000E+02 0. -1.
</event>
<event>
 5    1  0.1218060E-008  0.3843868E+03  0.7957747E-01  0.3432277E+00
         13   -1    0    0    0    0  0.00000000000E+00  0.00000000000E+00  0.14999999963E+04  0.15000000000E+04  0.10566000000E+00 0.  1.
        994   -1    0    0    0    0 -0.00000000000E+00 -0.00000000000E+00  0.11368683772E-12  0.17120000000E+03  0.17120000000E+03 0.  0.
         13    1    1    2    0    0 -0.15016812040E+02  0.42616675397E+01  0.63462852820E+02  0.65354504865E+02  0.10566000000E+00 0.  1.
        994    1    1    2    0    0  0.74837356164E+01 -0.33294740605E+01  0.21559823576E+01  0.17140939285E+03  0.17120000000E+03 0.  0.
        998    1    1    2    0    0  0.75330764239E+01 -0.93219347922E+00  0.14343811611E+04  0.14344361023E+04  0.10000000000E+02 0.  1.
</event>
<event>
 5    1  0.1218060E-008  0.3848084E+03  0.7957747E-01  0.3430485E+00
         13   -1    0    0    0    0  0.00000000000E+00  0.00000000000E+00  0.14999999963E+04  0.15000000000E+04  0.10566000000E+00 0. -1.
        994   -1    0    0    0    0 -0.00000000000E+00 -0.00000000000E+00  0.11368683772E-12  0.17120000000E+03  0.17120000000E+03 0.  0.
         13    1    1    2    0    0 -0.30415168571E+01  0.16121849243E+02  0.75717225770E+02  0.77474346013E+02  0.10566000000E+00 0. -1.
        994    1    1    2    0    0  0.44948384582E+01 -0.14465876245E+02  0.24807527749E+01  0.17188676297E+03  0.17120000000E+03 0.  0.
        998    1    1    2    0    0 -0.14533216011E+01 -0.16559729986E+01  0.14218020177E+04  0.14218388910E+04  0.10000000000E+02 0. -1.
</event>
<event>
 5    1  0.1218060E-008  0.3688973E+03  0.7957747E-01  0.3500974E+00
         13   -1    0    0    0    0  0.00000000000E+00  0.00000000000E+00  0.14999999963E+04  0.15000000000E+04  0.10566000000E+00 0. -1.
        994   -1    0    0    0    0 -0.00000000000E+00 -0.00000000000E+00  0.11368683772E-12  0.17120000000E+03  0.17120000000E+03 0.  0.
         13    1    1    2    0    0 -0.12094858980E+02 -0.10326603179E+02  0.83931804418E+01  0.17982797027E+02  0.10566000000E+00 0. -1.
        994    1    1    2    0    0  0.61966233822E+01  0.13006922896E+02  0.10567400750E+02  0.17212985837E+03  0.17120000000E+03 0.  0.
        998    1    1    2    0    0  0.58982355977E+01 -0.26803197173E+01  0.14810394151E+04  0.14810873446E+04  0.10000000000E+02 0. -1.
</event>
<event>
 5    1  0.1218060E-008  0.3842026E+03  0.7957747E-01  0.3433061E+00
         13   -1    0    0    0    0  0.00000000000E+00  0.00000000000E+00  0.14999999963E+04  0.15000000000E+04  0.10566000000E+00 0.  1.
        994   -1    0    0    0    0 -0.00000000000E+00 -0.00000000000E+00  0.11368683772E-12  0.17120000000E+03  0.17120000000E+03 0.  0.
         13    1    1    2    0    0  0.15099464608E+02  0.48082390260E+01  0.59528763678E+02  0.61601930676E+02  0.10566000000E+00 0.  1.
        994    1    1    2    0    0 -0.20657528794E+02  0.93324002221E+01  0.37225571445E+01  0.17273426013E+03  0.17120000000E+03 0.  0.
        998    1    1    2    0    0  0.55580641864E+01 -0.14140639248E+02  0.14367486755E+04  0.14368638092E+04  0.10000000000E+02 0.  1.
</event>
<event>
 5    1  0.1218060E-008  0.3794846E+03  0.7957747E-01  0.3453406E+00
         13   -1    0    0    0    0  0.00000000000E+00  0.00000000000E+00  0.14999999963E+04  0.15000000000E+04  0.10566000000E+00 0.  1.
        994   -1    0    0    0    0 -0.00000000000E+00 -0.00000000000E+00  0.11368683772E-12  0.17120000000E+03  0.17120000000E+03 0.  0.
         13    1    1    2    0    0 -0.20497572370E+02  0.75290086162E+01  0.52135808931E+02  0.56524244185E+02  0.10566000000E+00 0.  1.
        994    1    1    2    0    0  0.15084918410E+02 -0.72418760637E+01  0.53316963482E+01  0.17209842102E+03  0.17120000000E+03 0.  0.
        998    1    1    2    0    0  0.54126539599E+01 -0.28713255247E+00  0.14425324910E+04  0.14425773348E+04  0.10000000000E+02 0.  1.
</event>
<event>
 5    1  0.1218060E-008  0.3827416E+03  0.7957747E-01  0.3439307E+00
         13   -1    0    0    0    0  0.00000000000E+00  0.00000000000E+00  0.14999999963E+04  0.15000000000E+04  0.10566000000E+00 0.  1.
        994   -1    0    0    0    0 -0.00000000000E+00 -0.00000000000E+00  0.11368683772E-12  0.17120000000E+03  0.17120000000E+03 0.  0.
         13    1    1    2    0    0  0.24423596531E+01 -0.32415708986E+02  0.16665745076E+03  0.16979829318E+03  0.10566000000E+00 0.  1.
        994    1    1    2    0    0 -0.53877997439E+01  0.36106597681E+02  0.71832784968E+01  0.17519633065E+03  0.17120000000E+03 0.  0.
        998    1    1    2    0    0  0.29454400908E+01 -0.36908886946E+01  0.13261592670E+04  0.13262053762E+04  0.10000000000E+02 0.  1.
</event>
<event>
 5    1  0.1218060E-008  0.4102101E+03  0.7957747E-01  0.3329319E+00
         13   -1    0    0    0    0  0.00000000000E+00  0.00000000000E+00  0.14999999963E+04  0.15000000000E+04  0.10566000000E+00 0.  1.
        994   -1    0    0    0    0 -0.00000000000E+00 -0.00000000000E+00  0.11368683772E-12  0.17120000000E+03  0.17120000000E+03 0.  0.
         13    1    1    2    0    0 -0.31928730605E+02 -0.70474016207E+01  0.19362166874E+01  0.32754691370E+02  0.10566000000E+00 0.  1.
        994    1    1    2    0    0  0.24196147920E+02 -0.95242993008E+01  0.36797149153E+02  0.17703004275E+03  0.17120000000E+03 0.  0.
        998    1    1    2    0    0  0.77325826842E+01  0.16571700922E+02  0.14612666304E+04  0.14614152659E+04  0.10000000000E+02 0.  1.
</event>
<event>
 5    1  0.1218060E-008  0.2899079E+03  0.7957747E-01  0.3970810E+00
         13   -1    0    0    0    0  0.00000000000E+00  0.00000000000E+00  0.14999999963E+04  0.15000000000E+04  0.10566000000E+00 0.  1.
        994   -1    0    0    0    0 -0.00000000000E+00 -0.00000000000E+00  0.11368683772E-12  0.17120000000E+03  0.17120000000E+03 0.  0.
         13    1    1    2    0    0  0.81515315320E+02  0.13801627723E+03  0.64825595500E+03  0.66777918040E+03  0.10566000000E+00 0.  1.
        994    1    1    2    0    0 -0.34587050152E+02 -0.12953822020E+03  0.82409759269E+02  0.23254509875E+03  0.17120000000E+03 0.  0.
        998    1    1    2    0    0 -0.46928265168E+02 -0.84780570264E+01  0.76933428201E+03  0.77087572085E+03  0.10000000000E+02 0.  1.
</event>
<event>
 5    1  0.1218060E-008  0.3783009E+03  0.7957747E-01  0.3458590E+00
         13   -1    0    0    0    0  0.00000000000E+00  0.00000000000E+00  0.14999999963E+04  0.15000000000E+04  0.10566000000E+00 0. -1.
        994   -1    0    0    0    0 -0.00000000000E+00 -0.00000000000E+00  0.11368683772E-12  0.17120000000E+03  0.17120000000E+03 0.  0.
         13    1    1    2    0    0 -0.62521643417E+01  0.98394886805E+01  0.11504862697E+02  0.16379197971E+02  0.10566000000E+00 0. -1.
        994    1    1    2    0    0 -0.24919184340E+01 -0.65556961543E+01  0.51586773975E+01  0.17142123195E+03  0.17120000000E+03 0.  0.
        998    1    1    2    0    0  0.87440827757E+01 -0.32837925262E+01  0.14833364562E+04  0.14833995701E+04  0.10000000000E+02 0. -1.
</event>
<event>
 5    1  0.1218060E-008  0.3815586E+03  0.7957747E-01  0.3444400E+00
         13   -1    0    0    0    0  0.00000000000E+00  0.00000000000E+00  0.14999999963E+04  0.15000000000E+04  0.10566000000E+00 0. -1.
        994   -1    0    0    0    0 -0.00000000000E+00 -0.00000000000E+00  0.11368683772E-12  0.17120000000E+03  0.17120000000E+03 0.  0.
         13    1    1    2    0    0  0.12368744337E+02  0.69495109838E+01  0.28680617551E+02  0.31997976913E+02  0.10566000000E+00 0. -1.
        994    1    1    2    0    0 -0.11994337866E+02 -0.67345122015E+00  0.38285648642E+01  0.17166366997E+03  0.17120000000E+03 0.  0.
        998    1    1    2    0    0 -0.37440647150E+00 -0.62760597636E+01  0.14674908139E+04  0.14675383531E+04  0.10000000000E+02 0. -1.
</event>
<event>
 5    1  0.1218060E-008  0.3795657E+03  0.7957747E-01  0.3453052E+00
         13   -1    0    0    0    0  0.00000000000E+00  0.00000000000E+00  0.14999999963E+04  0.15000000000E+04  0.10566000000E+00 0.  1.
        994   -1    0    0    0    0 -0.00000000000E+00 -0.00000000000E+00  0.11368683772E-12  0.17120000000E+03  0.17120000000E+03 0.  0.
         13    1    1    2    0    0 -0.36396191471E+02  0.73634970088E+02  0.49502615004E+03  0.50179447183E+03  0.10566000000E+00 0.  1.
        994    1    1    2    0    0  0.25465670844E+02 -0.82996184037E+02  0.30011698001E+02  0.19428589494E+03  0.17120000000E+03 0.  0.
        998    1    1    2    0    0  0.10930520628E+02  0.93612139491E+01  0.97496214824E+03  0.97511963323E+03  0.10000000000E+02 0.  1.
</event>
<event>
 5    1  0.1218060E-008  0.3811796E+03  0.7957747E-01  0.3446038E+00
         13   -1    0    0    0    0  0.00000000000E+00  0.00000000000E+00  0.14999999963E+04  0.15000000000E+04  0.10566000000E+00 0.  1.
        994   -1    0    0    0    0 -0.00000000000E+00 -0.00000000000E+00  0.11368683772E-12  0.17120000000E+03  0.17120000000E+03 0.  0.
         13    1    1    2    0    0 -0.13100026309E+02 -0.14647335718E+02  0.52716645229E+02  0.56260207796E+02  0.10566000000E+00 0.  1.
        994    1    1    2    0    0  0.15170035632E+02  0.72342272884E+01  0.44800446730E+01  0.17208130295E+03  0.17120000000E+03 0.  0.
        998    1    1    2    0    0 -0.20700093230E+01  0.74131084300E+01  0.14428033064E+04  0.14428584893E+04  0.10000000000E+02 0.  1.
</event>
<event>
 5    1  0.1218060E-008  0.3834103E+03  0.7957747E-01  0.3436443E+00
         13   -1    0    0    0    0  0.00000000000E+00  0.00000000000E+00  0.14999999963E+04  0.15000000000E+04  0.10566000000E+00 0. -1.
        994   -1    0    0    0    0 -0.00000000000E+00 -0.00000000000E+00  0.11368683772E-12  0.17120000000E+03  0.17120000000E+03 0.  0.
         13    1    1    2    0    0 -0.90054624791E+01 -0.57093258827E+01  0.22525168427E+02  0.24921659921E+02  0.10566000000E+00 0. -1.
        994    1    1    2    0    0  0.81217533408E+01  0.38790930344E+01  0.26893153769E+01  0.17145752435E+03  0.17120000000E+03 0.  0.
        998    1    1    2    0    0  0.88370913837E+00  0.18302328483E+01  0.14747855125E+04  0.14748208157E+04  0.10000000000E+02 0. -1.
</event>
<event>
 5    1  0.1218060E-008  0.3832368E+03  0.7957747E-01  0.3437185E+00
         13   -1    0    0    0    0  0.00000000000E+00  0.00000000000E+00  0.14999999963E+04  0.15000000000E+04  0.10566000000E+00 0. -1.
        994   -1    0    0    0    0 -0.00000000000E+00 -0.00000000000E+00  0.11368683772E-12  0.17120000000E+03  0.17120000000E+03 0.  0.
         13    1    1    2    0    0  0.78542783051E+01 -0.10337277542E+02  0.32496467983E+02  0.34994007917E+02  0.10566000000E+00 0. -1.
        994    1    1    2    0    0 -0.69116950491E+01  0.88931580664E+01  0.29277711056E+01  0.17159508044E+03  0.17120000000E+03 0.  0.
        998    1    1    2    0    0 -0.94258325602E+00  0.14441194759E+01  0.14645757572E+04  0.14646109116E+04  0.10000000000E+02 0. -1.
</event>
<event>
 5    1  0.1218060E-008  0.3749751E+03  0.7957747E-01  0.3473334E+00
         13   -1    0    0    0    0  0.00000000000E+00  0.00000000000E+00  0.14999999963E+04  0.15000000000E+04  0.10566000000E+00 0. -1.
        994   -1    0    0    0    0 -0.00000000000E+00 -0.00000000000E+00  0.11368683772E-12  0.17120000000E+03  0.17120000000E+03 0.  0.
         13    1    1    2    0    0  0.38823140950E+01  0.97152292768E+01  0.50655323935E+01  0.11624492466E+02  0.10566000000E+00 0. -1.
        994    1    1    2    0    0 -0.33587201079E+01 -0.89808381799E+01  0.70041210427E+01  0.17161128799E+03  0.17120000000E+03 0.  0.
        998    1    1    2    0    0 -0.52359398715E+00 -0.73439109694E+00  0.14879303428E+04  0.14879642195E+04  0.10000000000E+02 0. -1.
</event>
<event>
 5    1  0.1218060E-008  0.3712445E+03  0.7957747E-01  0.3490191E+00
         13   -1    0    0    0    0  0.00000000000E+00  0.00000000000E+00  0.14999999963E+04  0.15000000000E+04  0.10566000000E+00 0.  1.
        994   -1    0    0    0    0 -0.00000000000E+00 -0.00000000000E+00  0.11368683772E-12  0.17120000000E+03  0.17120000000E+03 0.  0.
         13    1    1    2    0    0  0.62546156639E+02  0.16658723915E+02  0.20665279534E+03  0.21655235806E+03  0.10566000000E+00 0.  1.
        994    1    1    2    0    0 -0.63045293500E+02 -0.18439274734E+02  0.23624808211E+02  0.18488452463E+03  0.17120000000E+03 0.  0.
        998    1    1    2    0    0  0.49913686141E+00  0.17805508199E+01  0.12697223927E+04  0.12697631173E+04  0.10000000000E+02 0.  0.
</event>
<event>
 5    1  0.1218060E-008  0.3830045E+03  0.7957747E-01  0.3438180E+00
         13   -1    0    0    0    0  0.00000000000E+00  0.00000000000E+00  0.14999999963E+04  0.15000000000E+04  0.10566000000E+00 0. -1.
        994   -1    0    0    0    0 -0.00000000000E+00 -0.00000000000E+00  0.11368683772E-12  0.17120000000E+03  0.17120000000E+03 0.  0.
         13    1    1    2    0    0  0.57624751103E+01 -0.12986523240E+02  0.37389820426E+02  0.39998321724E+02  0.10566000000E+00 0. -1.
        994    1    1    2    0    0 -0.41441690617E+01  0.10332651910E+02  0.30344836051E+01  0.17158842013E+03  0.17120000000E+03 0.  0.
        998    1    1    2    0    0 -0.16183060486E+01  0.26538713297E+01  0.14595756922E+04  0.14596132581E+04  0.10000000000E+02 0. -1.
</event>
<event>
 5    1  0.1218060E-008  0.3820371E+03  0.7957747E-01  0.3442336E+00
         13   -1    0    0    0    0  0.00000000000E+00  0.00000000000E+00  0.14999999963E+04  0.15000000000E+04  0.10566000000E+00 0.  1.
        994   -1    0    0    0    0 -0.00000000000E+00 -0.00000000000E+00  0.11368683772E-12  0.17120000000E+03  0.17120000000E+03 0.  0.
         13    1    1    2    0    0 -0.12384527650E+03  0.30218478478E+02  0.70267420055E+03  0.71414413968E+03  0.10566000000E+00 0.  1.
        994    1    1    2    0    0  0.15678010411E+03 -0.31305872232E+02  0.93222517555E+02  0.25211096061E+03  0.17120000000E+03 0.  0.
        998    1    1    2    0    0 -0.32934827605E+02  0.10873937545E+01  0.70410327818E+03  0.70494489971E+03  0.10000000000E+02 0.  1.
</event>
<event>
 5    1  0.1218060E-008  0.3802869E+03  0.7957747E-01  0.3449910E+00
         13   -1    0    0    0    0  0.00000000000E+00  0.00000000000E+00  0.14999999963E+04  0.15000000000E+04  0.10566000000E+00 0. -1.
        994   -1    0    0    0    0 -0.00000000000E+00 -0.00000000000E+00  0.11368683772E-12  0.17120000000E+03  0.17120000000E+03 0.  0.
         13    1    1    2    0    0 -0.12117443238E+02  0.44296666463E+01  0.19564042286E+02  0.23435385463E+02  0.10566000000E+00 0. -1.
        994    1    1    2    0    0  0.81569410826E+01  0.16130630813E+02  0.50803415411E+01  0.17222654502E+03  0.17120000000E+03 0.  0.
        998    1    1    2    0    0  0.39605021556E+01 -0.20560297459E+02  0.14753556125E+04  0.14755380695E+04  0.10000000000E+02 0. -1.
</event>
<event>
 5    1  0.1218060E-008  0.3823217E+03  0.7957747E-01  0.3441111E+00
         13   -1    0    0    0    0  0.00000000000E+00  0.00000000000E+00  0.14999999963E+04  0.15000000000E+04  0.10566000000E+00 0. -1.
        994   -1    0    0    0    0 -0.00000000000E+00 -0.00000000000E+00  0.11368683772E-12  0.17120000000E+03  0.17120000000E+03 0.  0.
         13    1    1    2    0    0  0.11086421810E+00  0.23636731123E+02  0.97340032718E+02  0.10016885984E+03  0.10566000000E+00 0. -1.
        994    1    1    2    0    0 -0.16034384819E+02 -0.76012531278E+01  0.40110235738E+01  0.17216390114E+03  0.17120000000E+03 0.  0.
        998    1    1    2    0    0  0.15923520601E+02 -0.16035477996E+02  0.13986489400E+04  0.13988672390E+04  0.10000000000E+02 0. -1.
</event>
<event>
 5    1  0.1218060E-008  0.3807400E+03  0.7957747E-01  0.3447943E+00
         13   -1    0    0    0    0  0.00000000000E+00  0.00000000000E+00  0.14999999963E+04  0.15000000000E+04  0.10566000000E+00 0. -1.
        994   -1    0    0    0    0 -0.00000000000E+00 -0.00000000000E+00  0.11368683772E-12  0.17120000000E+03  0.17120000000E+03 0.  0.
         13    1    1    2    0    0 -0.37812058582E+01  0.25801665860E+02  0.10134648552E+03  0.10464771746E+03  0.10566000000E+00 0. -1.
        994    1    1    2    0    0  0.10742039391E+02  0.88497088525E+01  0.44062939106E+01  0.17182131469E+03  0.17120000000E+03 0.  0.
        998    1    1    2    0    0 -0.69608335328E+01 -0.34651374713E+02  0.13942472168E+04  0.13947309678E+04  0.10000000000E+02 0. -1.
</event>
<event>
 5    1  0.1218060E-008  0.3836496E+03  0.7957747E-01  0.3435420E+00
         13   -1    0    0    0    0  0.00000000000E+00  0.00000000000E+00  0.14999999963E+04  0.15000000000E+04  0.10566000000E+00 0. -1.
        994   -1    0    0    0    0 -0.00000000000E+00 -0.00000000000E+00  0.11368683772E-12  0.17120000000E+03  0.17120000000E+03 0.  0.
         13    1    1    2    0    0  0.13101201196E+02  0.15071276554E+01  0.35968532059E+02  0.38310042666E+02  0.10566000000E+00 0. -1.
        994    1    1    2    0    0 -0.17254833472E+02  0.47621528965E+01  0.33611344416E+01  0.17216603789E+03  0.17120000000E+03 0.  0.
        998    1    1    2    0    0  0.41536322758E+01 -0.62692805519E+01  0.14606703298E+04  0.14607239194E+04  0.10000000000E+02 0. -1.
</event>
<event>
 5    1  0.1218060E-008  0.3852317E+03  0.7957747E-01  0.3428690E+00
         13   -1    0    0    0    0  0.00000000000E+00  0.00000000000E+00  0.14999999963E+04  0.15000000000E+04  0.10566000000E+00 0. -1.
        994   -1    0    0    0    0 -0.00000000000E+00 -0.00000000000E+00  0.11368683772E-12  0.17120000000E+03  0.17120000000E+03 0.  0.
         13    1    1    2    0    0  0.12713271645E+02  0.17867455649E+01  0.53485174639E+02  0.55004498050E+02  0.10566000000E+00 0. -1.
        994    1    1    2    0    0 -0.12218888667E+02  0.28566245906E+01  0.20327769318E+01  0.17167129558E+03  0.17120000000E+03 0.  0.
        998    1    1    2    0    0 -0.49438297750E+00 -0.46433701555E+01  0.14444820447E+04  0.14445242064E+04  0.10000000000E+02 0. -1.
</event>
<event>
 5    1  0.1218060E-008  0.3842628E+03  0.7957747E-01  0.3432805E+00
         13   -1    0    0    0    0  0.00000000000E+00  0.00000000000E+00  0.14999999963E+04  0.15000000000E+04  0.10566000000E+00 0. -1.
        994   -1    0    0    0    0 -0.00000000000E+00 -0.00000000000E+00  0.11368683772E-12  0.17120000000E+03  0.17120000000E+03 0.  0.
         13    1    1    2    0    0 -0.14207646865E+02 -0.46008783372E+01  0.53407347430E+02  0.55456119901E+02  0.10566000000E+00 0. -1.
        994    1    1    2    0    0  0.16023285764E+02  0.64373953438E+01  0.29801854360E+01  0.17209447188E+03  0.17120000000E+03 0.  0.
        998    1    1    2    0    0 -0.18156388991E+01 -0.18365170066E+01  0.14436124634E+04  0.14436494082E+04  0.10000000000E+02 0. -1.
</event>
<event>
 5    1  0.1218060E-008  0.3827822E+03  0.7957747E-01  0.3439133E+00
         13   -1    0    0    0    0  0.00000000000E+00  0.00000000000E+00  0.14999999963E+04  0.15000000000E+04  0.10566000000E+00 0. -1.
        994   -1    0    0    0    0 -0.00000000000E+00 -0.00000000000E+00  0.11368683772E-12  0.17120000000E+03  0.17120000000E+03 0.  0.
         13    1    1    2    0    0  0.13785392915E+02  0.14847094132E+02  0.69795882944E+02  0.72677023205E+02  0.10566000000E+00 0. -1.
        994    1    1    2    0    0 -0.12749927889E+02 -0.22142530557E+02  0.49008204580E+01  0.17316555767E+03  0.17120000000E+03 0.  0.
        998    1    1    2    0    0 -0.10354650261E+01  0.72954364250E+01  0.14253032929E+04  0.14253574191E+04  0.10000000000E+02 0. -1.
</event>
<event>
 5    1  0.1218060E-008  0.3771867E+03  0.7957747E-01  0.3463500E+00
         13   -1    0    0    0    0  0.00000000000E+00  0.00000000000E+00  0.14999999963E+04  0.15000000000E+04  0.10566000000E+00 0. -1.
        994   -1    0    0    0    0 -0.00000000000E+00 -0.00000000000E+00  0.11368683772E-12  0.17120000000E+03  0.17120000000E+03 0.  0.
         13    1    1    2    0    0 -0.47029301772E+02  0.65952902671E+02  0.43724730399E+03  0.44468725708E+03  0.10566000000E+00 0. -1.
        994    1    1    2    0    0  0.49099763739E+02 -0.58586756550E+02  0.25538003642E+02  0.18922162792E+03  0.17120000000E+03 0.  0.
        998    1    1    2    0    0 -0.20704619673E+01 -0.73661461206E+01  0.10372146886E+04  0.10372911150E+04  0.10000000000E+02 0. -1.
</event>
<event>
 5    1  0.1218060E-008  0.3712748E+03  0.7957747E-01  0.3490052E+00
         13   -1    0    0    0    0  0.00000000000E+00  0.00000000000E+00  0.14999999963E+04  0.15000000000E+04  0.10566000000E+00 0. -1.
        994   -1    0    0    0    0 -0.00000000000E+00 -0.00000000000E+00  0.11368683772E-12  0.17120000000E+03  0.17120000000E+03 0.  0.
         13    1    1    2    0    0  0.37026907807E+02 -0.23492538264E+02  0.10126069510E+03  0.11034777203E+03  0.10566000000E+00 0. -1.
        994    1    1    2    0    0 -0.44763155123E+02  0.14571688990E+02  0.16271988506E+02  0.17829832244E+03  0.17120000000E+03 0.  0.
        998    1    1    2    0    0  0.77362473164E+01  0.89208492737E+01  0.13824673127E+04  0.13825539055E+04  0.10000000000E+02 0. -1.
</event>
<event>
 5    1  0.1218060E-008  0.3792314E+03  0.7957747E-01  0.3454512E+00
         13   -1    0    0    0    0  0.00000000000E+00  0.00000000000E+00  0.14999999963E+04  0.15000000000E+04  0.10566000000E+00 0.  1.
        994   -1    0    0    0    0 -0.00000000000E+00 -0.00000000000E+00  0.11368683772E-12  0.17120000000E+03  0.17120000000E+03 0.  0.
         13    1    1    2    0    0  0.14877228750E+02 -0.17370905992E+01  0.24155770352E+02  0.28422910203E+02  0.10566000000E+00 0.  1.
        994    1    1    2    0    0  0.90464757491E+01  0.55167684071E+01  0.48980208667E+01  0.17159750600E+03  0.17120000000E+03 0.  0.
        998    1    1    2    0    0 -0.23923704500E+02 -0.37796778079E+01  0.14709462051E+04  0.14711795838E+04  0.10000000000E+02 0.  1.
</event>
<event>
 5    1  0.1218060E-008  0.3794778E+03  0.7957747E-01  0.3453435E+00
         13   -1    0    0    0    0  0.00000000000E+00  0.00000000000E+00  0.14999999963E+04  0.15000000000E+04  0.10566000000E+00 0. -1.
        994   -1    0    0    0    0 -0.00000000000E+00 -0.00000000000E+00  0.11368683772E-12  0.17120000000E+03  0.17120000000E+03 0.  0.
         13    1    1    2    0    0 -0.91104929740E+01  0.30153161976E+02  0.10298401702E+03  0.10769370077E+03  0.10566000000E+00 0. -1.
        994    1    1    2    0    0  0.44436162681E+01 -0.34675982250E+02  0.85005105502E+01  0.17493961287E+03  0.17120000000E+03 0.  0.
        998    1    1    2    0    0  0.46668767059E+01  0.45228202735E+01  0.13885154687E+04  0.13885666864E+04  0.10000000000E+02 0. -1.
</event>
<event>
 5    1  0.1225458E-008  0.3862916E+03  0.7957747E-01  0.3424213E+00
         13   -1    0    0    0    0  0.00000000000E+00  0.00000000000E+00  0.14999999963E+04  0.15000000000E+04  0.10566000000E+00 0. -1.
        994   -1    0    0    0    0 -0.00000000000E+00 -0.00000000000E+00  0.11368683772E-12  0.17120000000E+03  0.17120000000E+03 0.  0.
         13    1    1    2    0    0  0.10080017551E+02 -0.88956145819E+00  0.51362417590E+02  0.52349853659E+02  0.10566000000E+00 0. -1.
        994    1    1    2    0    0 -0.10456252332E+02 -0.27018318069E+01  0.13722693164E+01  0.17154578465E+03  0.17120000000E+03 0.  0.
        998    1    1    2    0    0  0.37623478151E+00  0.35913932650E+01  0.14472653094E+04  0.14473043617E+04  0.10000000000E+02 0. -1.
</event>
<event>
 5    1  0.1218060E-008  0.3730867E+03  0.7957747E-01  0.3481824E+00
         13   -1    0    0    0    0  0.00000000000E+00  0.00000000000E+00  0.14999999963E+04  0.15000000000E+04  0.10566000000E+00 0. -1.
        994   -1    0    0    0    0 -0.00000000000E+00 -0.00000000000E+00  0.11368683772E-12  0.17120000000E+03  0.17120000000E+03 0.  0.
         13    1    1    2    0    0  0.62090446771E+02  0.11467188989E+02  0.31953774785E+03  0.32571629292E+03  0.10566000000E+00 0. -1.
        994    1    1    2    0    0 -0.42148401585E+01 -0.26854953927E+02  0.10196874100E+02  0.17364437702E+03  0.17120000000E+03 0.  0.
        998    1    1    2    0    0 -0.57875606612E+02  0.15387764938E+02  0.11702653743E+04  0.11718393301E+04  0.10000000000E+02 0. -1.
</event>
<event>
 5    1  0.1218060E-008  0.3788792E+03  0.7957747E-01  0.3456053E+00
         13   -1    0    0    0    0  0.00000000000E+00  0.00000000000E+00  0.14999999963E+04  0.15000000000E+04  0.10566000000E+00 0.  1.
        994   -1    0    0    0    0 -0.00000000000E+00 -0.00000000000E+00  0.11368683772E-12  0.17120000000E+03  0.17120000000E+03 0.  0.
         13    1    1    2    0    0  0.11505171513E+02  0.60369569789E-01  0.13179035814E+02  0.17494878251E+02  0.10566000000E+00 0.  1.
        994    1    1    2    0    0  0.31879061966E+02 -0.51426381354E+01  0.82066005500E+01  0.17441189642E+03  0.17120000000E+03 0.  0.
        998    1    1    2    0    0 -0.43384233478E+02  0.50822685657E+01  0.14786143599E+04  0.14792932253E+04  0.10000000000E+02 0.  1.
</event>
<event>
 5    1  0.1218060E-008  0.3842481E+03  0.7957747E-01  0.3432867E+00
         13   -1    0    0    0    0  0.00000000000E+00  0.00000000000E+00  0.14999999963E+04  0.15000000000E+04  0.10566000000E+00 0. -1.
        994   -1    0    0    0    0 -0.00000000000E+00 -0.00000000000E+00  0.11368683772E-12  0.17120000000E+03  0.17120000000E+03 0.  0.
         13    1    1    2    0    0  0.12539393651E+02 -0.60714498355E+01  0.44529990447E+02  0.46658655247E+02  0.10566000000E+00 0. -1.
        994    1    1    2    0    0 -0.22944458909E+02  0.10421678186E+02  0.41002882719E+01  0.17309336190E+03  0.17120000000E+03 0.  0.
        998    1    1    2    0    0  0.10405065258E+02 -0.43502283502E+01  0.14513697176E+04  0.14514479828E+04  0.10000000000E+02 0. -1.
</event>
<event>
 5    1  0.1218060E-008  0.3841436E+03  0.7957747E-01  0.3433312E+00
         13   -1    0    0    0    0  0.00000000000E+00  0.00000000000E+00  0.14999999963E+04  0.15000000000E+04  0.10566000000E+00 0. -1.
        994   -1    0    0    0    0 -0.00000000000E+00 -0.00000000000E+00  0.11368683772E-12  0.17120000000E+03  0.17120000000E+03 0.  0.
         13    1    1    2    0    0  0.19883059685E+02  0.10955236972E+02  0.12261352516E+03  0.12469739772E+03  0.10566000000E+00 0. -1.
        994    1    1    2    0    0 -0.22587285746E+02  0.60886892508E+01  0.38627520790E+01  0.17283407785E+03  0.17120000000E+03 0.  0.
        998    1    1    2    0    0  0.27042260602E+01 -0.17043926223E+02  0.13735237190E+04  0.13736685244E+04  0.10000000000E+02 0. -1.
</event>
<event>
 5    1  0.1218060E-008  0.3817870E+03  0.7957747E-01  0.3443414E+00
         13   -1    0    0    0    0  0.00000000000E+00  0.00000000000E+00  0.14999999963E+04  0.15000000000E+04  0.10566000000E+00 0.  1.
        994   -1    0    0    0    0 -0.00000000000E+00 -0.00000000000E+00  0.11368683772E-12  0.17120000000E+03  0.17120000000E+03 0.  0.
         13    1    1    2    0    0  0.21358377848E+02 -0.23993396214E+02  0.16260983079E+03  0.16575232004E+03  0.10566000000E+00 0.  1.
        994    1    1    2    0    0 -0.82269203009E+01  0.13356970689E+02  0.40520323710E+01  0.17196496693E+03  0.17120000000E+03 0.  0.
        998    1    1    2    0    0 -0.13131457547E+02  0.10636425525E+02  0.13333381331E+04  0.13334827130E+04  0.10000000000E+02 0.  1.
</event>
<event>
 5    1  0.1218060E-008  0.3773073E+03  0.7957747E-01  0.3462968E+00
         13   -1    0    0    0    0  0.00000000000E+00  0.00000000000E+00  0.14999999963E+04  0.15000000000E+04  0.10566000000E+00 0. -1.
        994   -1    0    0    0    0 -0.00000000000E+00 -0.00000000000E+00  0.11368683772E-12  0.17120000000E+03  0.17120000000E+03 0.  0.
         13    1    1    2    0    0  0.70365530263E+02  0.17041895285E+03  0.92680863908E+03  0.94496994237E+03  0.10566000000E+00 0. -1.
        994    1    1    2    0    0 -0.60483044075E+02 -0.17564327959E+03  0.13245986990E+03  0.28524343537E+03  0.17120000000E+03 0.  0.
        998    1    1    2    0    0 -0.98824861878E+01  0.52243267373E+01  0.44073148730E+03  0.44098662227E+03  0.10000000000E+02 0. -1.
</event>
<event>
 5    1  0.1218060E-008  0.3819321E+03  0.7957747E-01  0.3442789E+00
         13   -1    0    0    0    0  0.00000000000E+00  0.00000000000E+00  0.14999999963E+04  0.15000000000E+04  0.10566000000E+00 0. -1.
        994   -1    0    0    0    0 -0.00000000000E+00 -0.00000000000E+00  0.11368683772E-12  0.17120000000E+03  0.17120000000E+03 0.  0.
         13    1    1    2    0    0 -0.60598972754E+01  0.94689106154E+01  0.18293685926E+02  0.21472138506E+02  0.10566000000E+00 0. -1.
        994    1    1    2    0    0  0.43381343785E+01 -0.16357028186E+02  0.41128341426E+01  0.17208348900E+03  0.17120000000E+03 0.  0.
        998    1    1    2    0    0  0.17217628968E+01  0.68881175703E+01  0.14775934762E+04  0.14776443725E+04  0.10000000000E+02 0. -1.
</event>
<event>
 5    1  0.1218060E-008  0.3813467E+03  0.7957747E-01  0.3445316E+00
         13   -1    0    0    0    0  0.00000000000E+00  0.00000000000E+00  0.14999999963E+04  0.15000000000E+04  0.10566000000E+00 0.  1.
        994   -1    0    0    0    0 -0.00000000000E+00 -0.00000000000E+00  0.11368683772E-12  0.17120000000E+03  0.17120000000E+03 0.  0.
         13    1    1    2    0    0 -0.88264607475E+00  0.25810726493E+02  0.94266313185E+02  0.97740071780E+02  0.10566000000E+00 0.  1.
        994    1    1    2    0    0 -0.34173665980E+00 -0.18063484703E+02  0.45419457540E+01  0.17221055582E+03  0.17120000000E+03 0.  0.
        998    1    1    2    0    0  0.12243827346E+01 -0.77472417900E+01  0.14011917373E+04  0.14012493724E+04  0.10000000000E+02 0.  1.
</event>
<event>
 5    1  0.1218060E-008  0.3829556E+03  0.7957747E-01  0.3438389E+00
         13   -1    0    0    0    0  0.00000000000E+00  0.00000000000E+00  0.14999999963E+04  0.15000000000E+04  0.10566000000E+00 0.  1.
        994   -1    0    0    0    0 -0.00000000000E+00 -0.00000000000E+00  0.11368683772E-12  0.17120000000E+03  0.17120000000E+03 0.  0.
         13    1    1    2    0    0 -0.60912786676E+01  0.86465026809E+01  0.20291978584E+02  0.22883208763E+02  0.10566000000E+00 0.  1.
        994    1    1    2    0    0  0.74642077463E+01 -0.69087086592E+00  0.28346221523E+01  0.17138747557E+03  0.17120000000E+03 0.  0.
        998    1    1    2    0    0 -0.13729290787E+01 -0.79556318150E+01  0.14768733955E+04  0.14769293157E+04  0.10000000000E+02 0.  1.
</event>
<event>
 5    1  0.1218060E-008  0.3766179E+03  0.7957747E-01  0.3466019E+00
         13   -1    0    0    0    0  0.00000000000E+00  0.00000000000E+00  0.14999999963E+04  0.15000000000E+04  0.10566000000E+00 0. -1.
        994   -1    0    0    0    0 -0.00000000000E+00 -0.00000000000E+00  0.11368683772E-12  0.17120000000E+03  0.17120000000E+03 0.  0.
         13    1    1    2    0    0  0.20648956672E+02 -0.86400741557E+01  0.44865976530E+02  0.50139777693E+02  0.10566000000E+00 0. -1.
        994    1    1    2    0    0  0.17375858627E+02 -0.36555380972E+01  0.69168635970E+01  0.17225726813E+03  0.17120000000E+03 0.  0.
        998    1    1    2    0    0 -0.38024815299E+02  0.12295612253E+02  0.14482171562E+04  0.14488029542E+04  0.10000000000E+02 0. -1.
</event>
<event>
 5    1  0.1218060E-008  0.3848357E+03  0.7957747E-01  0.3430369E+00
         13   -1    0    0    0    0  0.00000000000E+00  0.00000000000E+00  0.14999999963E+04  0.15000000000E+04  0.10566000000E+00 0. -1.
        994   -1    0    0    0    0 -0.00000000000E+00 -0.00000000000E+00  0.11368683772E-12  0.17120000000E+03  0.17120000000E+03 0.  0.
         13    1    1    2    0    0 -0.17512341081E+02  0.28016261551E+01  0.93879519424E+02  0.95540078138E+02  0.10566000000E+00 0. -1.
        994    1    1    2    0    0  0.87374234136E+01  0.12498335577E+01  0.19680966970E+01  0.17143867141E+03  0.17120000000E+03 0.  0.
        998    1    1    2    0    0  0.87749176677E+01 -0.40514597128E+01  0.14041523802E+04  0.14042212504E+04  0.10000000000E+02 0. -1.
</event>
<event>
 5    1  0.1218060E-008  0.3831142E+03  0.7957747E-01  0.3437710E+00
         13   -1    0    0    0    0  0.00000000000E+00  0.00000000000E+00  0.14999999963E+04  0.15000000000E+04  0.10566000000E+00 0.  1.
        994   -1    0    0    0    0 -0.00000000000E+00 -0.00000000000E+00  0.11368683772E-12  0.17120000000E+03  0.17120000000E+03 0.  0.
         13    1    1    2    0    0 -0.78346500553E+01  0.11874701866E+02  0.37697116107E+02  0.40292356753E+02  0.10566000000E+00 0.  1.
        994    1    1    2    0    0  0.55635921877E+01 -0.14722247152E+02  0.33893570216E+01  0.17195530193E+03  0.17120000000E+03 0.  0.
        998    1    1    2    0    0  0.22710578676E+01  0.28475452864E+01  0.14589135231E+04  0.14589523413E+04  0.10000000000E+02 0.  1.
</event>
<event>
 5    1  0.1218060E-008  0.3837549E+03  0.7957747E-01  0.3434970E+00
         13   -1    0    0    0    0  0.00000000000E+00  0.00000000000E+00  0.14999999963E+04  0.15000000000E+04  0.10566000000E+00 0. -1.
        994   -1    0    0    0    0 -0.00000000000E+00 -0.00000000000E+00  0.11368683772E-12  0.17120000000E+03  0.17120000000E+03 0.  0.
         13    1    1    2    0    0  0.47634603453E+01 -0.19701511317E+02  0.87866211590E+02  0.90173845464E+02  0.10566000000E+00 0. -1.
        994    1    1    2    0    0 -0.64841528569E+01  0.16993247103E+02  0.33426755908E+01  0.17219590055E+03  0.17120000000E+03 0.  0.
        998    1    1    2    0    0  0.17206925116E+01  0.27082642135E+01  0.14087911091E+04  0.14088302540E+04  0.10000000000E+02 0. -1.
</event>
<event>
 5    1  0.1218060E-008  0.3699640E+03  0.7957747E-01  0.3496056E+00
         13   -1    0    0    0    0  0.00000000000E+00  0.00000000000E+00  0.14999999963E+04  0.15000000000E+04  0.10566000000E+00 0. -1.
        994   -1    0    0    0    0 -0.00000000000E+00 -0.00000000000E+00  0.11368683772E-12  0.17120000000E+03  0.17120000000E+03 0.  0.
         13    1    1    2    0    0 -0.10279708269E+01 -0.20985805041E+02  0.15226800046E+02  0.25948551808E+02  0.10566000000E+00 0. -1.
        994    1    1    2    0    0 -0.20738161674E+01  0.22817694745E+02  0.12756908231E+02  0.17319678581E+03  0.17120000000E+03 0.  0.
        998    1    1    2    0    0  0.31017869943E+01 -0.18318897037E+01  0.14720162880E+04  0.14720546624E+04  0.10000000000E+02 0. -1.
</event>
<event>
 5    1  0.1218060E-008  0.2809619E+03  0.7957747E-01  0.4042066E+00
         13   -1    0    0    0    0  0.00000000000E+00  0.00000000000E+00  0.14999999963E+04  0.15000000000E+04  0.10566000000E+00 0.  1.
        994   -1    0    0    0    0 -0.00000000000E+00 -0.00000000000E+00  0.11368683772E-12  0.17120000000E+03  0.17120000000E+03 0.  0.
         13    1    1    2    0    0  0.71310657383E+02 -0.17369452412E+03  0.49438339655E+03  0.52883830375E+03  0.10566000000E+00 0.  1.
        994    1    1    2    0    0 -0.69242649187E+02  0.16949944672E+03  0.16153371271E+03  0.29820661838E+03  0.17120000000E+03 0.  0.
        998    1    1    2    0    0 -0.20680081963E+01  0.41950773971E+01  0.84408288703E+03  0.84415507787E+03  0.10000000000E+02 0.  0.
</event>
<event>
 5    1  0.1218060E-008  0.3850480E+03  0.7957747E-01  0.3429469E+00
         13   -1    0    0    0    0  0.00000000000E+00  0.00000000000E+00  0.14999999963E+04  0.15000000000E+04  0.10566000000E+00 0. -1.
        994   -1    0    0    0    0 -0.00000000000E+00 -0.00000000000E+00  0.11368683772E-12  0.17120000000E+03  0.17120000000E+03 0.  0.
         13    1    1    2    0    0  0.12799216260E+02 -0.69496302961E-01  0.47316143056E+02  0.49016867753E+02  0.10566000000E+00 0. -1.
        994    1    1    2    0    0 -0.22342492592E+02 -0.51495267335E+01  0.33367888922E+01  0.17276075585E+03  0.17120000000E+03 0.  0.
        998    1    1    2    0    0  0.95432763327E+01  0.52190230365E+01  0.14493470643E+04  0.14494223764E+04  0.10000000000E+02 0. -1.
</event>
<event>
 5    1  0.1218060E-008  0.3831922E+03  0.7957747E-01  0.3437376E+00
         13   -1    0    0    0    0  0.00000000000E+00  0.00000000000E+00  0.14999999963E+04  0.15000000000E+04  0.10566000000E+00 0. -1.
        994   -1    0    0    0    0 -0.00000000000E+00 -0.00000000000E+00  0.11368683772E-12  0.17120000000E+03  0.17120000000E+03 0.  0.
         13    1    1    2    0    0  0.10340651529E+02 -0.19373497773E+02  0.10170740045E+03  0.10405127563E+03  0.10566000000E+00 0. -1.
        994    1    1    2    0    0 -0.98695440191E+01 -0.21838635693E+01  0.28684248042E+01  0.17152214149E+03  0.17120000000E+03 0.  0.
        998    1    1    2    0    0 -0.47110750949E+00  0.21557361343E+02  0.13954241710E+04  0.13956265829E+04  0.10000000000E+02 0. -1.
</event>
<event>
 5    1  0.1218060E-008  0.3788968E+03  0.7957747E-01  0.3455976E+00
         13   -1    0    0    0    0  0.00000000000E+00  0.00000000000E+00  0.14999999963E+04  0.15000000000E+04  0.10566000000E+00 0.  1.
        994   -1    0    0    0    0 -0.00000000000E+00 -0.00000000000E+00  0.11368683772E-12  0.17120000000E+03  0.17120000000E+03 0.  0.
         13    1    1    2    0    0  0.95872528552E+00 -0.26800532260E+02  0.92102075896E+02  0.95927009919E+02  0.10566000000E+00 0.  1.
        994    1    1    2    0    0 -0.11569079425E+02 -0.26499098386E+02  0.75012272737E+01  0.17378651911E+03  0.17120000000E+03 0.  0.
        998    1    1    2    0    0  0.10610354140E+02  0.53299630646E+02  0.14003966931E+04  0.14014864710E+04  0.10000000000E+02 0.  1.
</event>
<event>
 5    1  0.1218060E-008  0.3816324E+03  0.7957747E-01  0.3444081E+00
         13   -1    0    0    0    0  0.00000000000E+00  0.00000000000E+00  0.14999999963E+04  0.15000000000E+04  0.10566000000E+00 0. -1.
        994   -1    0    0    0    0 -0.00000000000E+00 -0.00000000000E+00  0.11368683772E-12  0.17120000000E+03  0.17120000000E+03 0.  0.
         13    1    1    2    0    0  0.28855416959E+01  0.23025483840E+02  0.76421128112E+02  0.79866759312E+02  0.10566000000E+00 0. -1.
        994    1    1    2    0    0 -0.24501267479E+01 -0.24217587663E+02  0.52839179797E+01  0.17300246953E+03  0.17120000000E+03 0.  0.
        998    1    1    2    0    0 -0.43541494799E+00  0.11921038228E+01  0.14182949502E+04  0.14183307712E+04  0.10000000000E+02 0. -1.
</event>
<event>
 5    1  0.1218060E-008  0.3746847E+03  0.7957747E-01  0.3474634E+00
         13   -1    0    0    0    0  0.00000000000E+00  0.00000000000E+00  0.14999999963E+04  0.15000000000E+04  0.10566000000E+00 0. -1.
        994   -1    0    0    0    0 -0.00000000000E+00 -0.00000000000E+00  0.11368683772E-12  0.17120000000E+03  0.17120000000E+03 0.  0.
         13    1    1    2    0    0  0.47121634748E+02  0.11265845910E+02  0.15741085818E+03  0.16469838245E+03  0.10566000000E+00 0. -1.
        994    1    1    2    0    0 -0.39282480809E+02 -0.19004084971E+02  0.13348329508E+02  0.17717755627E+03  0.17120000000E+03 0.  0.
        998    1    1    2    0    0 -0.78391539382E+01  0.77382390611E+01  0.13292408086E+04  0.13293240613E+04  0.10000000000E+02 0. -1.
</event>
<event>
 5    1  0.1218060E-008  0.3854344E+03  0.7957747E-01  0.3427832E+00
         13   -1    0    0    0    0  0.00000000000E+00  0.00000000000E+00  0.14999999963E+04  0.15000000000E+04  0.10566000000E+00 0.  1.
        994   -1    0    0    0    0 -0.00000000000E+00 -0.00000000000E+00  0.11368683772E-12  0.17120000000E+03  0.17120000000E+03 0.  0.
         13    1    1    2    0    0  0.11793752764E+02  0.83846418551E+00  0.47572434656E+02  0.49019825883E+02  0.10566000000E+00 0.  1.
        994    1    1    2    0    0 -0.15202594667E+02  0.76615638670E+00  0.21759093983E+01  0.17188915167E+03  0.17120000000E+03 0.  0.
        998    1    1    2    0    0  0.34088419031E+01 -0.16046205722E+01  0.14502516522E+04  0.14502910224E+04  0.10000000000E+02 0.  1.
</event>
<event>
 5    1  0.1218060E-008  0.3803115E+03  0.7957747E-01  0.3449803E+00
         13   -1    0    0    0    0  0.00000000000E+00  0.00000000000E+00  0.14999999963E+04  0.15000000000E+04  0.10566000000E+00 0. -1.
        994   -1    0    0    0    0 -0.00000000000E+00 -0.00000000000E+00  0.11368683772E-12  0.17120000000E+03  0.17120000000E+03 0.  0.
         13    1    1    2    0    0 -0.52565978152E+01  0.28753898877E+02  0.10072173041E+03  0.10487753173E+03  0.10566000000E+00 0. -1.
        994    1    1    2    0    0 -0.11057650463E+02 -0.30384737005E+02  0.74752805125E+01  0.17438699405E+03  0.17120000000E+03 0.  0.
        998    1    1    2    0    0  0.16314248278E+02  0.16308381278E+01  0.13918029854E+04  0.13919354742E+04  0.10000000000E+02 0. -1.
</event>
<event>
 5    1  0.1218060E-008  0.3838893E+03  0.7957747E-01  0.3434396E+00
         13   -1    0    0    0    0  0.00000000000E+00  0.00000000000E+00  0.14999999963E+04  0.15000000000E+04  0.10566000000E+00 0.  1.
        994   -1    0    0    0    0 -0.00000000000E+00 -0.00000000000E+00  0.11368683772E-12  0.17120000000E+03  0.17120000000E+03 0.  0.
         13    1    1    2    0    0  0.16563679095E+02 -0.17844706713E+02  0.12840865316E+03  0.13069652785E+03  0.10566000000E+00 0.  1.
        994    1    1    2    0    0 -0.25857539424E+02  0.60072547070E+01  0.45119172970E+01  0.17330463598E+03  0.17120000000E+03 0.  0.
        998    1    1    2    0    0  0.92938603295E+01  0.11837452006E+02  0.13670794258E+04  0.13671988362E+04  0.10000000000E+02 0.  1.
</event>
<event>
 5    1  0.1218060E-008  0.3807513E+03  0.7957747E-01  0.3447893E+00
         13   -1    0    0    0    0  0.00000000000E+00  0.00000000000E+00  0.14999999963E+04  0.15000000000E+04  0.10566000000E+00 0. -1.
        994   -1    0    0    0    0 -0.00000000000E+00 -0.00000000000E+00  0.11368683772E-12  0.17120000000E+03  0.17120000000E+03 0.  0.
         13    1    1    2    0    0  0.21398465374E+02  0.30968934585E+02  0.22007812484E+03  0.22327418441E+03  0.10566000000E+00 0. -1.
        994    1    1    2    0    0 -0.60298921963E+01  0.91053881209E+00  0.38783762740E+01  0.17135247440E+03  0.17120000000E+03 0.  0.
        998    1    1    2    0    0 -0.15368573178E+02 -0.31879473398E+02  0.12760434952E+04  0.12765733412E+04  0.10000000000E+02 0. -1.
</event>
<event>
 5    1  0.1218060E-008  0.3753878E+03  0.7957747E-01  0.3471490E+00
         13   -1    0    0    0    0  0.00000000000E+00  0.00000000000E+00  0.14999999963E+04  0.15000000000E+04  0.10566000000E+00 0.  1.
        994   -1    0    0    0    0 -0.00000000000E+00 -0.00000000000E+00  0.11368683772E-12  0.17120000000E+03  0.17120000000E+03 0.  0.
         13    1    1    2    0    0  0.48511106739E+01 -0.32473132596E+02  0.28566613292E+02  0.43521261177E+02  0.10566000000E+00 0.  1.
        994    1    1    2    0    0  0.47681170351E+01  0.86139617646E+02  0.40838273031E+02  0.19601013548E+03  0.17120000000E+03 0.  0.
        998    1    1    2    0    0 -0.96192277089E+01 -0.53666485050E+02  0.14305951100E+04  0.14316686033E+04  0.10000000000E+02 0.  1.
</event>
<event>
 5    1  0.1218060E-008  0.3844469E+03  0.7957747E-01  0.3432021E+00
         13   -1    0    0    0    0  0.00000000000E+00  0.00000000000E+00  0.14999999963E+04  0.15000000000E+04  0.10566000000E+00 0. -1.
        994   -1    0    0    0    0 -0.00000000000E+00 -0.00000000000E+00  0.11368683772E-12  0.17120000000E+03  0.17120000000E+03 0.  0.
         13    1    1    2    0    0  0.10307441259E+02  0.10127665041E+01  0.26489978323E+02  0.28442910486E+02  0.10566000000E+00 0. -1.
        994    1    1    2    0    0 -0.18902023841E+02  0.38557916611E+01  0.31320463907E+01  0.17231193618E+03  0.17120000000E+03 0.  0.
        998    1    1    2    0    0  0.85945825819E+01 -0.48685581652E+01  0.14703779716E+04  0.14704451533E+04  0.10000000000E+02 0. -1.
</event>
<event>
 5    1  0.1218060E-008  0.3786712E+03  0.7957747E-01  0.3456965E+00
         13   -1    0    0    0    0  0.00000000000E+00  0.00000000000E+00  0.14999999963E+04  0.15000000000E+04  0.10566000000E+00 0.  1.
        994   -1    0    0    0    0 -0.00000000000E+00 -0.00000000000E+00  0.11368683772E-12  0.17120000000E+03  0.17120000000E+03 0.  0.
         13    1    1    2    0    0  0.12392591617E+02  0.19517463537E+02  0.54758402145E+02  0.59439056852E+02  0.10566000000E+00 0.  1.
        994    1    1    2    0    0 -0.15248279280E+02 -0.23978727565E+01  0.56058254943E+01  0.17198582818E+03  0.17120000000E+03 0.  0.
        998    1    1    2    0    0  0.28556876634E+01 -0.17119590780E+02  0.14396357686E+04  0.14397751150E+04  0.10000000000E+02 0.  1.
</event>
<event>
 5    1  0.1218060E-008  0.3816943E+03  0.7957747E-01  0.3443814E+00
         13   -1    0    0    0    0  0.00000000000E+00  0.00000000000E+00  0.14999999963E+04  0.15000000000E+04  0.10566000000E+00 0. -1.
        994   -1    0    0    0    0 -0.00000000000E+00 -0.00000000000E+00  0.11368683772E-12  0.17120000000E+03  0.17120000000E+03 0.  0.
         13    1    1    2    0    0  0.13666788687E+02  0.10983879633E+02  0.46009989887E+02  0.49237760492E+02  0.10566000000E+00 0. -1.
        994    1    1    2    0    0 -0.72906670398E+01 -0.67381647292E+01  0.36080195958E+01  0.17152555056E+03  0.17120000000E+03 0.  0.
        998    1    1    2    0    0 -0.63761216472E+01 -0.42457149042E+01  0.14503819868E+04  0.14504366889E+04  0.10000000000E+02 0. -1.
</event>
<event>
 5    1  0.1218060E-008  0.3748002E+03  0.7957747E-01  0.3474117E+00
         13   -1    0    0    0    0  0.00000000000E+00  0.00000000000E+00  0.14999999963E+04  0.15000000000E+04  0.10566000000E+00 0. -1.
        994   -1    0    0    0    0 -0.00000000000E+00 -0.00000000000E+00  0.11368683772E-12  0.17120000000E+03  0.17120000000E+03 0.  0.
         13    1    1    2    0    0  0.32819538118E+01 -0.36836811304E+02  0.45103842232E+02  0.58327434677E+02  0.10566000000E+00 0. -1.
        994    1    1    2    0    0 -0.83721609363E+01  0.28537737067E+02  0.16651328044E+02  0.17456002475E+03  0.17120000000E+03 0.  0.
        998    1    1    2    0    0  0.50902071245E+01  0.82990742363E+01  0.14382448260E+04  0.14383125406E+04  0.10000000000E+02 0. -1.
</event>
<event>
 5    1  0.1218060E-008  0.3811403E+03  0.7957747E-01  0.3446209E+00
         13   -1    0    0    0    0  0.00000000000E+00  0.00000000000E+00  0.14999999963E+04  0.15000000000E+04  0.10566000000E+00 0.  1.
        994   -1    0    0    0    0 -0.00000000000E+00 -0.00000000000E+00  0.11368683772E-12  0.17120000000E+03  0.17120000000E+03 0.  0.
         13    1    1    2    0    0  0.76773203319E+01 -0.16409098525E+02  0.43789960612E+02  0.47389572442E+02  0.10566000000E+00 0.  1.
        994    1    1    2    0    0 -0.52865765630E+01  0.17558643829E+02  0.46793000170E+01  0.17224282195E+03  0.17120000000E+03 0.  0.
        998    1    1    2    0    0 -0.23907437689E+01 -0.11495453044E+01  0.14515307357E+04  0.14515676056E+04  0.10000000000E+02 0.  1.
</event>
<event>
 5    1  0.1218060E-008  0.3747021E+03  0.7957747E-01  0.3474556E+00
         13   -1    0    0    0    0  0.00000000000E+00  0.00000000000E+00  0.14999999963E+04  0.15000000000E+04  0.10566000000E+00 0.  1.
        994   -1    0    0    0    0 -0.00000000000E+00 -0.00000000000E+00  0.11368683772E-12  0.17120000000E+03  0.17120000000E+03 0.  0.
         13    1    1    2    0    0  0.76709512873E+02 -0.18930162231E+02  0.45924852305E+03  0.46599561961E+03  0.10566000000E+00 0.  1.
        994    1    1    2    0    0 -0.43248717424E+02  0.96169644777E+01  0.13540376522E+02  0.17735760305E+03  0.17120000000E+03 0.  0.
        998    1    1    2    0    0 -0.33460795448E+02  0.93131977533E+01  0.10272110967E+04  0.10278467773E+04  0.10000000000E+02 0.  1.
</event>
<event>
 5    1  0.1218060E-008  0.3847403E+03  0.7957747E-01  0.3430774E+00
         13   -1    0    0    0    0  0.00000000000E+00  0.00000000000E+00  0.14999999963E+04  0.15000000000E+04  0.10566000000E+00 0. -1.
        994   -1    0    0    0    0 -0.00000000000E+00 -0.00000000000E+00  0.11368683772E-12  0.17120000000E+03  0.17120000000E+03 0.  0.
         13    1    1    2    0    0  0.12707192649E+02  0.22116596022E+01  0.47849377679E+02  0.49557424181E+02  0.10566000000E+00 0. -1.
        994    1    1    2    0    0 -0.48828281119E+01 -0.48286559873E+01  0.19143535615E+01  0.17134836643E+03  0.17120000000E+03 0.  0.
        998    1    1    2    0    0 -0.78243645372E+01  0.26169963850E+01  0.14502362650E+04  0.14502942094E+04  0.10000000000E+02 0. -1.
</event>
<event>
 5    1  0.1218060E-008  0.3782559E+03  0.7957747E-01  0.3458788E+00
         13   -1    0    0    0    0  0.00000000000E+00  0.00000000000E+00  0.14999999963E+04  0.15000000000E+04  0.10566000000E+00 0. -1.
        994   -1    0    0    0    0 -0.00000000000E+00 -0.00000000000E+00  0.11368683772E-12  0.17120000000E+03  0.17120000000E+03 0.  0.
         13    1    1    2    0    0  0.81042190493E+01  0.11386060883E+02  0.17423114159E+02  0.22335998296E+02  0.10566000000E+00 0. -1.
        994    1    1    2    0    0  0.35968525973E+01 -0.11545677523E+02  0.55080177529E+01  0.17171493318E+03  0.17120000000E+03 0.  0.
        998    1    1    2    0    0 -0.11701071647E+02  0.15961663988E+00  0.14770688644E+04  0.14771490685E+04  0.10000000000E+02 0. -1.
</event>
<event>
 5    1  0.1218060E-008  0.3834604E+03  0.7957747E-01  0.3436228E+00
         13   -1    0    0    0    0  0.00000000000E+00  0.00000000000E+00  0.14999999963E+04  0.15000000000E+04  0.10566000000E+00 0.  1.
        994   -1    0    0    0    0 -0.00000000000E+00 -0.00000000000E+00  0.11368683772E-12  0.17120000000E+03  0.17120000000E+03 0.  0.
         13    1    1    2    0    0  0.14519095604E+02 -0.96302493554E+01  0.61065279455E+02  0.63502168143E+02  0.10566000000E+00 0.  1.
        994    1    1    2    0    0 -0.18767523753E+02  0.16844333043E+01  0.35708555781E+01  0.17227085729E+03  0.17120000000E+03 0.  0.
        998    1    1    2    0    0  0.42484281483E+01  0.79458160511E+01  0.14353638612E+04  0.14354269746E+04  0.10000000000E+02 0.  1.
</event>
<event>
 5    1  0.1218060E-008  0.3817351E+03  0.7957747E-01  0.3443638E+00
         13   -1    0    0    0    0  0.00000000000E+00  0.00000000000E+00  0.14999999963E+04  0.15000000000E+04  0.10566000000E+00 0.  1.
        994   -1    0    0    0    0 -0.00000000000E+00 -0.00000000000E+00  0.11368683772E-12  0.17120000000E+03  0.17120000000E+03 0.  0.
         13    1    1    2    0    0  0.15325954731E+02 -0.10440924215E+02  0.54573179957E+02  0.57638016287E+02  0.10566000000E+00 0.  1.
        994    1    1    2    0    0  0.89753105213E+01  0.11983381533E+02  0.40052627804E+01  0.17190008657E+03  0.17120000000E+03 0.  0.
        998    1    1    2    0    0 -0.24301265253E+02 -0.15424573180E+01  0.14414215535E+04  0.14416618971E+04  0.10000000000E+02 0.  1.
</event>
<event>
 5    1  0.2743231E-008  0.3865855E+03  0.7957747E-01  0.3422976E+00
         13   -1    0    0    0    0  0.00000000000E+00  0.00000000000E+00  0.14999999963E+04  0.15000000000E+04  0.10566000000E+00 0.  1.
        994   -1    0    0    0    0 -0.00000000000E+00 -0.00000000000E+00  0.11368683772E-12  0.17120000000E+03  0.17120000000E+03 0.  0.
         13    1    1    2    0    0  0.92650946705E+01  0.46365827538E+01  0.62140494655E+02  0.62998350129E+02  0.10566000000E+00 0.  1.
        994    1    1    2    0    0 -0.21965317290E+01 -0.25115399163E+02  0.29273601090E+01  0.17307113412E+03  0.17120000000E+03 0.  0.
        998    1    1    2    0    0 -0.70685629415E+01  0.20478816409E+02  0.14349321415E+04  0.14351305158E+04  0.10000000000E+02 0.  1.
</event>
<event>
 5    1  0.1218060E-008  0.3777299E+03  0.7957747E-01  0.3461103E+00
         13   -1    0    0    0    0  0.00000000000E+00  0.00000000000E+00  0.14999999963E+04  0.15000000000E+04  0.10566000000E+00 0.  1.
        994   -1    0    0    0    0 -0.00000000000E+00 -0.00000000000E+00  0.11368683772E-12  0.17120000000E+03  0.17120000000E+03 0.  0.
         13    1    1    2    0    0 -0.17115322806E+02  0.14674578220E+02  0.44599704426E+02  0.49974216549E+02  0.10566000000E+00 0.  1.
        994    1    1    2    0    0  0.13435543816E+02 -0.22065367581E+02  0.75346437823E+01  0.17330206329E+03  0.17120000000E+03 0.  0.
        998    1    1    2    0    0  0.36797789904E+01  0.73907893607E+01  0.14478656481E+04  0.14479237202E+04  0.10000000000E+02 0.  1.
</event>
<event>
 5    1  0.1218060E-008  0.3819868E+03  0.7957747E-01  0.3442553E+00
         13   -1    0    0    0    0  0.00000000000E+00  0.00000000000E+00  0.14999999963E+04  0.15000000000E+04  0.10566000000E+00 0.  1.
        994   -1    0    0    0    0 -0.00000000000E+00 -0.00000000000E+00  0.11368683772E-12  0.17120000000E+03  0.17120000000E+03 0.  0.
         13    1    1    2    0    0 -0.55034724761E+01  0.25798908341E+02  0.14590141766E+03  0.14826701157E+03  0.10566000000E+00 0.  1.
        994    1    1    2    0    0 -0.10666623911E+02  0.20165028629E+02  0.48638121430E+01  0.17278165966E+03  0.17120000000E+03 0.  0.
        998    1    1    2    0    0  0.16170096387E+02 -0.45963936969E+02  0.13492347665E+04  0.13501513288E+04  0.10000000000E+02 0.  1.
</event>
<event>
 5    1  0.1218060E-008  0.3834109E+03  0.7957747E-01  0.3436440E+00
         13   -1    0    0    0    0  0.00000000000E+00  0.00000000000E+00  0.14999999963E+04  0.15000000000E+04  0.10566000000E+00 0.  1.
        994   -1    0    0    0    0 -0.00000000000E+00 -0.00000000000E+00  0.11368683772E-12  0.17120000000E+03  0.17120000000E+03 0.  0.
         13    1    1    2    0    0 -0.55512016709E+01 -0.12157114552E+02  0.36974601676E+02  0.39315945968E+02  0.10566000000E+00 0.  1.
        994    1    1    2    0    0  0.73806030773E+01  0.58003990682E+00  0.26023674828E+01  0.17137975979E+03  0.17120000000E+03 0.  0.
        998    1    1    2    0    0 -0.18294014064E+01  0.11577074645E+02  0.14604230271E+04  0.14605042942E+04  0.10000000000E+02 0.  1.
</event>
<event>
 5    1  0.1308640E-008  0.3844330E+03  0.7957747E-01  0.3432080E+00
         13   -1    0    0    0    0  0.00000000000E+00  0.00000000000E+00  0.14999999963E+04  0.15000000000E+04  0.10566000000E+00 0. -1.
        994   -1    0    0    0    0 -0.00000000000E+00 -0.00000000000E+00  0.11368683772E-12  0.17120000000E+03  0.17120000000E+03 0.  0.
         13    1    1    2    0    0 -0.11688028604E+02  0.28967700571E+01  0.37824802103E+02  0.39695441900E+02  0.10566000000E+00 0. -1.
        994    1    1    2    0    0  0.68724947336E+01  0.73414178744E+00  0.20692888818E+01  0.17135195390E+03  0.17120000000E+03 0.  0.
        998    1    1    2    0    0  0.48155338704E+01 -0.36309118445E+01  0.14601059053E+04  0.14601526042E+04  0.10000000000E+02 0. -1.
</event>
<event>
 5    1  0.1218060E-008  0.3763250E+03  0.7957747E-01  0.3467318E+00
         13   -1    0    0    0    0  0.00000000000E+00  0.00000000000E+00  0.14999999963E+04  0.15000000000E+04  0.10566000000E+00 0.  1.
        994   -1    0    0    0    0 -0.00000000000E+00 -0.00000000000E+00  0.11368683772E-12  0.17120000000E+03  0.17120000000E+03 0.  0.
         13    1    1    2    0    0 -0.31852769205E+02 -0.16548639173E+02  0.14224113269E+03  0.14670039999E+03  0.10566000000E+00 0.  1.
        994    1    1    2    0    0  0.50669099834E+01 -0.73308592803E+02  0.24497664238E+02  0.18790795329E+03  0.17120000000E+03 0.  0.
        998    1    1    2    0    0  0.26785859221E+02  0.89857231976E+02  0.13332611994E+04  0.13365916467E+04  0.10000000000E+02 0.  1.
</event>
<event>
 5    1  0.1218060E-008  0.3816091E+03  0.7957747E-01  0.3444182E+00
         13   -1    0    0    0    0  0.00000000000E+00  0.00000000000E+00  0.14999999963E+04  0.15000000000E+04  0.10566000000E+00 0.  1.
        994   -1    0    0    0    0 -0.00000000000E+00 -0.00000000000E+00  0.11368683772E-12  0.17120000000E+03  0.17120000000E+03 0.  0.
         13    1    1    2    0    0 -0.88843653106E+01 -0.54972607202E+01  0.14386642547E+02  0.17780283187E+02  0.10566000000E+00 0.  1.
        994    1    1    2    0    0  0.20059970562E+02  0.13761358290E+02  0.52933474501E+01  0.17300068476E+03  0.17120000000E+03 0.  0.
        998    1    1    2    0    0 -0.11175605251E+02 -0.82640975698E+01  0.14803200063E+04  0.14804190321E+04  0.10000000000E+02 0.  1.
</event>
<event>
 5    1  0.1218060E-008  0.3811040E+03  0.7957747E-01  0.3446365E+00
         13   -1    0    0    0    0  0.00000000000E+00  0.00000000000E+00  0.14999999963E+04  0.15000000000E+04  0.10566000000E+00 0. -1.
        994   -1    0    0    0    0 -0.00000000000E+00 -0.00000000000E+00  0.11368683772E-12  0.17120000000E+03  0.17120000000E+03 0.  0.
         13    1    1    2    0    0 -0.29477715771E+02 -0.33946884586E+01  0.12794949021E+03  0.13134512874E+03  0.10566000000E+00 0. -1.
        994    1    1    2    0    0  0.90286485635E+01  0.97474088653E+01  0.41650687657E+01  0.17176529414E+03  0.17120000000E+03 0.  0.
        998    1    1    2    0    0  0.20449067207E+02 -0.63527204067E+01  0.13678854373E+04  0.13680895771E+04  0.10000000000E+02 0. -1.
</event>
<event>
 5    1  0.1218060E-008  0.3842010E+03  0.7957747E-01  0.3433068E+00
         13   -1    0    0    0    0  0.00000000000E+00  0.00000000000E+00  0.14999999963E+04  0.15000000000E+04  0.10566000000E+00 0. -1.
        994   -1    0    0    0    0 -0.00000000000E+00 -0.00000000000E+00  0.11368683772E-12  0.17120000000E+03  0.17120000000E+03 0.  0.
         13    1    1    2    0    0  0.10572157625E+01  0.16510150253E+02  0.64818343189E+02  0.66896424002E+02  0.10566000000E+00 0. -1.
        994    1    1    2    0    0 -0.11312636250E+02 -0.16415601753E+02  0.33389247325E+01  0.17238919960E+03  0.17120000000E+03 0.  0.
        998    1    1    2    0    0  0.10255420487E+02 -0.94548499674E-01  0.14318427284E+04  0.14319143764E+04  0.10000000000E+02 0. -1.
</event>
<event>
 5    1  0.1218060E-008  0.3772972E+03  0.7957747E-01  0.3463012E+00
         13   -1    0    0    0    0  0.00000000000E+00  0.00000000000E+00  0.14999999963E+04  0.15000000000E+04  0.10566000000E+00 0.  1.
        994   -1    0    0    0    0 -0.00000000000E+00 -0.00000000000E+00  0.11368683772E-12  0.17120000000E+03  0.17120000000E+03 0.  0.
         13    1    1    2    0    0 -0.52555716010E+02 -0.12584149573E+02  0.22015498884E+03  0.22669074613E+03  0.10566000000E+00 0.  1.
        994    1    1    2    0    0  0.56582604528E+02  0.12210615507E+02  0.16890552927E+02  0.18150873545E+03  0.17120000000E+03 0.  0.
        998    1    1    2    0    0 -0.40268885181E+01  0.37353406569E+00  0.12629544545E+04  0.12630005184E+04  0.10000000000E+02 0.  1.
</event>
<event>
 5    1  0.1218060E-008  0.3736094E+03  0.7957747E-01  0.3479465E+00
         13   -1    0    0    0    0  0.00000000000E+00  0.00000000000E+00  0.14999999963E+04  0.15000000000E+04  0.10566000000E+00 0. -1.
        994   -1    0    0    0    0 -0.00000000000E+00 -0.00000000000E+00  0.11368683772E-12  0.17120000000E+03  0.17120000000E+03 0.  0.
         13    1    1    2    0    0 -0.20947541074E+02 -0.31006522942E+02  0.88756844878E+02  0.96322337071E+02  0.10566000000E+00 0. -1.
        994    1    1    2    0    0  0.20490826254E+02  0.25584892525E+02  0.11072897032E+02  0.17466112829E+03  0.17120000000E+03 0.  0.
        998    1    1    2    0    0  0.45671482047E+00  0.54216304165E+01  0.14001702544E+04  0.14002165346E+04  0.10000000000E+02 0. -1.
</event>
<event>
 5    1  0.1218060E-008  0.3811674E+03  0.7957747E-01  0.3446091E+00
         13   -1    0    0    0    0  0.00000000000E+00  0.00000000000E+00  0.14999999963E+04  0.15000000000E+04  0.10566000000E+00 0. -1.
        994   -1    0    0    0    0 -0.00000000000E+00 -0.00000000000E+00  0.11368683772E-12  0.17120000000E+03  0.17120000000E+03 0.  0.
         13    1    1    2    0    0  0.11044885047E+02 -0.82422255148E+01  0.24966781623E+02  0.28517978817E+02  0.10566000000E+00 0. -1.
        994    1    1    2    0    0 -0.14177932200E+02  0.61840760592E+01  0.43421437409E+01  0.17195217582E+03  0.17120000000E+03 0.  0.
        998    1    1    2    0    0  0.31330471528E+01  0.20581494556E+01  0.14706910709E+04  0.14707298454E+04  0.10000000000E+02 0. -1.
</event>
<event>
 5    1  0.1218060E-008  0.3757223E+03  0.7957747E-01  0.3469999E+00
         13   -1    0    0    0    0  0.00000000000E+00  0.00000000000E+00  0.14999999963E+04  0.15000000000E+04  0.10566000000E+00 0. -1.
        994   -1    0    0    0    0 -0.00000000000E+00 -0.00000000000E+00  0.11368683772E-12  0.17120000000E+03  0.17120000000E+03 0.  0.
         13    1    1    2    0    0 -0.48728237389E+02  0.47905095442E+01  0.16044324013E+03  0.16774812836E+03  0.10566000000E+00 0. -1.
        994    1    1    2    0    0  0.57591115248E+02 -0.82708765939E+01  0.17874818768E+02  0.18169780709E+03  0.17120000000E+03 0.  0.
        998    1    1    2    0    0 -0.88628778597E+01  0.34803670497E+01  0.13216819374E+04  0.13217540645E+04  0.10000000000E+02 0. -1.
</event>
<event>
 5    1  0.1218060E-008  0.3761107E+03  0.7957747E-01  0.3468270E+00
         13   -1    0    0    0    0  0.00000000000E+00  0.00000000000E+00  0.14999999963E+04  0.15000000000E+04  0.10566000000E+00 0.  1.
        994   -1    0    0    0    0 -0.00000000000E+00 -0.00000000000E+00  0.11368683772E-12  0.17120000000E+03  0.17120000000E+03 0.  0.
         13    1    1    2    0    0  0.25353550727E+02  0.14612722452E+00  0.52134708541E+02  0.57972949609E+02  0.10566000000E+00 0.  1.
        994    1    1    2    0    0 -0.54070325965E+01 -0.24999260960E+01  0.62296653727E+01  0.17141684387E+03  0.17120000000E+03 0.  0.
        998    1    1    2    0    0 -0.19946518131E+02  0.23537988714E+01  0.14416356224E+04  0.14418102065E+04  0.10000000000E+02 0.  1.
</event>
<event>
 5    1  0.1218060E-008  0.3838825E+03  0.7957747E-01  0.3434426E+00
         13   -1    0    0    0    0  0.00000000000E+00  0.00000000000E+00  0.14999999963E+04  0.15000000000E+04  0.10566000000E+00 0.  1.
        994   -1    0    0    0    0 -0.00000000000E+00 -0.00000000000E+00  0.11368683772E-12  0.17120000000E+03  0.17120000000E+03 0.  0.
         13    1    1    2    0    0  0.79272988758E+01  0.19410019116E+02  0.10099338754E+03  0.10314681963E+03  0.10566000000E+00 0.  1.
        994    1    1    2    0    0 -0.91291559994E+00 -0.12410273190E+02  0.26972368872E+01  0.17167283822E+03  0.17120000000E+03 0.  0.
        998    1    1    2    0    0 -0.70143832759E+01 -0.69997459260E+01  0.13963093718E+04  0.13963803421E+04  0.10000000000E+02 0.  1.
</event>
<event>
 5    1  0.1218060E-008  0.3704667E+03  0.7957747E-01  0.3493749E+00
         13   -1    0    0    0    0  0.00000000000E+00  0.00000000000E+00  0.14999999963E+04  0.15000000000E+04  0.10566000000E+00 0.  1.
        994   -1    0    0    0    0 -0.00000000000E+00 -0.00000000000E+00  0.11368683772E-12  0.17120000000E+03  0.17120000000E+03 0.  0.
         13    1    1    2    0    0 -0.28934266702E+02 -0.44822324956E+02  0.14746474856E+03  0.15681867183E+03  0.10566000000E+00 0.  1.
        994    1    1    2    0    0  0.20925825333E+02  0.37276412270E+02  0.15360264515E+02  0.17712368222E+03  0.17120000000E+03 0.  0.
        998    1    1    2    0    0  0.80084413686E+01  0.75459126861E+01  0.13371749832E+04  0.13372576459E+04  0.10000000000E+02 0.  1.
</event>
<event>
 5    1  0.1519182E-008  0.3862603E+03  0.7957747E-01  0.3424345E+00
         13   -1    0    0    0    0  0.00000000000E+00  0.00000000000E+00  0.14999999963E+04  0.15000000000E+04  0.10566000000E+00 0.  1.
        994   -1    0    0    0    0 -0.00000000000E+00 -0.00000000000E+00  0.11368683772E-12  0.17120000000E+03  0.17120000000E+03 0.  0.
         13    1    1    2    0    0  0.11709819454E+02 -0.65147453447E+01  0.80829573655E+02  0.81932856168E+02  0.10566000000E+00 0.  1.
        994    1    1    2    0    0 -0.22019151197E+02  0.56550341775E+01  0.27002774502E+01  0.17272392402E+03  0.17120000000E+03 0.  0.
        998    1    1    2    0    0  0.10309331743E+02  0.85971116718E+00  0.14164701452E+04  0.14165432198E+04  0.10000000000E+02 0.  1.
</event>
<event>
 5    1  0.1218060E-008  0.3748081E+03  0.7957747E-01  0.3474082E+00
         13   -1    0    0    0    0  0.00000000000E+00  0.00000000000E+00  0.14999999963E+04  0.15000000000E+04  0.10566000000E+00 0.  1.
        994   -1    0    0    0    0 -0.00000000000E+00 -0.00000000000E+00  0.11368683772E-12  0.17120000000E+03  0.17120000000E+03 0.  0.
         13    1    1    2    0    0 -0.12655754303E+02  0.45891250469E+01  0.10291406161E+02  0.16945571412E+02  0.10566000000E+00 0.  1.
        994    1    1    2    0    0  0.10411957048E+02 -0.49715944911E+01  0.72302607830E+01  0.17174062499E+03  0.17120000000E+03 0.  0.
        998    1    1    2    0    0  0.22437972549E+01  0.38246944418E+00  0.14824783293E+04  0.14825138036E+04  0.10000000000E+02 0.  1.
</event>
<event>
 5    1  0.1218060E-008  0.3734181E+03  0.7957747E-01  0.3480328E+00
         13   -1    0    0    0    0  0.00000000000E+00  0.00000000000E+00  0.14999999963E+04  0.15000000000E+04  0.10566000000E+00 0. -1.
        994   -1    0    0    0    0 -0.00000000000E+00 -0.00000000000E+00  0.11368683772E-12  0.17120000000E+03  0.17120000000E+03 0.  0.
         13    1    1    2    0    0  0.17526935114E+02 -0.17923901547E+02  0.19040443216E+02  0.31480300873E+02  0.10566000000E+00 0. -1.
        994    1    1    2    0    0 -0.13121880875E+02  0.19333614447E+02  0.14691932025E+02  0.17341068385E+03  0.17120000000E+03 0.  0.
        998    1    1    2    0    0 -0.44050542382E+01 -0.14097129004E+01  0.14662676210E+04  0.14663090153E+04  0.10000000000E+02 0. -1.
</event>
<event>
 5    1  0.1218060E-008  0.3700510E+03  0.7957747E-01  0.3495657E+00
         13   -1    0    0    0    0  0.00000000000E+00  0.00000000000E+00  0.14999999963E+04  0.15000000000E+04  0.10566000000E+00 0.  1.
        994   -1    0    0    0    0 -0.00000000000E+00 -0.00000000000E+00  0.11368683772E-12  0.17120000000E+03  0.17120000000E+03 0.  0.
         13    1    1    2    0    0  0.30427738409E+02  0.81901103582E+01  0.38817913735E+02  0.49997667577E+02  0.10566000000E+00 0.  1.
        994    1    1    2    0    0 -0.42576881787E+02 -0.37812861441E+01  0.17381708125E+02  0.17730948301E+03  0.17120000000E+03 0.  0.
        998    1    1    2    0    0  0.12149143377E+02 -0.44088242141E+01  0.14438003744E+04  0.14438928494E+04  0.10000000000E+02 0.  1.
</event>
<event>
 5    1  0.1218060E-008  0.3761386E+03  0.7957747E-01  0.3468146E+00
         13   -1    0    0    0    0  0.00000000000E+00  0.00000000000E+00  0.14999999963E+04  0.15000000000E+04  0.10566000000E+00 0. -1.
        994   -1    0    0    0    0 -0.00000000000E+00 -0.00000000000E+00  0.11368683772E-12  0.17120000000E+03  0.17120000000E+03 0.  0.
         13    1    1    2    0    0 -0.16486849998E+02  0.35591341834E+02  0.11532078421E+03  0.12180908945E+03  0.10566000000E+00 0. -1.
        994    1    1    2    0    0  0.12811933324E+02 -0.37402758524E+02  0.11406548092E+02  0.17607572610E+03  0.17120000000E+03 0.  0.
        998    1    1    2    0    0  0.36749166738E+01  0.18114166898E+01  0.13732726640E+04  0.13733151845E+04  0.10000000000E+02 0. -1.
</event>
<event>
 5    1  0.1218060E-008  0.3721338E+03  0.7957747E-01  0.3486141E+00
         13   -1    0    0    0    0  0.00000000000E+00  0.00000000000E+00  0.14999999963E+04  0.15000000000E+04  0.10566000000E+00 0. -1.
        994   -1    0    0    0    0 -0.00000000000E+00 -0.00000000000E+00  0.11368683772E-12  0.17120000000E+03  0.17120000000E+03 0.  0.
         13    1    1    2    0    0  0.31629351060E+02  0.32212151303E+01  0.56122885311E+02  0.64502569678E+02  0.10566000000E+00 0. -1.
        994    1    1    2    0    0 -0.36009447356E+02 -0.17395064923E+01  0.12632230199E+02  0.17541014629E+03  0.17120000000E+03 0.  0.
        998    1    1    2    0    0  0.43800962959E+01 -0.14817086379E+01  0.14312448808E+04  0.14312872840E+04  0.10000000000E+02 0. -1.
</event>
<event>
 5    1  0.1218060E-008  0.3818362E+03  0.7957747E-01  0.3443202E+00
         13   -1    0    0    0    0  0.00000000000E+00  0.00000000000E+00  0.14999999963E+04  0.15000000000E+04  0.10566000000E+00 0. -1.
        994   -1    0    0    0    0 -0.00000000000E+00 -0.00000000000E+00  0.11368683772E-12  0.17120000000E+03  0.17120000000E+03 0.  0.
         13    1    1    2    0    0 -0.23856389914E+00  0.16938067089E+02  0.46121727121E+02  0.49134304779E+02  0.10566000000E+00 0. -1.
        994    1    1    2    0    0  0.12874369588E+02  0.29456372454E+01  0.37888768488E+01  0.17175046364E+03  0.17120000000E+03 0.  0.
        998    1    1    2    0    0 -0.12635805689E+02 -0.19883704335E+02  0.14500893923E+04  0.14503152316E+04  0.10000000000E+02 0. -1.
</event>
<event>
 5    1  0.1218060E-008  0.3779350E+03  0.7957747E-01  0.3460199E+00
         13   -1    0    0    0    0  0.00000000000E+00  0.00000000000E+00  0.14999999963E+04  0.15000000000E+04  0.10566000000E+00 0. -1.
        994   -1    0    0    0    0 -0.00000000000E+00 -0.00000000000E+00  0.11368683772E-12  0.17120000000E+03  0.17120000000E+03 0.  0.
         13    1    1    2    0    0  0.29357829929E+02  0.30135784478E+02  0.20928963128E+03  0.21347648257E+03  0.10566000000E+00 0. -1.
        994    1    1    2    0    0 -0.26323857321E+01  0.10317454547E+02  0.55608962964E+01  0.17162092789E+03  0.17120000000E+03 0.  0.
        998    1    1    2    0    0 -0.26725444197E+02 -0.40453239026E+02  0.12851494687E+04  0.12861025895E+04  0.10000000000E+02 0. -1.
</event>
<event>
 5    1  0.1218060E-008  0.3808517E+03  0.7957747E-01  0.3447458E+00
         13   -1    0    0    0    0  0.00000000000E+00  0.00000000000E+00  0.14999999963E+04  0.15000000000E+04  0.10566000000E+00 0. -1.
        994   -1    0    0    0    0 -0.00000000000E+00 -0.00000000000E+00  0.11368683772E-12  0.17120000000E+03  0.17120000000E+03 0.  0.
         13    1    1    2    0    0  0.73678512771E+01 -0.17670290699E+02  0.48091044839E+02  0.51761802167E+02  0.10566000000E+00 0. -1.
        994    1    1    2    0    0 -0.54786809060E+01  0.11537838546E+02  0.42478502767E+01  0.17172833748E+03  0.17120000000E+03 0.  0.
        998    1    1    2    0    0 -0.18891703711E+01  0.61324521522E+01  0.14476611012E+04  0.14477098603E+04  0.10000000000E+02 0. -1.
</event>
<event>
 5    1  0.1218060E-008  0.3848484E+03  0.7957747E-01  0.3430316E+00
         13   -1    0    0    0    0  0.00000000000E+00  0.00000000000E+00  0.14999999963E+04  0.15000000000E+04  0.10566000000E+00 0. -1.
        994   -1    0    0    0    0 -0.00000000000E+00 -0.00000000000E+00  0.11368683772E-12  0.17120000000E+03  0.17120000000E+03 0.  0.
         13    1    1    2    0    0  0.48307112866E+01  0.20482560703E+02  0.10848966600E+03  0.11051194441E+03  0.10566000000E+00 0. -1.
        994    1    1    2    0    0  0.47812611835E+00 -0.37549744446E+02  0.63592358530E+01  0.17538555184E+03  0.17120000000E+03 0.  0.
        998    1    1    2    0    0 -0.53088374050E+01  0.17067183743E+02  0.13851510944E+04  0.13853025038E+04  0.10000000000E+02 0. -1.
</event>
<event>
 5    1  0.1218060E-008  0.3815969E+03  0.7957747E-01  0.3444234E+00
         13   -1    0    0    0    0  0.00000000000E+00  0.00000000000E+00  0.14999999963E+04  0.15000000000E+04  0.10566000000E+00 0.  1.
        994   -1    0    0    0    0 -0.00000000000E+00 -0.00000000000E+00  0.11368683772E-12  0.17120000000E+03  0.17120000000E+03 0.  0.
         13    1    1    2    0    0  0.69391423700E+01  0.17437284173E+02  0.50973854370E+02  0.54319016648E+02  0.10566000000E+00 0.  1.
        994    1    1    2    0    0 -0.74123384143E+01 -0.14131525328E+02  0.41764289638E+01  0.17199280603E+03  0.17120000000E+03 0.  0.
        998    1    1    2    0    0  0.47319604434E+00 -0.33057588446E+01  0.14448497129E+04  0.14448881773E+04  0.10000000000E+02 0.  1.
</event>
<event>
 5    1  0.1218060E-008  0.3842972E+03  0.7957747E-01  0.3432658E+00
         13   -1    0    0    0    0  0.00000000000E+00  0.00000000000E+00  0.14999999963E+04  0.15000000000E+04  0.10566000000E+00 0. -1.
        994   -1    0    0    0    0 -0.00000000000E+00 -0.00000000000E+00  0.11368683772E-12  0.17120000000E+03  0.17120000000E+03 0.  0.
         13    1    1    2    0    0  0.19469088596E+01  0.13991030642E+02  0.51533099173E+02  0.53434173213E+02  0.10566000000E+00 0. -1.
        994    1    1    2    0    0 -0.15539192062E+02 -0.18241704647E+01  0.27867791767E+01  0.17193603527E+03  0.17120000000E+03 0.  0.
        998    1    1    2    0    0  0.13592283202E+02 -0.12166860178E+02  0.14456801179E+04  0.14458297915E+04  0.10000000000E+02 0. -1.
</event>
<event>
 5    1  0.1218060E-008  0.3809621E+03  0.7957747E-01  0.3446980E+00
         13   -1    0    0    0    0  0.00000000000E+00  0.00000000000E+00  0.14999999963E+04  0.15000000000E+04  0.10566000000E+00 0.  1.
        994   -1    0    0    0    0 -0.00000000000E+00 -0.00000000000E+00  0.11368683772E-12  0.17120000000E+03  0.17120000000E+03 0.  0.
         13    1    1    2    0    0 -0.55653437175E+02 -0.80053967069E+01  0.33188464810E+03  0.33661375827E+03  0.10566000000E+00 0.  1.
        994    1    1    2    0    0  0.57985342254E+02  0.57414261193E+01  0.15046317430E+02  0.18146926891E+03  0.17120000000E+03 0.  0.
        998    1    1    2    0    0 -0.23319050794E+01  0.22639705876E+01  0.11530690307E+04  0.11531169728E+04  0.10000000000E+02 0.  0.
</event>
<event>
 5    1  0.1218060E-008  0.3817376E+03  0.7957747E-01  0.3443627E+00
         13   -1    0    0    0    0  0.00000000000E+00  0.00000000000E+00  0.14999999963E+04  0.15000000000E+04  0.10566000000E+00 0. -1.
        994   -1    0    0    0    0 -0.00000000000E+00 -0.00000000000E+00  0.11368683772E-12  0.17120000000E+03  0.17120000000E+03 0.  0.
         13    1    1    2    0    0  0.35330616204E+01  0.76336582012E+02  0.19067586538E+03  0.20541921303E+03  0.10566000000E+00 0. -1.
        994    1    1    2    0    0 -0.88466466741E+02 -0.89290094215E+01  0.46720243352E+02  0.19848995966E+03  0.17120000000E+03 0.  0.
        998    1    1    2    0    0  0.84933405121E+02 -0.67407572591E+02  0.12626038875E+04  0.12672908273E+04  0.10000000000E+02 0. -1.
</event>
<event>
 5    1  0.1218060E-008  0.4241393E+03  0.7957747E-01  0.3278940E+00
         13   -1    0    0    0    0  0.00000000000E+00  0.00000000000E+00  0.14999999963E+04  0.15000000000E+04  0.10566000000E+00 0. -1.
        994   -1    0    0    0    0 -0.00000000000E+00 -0.00000000000E+00  0.11368683772E-12  0.17120000000E+03  0.17120000000E+03 0.  0.
         13    1    1    2    0    0 -0.49526713247E+02 -0.64635717916E+02  0.59115158280E+02  0.10062447246E+03  0.10566000000E+00 0. -1.
        994    1    1    2    0    0  0.82167953589E+02  0.50130390147E+02  0.84707719462E+02  0.21389124889E+03  0.17120000000E+03 0.  0.
        998    1    1    2    0    0 -0.32641240341E+02  0.14505327769E+02  0.13561771185E+04  0.13566842787E+04  0.10000000000E+02 0. -1.
</event>
<event>
 5    1  0.1218060E-008  0.3725045E+03  0.7957747E-01  0.3484459E+00
         13   -1    0    0    0    0  0.00000000000E+00  0.00000000000E+00  0.14999999963E+04  0.15000000000E+04  0.10566000000E+00 0. -1.
        994   -1    0    0    0    0 -0.00000000000E+00 -0.00000000000E+00  0.11368683772E-12  0.17120000000E+03  0.17120000000E+03 0.  0.
         13    1    1    2    0    0  0.19502450352E+02 -0.45614964388E+01  0.11104483118E+02  0.22901387051E+02  0.10566000000E+00 0. -1.
        994    1    1    2    0    0 -0.68781690019E+01  0.13127735795E+02  0.13044304399E+02  0.17233467595E+03  0.17120000000E+03 0.  0.
        998    1    1    2    0    0 -0.12624281350E+02 -0.85662393559E+01  0.14758512088E+04  0.14759639370E+04  0.10000000000E+02 0. -1.
</event>
<event>
 5    1  0.1218060E-008  0.3822848E+03  0.7957747E-01  0.3441270E+00
         13   -1    0    0    0    0  0.00000000000E+00  0.00000000000E+00  0.14999999963E+04  0.15000000000E+04  0.10566000000E+00 0.  1.
        994   -1    0    0    0    0 -0.00000000000E+00 -0.00000000000E+00  0.11368683772E-12  0.17120000000E+03  0.17120000000E+03 0.  0.
         13    1    1    2    0    0  0.24862001727E+02  0.31285560811E+02  0.22240099364E+03  0.22596264864E+03  0.10566000000E+00 0.  1.
        994    1    1    2    0    0 -0.20567190948E+02 -0.39490810235E+02  0.95900385844E+01  0.17715513618E+03  0.17120000000E+03 0.  0.
        998    1    1    2    0    0 -0.42948107784E+01  0.82052494247E+01  0.12680089641E+04  0.12680822152E+04  0.10000000000E+02 0.  1.
</event>
<event>
 5    1  0.1218060E-008  0.3730047E+03  0.7957747E-01  0.3482195E+00
         13   -1    0    0    0    0  0.00000000000E+00  0.00000000000E+00  0.14999999963E+04  0.15000000000E+04  0.10566000000E+00 0. -1.
        994   -1    0    0    0    0 -0.00000000000E+00 -0.00000000000E+00  0.11368683772E-12  0.17120000000E+03  0.17120000000E+03 0.  0.
         13    1    1    2    0    0 -0.22186667717E+02 -0.58299979805E+02  0.23359820715E+03  0.24178351767E+03  0.10566000000E+00 0. -1.
        994    1    1    2    0    0  0.11088623443E+02  0.46294715441E+02  0.15502283954E+02  0.17837017423E+03  0.17120000000E+03 0.  0.
        998    1    1    2    0    0  0.11098044273E+02  0.12005264364E+02  0.12508995052E+04  0.12510463081E+04  0.10000000000E+02 0. -1.
</event>
<event>
 5    1  0.1218060E-008  0.3826438E+03  0.7957747E-01  0.3439727E+00
         13   -1    0    0    0    0  0.00000000000E+00  0.00000000000E+00  0.14999999963E+04  0.15000000000E+04  0.10566000000E+00 0.  1.
        994   -1    0    0    0    0 -0.00000000000E+00 -0.00000000000E+00  0.11368683772E-12  0.17120000000E+03  0.17120000000E+03 0.  0.
         13    1    1    2    0    0 -0.17747103923E+02 -0.21070301706E+02  0.12450958809E+03  0.12752084537E+03  0.10566000000E+00 0.  1.
        994    1    1    2    0    0  0.24281629754E+02  0.16249176715E+02  0.56385225609E+01  0.17376670056E+03  0.17120000000E+03 0.  0.
        998    1    1    2    0    0 -0.65345258304E+01  0.48211249905E+01  0.13698518856E+04  0.13699124541E+04  0.10000000000E+02 0.  1.
</event>
<event>
 5    1  0.1218060E-008  0.3861213E+03  0.7957747E-01  0.3424931E+00
         13   -1    0    0    0    0  0.00000000000E+00  0.00000000000E+00  0.14999999963E+04  0.15000000000E+04  0.10566000000E+00 0. -1.
        994   -1    0    0    0    0 -0.00000000000E+00 -0.00000000000E+00  0.11368683772E-12  0.17120000000E+03  0.17120000000E+03 0.  0.
         13    1    1    2    0    0  0.13251998251E+02  0.63213406009E+00  0.78095669213E+02  0.79214643627E+02  0.10566000000E+00 0. -1.
        994    1    1    2    0    0 -0.16898277963E+02  0.12373908225E+02  0.25131645953E+01  0.17249469963E+03  0.17120000000E+03 0.  0.
        998    1    1    2    0    0  0.36462797125E+01 -0.13006042285E+02  0.14193911625E+04  0.14194906567E+04  0.10000000000E+02 0. -1.
</event>
<event>
 5    1  0.1218060E-008  0.3795474E+03  0.7957747E-01  0.3453132E+00
         13   -1    0    0    0    0  0.00000000000E+00  0.00000000000E+00  0.14999999963E+04  0.15000000000E+04  0.10566000000E+00 0. -1.
        994   -1    0    0    0    0 -0.00000000000E+00 -0.00000000000E+00  0.11368683772E-12  0.17120000000E+03  0.17120000000E+03 0.  0.
         13    1    1    2    0    0 -0.26405955389E+02 -0.22045372091E+02  0.13069947374E+03  0.13515042179E+03  0.10566000000E+00 0. -1.
        994    1    1    2    0    0  0.16817393882E+02  0.18829959613E+02  0.64986674995E+01  0.17317351066E+03  0.17120000000E+03 0.  0.
        998    1    1    2    0    0  0.95885615070E+01  0.32154124779E+01  0.13628018550E+04  0.13628760675E+04  0.10000000000E+02 0. -1.
</event>
<event>
 5    1  0.1218060E-008  0.3767870E+03  0.7957747E-01  0.3465269E+00
         13   -1    0    0    0    0  0.00000000000E+00  0.00000000000E+00  0.14999999963E+04  0.15000000000E+04  0.10566000000E+00 0.  1.
        994   -1    0    0    0    0 -0.00000000000E+00 -0.00000000000E+00  0.11368683772E-12  0.17120000000E+03  0.17120000000E+03 0.  0.
         13    1    1    2    0    0 -0.16771359338E+02 -0.22956499294E+02  0.65756969330E+02  0.71639859948E+02  0.10566000000E+00 0.  1.
        994    1    1    2    0    0  0.13583634056E+02  0.23455509802E+02  0.82502206413E+01  0.17352862068E+03  0.17120000000E+03 0.  0.
        998    1    1    2    0    0  0.31877252827E+01 -0.49901050898E+00  0.14259928063E+04  0.14260315194E+04  0.10000000000E+02 0.  1.
</event>
<event>
 5    1  0.1218060E-008  0.3810863E+03  0.7957747E-01  0.3446442E+00
         13   -1    0    0    0    0  0.00000000000E+00  0.00000000000E+00  0.14999999963E+04  0.15000000000E+04  0.10566000000E+00 0. -1.
        994   -1    0    0    0    0 -0.00000000000E+00 -0.00000000000E+00  0.11368683772E-12  0.17120000000E+03  0.17120000000E+03 0.  0.
         13    1    1    2    0    0 -0.24901456696E+02 -0.26719319478E+02  0.16655973330E+03  0.17051733197E+03  0.10566000000E+00 0. -1.
        994    1    1    2    0    0  0.19970975247E+02  0.30877255973E+02  0.81031880263E+01  0.17529217451E+03  0.17120000000E+03 0.  0.
        998    1    1    2    0    0  0.49304814493E+01 -0.41579364949E+01  0.13253370749E+04  0.13253904935E+04  0.10000000000E+02 0. -1.
</event>
<event>
 5    1  0.1218060E-008  0.3856168E+03  0.7957747E-01  0.3427060E+00
         13   -1    0    0    0    0  0.00000000000E+00  0.00000000000E+00  0.14999999963E+04  0.15000000000E+04  0.10566000000E+00 0.  1.
        994   -1    0    0    0    0 -0.00000000000E+00 -0.00000000000E+00  0.11368683772E-12  0.17120000000E+03  0.17120000000E+03 0.  0.
         13    1    1    2    0    0  0.40625906857E+01  0.10978446530E+02  0.49804445974E+02  0.51161752649E+02  0.10566000000E+00 0.  1.
        994    1    1    2    0    0 -0.81053688242E+01 -0.13115161708E+02  0.21047642811E+01  0.17190571399E+03  0.17120000000E+03 0.  0.
        998    1    1    2    0    0  0.40427781385E+01  0.21367151773E+01  0.14480907860E+04  0.14481325334E+04  0.10000000000E+02 0.  1.
</event>
<event>
 5    1  0.1218060E-008  0.3841845E+03  0.7957747E-01  0.3433138E+00
         13   -1    0    0    0    0  0.00000000000E+00  0.00000000000E+00  0.14999999963E+04  0.15000000000E+04  0.10566000000E+00 0. -1.
        994   -1    0    0    0    0 -0.00000000000E+00 -0.00000000000E+00  0.11368683772E-12  0.17120000000E+03  0.17120000000E+03 0.  0.
         13    1    1    2    0    0  0.10202998255E+02 -0.87577552872E+01  0.44226553543E+02  0.46225519503E+02  0.10566000000E+00 0. -1.
        994    1    1    2    0    0 -0.34094550936E+01  0.80688677805E+01  0.22886289196E+01  0.17143922781E+03  0.17120000000E+03 0.  0.
        998    1    1    2    0    0 -0.67935431615E+01  0.68888750675E+00  0.14534848138E+04  0.14535352527E+04  0.10000000000E+02 0. -1.
</event>
<event>
 5    1  0.1218060E-008  0.4005798E+03  0.7957747E-01  0.3366170E+00
         13   -1    0    0    0    0  0.00000000000E+00  0.00000000000E+00  0.14999999963E+04  0.15000000000E+04  0.10566000000E+00 0.  1.
        994   -1    0    0    0    0 -0.00000000000E+00 -0.00000000000E+00  0.11368683772E-12  0.17120000000E+03  0.17120000000E+03 0.  0.
         13    1    1    2    0    0 -0.43903800815E+02  0.15811784451E+02  0.27481599533E+02  0.54155385055E+02  0.10566000000E+00 0.  1.
        994    1    1    2    0    0  0.43095046693E+02 -0.17692877845E+02  0.36688781971E+02  0.18117871756E+03  0.17120000000E+03 0.  0.
        998    1    1    2    0    0  0.80875412189E+00  0.18810933945E+01  0.14358296148E+04  0.14358658974E+04  0.10000000000E+02 0.  0.
</event>
<event>
 5    1  0.1218060E-008  0.3702146E+03  0.7957747E-01  0.3494905E+00
         13   -1    0    0    0    0  0.00000000000E+00  0.00000000000E+00  0.14999999963E+04  0.15000000000E+04  0.10566000000E+00 0.  1.
        994   -1    0    0    0    0 -0.00000000000E+00 -0.00000000000E+00  0.11368683772E-12  0.17120000000E+03  0.17120000000E+03 0.  0.
         13    1    1    2    0    0 -0.26466878291E+02 -0.13769760066E+03  0.84404254855E+03  0.85561028500E+03  0.10566000000E+00 0.  1.
        994    1    1    2    0    0  0.10591241083E+02  0.10328965697E+03  0.47384704437E+02  0.20575635553E+03  0.17120000000E+03 0.  0.
        998    1    1    2    0    0  0.15875637208E+02  0.34407943688E+02  0.60857274329E+03  0.60983335947E+03  0.10000000000E+02 0.  1.
</event>
<event>
 5    1  0.1218060E-008  0.3859342E+03  0.7957747E-01  0.3425720E+00
         13   -1    0    0    0    0  0.00000000000E+00  0.00000000000E+00  0.14999999963E+04  0.15000000000E+04  0.10566000000E+00 0.  1.
        994   -1    0    0    0    0 -0.00000000000E+00 -0.00000000000E+00  0.11368683772E-12  0.17120000000E+03  0.17120000000E+03 0.  0.
         13    1    1    2    0    0  0.14110058425E+01 -0.13280306191E+02  0.77655671760E+02  0.78795761247E+02  0.10566000000E+00 0.  1.
        994    1    1    2    0    0  0.10239564455E+02  0.94447773974E+01  0.18035101853E+01  0.17177527514E+03  0.17120000000E+03 0.  0.
        998    1    1    2    0    0 -0.11650570298E+02  0.38355287934E+01  0.14205408143E+04  0.14206289636E+04  0.10000000000E+02 0.  1.
</event>
<event>
 5    1  0.1218060E-008  0.3816452E+03  0.7957747E-01  0.3444026E+00
         13   -1    0    0    0    0  0.00000000000E+00  0.00000000000E+00  0.14999999963E+04  0.15000000000E+04  0.10566000000E+00 0.  1.
        994   -1    0    0    0    0 -0.00000000000E+00 -0.00000000000E+00  0.11368683772E-12  0.17120000000E+03  0.17120000000E+03 0.  0.
         13    1    1    2    0    0 -0.20696674049E+02 -0.25045973810E+02  0.18687064733E+03  0.18967420257E+03  0.10566000000E+00 0.  1.
        994    1    1    2    0    0 -0.33482383524E+02  0.30763553626E+02  0.10209662410E+02  0.17742926321E+03  0.17120000000E+03 0.  0.
        998    1    1    2    0    0  0.54179057573E+02 -0.57175798161E+01  0.13029196865E+04  0.13040965342E+04  0.10000000000E+02 0.  1.
</event>
<event>
 5    1  0.1218060E-008  0.3804417E+03  0.7957747E-01  0.3449238E+00
         13   -1    0    0    0    0  0.00000000000E+00  0.00000000000E+00  0.14999999963E+04  0.15000000000E+04  0.10566000000E+00 0.  1.
        994   -1    0    0    0    0 -0.00000000000E+00 -0.00000000000E+00  0.11368683772E-12  0.17120000000E+03  0.17120000000E+03 0.  0.
         13    1    1    2    0    0  0.75317992887E+02 -0.22921565134E+03  0.11180961405E+04  0.11438319830E+04  0.10566000000E+00 0.  1.
        994    1    1    2    0    0 -0.76242651568E+02  0.22389967616E+03  0.22131911634E+03  0.36638176559E+03  0.17120000000E+03 0.  0.
        998    1    1    2    0    0  0.92465868089E+00  0.53159751799E+01  0.16058473945E+03  0.16098625137E+03  0.10000000000E+02 0.  0.
</event>
<event>
 5    1  0.1218060E-008  0.3770845E+03  0.7957747E-01  0.3463953E+00
         13   -1    0    0    0    0  0.00000000000E+00  0.00000000000E+00  0.14999999963E+04  0.15000000000E+04  0.10566000000E+00 0.  1.
        994   -1    0    0    0    0 -0.00000000000E+00 -0.00000000000E+00  0.11368683772E-12  0.17120000000E+03  0.17120000000E+03 0.  0.
         13    1    1    2    0    0 -0.53543688524E+01 -0.18280842117E+02  0.29708539142E+02  0.35291173348E+02  0.10566000000E+00 0.  1.
        994    1    1    2    0    0  0.37394435498E+01  0.16460133406E+02  0.65745087036E+01  0.17215569579E+03  0.17120000000E+03 0.  0.
        998    1    1    2    0    0  0.16149253026E+01  0.18207087114E+01  0.14637169484E+04  0.14637531309E+04  0.10000000000E+02 0.  1.
</event>
<event>
 5    1  0.1218060E-008  0.3815804E+03  0.7957747E-01  0.3444306E+00
         13   -1    0    0    0    0  0.00000000000E+00  0.00000000000E+00  0.14999999963E+04  0.15000000000E+04  0.10566000000E+00 0.  1.
        994   -1    0    0    0    0 -0.00000000000E+00 -0.00000000000E+00  0.11368683772E-12  0.17120000000E+03  0.17120000000E+03 0.  0.
         13    1    1    2    0    0 -0.19661463903E+01 -0.35876916495E+02  0.20112499751E+03  0.20430931123E+03  0.10566000000E+00 0.  1.
        994    1    1    2    0    0  0.82824734363E+01  0.15061148382E+02  0.43205952736E+01  0.17211491830E+03  0.17120000000E+03 0.  0.
        998    1    1    2    0    0 -0.63163270460E+01  0.20815768113E+02  0.12945544035E+04  0.12947757705E+04  0.10000000000E+02 0.  1.
</event>
<event>
 5    1  0.1218060E-008  0.3712459E+03  0.7957747E-01  0.3490185E+00
         13   -1    0    0    0    0  0.00000000000E+00  0.00000000000E+00  0.14999999963E+04  0.15000000000E+04  0.10566000000E+00 0. -1.
        994   -1    0    0    0    0 -0.00000000000E+00 -0.00000000000E+00  0.11368683772E-12  0.17120000000E+03  0.17120000000E+03 0.  0.
         13    1    1    2    0    0  0.93135593074E+02 -0.13338061351E+02  0.39984759277E+03  0.41076787993E+03  0.10566000000E+00 0. -1.
        994    1    1    2    0    0 -0.81915361856E+02  0.33674109248E+02  0.36130132048E+02  0.19610940463E+03  0.17120000000E+03 0.  0.
        998    1    1    2    0    0 -0.11220231219E+02 -0.20336047897E+02  0.10640222715E+04  0.10643227154E+04  0.10000000000E+02 0. -1.
</event>
<event>
 5    1  0.1218060E-008  0.3751329E+03  0.7957747E-01  0.3472629E+00
         13   -1    0    0    0    0  0.00000000000E+00  0.00000000000E+00  0.14999999963E+04  0.15000000000E+04  0.10566000000E+00 0. -1.
        994   -1    0    0    0    0 -0.00000000000E+00 -0.00000000000E+00  0.11368683772E-12  0.17120000000E+03  0.17120000000E+03 0.  0.
         13    1    1    2    0    0  0.13208708107E+02  0.23852452924E+01  0.11589753563E+02  0.17733948141E+02  0.10566000000E+00 0. -1.
        994    1    1    2    0    0  0.34520170214E+02 -0.27394378253E+02  0.13237841458E+02  0.17727598415E+03  0.17120000000E+03 0.  0.
        998    1    1    2    0    0 -0.47728878321E+02  0.25009132960E+02  0.14751724013E+04  0.14761900677E+04  0.10000000000E+02 0. -1.
</event>
<event>
 5    1  0.1218060E-008  0.4512380E+03  0.7957747E-01  0.3189646E+00
         13   -1    0    0    0    0  0.00000000000E+00  0.00000000000E+00  0.14999999963E+04  0.15000000000E+04  0.10566000000E+00 0.  1.
        994   -1    0    0    0    0 -0.00000000000E+00 -0.00000000000E+00  0.11368683772E-12  0.17120000000E+03  0.17120000000E+03 0.  0.
         13    1    1    2    0    0 -0.20196885490E+02 -0.34174736579E+02 -0.11493250465E+02  0.41327143308E+02  0.10566000000E+00 0.  1.
        994    1    1    2    0    0  0.30971380657E+02  0.36114436047E+02  0.74289200621E+02  0.19259232653E+03  0.17120000000E+03 0.  0.
        998    1    1    2    0    0 -0.10774495167E+02 -0.19396994673E+01  0.14372040461E+04  0.14372805302E+04  0.10000000000E+02 0.  1.
</event>
<event>
 5    1  0.1218060E-008  0.3847084E+03  0.7957747E-01  0.3430910E+00
         13   -1    0    0    0    0  0.00000000000E+00  0.00000000000E+00  0.14999999963E+04  0.15000000000E+04  0.10566000000E+00 0. -1.
        994   -1    0    0    0    0 -0.00000000000E+00 -0.00000000000E+00  0.11368683772E-12  0.17120000000E+03  0.17120000000E+03 0.  0.
         13    1    1    2    0    0 -0.86903978475E+01 -0.20565315118E+02  0.12952518801E+03  0.13143530992E+03  0.10566000000E+00 0. -1.
        994    1    1    2    0    0  0.58841060168E+01  0.22686649200E+02  0.35852504670E+01  0.17283402667E+03  0.17120000000E+03 0.  0.
        998    1    1    2    0    0  0.28062918307E+01 -0.21213340821E+01  0.13668895578E+04  0.13669306634E+04  0.10000000000E+02 0. -1.
</event>
<event>
 5    1  0.1218060E-008  0.3780665E+03  0.7957747E-01  0.3459621E+00
         13   -1    0    0    0    0  0.00000000000E+00  0.00000000000E+00  0.14999999963E+04  0.15000000000E+04  0.10566000000E+00 0. -1.
        994   -1    0    0    0    0 -0.00000000000E+00 -0.00000000000E+00  0.11368683772E-12  0.17120000000E+03  0.17120000000E+03 0.  0.
         13    1    1    2    0    0  0.24666573584E+02  0.45250941593E+01  0.13102938551E+02  0.28295131953E+02  0.10566000000E+00 0. -1.
        994    1    1    2    0    0 -0.45125542828E+02 -0.95152297300E+01  0.22961219173E+02  0.17878342149E+03  0.17120000000E+03 0.  0.
        998    1    1    2    0    0  0.20458969244E+02  0.49901355707E+01  0.14639358386E+04  0.14641214466E+04  0.10000000000E+02 0. -1.
</event>
<event>
 5    1  0.1218060E-008  0.3856953E+03  0.7957747E-01  0.3426729E+00
         13   -1    0    0    0    0  0.00000000000E+00  0.00000000000E+00  0.14999999963E+04  0.15000000000E+04  0.10566000000E+00 0. -1.
        994   -1    0    0    0    0 -0.00000000000E+00 -0.00000000000E+00  0.11368683772E-12  0.17120000000E+03  0.17120000000E+03 0.  0.
         13    1    1    2    0    0  0.94930652958E+01  0.34574550376E+01  0.39109085716E+02  0.40393118642E+02  0.10566000000E+00 0. -1.
        994    1    1    2    0    0 -0.16790105087E+02  0.14077209505E+02  0.28621359830E+01  0.17262012420E+03  0.17120000000E+03 0.  0.
        998    1    1    2    0    0  0.72970397908E+01 -0.17534664542E+02  0.14580287746E+04  0.14581867572E+04  0.10000000000E+02 0. -1.
</event>
<event>
 5    1  0.1218060E-008  0.3797453E+03  0.7957747E-01  0.3452268E+00
         13   -1    0    0    0    0  0.00000000000E+00  0.00000000000E+00  0.14999999963E+04  0.15000000000E+04  0.10566000000E+00 0.  1.
        994   -1    0    0    0    0 -0.00000000000E+00 -0.00000000000E+00  0.11368683772E-12  0.17120000000E+03  0.17120000000E+03 0.  0.
         13    1    1    2    0    0 -0.57145663911E+01  0.39528684180E+02  0.18971828008E+03  0.19387679104E+03  0.10566000000E+00 0.  1.
        994    1    1    2    0    0 -0.61234412450E+01 -0.21321971868E+02  0.59100344393E+01  0.17273242754E+03  0.17120000000E+03 0.  0.
        998    1    1    2    0    0  0.11838007636E+02 -0.18206712311E+02  0.13043716818E+04  0.13045907814E+04  0.10000000000E+02 0.  1.
</event>
<event>
 5    1  0.1218060E-008  0.3756552E+03  0.7957747E-01  0.3470298E+00
         13   -1    0    0    0    0  0.00000000000E+00  0.00000000000E+00  0.14999999963E+04  0.15000000000E+04  0.10566000000E+00 0.  1.
        994   -1    0    0    0    0 -0.00000000000E+00 -0.00000000000E+00  0.11368683772E-12  0.17120000000E+03  0.17120000000E+03 0.  0.
         13    1    1    2    0    0 -0.26997039630E+02 -0.15340205271E+02  0.73986129801E+02  0.80237900106E+02  0.10566000000E+00 0.  1.
        994    1    1    2    0    0  0.13777311341E+02  0.13053739712E+02  0.75653324391E+01  0.17241487373E+03  0.17120000000E+03 0.  0.
        998    1    1    2    0    0  0.13219728290E+02  0.22864655584E+01  0.14184485340E+04  0.14185472262E+04  0.10000000000E+02 0.  1.
</event>
<event>
 5    1  0.1218060E-008  0.3734314E+03  0.7957747E-01  0.3480268E+00
         13   -1    0    0    0    0  0.00000000000E+00  0.00000000000E+00  0.14999999963E+04  0.15000000000E+04  0.10566000000E+00 0. -1.
        994   -1    0    0    0    0 -0.00000000000E+00 -0.00000000000E+00  0.11368683772E-12  0.17120000000E+03  0.17120000000E+03 0.  0.
         13    1    1    2    0    0 -0.35345571746E+02 -0.10820394745E+03  0.44516786885E+03  0.45949085552E+03  0.10566000000E+00 0. -1.
        994    1    1    2    0    0  0.14910781256E+02  0.82730897278E+02  0.38212178355E+02  0.19451566347E+03  0.17120000000E+03 0.  0.
        998    1    1    2    0    0  0.20434790490E+02  0.25473050172E+02  0.10166199491E+04  0.10171934810E+04  0.10000000000E+02 0. -1.
</event>
<event>
 5    1  0.1218060E-008  0.3834570E+03  0.7957747E-01  0.3436243E+00
         13   -1    0    0    0    0  0.00000000000E+00  0.00000000000E+00  0.14999999963E+04  0.15000000000E+04  0.10566000000E+00 0. -1.
        994   -1    0    0    0    0 -0.00000000000E+00 -0.00000000000E+00  0.11368683772E-12  0.17120000000E+03  0.17120000000E+03 0.  0.
         13    1    1    2    0    0 -0.17205722529E+02 -0.14634468159E+02  0.10897178470E+03  0.11128820949E+03  0.10566000000E+00 0. -1.
        994    1    1    2    0    0  0.81444966659E+01  0.53034190400E+01  0.27104317497E+01  0.17149707146E+03  0.17120000000E+03 0.  0.
        998    1    1    2    0    0  0.90612258627E+01  0.93310491188E+01  0.13883177798E+04  0.13884147190E+04  0.10000000000E+02 0. -1.
</event>
<event>
 5    1  0.1218060E-008  0.3830425E+03  0.7957747E-01  0.3438017E+00
         13   -1    0    0    0    0  0.00000000000E+00  0.00000000000E+00  0.14999999963E+04  0.15000000000E+04  0.10566000000E+00 0. -1.
        994   -1    0    0    0    0 -0.00000000000E+00 -0.00000000000E+00  0.11368683772E-12  0.17120000000E+03  0.17120000000E+03 0.  0.
         13    1    1    2    0    0 -0.16539271349E+02 -0.17116574806E+02  0.11089754777E+03  0.11342311005E+03  0.10566000000E+00 0. -1.
        994    1    1    2    0    0  0.14187287032E+01  0.13586896661E+02  0.32230115387E+01  0.17177439959E+03  0.17120000000E+03 0.  0.
        998    1    1    2    0    0  0.15120542646E+02  0.35296781447E+01  0.13858794370E+04  0.13860024904E+04  0.10000000000E+02 0. -1.
</event>
<event>
 5    1  0.1218060E-008  0.3831389E+03  0.7957747E-01  0.3437604E+00
         13   -1    0    0    0    0  0.00000000000E+00  0.00000000000E+00  0.14999999963E+04  0.15000000000E+04  0.10566000000E+00 0. -1.
        994   -1    0    0    0    0 -0.00000000000E+00 -0.00000000000E+00  0.11368683772E-12  0.17120000000E+03  0.17120000000E+03 0.  0.
         13    1    1    2    0    0  0.13145123201E+02  0.30605254425E+02  0.19287765363E+03  0.19573266538E+03  0.10566000000E+00 0. -1.
        994    1    1    2    0    0 -0.20126546104E+02 -0.26716443249E+02  0.62676072380E+01  0.17454961787E+03  0.17120000000E+03 0.  0.
        998    1    1    2    0    0  0.69814229033E+01 -0.38888111753E+01  0.13008547354E+04  0.13009177168E+04  0.10000000000E+02 0. -1.
</event>
<event>
 5    1  0.1218060E-008  0.3835222E+03  0.7957747E-01  0.3435964E+00
         13   -1    0    0    0    0  0.00000000000E+00  0.00000000000E+00  0.14999999963E+04  0.15000000000E+04  0.10566000000E+00 0.  1.
        994   -1    0    0    0    0 -0.00000000000E+00 -0.00000000000E+00  0.11368683772E-12  0.17120000000E+03  0.17120000000E+03 0.  0.
         13    1    1    2    0    0 -0.18037369274E+02 -0.89406562242E+01  0.90127328885E+02  0.92348408757E+02  0.10566000000E+00 0.  1.
        994    1    1    2    0    0  0.76180057326E+01 -0.70065756818E+01  0.27196842347E+01  0.17153414470E+03  0.17120000000E+03 0.  0.
        998    1    1    2    0    0  0.10419363542E+02  0.15947231906E+02  0.14071529832E+04  0.14073174465E+04  0.10000000000E+02 0.  1.
</event>
<event>
 5    1  0.1218060E-008  0.3741069E+03  0.7957747E-01  0.3477227E+00
         13   -1    0    0    0    0  0.00000000000E+00  0.00000000000E+00  0.14999999963E+04  0.15000000000E+04  0.10566000000E+00 0.  1.
        994   -1    0    0    0    0 -0.00000000000E+00 -0.00000000000E+00  0.11368683772E-12  0.17120000000E+03  0.17120000000E+03 0.  0.
         13    1    1    2    0    0 -0.48597064796E+02  0.12999276768E+02  0.19831374506E+03  0.20459474223E+03  0.10566000000E+00 0.  1.
        994    1    1    2    0    0  0.10457359319E+02  0.78120432922E+01  0.77191778948E+01  0.17187032929E+03  0.17120000000E+03 0.  0.
        998    1    1    2    0    0  0.38139705477E+02 -0.20811320060E+02  0.12939670733E+04  0.12947349285E+04  0.10000000000E+02 0.  1.
</event>
<event>
 5    1  0.1218060E-008  0.3786942E+03  0.7957747E-01  0.3456864E+00
         13   -1    0    0    0    0  0.00000000000E+00  0.00000000000E+00  0.14999999963E+04  0.15000000000E+04  0.10566000000E+00 0.  1.
        994   -1    0    0    0    0 -0.00000000000E+00 -0.00000000000E+00  0.11368683772E-12  0.17120000000E+03  0.17120000000E+03 0.  0.
         13    1    1    2    0    0 -0.36895637873E+02 -0.33722266912E+01  0.15628174654E+03  0.16061337264E+03  0.10566000000E+00 0.  1.
        994    1    1    2    0    0  0.10346758768E+02 -0.35328296684E+02  0.93570180180E+01  0.17536287449E+03  0.17120000000E+03 0.  0.
        998    1    1    2    0    0  0.26548879105E+02  0.38700523375E+02  0.13343612317E+04  0.13352237529E+04  0.10000000000E+02 0. -1.
</event>
<event>
 5    1  0.1218060E-008  0.3746244E+03  0.7957747E-01  0.3474904E+00
         13   -1    0    0    0    0  0.00000000000E+00  0.00000000000E+00  0.14999999963E+04  0.15000000000E+04  0.10566000000E+00 0.  1.
        994   -1    0    0    0    0 -0.00000000000E+00 -0.00000000000E+00  0.11368683772E-12  0.17120000000E+03  0.17120000000E+03 0.  0.
         13    1    1    2    0    0 -0.26590704930E+02  0.36193438986E+01  0.51829664670E+02  0.58365148358E+02  0.10566000000E+00 0.  1.
        994    1    1    2    0    0  0.44660843853E+01 -0.14710982511E+01  0.69469778632E+01  0.17140539823E+03  0.17120000000E+03 0.  0.
        998    1    1    2    0    0  0.22124620545E+02 -0.21482456475E+01  0.14412233537E+04  0.14414294534E+04  0.10000000000E+02 0.  1.
</event>
<event>
 5    1  0.1218060E-008  0.3832732E+03  0.7957747E-01  0.3437029E+00
         13   -1    0    0    0    0  0.00000000000E+00  0.00000000000E+00  0.14999999963E+04  0.15000000000E+04  0.10566000000E+00 0.  1.
        994   -1    0    0    0    0 -0.00000000000E+00 -0.00000000000E+00  0.11368683772E-12  0.17120000000E+03  0.17120000000E+03 0.  0.
         13    1    1    2    0    0  0.11354667490E+02  0.15149484188E+02  0.70647349969E+02  0.73140239039E+02  0.10566000000E+00 0.  1.
        994    1    1    2    0    0 -0.73072421964E+01 -0.11849629453E+02  0.31311392816E+01  0.17179363649E+03  0.17120000000E+03 0.  0.
        998    1    1    2    0    0 -0.40474252936E+01 -0.32998547352E+01  0.14262215070E+04  0.14262661245E+04  0.10000000000E+02 0.  1.
</event>
<event>
 5    1  0.1218060E-008  0.3730234E+03  0.7957747E-01  0.3482110E+00
         13   -1    0    0    0    0  0.00000000000E+00  0.00000000000E+00  0.14999999963E+04  0.15000000000E+04  0.10566000000E+00 0. -1.
        994   -1    0    0    0    0 -0.00000000000E+00 -0.00000000000E+00  0.11368683772E-12  0.17120000000E+03  0.17120000000E+03 0.  0.
         13    1    1    2    0    0 -0.18974999979E+02  0.25846330901E+02  0.77924581943E+02  0.84263486044E+02  0.10566000000E+00 0. -1.
        994    1    1    2    0    0 -0.10225872961E+03 -0.35660997527E+02  0.48963258625E+02  0.20841160050E+03  0.17120000000E+03 0.  0.
        998    1    1    2    0    0  0.12123372959E+03  0.98146666266E+01  0.13731121557E+04  0.13785249135E+04  0.10000000000E+02 0. -1.
</event>
<event>
 5    1  0.1218060E-008  0.3790831E+03  0.7957747E-01  0.3455161E+00
         13   -1    0    0    0    0  0.00000000000E+00  0.00000000000E+00  0.14999999963E+04  0.15000000000E+04  0.10566000000E+00 0. -1.
        994   -1    0    0    0    0 -0.00000000000E+00 -0.00000000000E+00  0.11368683772E-12  0.17120000000E+03  0.17120000000E+03 0.  0.
         13    1    1    2    0    0  0.15442057088E+02  0.26735156358E+02  0.10376586097E+03  0.10826167734E+03  0.10566000000E+00 0. -1.
        994    1    1    2    0    0 -0.23116674576E+01 -0.16552427469E+02  0.55338722894E+01  0.17210284833E+03  0.17120000000E+03 0.  0.
        998    1    1    2    0    0 -0.13130389631E+02 -0.10182728889E+02  0.13907002630E+04  0.13908354743E+04  0.10000000000E+02 0. -1.
</event>
<event>
 5    1  0.1218060E-008  0.3836119E+03  0.7957747E-01  0.3435581E+00
         13   -1    0    0    0    0  0.00000000000E+00  0.00000000000E+00  0.14999999963E+04  0.15000000000E+04  0.10566000000E+00 0. -1.
        994   -1    0    0    0    0 -0.00000000000E+00 -0.00000000000E+00  0.11368683772E-12  0.17120000000E+03  0.17120000000E+03 0.  0.
         13    1    1    2    0    0 -0.54288722157E+01 -0.17194600859E+02  0.66719521952E+02  0.69113187785E+02  0.10566000000E+00 0. -1.
        994    1    1    2    0    0  0.12516762425E+02  0.16153323248E+02  0.37016278864E+01  0.17245504122E+03  0.17120000000E+03 0.  0.
        998    1    1    2    0    0 -0.70878902095E+01  0.10412776113E+01  0.14295788464E+04  0.14296317710E+04  0.10000000000E+02 0. -1.
</event>
<event>
 5    1  0.1218060E-008  0.3730887E+03  0.7957747E-01  0.3481815E+00
         13   -1    0    0    0    0  0.00000000000E+00  0.00000000000E+00  0.14999999963E+04  0.15000000000E+04  0.10566000000E+00 0.  1.
        994   -1    0    0    0    0 -0.00000000000E+00 -0.00000000000E+00  0.11368683772E-12  0.17120000000E+03  0.17120000000E+03 0.  0.
         13    1    1    2    0    0  0.38457410611E+02  0.53538206904E+02  0.23508283931E+03  0.24415008608E+03  0.10566000000E+00 0.  1.
        994    1    1    2    0    0 -0.37005228422E+02 -0.56610320301E+02  0.23478289971E+02  0.18556612136E+03  0.17120000000E+03 0.  0.
        998    1    1    2    0    0 -0.14521821898E+01  0.30721133972E+01  0.12414388670E+04  0.12414837926E+04  0.10000000000E+02 0.  0.
</event>
<event>
 5    1  0.1218060E-008  0.3848656E+03  0.7957747E-01  0.3430242E+00
         13   -1    0    0    0    0  0.00000000000E+00  0.00000000000E+00  0.14999999963E+04  0.15000000000E+04  0.10566000000E+00 0. -1.
        994   -1    0    0    0    0 -0.00000000000E+00 -0.00000000000E+00  0.11368683772E-12  0.17120000000E+03  0.17120000000E+03 0.  0.
         13    1    1    2    0    0  0.11841764428E+02 -0.55361714671E+01  0.48700322221E+02  0.50424291049E+02  0.10566000000E+00 0. -1.
        994    1    1    2    0    0 -0.11259409709E+02  0.10147232065E+02  0.24530966415E+01  0.17188716738E+03  0.17120000000E+03 0.  0.
        998    1    1    2    0    0 -0.58235471851E+00 -0.46110605980E+01  0.14488465774E+04  0.14488885416E+04  0.10000000000E+02 0. -1.
</event>
<event>
 5    1  0.1218060E-008  0.3753269E+03  0.7957747E-01  0.3471762E+00
         13   -1    0    0    0    0  0.00000000000E+00  0.00000000000E+00  0.14999999963E+04  0.15000000000E+04  0.10566000000E+00 0. -1.
        994   -1    0    0    0    0 -0.00000000000E+00 -0.00000000000E+00  0.11368683772E-12  0.17120000000E+03  0.17120000000E+03 0.  0.
         13    1    1    2    0    0  0.23414101212E+02  0.56880977447E+02  0.24193385670E+03  0.24963106360E+03  0.10566000000E+00 0. -1.
        994    1    1    2    0    0 -0.25853816757E+02 -0.56455022827E+02  0.19716989193E+02  0.18317693388E+03  0.17120000000E+03 0.  0.
        998    1    1    2    0    0  0.24397155446E+01 -0.42595461918E+00  0.12383491504E+04  0.12383920025E+04  0.10000000000E+02 0.  0.
</event>
<event>
 5    1  0.1218060E-008  0.3783608E+03  0.7957747E-01  0.3458327E+00
         13   -1    0    0    0    0  0.00000000000E+00  0.00000000000E+00  0.14999999963E+04  0.15000000000E+04  0.10566000000E+00 0.  1.
        994   -1    0    0    0    0 -0.00000000000E+00 -0.00000000000E+00  0.11368683772E-12  0.17120000000E+03  0.17120000000E+03 0.  0.
         13    1    1    2    0    0 -0.55061783138E+01 -0.11493102107E+02  0.14310823501E+02  0.19162991128E+02  0.10566000000E+00 0.  1.
        994    1    1    2    0    0  0.10362162218E+01  0.58905057347E+01  0.50831215599E+01  0.17137984107E+03  0.17120000000E+03 0.  0.
        998    1    1    2    0    0  0.44699620920E+01  0.56025963725E+01  0.14806060512E+04  0.14806571678E+04  0.10000000000E+02 0.  1.
</event>
<event>
 5    1  0.1218060E-008  0.3770158E+03  0.7957747E-01  0.3464256E+00
         13   -1    0    0    0    0  0.00000000000E+00  0.00000000000E+00  0.14999999963E+04  0.15000000000E+04  0.10566000000E+00 0.  1.
        994   -1    0    0    0    0 -0.00000000000E+00 -0.00000000000E+00  0.11368683772E-12  0.17120000000E+03  0.17120000000E+03 0.  0.
         13    1    1    2    0    0 -0.44880930927E+02  0.11874230140E+02  0.25428875396E+03  0.25849192803E+03  0.10566000000E+00 0.  1.
        994    1    1    2    0    0 -0.13015152806E+02 -0.41853097117E+01  0.62785076671E+01  0.17185974130E+03  0.17120000000E+03 0.  0.
        998    1    1    2    0    0  0.57896083732E+02 -0.76889204287E+01  0.12394327347E+04  0.12408483307E+04  0.10000000000E+02 0.  1.
</event>
<event>
 5    1  0.1218060E-008  0.3853146E+03  0.7957747E-01  0.3428339E+00
         13   -1    0    0    0    0  0.00000000000E+00  0.00000000000E+00  0.14999999963E+04  0.15000000000E+04  0.10566000000E+00 0. -1.
        994   -1    0    0    0    0 -0.00000000000E+00 -0.00000000000E+00  0.11368683772E-12  0.17120000000E+03  0.17120000000E+03 0.  0.
         13    1    1    2    0    0 -0.11596476655E+02 -0.18064567958E+01  0.48563488770E+02  0.49961636907E+02  0.10566000000E+00 0. -1.
        994    1    1    2    0    0  0.35848706829E+00  0.81276849146E+01  0.16915112419E+01  0.17140154312E+03  0.17120000000E+03 0.  0.
        998    1    1    2    0    0  0.11237989586E+02 -0.63212281188E+01  0.14497449963E+04  0.14498368200E+04  0.10000000000E+02 0. -1.
</event>
<event>
 5    1  0.1218060E-008  0.3733651E+03  0.7957747E-01  0.3480567E+00
         13   -1    0    0    0    0  0.00000000000E+00  0.00000000000E+00  0.14999999963E+04  0.15000000000E+04  0.10566000000E+00 0.  1.
        994   -1    0    0    0    0 -0.00000000000E+00 -0.00000000000E+00  0.11368683772E-12  0.17120000000E+03  0.17120000000E+03 0.  0.
         13    1    1    2    0    0  0.79338866405E+02  0.84758145275E+02  0.62407863979E+03  0.63478560059E+03  0.10566000000E+00 0.  1.
        994    1    1    2    0    0 -0.13877787209E+03 -0.31007063919E+02  0.80136094911E+02  0.23654168660E+03  0.17120000000E+03 0.  0.
        998    1    1    2    0    0  0.59439005682E+02 -0.53751081357E+02  0.79578526158E+03  0.79987271280E+03  0.10000000000E+02 0. -1.
</event>
<event>
 5    1  0.1218060E-008  0.3755199E+03  0.7957747E-01  0.3470901E+00
         13   -1    0    0    0    0  0.00000000000E+00  0.00000000000E+00  0.14999999963E+04  0.15000000000E+04  0.10566000000E+00 0.  1.
        994   -1    0    0    0    0 -0.00000000000E+00 -0.00000000000E+00  0.11368683772E-12  0.17120000000E+03  0.17120000000E+03 0.  0.
         13    1    1    2    0    0 -0.40046269673E+02 -0.21071641696E+02  0.14388460548E+03  0.15083271746E+03  0.10566000000E+00 0.  1.
        994    1    1    2    0    0  0.48065456594E+02  0.48455916228E+01  0.14372497823E+02  0.17846505700E+03  0.17120000000E+03 0.  0.
        998    1    1    2    0    0 -0.80191869205E+01  0.16226050073E+02  0.13417428930E+04  0.13419022255E+04  0.10000000000E+02 0.  1.
</event>
<event>
 5    1  0.1218060E-008  0.4010647E+03  0.7957747E-01  0.3364272E+00
         13   -1    0    0    0    0  0.00000000000E+00  0.00000000000E+00  0.14999999963E+04  0.15000000000E+04  0.10566000000E+00 0.  1.
        994   -1    0    0    0    0 -0.00000000000E+00 -0.00000000000E+00  0.11368683772E-12  0.17120000000E+03  0.17120000000E+03 0.  0.
         13    1    1    2    0    0  0.47759532974E+02  0.29274942965E+02  0.42744847128E+02  0.70463667202E+02  0.10566000000E+00 0.  1.
        994    1    1    2    0    0 -0.41854394514E+02 -0.54077995039E+02  0.47044727577E+02  0.19025999653E+03  0.17120000000E+03 0.  0.
        998    1    1    2    0    0 -0.59051384600E+01  0.24803052074E+02  0.14102104216E+04  0.14104763363E+04  0.10000000000E+02 0.  1.
</event>
<event>
 5    1  0.1218060E-008  0.3853409E+03  0.7957747E-01  0.3428228E+00
         13   -1    0    0    0    0  0.00000000000E+00  0.00000000000E+00  0.14999999963E+04  0.15000000000E+04  0.10566000000E+00 0.  1.
        994   -1    0    0    0    0 -0.00000000000E+00 -0.00000000000E+00  0.11368683772E-12  0.17120000000E+03  0.17120000000E+03 0.  0.
         13    1    1    2    0    0  0.59381981176E+01  0.12861368867E+02  0.65417376664E+02  0.66933708546E+02  0.10566000000E+00 0.  1.
        994    1    1    2    0    0 -0.16673562141E+02 -0.11409341330E+02  0.28030120621E+01  0.17241078163E+03  0.17120000000E+03 0.  0.
        998    1    1    2    0    0  0.10735364024E+02 -0.14520275363E+01  0.14317796076E+04  0.14318555098E+04  0.10000000000E+02 0.  1.
</event>
<event>
 5    1  0.1218060E-008  0.3785890E+03  0.7957747E-01  0.3457325E+00
         13   -1    0    0    0    0  0.00000000000E+00  0.00000000000E+00  0.14999999963E+04  0.15000000000E+04  0.10566000000E+00 0.  1.
        994   -1    0    0    0    0 -0.00000000000E+00 -0.00000000000E+00  0.11368683772E-12  0.17120000000E+03  0.17120000000E+03 0.  0.
         13    1    1    2    0    0 -0.22386380701E+02 -0.75858003701E+01  0.53588540182E+02  0.58569934360E+02  0.10566000000E+00 0.  1.
        994    1    1    2    0    0  0.25294829788E+02  0.76388039124E+01  0.71955264092E+01  0.17337645555E+03  0.17120000000E+03 0.  0.
        998    1    1    2    0    0 -0.29084490870E+01 -0.53003542297E-01  0.14392159297E+04  0.14392536101E+04  0.10000000000E+02 0.  1.
</event>
<event>
 5    1  0.1218060E-008  0.3813656E+03  0.7957747E-01  0.3445234E+00
         13   -1    0    0    0    0  0.00000000000E+00  0.00000000000E+00  0.14999999963E+04  0.15000000000E+04  0.10566000000E+00 0.  1.
        994   -1    0    0    0    0 -0.00000000000E+00 -0.00000000000E+00  0.11368683772E-12  0.17120000000E+03  0.17120000000E+03 0.  0.
         13    1    1    2    0    0 -0.17613023885E+02 -0.12822204082E+02  0.62353170727E+02  0.66049652472E+02  0.10566000000E+00 0.  1.
        994    1    1    2    0    0  0.33230572323E+02  0.96760386730E+01  0.74421358625E+01  0.17482197244E+03  0.17120000000E+03 0.  0.
        998    1    1    2    0    0 -0.15617548437E+02  0.31461654093E+01  0.14302046897E+04  0.14303283751E+04  0.10000000000E+02 0.  1.
</event>
<event>
 5    1  0.1218060E-008  0.3741631E+03  0.7957747E-01  0.3476974E+00
         13   -1    0    0    0    0  0.00000000000E+00  0.00000000000E+00  0.14999999963E+04  0.15000000000E+04  0.10566000000E+00 0.  1.
        994   -1    0    0    0    0 -0.00000000000E+00 -0.00000000000E+00  0.11368683772E-12  0.17120000000E+03  0.17120000000E+03 0.  0.
         13    1    1    2    0    0 -0.29342007598E+02 -0.50672482315E+01  0.61434552759E+02  0.68270387806E+02  0.10566000000E+00 0.  1.
        994    1    1    2    0    0  0.72036052137E+01  0.20165337636E+02  0.86737229529E+01  0.17275186320E+03  0.17120000000E+03 0.  0.
        998    1    1    2    0    0  0.22138402384E+02 -0.15098089404E+02  0.14298917206E+04  0.14301777490E+04  0.10000000000E+02 0.  1.
</event>
<event>
 5    1  0.1218060E-008  0.3837665E+03  0.7957747E-01  0.3434920E+00
         13   -1    0    0    0    0  0.00000000000E+00  0.00000000000E+00  0.14999999963E+04  0.15000000000E+04  0.10566000000E+00 0. -1.
        994   -1    0    0    0    0 -0.00000000000E+00 -0.00000000000E+00  0.11368683772E-12  0.17120000000E+03  0.17120000000E+03 0.  0.
         13    1    1    2    0    0 -0.12046809067E+02  0.25918844156E+02  0.16543158306E+03  0.16788249441E+03  0.10566000000E+00 0. -1.
        994    1    1    2    0    0  0.26387044708E+02 -0.18802927537E+02  0.57178562571E+01  0.17433290020E+03  0.17120000000E+03 0.  0.
        998    1    1    2    0    0 -0.14340235641E+02 -0.71159166189E+01  0.13288505570E+04  0.13289846054E+04  0.10000000000E+02 0. -1.
</event>
<event>
 5    1  0.1218060E-008  0.3801820E+03  0.7957747E-01  0.3450366E+00
         13   -1    0    0    0    0  0.00000000000E+00  0.00000000000E+00  0.14999999963E+04  0.15000000000E+04  0.10566000000E+00 0.  1.
        994   -1    0    0    0    0 -0.00000000000E+00 -0.00000000000E+00  0.11368683772E-12  0.17120000000E+03  0.17120000000E+03 0.  0.
         13    1    1    2    0    0 -0.90357195634E+01 -0.13392402833E+02  0.30894613141E+02  0.34863863338E+02  0.10566000000E+00 0.  1.
        994    1    1    2    0    0 -0.17978074969E+01  0.12011498005E+02  0.45342535362E+01  0.17169015013E+03  0.17120000000E+03 0.  0.
        998    1    1    2    0    0  0.10833527060E+02  0.13809048279E+01  0.14645711296E+04  0.14646459865E+04  0.10000000000E+02 0.  1.
</event>
<event>
 5    1  0.1218060E-008  0.3851151E+03  0.7957747E-01  0.3429184E+00
         13   -1    0    0    0    0  0.00000000000E+00  0.00000000000E+00  0.14999999963E+04  0.15000000000E+04  0.10566000000E+00 0.  1.
        994   -1    0    0    0    0 -0.00000000000E+00 -0.00000000000E+00  0.11368683772E-12  0.17120000000E+03  0.17120000000E+03 0.  0.
         13    1    1    2    0    0 -0.11363896675E+02 -0.16377192897E+02  0.10730759920E+03  0.10914340385E+03  0.10566000000E+00 0.  1.
        994    1    1    2    0    0  0.23125864745E+02  0.24175676971E+02  0.52611974604E+01  0.17451758988E+03  0.17120000000E+03 0.  0.
        998    1    1    2    0    0 -0.11761968070E+02 -0.77984840744E+01  0.13874311996E+04  0.13875390063E+04  0.10000000000E+02 0.  1.
</event>
<event>
 5    1  0.1218060E-008  0.3862523E+03  0.7957747E-01  0.3424378E+00
         13   -1    0    0    0    0  0.00000000000E+00  0.00000000000E+00  0.14999999963E+04  0.15000000000E+04  0.10566000000E+00 0. -1.
        994   -1    0    0    0    0 -0.00000000000E+00 -0.00000000000E+00  0.11368683772E-12  0.17120000000E+03  0.17120000000E+03 0.  0.
         13    1    1    2    0    0 -0.14386453990E+02 -0.59629245689E+02  0.11325555975E+03  0.12880003873E+03  0.10566000000E+00 0. -1.
        994    1    1    2    0    0 -0.40944967744E+02 -0.29693141984E+02  0.29354121648E+02  0.18091234762E+03  0.17120000000E+03 0.  0.
        998    1    1    2    0    0  0.55331421734E+02  0.89322387673E+02  0.13573903149E+04  0.13614876136E+04  0.10000000000E+02 0. -1.
</event>
<event>
 5    1  0.1218060E-008  0.3845033E+03  0.7957747E-01  0.3431781E+00
         13   -1    0    0    0    0  0.00000000000E+00  0.00000000000E+00  0.14999999963E+04  0.15000000000E+04  0.10566000000E+00 0.  1.
        994   -1    0    0    0    0 -0.00000000000E+00 -0.00000000000E+00  0.11368683772E-12  0.17120000000E+03  0.17120000000E+03 0.  0.
         13    1    1    2    0    0 -0.99704001542E+01  0.17398954974E+02  0.10533040737E+03  0.10722237824E+03  0.10566000000E+00 0.  1.
        994    1    1    2    0    0 -0.29308090890E+01 -0.18757781063E+02  0.30651097385E+01  0.17227675087E+03  0.17120000000E+03 0.  0.
        998    1    1    2    0    0  0.12901209243E+02  0.13588260892E+01  0.13916044792E+04  0.13917008709E+04  0.10000000000E+02 0.  1.
</event>
<event>
 5    1  0.1218060E-008  0.3849857E+03  0.7957747E-01  0.3429733E+00
         13   -1    0    0    0    0  0.00000000000E+00  0.00000000000E+00  0.14999999963E+04  0.15000000000E+04  0.10566000000E+00 0. -1.
        994   -1    0    0    0    0 -0.00000000000E+00 -0.00000000000E+00  0.11368683772E-12  0.17120000000E+03  0.17120000000E+03 0.  0.
         13    1    1    2    0    0  0.13413773217E+02  0.11849672015E+02  0.99469856745E+02  0.10106734192E+03  0.10566000000E+00 0. -1.
        994    1    1    2    0    0 -0.14546705395E+02  0.19749571236E+01  0.23463106483E+01  0.17184426748E+03  0.17120000000E+03 0.  0.
        998    1    1    2    0    0  0.11329321783E+01 -0.13824629138E+02  0.13981838289E+04  0.13982883906E+04  0.10000000000E+02 0. -1.
</event>
<event>
 5    1  0.1218060E-008  0.3830480E+03  0.7957747E-01  0.3437993E+00
         13   -1    0    0    0    0  0.00000000000E+00  0.00000000000E+00  0.14999999963E+04  0.15000000000E+04  0.10566000000E+00 0. -1.
        994   -1    0    0    0    0 -0.00000000000E+00 -0.00000000000E+00  0.11368683772E-12  0.17120000000E+03  0.17120000000E+03 0.  0.
         13    1    1    2    0    0 -0.29764107178E+02 -0.14025615147E+02  0.18079189575E+03  0.18376164096E+03  0.10566000000E+00 0. -1.
        994    1    1    2    0    0  0.32755821458E+02  0.13713204045E+02  0.67869954723E+01  0.17497571006E+03  0.17120000000E+03 0.  0.
        998    1    1    2    0    0 -0.29917142807E+01  0.31241110229E+00  0.13124211051E+04  0.13124626490E+04  0.10000000000E+02 0. -1.
</event>
<event>
 5    1  0.1218060E-008  0.3836480E+03  0.7957747E-01  0.3435427E+00
         13   -1    0    0    0    0  0.00000000000E+00  0.00000000000E+00  0.14999999963E+04  0.15000000000E+04  0.10566000000E+00 0.  1.
        994   -1    0    0    0    0 -0.00000000000E+00 -0.00000000000E+00  0.11368683772E-12  0.17120000000E+03  0.17120000000E+03 0.  0.
         13    1    1    2    0    0  0.11860449544E+01 -0.66396540142E+02  0.10701606157E+03  0.12594584489E+03  0.10566000000E+00 0.  1.
        994    1    1    2    0    0 -0.27080929152E+01  0.64853553497E+02  0.33988539797E+02  0.18622024059E+03  0.17120000000E+03 0.  0.
        998    1    1    2    0    0  0.15220479608E+01  0.15429866448E+01  0.13589953949E+04  0.13590339145E+04  0.10000000000E+02 0.  1.
</event>
<event>
 5    1  0.1218060E-008  0.3795477E+03  0.7957747E-01  0.3453130E+00
         13   -1    0    0    0    0  0.00000000000E+00  0.00000000000E+00  0.14999999963E+04  0.15000000000E+04  0.10566000000E+00 0. -1.
        994   -1    0    0    0    0 -0.00000000000E+00 -0.00000000000E+00  0.11368683772E-12  0.17120000000E+03  0.17120000000E+03 0.  0.
         13    1    1    2    0    0 -0.12520279132E+02 -0.64195750355E+01  0.21268492345E+02  0.25501534539E+02  0.10566000000E+00 0. -1.
        994    1    1    2    0    0  0.79711960875E+01 -0.92391007818E+01  0.48602836666E+01  0.17170312550E+03  0.17120000000E+03 0.  0.
        998    1    1    2    0    0  0.45490830446E+01  0.15658675817E+02  0.14738712203E+04  0.14739953400E+04  0.10000000000E+02 0. -1.
</event>
<event>
 5    1  0.1218060E-008  0.3853275E+03  0.7957747E-01  0.3428284E+00
         13   -1    0    0    0    0  0.00000000000E+00  0.00000000000E+00  0.14999999963E+04  0.15000000000E+04  0.10566000000E+00 0.  1.
        994   -1    0    0    0    0 -0.00000000000E+00 -0.00000000000E+00  0.11368683772E-12  0.17120000000E+03  0.17120000000E+03 0.  0.
         13    1    1    2    0    0  0.39426092875E+01 -0.93733182548E+01  0.43573365649E+02  0.44744302666E+02  0.10566000000E+00 0.  1.
        994    1    1    2    0    0  0.54050566995E+02 -0.79045977055E+01  0.11332478636E+02  0.18006057739E+03  0.17120000000E+03 0.  0.
        998    1    1    2    0    0 -0.57993176283E+02  0.17277915960E+02  0.14450941520E+04  0.14463951199E+04  0.10000000000E+02 0.  1.
</event>
<event>
 5    1  0.1218060E-008  0.3741803E+03  0.7957747E-01  0.3476897E+00
         13   -1    0    0    0    0  0.00000000000E+00  0.00000000000E+00  0.14999999963E+04  0.15000000000E+04  0.10566000000E+00 0. -1.
        994   -1    0    0    0    0 -0.00000000000E+00 -0.00000000000E+00  0.11368683772E-12  0.17120000000E+03  0.17120000000E+03 0.  0.
         13    1    1    2    0    0  0.16021343231E+02 -0.31584591703E+02  0.88982732725E+02  0.95771643816E+02  0.10566000000E+00 0. -1.
        994    1    1    2    0    0 -0.19005138493E+02  0.46241673486E+01  0.84054136561E+01  0.17251860535E+03  0.17120000000E+03 0.  0.
        998    1    1    2    0    0  0.29837952617E+01  0.26960424354E+02  0.14026118499E+04  0.14029097508E+04  0.10000000000E+02 0. -1.
</event>
<event>
 5    1  0.1218060E-008  0.3853490E+03  0.7957747E-01  0.3428193E+00
         13   -1    0    0    0    0  0.00000000000E+00  0.00000000000E+00  0.14999999963E+04  0.15000000000E+04  0.10566000000E+00 0. -1.
        994   -1    0    0    0    0 -0.00000000000E+00 -0.00000000000E+00  0.11368683772E-12  0.17120000000E+03  0.17120000000E+03 0.  0.
         13    1    1    2    0    0 -0.26313746395E+00 -0.15889757691E+02  0.83023172791E+02  0.84530539009E+02  0.10566000000E+00 0. -1.
        994    1    1    2    0    0  0.18875225323E+01  0.16512023562E+02  0.23648281614E+01  0.17202105126E+03  0.17120000000E+03 0.  0.
        998    1    1    2    0    0 -0.16243850684E+01 -0.62226587160E+00  0.14146119953E+04  0.14146484097E+04  0.10000000000E+02 0.  0.
</event>
<event>
 5    1  0.1218060E-008  0.3824918E+03  0.7957747E-01  0.3440380E+00
         13   -1    0    0    0    0  0.00000000000E+00  0.00000000000E+00  0.14999999963E+04  0.15000000000E+04  0.10566000000E+00 0.  1.
        994   -1    0    0    0    0 -0.00000000000E+00 -0.00000000000E+00  0.11368683772E-12  0.17120000000E+03  0.17120000000E+03 0.  0.
         13    1    1    2    0    0  0.29258108979E+01  0.22501823047E+02  0.10110858703E+03  0.10362359743E+03  0.10566000000E+00 0.  1.
        994    1    1    2    0    0  0.93448416153E+01  0.61500351820E+01  0.32956051004E+01  0.17159676573E+03  0.17120000000E+03 0.  0.
        998    1    1    2    0    0 -0.12270652513E+02 -0.28651858229E+02  0.13955958041E+04  0.13959796368E+04  0.10000000000E+02 0.  1.
</event>
<event>
 5    1  0.1218060E-008  0.3754860E+03  0.7957747E-01  0.3471052E+00
         13   -1    0    0    0    0  0.00000000000E+00  0.00000000000E+00  0.14999999963E+04  0.15000000000E+04  0.10566000000E+00 0.  1.
        994   -1    0    0    0    0 -0.00000000000E+00 -0.00000000000E+00  0.11368683772E-12  0.17120000000E+03  0.17120000000E+03 0.  0.
         13    1    1    2    0    0  0.56107406468E+01  0.30593338450E+02  0.72225212535E+02  0.78637937778E+02  0.10566000000E+00 0.  1.
        994    1    1    2    0    0 -0.81387998462E+01 -0.20877319326E+02  0.81351780751E+01  0.17285173892E+03  0.17120000000E+03 0.  0.
        998    1    1    2    0    0  0.25280591993E+01 -0.97160191240E+01  0.14196396057E+04  0.14197103233E+04  0.10000000000E+02 0.  1.
</event>
<event>
 5    1  0.1218060E-008  0.3684883E+03  0.7957747E-01  0.3502867E+00
         13   -1    0    0    0    0  0.00000000000E+00  0.00000000000E+00  0.14999999963E+04  0.15000000000E+04  0.10566000000E+00 0. -1.
        994   -1    0    0    0    0 -0.00000000000E+00 -0.00000000000E+00  0.11368683772E-12  0.17120000000E+03  0.17120000000E+03 0.  0.
         13    1    1    2    0    0 -0.14364222517E+02 -0.13123517252E+02  0.14314626029E+02  0.24155274289E+02  0.10566000000E+00 0. -1.
        994    1    1    2    0    0  0.14535389834E+02  0.10104526311E+02  0.11151336566E+02  0.17247368297E+03  0.17120000000E+03 0.  0.
        998    1    1    2    0    0 -0.17116731692E+00  0.30189909407E+01  0.14745340337E+04  0.14745710427E+04  0.10000000000E+02 0. -1.
</event>
<event>
 5    1  0.1218060E-008  0.3738465E+03  0.7957747E-01  0.3478398E+00
         13   -1    0    0    0    0  0.00000000000E+00  0.00000000000E+00  0.14999999963E+04  0.15000000000E+04  0.10566000000E+00 0.  1.
        994   -1    0    0    0    0 -0.00000000000E+00 -0.00000000000E+00  0.11368683772E-12  0.17120000000E+03  0.17120000000E+03 0.  0.
         13    1    1    2    0    0 -0.20947036233E+02  0.47751744015E+02  0.16957734545E+03  0.17741334402E+03  0.10566000000E+00 0.  1.
        994    1    1    2    0    0 -0.50513482633E+02 -0.78088382484E+02  0.37388352543E+02  0.19838532283E+03  0.17120000000E+03 0.  0.
        998    1    1    2    0    0  0.71460518866E+02  0.30336638469E+02  0.12930342983E+04  0.12954013331E+04  0.10000000000E+02 0.  1.
</event>
<event>
 5    1  0.1218060E-008  0.3746733E+03  0.7957747E-01  0.3474685E+00
         13   -1    0    0    0    0  0.00000000000E+00  0.00000000000E+00  0.14999999963E+04  0.15000000000E+04  0.10566000000E+00 0. -1.
        994   -1    0    0    0    0 -0.00000000000E+00 -0.00000000000E+00  0.11368683772E-12  0.17120000000E+03  0.17120000000E+03 0.  0.
         13    1    1    2    0    0 -0.50247270150E+01  0.31528152889E+02  0.71647634636E+02  0.78438938157E+02  0.10566000000E+00 0. -1.
        994    1    1    2    0    0  0.54548529709E+01 -0.20618907495E+02  0.83960976907E+01  0.17272761569E+03  0.17120000000E+03 0.  0.
        998    1    1    2    0    0 -0.43012595593E+00 -0.10909245394E+02  0.14199562640E+04  0.14200334461E+04  0.10000000000E+02 0. -1.
</event>
<event>
 5    1  0.1218060E-008  0.3793611E+03  0.7957747E-01  0.3453945E+00
         13   -1    0    0    0    0  0.00000000000E+00  0.00000000000E+00  0.14999999963E+04  0.15000000000E+04  0.10566000000E+00 0. -1.
        994   -1    0    0    0    0 -0.00000000000E+00 -0.00000000000E+00  0.11368683772E-12  0.17120000000E+03  0.17120000000E+03 0.  0.
         13    1    1    2    0    0  0.98728297751E+01  0.25196903349E+02  0.81898671276E+02  0.86254044700E+02  0.10566000000E+00 0. -1.
        994    1    1    2    0    0  0.27423298631E+00 -0.14354212210E+02  0.51467929846E+01  0.17187800351E+03  0.17120000000E+03 0.  0.
        998    1    1    2    0    0 -0.10147062761E+02 -0.10842691139E+02  0.14129545320E+04  0.14130679518E+04  0.10000000000E+02 0. -1.
</event>
<event>
 5    1  0.1218060E-008  0.4271802E+03  0.7957747E-01  0.3268371E+00
         13   -1    0    0    0    0  0.00000000000E+00  0.00000000000E+00  0.14999999963E+04  0.15000000000E+04  0.10566000000E+00 0. -1.
        994   -1    0    0    0    0 -0.00000000000E+00 -0.00000000000E+00  0.11368683772E-12  0.17120000000E+03  0.17120000000E+03 0.  0.
         13    1    1    2    0    0  0.11093154481E+02 -0.22769348492E+02 -0.11948680200E+02  0.28005060787E+02  0.10566000000E+00 0. -1.
        994    1    1    2    0    0  0.21425996615E+01  0.44630409705E+02  0.54005110858E+02  0.18499312474E+03  0.17120000000E+03 0.  0.
        998    1    1    2    0    0 -0.13235754142E+02 -0.21861061212E+02  0.14579435656E+04  0.14582018145E+04  0.10000000000E+02 0. -1.
</event>
<event>
 5    1  0.1218060E-008  0.3765567E+03  0.7957747E-01  0.3466290E+00
         13   -1    0    0    0    0  0.00000000000E+00  0.00000000000E+00  0.14999999963E+04  0.15000000000E+04  0.10566000000E+00 0.  1.
        994   -1    0    0    0    0 -0.00000000000E+00 -0.00000000000E+00  0.11368683772E-12  0.17120000000E+03  0.17120000000E+03 0.  0.
         13    1    1    2    0    0 -0.38719845006E+02 -0.29935115752E+02  0.19325159779E+03  0.19935277466E+03  0.10566000000E+00 0.  1.
        994    1    1    2    0    0  0.39448639581E+02  0.71969168819E+01  0.11338226809E+02  0.17619871215E+03  0.17120000000E+03 0.  0.
        998    1    1    2    0    0 -0.72879457425E+00  0.22738198870E+02  0.12954101717E+04  0.12956485132E+04  0.10000000000E+02 0.  1.
</event>
<event>
 5    1  0.1218060E-008  0.3774902E+03  0.7957747E-01  0.3462160E+00
         13   -1    0    0    0    0  0.00000000000E+00  0.00000000000E+00  0.14999999963E+04  0.15000000000E+04  0.10566000000E+00 0. -1.
        994   -1    0    0    0    0 -0.00000000000E+00 -0.00000000000E+00  0.11368683772E-12  0.17120000000E+03  0.17120000000E+03 0.  0.
         13    1    1    2    0    0  0.25179858136E+02 -0.34485505642E+02  0.18757666092E+03  0.19237538886E+03  0.10566000000E+00 0. -1.
        994    1    1    2    0    0 -0.73632476230E+01  0.28324039709E+01  0.56153188276E+01  0.17147364734E+03  0.17120000000E+03 0.  0.
        998    1    1    2    0    0 -0.17816610513E+02  0.31653101671E+02  0.13068080165E+04  0.13073509638E+04  0.10000000000E+02 0. -1.
</event>
<event>
 5    1  0.1218060E-008  0.3769770E+03  0.7957747E-01  0.3464428E+00
         13   -1    0    0    0    0  0.00000000000E+00  0.00000000000E+00  0.14999999963E+04  0.15000000000E+04  0.10566000000E+00 0.  1.
        994   -1    0    0    0    0 -0.00000000000E+00 -0.00000000000E+00  0.11368683772E-12  0.17120000000E+03  0.17120000000E+03 0.  0.
         13    1    1    2    0    0  0.10460854160E+02 -0.62818431204E+01  0.10563009364E+02  0.16139372776E+02  0.10566000000E+00 0.  1.
        994    1    1    2    0    0 -0.10747701194E+02  0.23986037853E+01  0.60765617283E+01  0.17166138466E+03  0.17120000000E+03 0.  0.
        998    1    1    2    0    0  0.28684703453E+00  0.38832393351E+01  0.14833604252E+04  0.14833992426E+04  0.10000000000E+02 0.  1.
</event>
<event>
 5    1  0.1218060E-008  0.3784093E+03  0.7957747E-01  0.3458114E+00
         13   -1    0    0    0    0  0.00000000000E+00  0.00000000000E+00  0.14999999963E+04  0.15000000000E+04  0.10566000000E+00 0.  1.
        994   -1    0    0    0    0 -0.00000000000E+00 -0.00000000000E+00  0.11368683772E-12  0.17120000000E+03  0.17120000000E+03 0.  0.
         13    1    1    2    0    0  0.17321817652E+02  0.23637701378E+01  0.29135254671E+02  0.33978037095E+02  0.10566000000E+00 0.  1.
        994    1    1    2    0    0 -0.97401856867E+01  0.81570043531E+00  0.52593809558E+01  0.17155942898E+03  0.17120000000E+03 0.  0.
        998    1    1    2    0    0 -0.75816319653E+01 -0.31794705731E+01  0.14656053607E+04  0.14656625339E+04  0.10000000000E+02 0.  1.
</event>
<event>
 5    1  0.1218060E-008  0.3696204E+03  0.7957747E-01  0.3497637E+00
         13   -1    0    0    0    0  0.00000000000E+00  0.00000000000E+00  0.14999999963E+04  0.15000000000E+04  0.10566000000E+00 0.  1.
        994   -1    0    0    0    0 -0.00000000000E+00 -0.00000000000E+00  0.11368683772E-12  0.17120000000E+03  0.17120000000E+03 0.  0.
         13    1    1    2    0    0  0.46281043565E+02  0.57556915403E+02  0.31338014515E+03  0.32196561935E+03  0.10566000000E+00 0.  1.
        994    1    1    2    0    0 -0.25425203705E+02  0.82666261769E+01  0.13237768718E+02  0.17377990854E+03  0.17120000000E+03 0.  0.
        998    1    1    2    0    0 -0.20855839860E+02 -0.65823541580E+02  0.11733820824E+04  0.11754544721E+04  0.10000000000E+02 0.  1.
</event>
<event>
 5    1  0.1218060E-008  0.3784150E+03  0.7957747E-01  0.3458089E+00
         13   -1    0    0    0    0  0.00000000000E+00  0.00000000000E+00  0.14999999963E+04  0.15000000000E+04  0.10566000000E+00 0.  1.
        994   -1    0    0    0    0 -0.00000000000E+00 -0.00000000000E+00  0.11368683772E-12  0.17120000000E+03  0.17120000000E+03 0.  0.
         13    1    1    2    0    0 -0.15128642972E+02 -0.29106756548E+02  0.11252208348E+03  0.11720626924E+03  0.10566000000E+00 0.  1.
        994    1    1    2    0    0  0.36770398787E+01  0.98300185052E+01  0.53056400595E+01  0.17160343733E+03  0.17120000000E+03 0.  0.
        998    1    1    2    0    0  0.11451603093E+02  0.19276738043E+02  0.13821722727E+04  0.13823902934E+04  0.10000000000E+02 0.  1.
</event>
<event>
 5    1  0.1218060E-008  0.3851509E+03  0.7957747E-01  0.3429032E+00
         13   -1    0    0    0    0  0.00000000000E+00  0.00000000000E+00  0.14999999963E+04  0.15000000000E+04  0.10566000000E+00 0. -1.
        994   -1    0    0    0    0 -0.00000000000E+00 -0.00000000000E+00  0.11368683772E-12  0.17120000000E+03  0.17120000000E+03 0.  0.
         13    1    1    2    0    0  0.10923290130E+02 -0.16124076970E+02  0.11138015466E+03  0.11307012931E+03  0.10566000000E+00 0. -1.
        994    1    1    2    0    0 -0.19166626997E+02  0.15291598134E+02  0.35338556735E+01  0.17298300697E+03  0.17120000000E+03 0.  0.
        998    1    1    2    0    0  0.82433368664E+01  0.83247883652E+00  0.13850859859E+04  0.13851468637E+04  0.10000000000E+02 0. -1.
</event>
<event>
 5    1  0.1218060E-008  0.3805740E+03  0.7957747E-01  0.3448663E+00
         13   -1    0    0    0    0  0.00000000000E+00  0.00000000000E+00  0.14999999963E+04  0.15000000000E+04  0.10566000000E+00 0. -1.
        994   -1    0    0    0    0 -0.00000000000E+00 -0.00000000000E+00  0.11368683772E-12  0.17120000000E+03  0.17120000000E+03 0.  0.
         13    1    1    2    0    0  0.24083328175E+01  0.19462528978E+02  0.48680851050E+02  0.52482630690E+02  0.10566000000E+00 0. -1.
        994    1    1    2    0    0  0.68938742380E+01 -0.13457744357E+02  0.46068849815E+01  0.17192818203E+03  0.17120000000E+03 0.  0.
        998    1    1    2    0    0 -0.93022070555E+01 -0.60047846207E+01  0.14467122602E+04  0.14467891873E+04  0.10000000000E+02 0. -1.
</event>
<event>
 5    1  0.1218060E-008  0.3734505E+03  0.7957747E-01  0.3480182E+00
         13   -1    0    0    0    0  0.00000000000E+00  0.00000000000E+00  0.14999999963E+04  0.15000000000E+04  0.10566000000E+00 0.  1.
        994   -1    0    0    0    0 -0.00000000000E+00 -0.00000000000E+00  0.11368683772E-12  0.17120000000E+03  0.17120000000E+03 0.  0.
         13    1    1    2    0    0 -0.38878436881E+02  0.27382944652E+02  0.13543586477E+03  0.14354178187E+03  0.10566000000E+00 0.  1.
        994    1    1    2    0    0  0.45535751605E+02 -0.19770653169E+02  0.15944748242E+02  0.17896384662E+03  0.17120000000E+03 0.  0.
        998    1    1    2    0    0 -0.66573147240E+01 -0.76122914837E+01  0.13486193833E+04  0.13486943715E+04  0.10000000000E+02 0.  1.
</event>
<event>
 5    1  0.1218060E-008  0.3761561E+03  0.7957747E-01  0.3468068E+00
         13   -1    0    0    0    0  0.00000000000E+00  0.00000000000E+00  0.14999999963E+04  0.15000000000E+04  0.10566000000E+00 0. -1.
        994   -1    0    0    0    0 -0.00000000000E+00 -0.00000000000E+00  0.11368683772E-12  0.17120000000E+03  0.17120000000E+03 0.  0.
         13    1    1    2    0    0 -0.51280359370E+02 -0.72707336129E+02  0.45577791987E+03  0.46438083013E+03  0.10566000000E+00 0. -1.
        994    1    1    2    0    0  0.45617162832E+02  0.74464486266E+02  0.32360807979E+02  0.19489111615E+03  0.17120000000E+03 0.  0.
        998    1    1    2    0    0  0.56631965381E+01 -0.17571501374E+01  0.10118612684E+04  0.10119280537E+04  0.10000000000E+02 0. -1.
</event>
<event>
 5    1  0.1218060E-008  0.3743204E+03  0.7957747E-01  0.3476268E+00
         13   -1    0    0    0    0  0.00000000000E+00  0.00000000000E+00  0.14999999963E+04  0.15000000000E+04  0.10566000000E+00 0. -1.
        994   -1    0    0    0    0 -0.00000000000E+00 -0.00000000000E+00  0.11368683772E-12  0.17120000000E+03  0.17120000000E+03 0.  0.
         13    1    1    2    0    0  0.26985305061E+02  0.68410731985E+01  0.50935230618E+02  0.58046669619E+02  0.10566000000E+00 0. -1.
        994    1    1    2    0    0 -0.27590149945E+02 -0.26256227149E+01  0.96495156972E+01  0.17369704494E+03  0.17120000000E+03 0.  0.
        998    1    1    2    0    0  0.60484488430E+00 -0.42154504836E+01  0.14394152500E+04  0.14394562854E+04  0.10000000000E+02 0. -1.
</event>
<event>
 5    1  0.1218060E-008  0.3706372E+03  0.7957747E-01  0.3492968E+00
         13   -1    0    0    0    0  0.00000000000E+00  0.00000000000E+00  0.14999999963E+04  0.15000000000E+04  0.10566000000E+00 0.  1.
        994   -1    0    0    0    0 -0.00000000000E+00 -0.00000000000E+00  0.11368683772E-12  0.17120000000E+03  0.17120000000E+03 0.  0.
         13    1    1    2    0    0 -0.28371813328E+02  0.48086878577E+02  0.16885356202E+03  0.17784500065E+03  0.10566000000E+00 0.  1.
        994    1    1    2    0    0  0.32507887621E+02 -0.23254783693E+02  0.14468215848E+02  0.17639817741E+03  0.17120000000E+03 0.  0.
        998    1    1    2    0    0 -0.41360742928E+01 -0.24832094884E+02  0.13166782184E+04  0.13169568219E+04  0.10000000000E+02 0.  1.
</event>
<event>
 5    1  0.1218060E-008  0.3839817E+03  0.7957747E-01  0.3434003E+00
         13   -1    0    0    0    0  0.00000000000E+00  0.00000000000E+00  0.14999999963E+04  0.15000000000E+04  0.10566000000E+00 0.  1.
        994   -1    0    0    0    0 -0.00000000000E+00 -0.00000000000E+00  0.11368683772E-12  0.17120000000E+03  0.17120000000E+03 0.  0.
         13    1    1    2    0    0  0.63216764822E+01 -0.14101551776E+02  0.51712290982E+02  0.53972118345E+02  0.10566000000E+00 0.  1.
        994    1    1    2    0    0 -0.44966364539E+01  0.24479586683E+02  0.41831971881E+01  0.17305030784E+03  0.17120000000E+03 0.  0.
        998    1    1    2    0    0 -0.18250400282E+01 -0.10378034907E+02  0.14441045081E+04  0.14441775738E+04  0.10000000000E+02 0.  1.
</event>
<event>
 5    1  0.1218060E-008  0.3833040E+03  0.7957747E-01  0.3436897E+00
         13   -1    0    0    0    0  0.00000000000E+00  0.00000000000E+00  0.14999999963E+04  0.15000000000E+04  0.10566000000E+00 0.  1.
        994   -1    0    0    0    0 -0.00000000000E+00 -0.00000000000E+00  0.11368683772E-12  0.17120000000E+03  0.17120000000E+03 0.  0.
         13    1    1    2    0    0 -0.15857451550E+02  0.90218740670E+01  0.61376444654E+02  0.64030712191E+02  0.10566000000E+00 0.  1.
        994    1    1    2    0    0  0.24236556494E+02 -0.13964465089E+02  0.50661573419E+01  0.17354400856E+03  0.17120000000E+03 0.  0.
        998    1    1    2    0    0 -0.83791049434E+01  0.49425910217E+01  0.14335573943E+04  0.14336252793E+04  0.10000000000E+02 0.  1.
</event>
<event>
 5    1  0.1218060E-008  0.3737332E+03  0.7957747E-01  0.3478908E+00
         13   -1    0    0    0    0  0.00000000000E+00  0.00000000000E+00  0.14999999963E+04  0.15000000000E+04  0.10566000000E+00 0.  1.
        994   -1    0    0    0    0 -0.00000000000E+00 -0.00000000000E+00  0.11368683772E-12  0.17120000000E+03  0.17120000000E+03 0.  0.
         13    1    1    2    0    0 -0.60544274193E+02 -0.13257096441E+03  0.70938301605E+03  0.72419951973E+03  0.10566000000E+00 0.  1.
        994    1    1    2    0    0  0.56919421781E+02  0.13319130083E+03  0.82718828756E+02  0.23902214923E+03  0.17120000000E+03 0.  0.
        998    1    1    2    0    0  0.36248524116E+01 -0.62033642360E+00  0.70789815147E+03  0.70797833104E+03  0.10000000000E+02 0.  0.
</event>
<event>
 5    1  0.1218060E-008  0.3718590E+03  0.7957747E-01  0.3487391E+00
         13   -1    0    0    0    0  0.00000000000E+00  0.00000000000E+00  0.14999999963E+04  0.15000000000E+04  0.10566000000E+00 0. -1.
        994   -1    0    0    0    0 -0.00000000000E+00 -0.00000000000E+00  0.11368683772E-12  0.17120000000E+03  0.17120000000E+03 0.  0.
         13    1    1    2    0    0  0.10012779221E+02 -0.97345717997E+01  0.80536134050E+01  0.16121088325E+02  0.10566000000E+00 0. -1.
        994    1    1    2    0    0 -0.11175375830E+02 -0.15138509466E+01  0.87376754724E+01  0.17179338678E+03  0.17120000000E+03 0.  0.
        998    1    1    2    0    0  0.11625966082E+01  0.11248422746E+02  0.14832087074E+04  0.14832855249E+04  0.10000000000E+02 0. -1.
</event>
<event>
 5    1  0.1218060E-008  0.3855892E+03  0.7957747E-01  0.3427177E+00
         13   -1    0    0    0    0  0.00000000000E+00  0.00000000000E+00  0.14999999963E+04  0.15000000000E+04  0.10566000000E+00 0.  1.
        994   -1    0    0    0    0 -0.00000000000E+00 -0.00000000000E+00  0.11368683772E-12  0.17120000000E+03  0.17120000000E+03 0.  0.
         13    1    1    2    0    0  0.83650847701E+01  0.77950430863E+01  0.38441217094E+02  0.40105806009E+02  0.10566000000E+00 0.  1.
        994    1    1    2    0    0 -0.35555012154E+02 -0.41945121396E+02  0.11325982012E+02  0.18017011397E+03  0.17120000000E+03 0.  0.
        998    1    1    2    0    0  0.27189927384E+02  0.34150078310E+02  0.14502327972E+04  0.14509240800E+04  0.10000000000E+02 0.  1.
</event>
<event>
 5    1  0.1218060E-008  0.3769833E+03  0.7957747E-01  0.3464400E+00
         13   -1    0    0    0    0  0.00000000000E+00  0.00000000000E+00  0.14999999963E+04  0.15000000000E+04  0.10566000000E+00 0. -1.
        994   -1    0    0    0    0 -0.00000000000E+00 -0.00000000000E+00  0.11368683772E-12  0.17120000000E+03  0.17120000000E+03 0.  0.
         13    1    1    2    0    0 -0.31135168198E+02 -0.10233156476E+02  0.93551624151E+02  0.99126352377E+02  0.10566000000E+00 0. -1.
        994    1    1    2    0    0  0.20357388372E+02 -0.32972461994E+01  0.71011475079E+01  0.17258378078E+03  0.17120000000E+03 0.  0.
        998    1    1    2    0    0  0.10777779826E+02  0.13530402676E+02  0.13993472246E+04  0.13994898668E+04  0.10000000000E+02 0. -1.
</event>
<event>
 5    1  0.1218060E-008  0.3711860E+03  0.7957747E-01  0.3490458E+00
         13   -1    0    0    0    0  0.00000000000E+00  0.00000000000E+00  0.14999999963E+04  0.15000000000E+04  0.10566000000E+00 0.  1.
        994   -1    0    0    0    0 -0.00000000000E+00 -0.00000000000E+00  0.11368683772E-12  0.17120000000E+03  0.17120000000E+03 0.  0.
         13    1    1    2    0    0  0.13459535751E+03  0.25737592590E+02  0.62997332059E+03  0.64470514947E+03  0.10566000000E+00 0.  1.
        994    1    1    2    0    0 -0.10853121932E+03 -0.24448311507E+01  0.54172742377E+02  0.20983119116E+03  0.17120000000E+03 0.  0.
        998    1    1    2    0    0 -0.26064138190E+02 -0.23292761439E+02  0.81585393331E+03  0.81666365937E+03  0.10000000000E+02 0. -1.
</event>
<event>
 5    1  0.1218060E-008  0.3730273E+03  0.7957747E-01  0.3482093E+00
         13   -1    0    0    0    0  0.00000000000E+00  0.00000000000E+00  0.14999999963E+04  0.15000000000E+04  0.10566000000E+00 0.  1.
        994   -1    0    0    0    0 -0.00000000000E+00 -0.00000000000E+00  0.11368683772E-12  0.17120000000E+03  0.17120000000E+03 0.  0.
         13    1    1    2    0    0  0.12447381484E+02 -0.48496159805E+01  0.12680043067E+01  0.13419205637E+02  0.10566000000E+00 0.  1.
        994    1    1    2    0    0 -0.16655362027E+02  0.26751629869E+01  0.13554654912E+02  0.17256223877E+03  0.17120000000E+03 0.  0.
        998    1    1    2    0    0  0.42079805427E+01  0.21744529937E+01  0.14851773371E+04  0.14852185556E+04  0.10000000000E+02 0.  1.
</event>
<event>
 5    1  0.1218060E-008  0.3711577E+03  0.7957747E-01  0.3490587E+00
         13   -1    0    0    0    0  0.00000000000E+00  0.00000000000E+00  0.14999999963E+04  0.15000000000E+04  0.10566000000E+00 0.  1.
        994   -1    0    0    0    0 -0.00000000000E+00 -0.00000000000E+00  0.11368683772E-12  0.17120000000E+03  0.17120000000E+03 0.  0.
         13    1    1    2    0    0 -0.45403459671E+02  0.30615134570E+02  0.15408917822E+03  0.16353056785E+03  0.10566000000E+00 0.  1.
        994    1    1    2    0    0  0.29613934957E+02 -0.53226733952E+02  0.21552670397E+02  0.18298641467E+03  0.17120000000E+03 0.  0.
        998    1    1    2    0    0  0.15789524714E+02  0.22611599382E+02  0.13243581477E+04  0.13246830175E+04  0.10000000000E+02 0.  1.
</event>
<event>
 5    1  0.1218060E-008  0.3844381E+03  0.7957747E-01  0.3432059E+00
         13   -1    0    0    0    0  0.00000000000E+00  0.00000000000E+00  0.14999999963E+04  0.15000000000E+04  0.10566000000E+00 0.  1.
        994   -1    0    0    0    0 -0.00000000000E+00 -0.00000000000E+00  0.11368683772E-12  0.17120000000E+03  0.17120000000E+03 0.  0.
         13    1    1    2    0    0  0.20734065091E+01  0.15384798080E+02  0.52602434316E+02  0.54845403513E+02  0.10566000000E+00 0.  1.
        994    1    1    2    0    0 -0.14361335360E+02 -0.42976161896E+02  0.87034649239E+01  0.17730873849E+03  0.17120000000E+03 0.  0.
        998    1    1    2    0    0  0.12287928851E+02  0.27591363817E+02  0.14386940970E+04  0.14390458580E+04  0.10000000000E+02 0.  1.
</event>
<event>
 5    1  0.1218060E-008  0.3821271E+03  0.7957747E-01  0.3441949E+00
         13   -1    0    0    0    0  0.00000000000E+00  0.00000000000E+00  0.14999999963E+04  0.15000000000E+04  0.10566000000E+00 0. -1.
        994   -1    0    0    0    0 -0.00000000000E+00 -0.00000000000E+00  0.11368683772E-12  0.17120000000E+03  0.17120000000E+03 0.  0.
         13    1    1    2    0    0 -0.25632761588E+02 -0.38154672597E+01  0.10537015072E+03  0.10851025797E+03  0.10566000000E+00 0. -1.
        994    1    1    2    0    0  0.19459333250E+02  0.12048292065E+02  0.48040619702E+01  0.17278988976E+03  0.17120000000E+03 0.  0.
        998    1    1    2    0    0  0.61734283380E+01 -0.82328248052E+01  0.13898257836E+04  0.13898998523E+04  0.10000000000E+02 0. -1.
</event>
<event>
 5    1  0.1218060E-008  0.3845354E+03  0.7957747E-01  0.3431645E+00
         13   -1    0    0    0    0  0.00000000000E+00  0.00000000000E+00  0.14999999963E+04  0.15000000000E+04  0.10566000000E+00 0. -1.
        994   -1    0    0    0    0 -0.00000000000E+00 -0.00000000000E+00  0.11368683772E-12  0.17120000000E+03  0.17120000000E+03 0.  0.
         13    1    1    2    0    0  0.14358065487E+02  0.22012254902E+01  0.64514330704E+02  0.66129490157E+02  0.10566000000E+00 0. -1.
        994    1    1    2    0    0  0.13550127070E+02 -0.73359484995E+01  0.26433382760E+01  0.17191233034E+03  0.17120000000E+03 0.  0.
        998    1    1    2    0    0 -0.27908192557E+02  0.51347230093E+01  0.14328423273E+04  0.14331581795E+04  0.10000000000E+02 0. -1.
</event>
<event>
 5    1  0.1218060E-008  0.3802584E+03  0.7957747E-01  0.3450034E+00
         13   -1    0    0    0    0  0.00000000000E+00  0.00000000000E+00  0.14999999963E+04  0.15000000000E+04  0.10566000000E+00 0. -1.
        994   -1    0    0    0    0 -0.00000000000E+00 -0.00000000000E+00  0.11368683772E-12  0.17120000000E+03  0.17120000000E+03 0.  0.
         13    1    1    2    0    0  0.86689759333E+02  0.34685357195E+02  0.42308248476E+03  0.43326318613E+03  0.10566000000E+00 0. -1.
        994    1    1    2    0    0 -0.12501500114E+03 -0.87968830220E+02  0.86463931236E+02  0.24526050845E+03  0.17120000000E+03 0.  0.
        998    1    1    2    0    0  0.38325241806E+02  0.53283473025E+02  0.99045358028E+03  0.99267630542E+03  0.10000000000E+02 0. -1.
</event>
<event>
 5    1  0.1218060E-008  0.3774456E+03  0.7957747E-01  0.3462357E+00
         13   -1    0    0    0    0  0.00000000000E+00  0.00000000000E+00  0.14999999963E+04  0.15000000000E+04  0.10566000000E+00 0.  1.
        994   -1    0    0    0    0 -0.00000000000E+00 -0.00000000000E+00  0.11368683772E-12  0.17120000000E+03  0.17120000000E+03 0.  0.
         13    1    1    2    0    0  0.11787987114E+02  0.51706607795E+01  0.12998428179E+02  0.18293787805E+02  0.10566000000E+00 0.  1.
        994    1    1    2    0    0 -0.48536100054E+01 -0.11566000109E+01  0.55121409718E+01  0.17136136948E+03  0.17120000000E+03 0.  0.
        998    1    1    2    0    0 -0.69343771083E+01 -0.40140607686E+01  0.14814894271E+04  0.14815448427E+04  0.10000000000E+02 0.  1.
</event>
<event>
 5    1  0.1218060E-008  0.3804205E+03  0.7957747E-01  0.3449330E+00
         13   -1    0    0    0    0  0.00000000000E+00  0.00000000000E+00  0.14999999963E+04  0.15000000000E+04  0.10566000000E+00 0.  1.
        994   -1    0    0    0    0 -0.00000000000E+00 -0.00000000000E+00  0.11368683772E-12  0.17120000000E+03  0.17120000000E+03 0.  0.
         13    1    1    2    0    0  0.22250645976E+02 -0.24390890086E+02  0.13870299646E+03  0.14257818612E+03  0.10566000000E+00 0.  1.
        994    1    1    2    0    0 -0.97134842927E+01  0.15994112192E+02  0.50908545929E+01  0.17229486412E+03  0.17120000000E+03 0.  0.
        998    1    1    2    0    0 -0.12537161683E+02  0.83967778946E+01  0.13562061452E+04  0.13563269498E+04  0.10000000000E+02 0.  1.
</event>
<event>
 5    1  0.1218060E-008  0.3785115E+03  0.7957747E-01  0.3457666E+00
         13   -1    0    0    0    0  0.00000000000E+00  0.00000000000E+00  0.14999999963E+04  0.15000000000E+04  0.10566000000E+00 0.  1.
        994   -1    0    0    0    0 -0.00000000000E+00 -0.00000000000E+00  0.11368683772E-12  0.17120000000E+03  0.17120000000E+03 0.  0.
         13    1    1    2    0    0 -0.10187262030E+02 -0.15382343408E+02  0.32117883404E+02  0.37040064724E+02  0.10566000000E+00 0.  1.
        994    1    1    2    0    0  0.16359175793E+02  0.13400466984E+02  0.63902006171E+01  0.17261943637E+03  0.17120000000E+03 0.  0.
        998    1    1    2    0    0 -0.61719137627E+01  0.19818764242E+01  0.14614919123E+04  0.14615404989E+04  0.10000000000E+02 0.  1.
</event>
<event>
 5    1  0.1218060E-008  0.3667868E+03  0.7957747E-01  0.3510790E+00
         13   -1    0    0    0    0  0.00000000000E+00  0.00000000000E+00  0.14999999963E+04  0.15000000000E+04  0.10566000000E+00 0.  1.
        994   -1    0    0    0    0 -0.00000000000E+00 -0.00000000000E+00  0.11368683772E-12  0.17120000000E+03  0.17120000000E+03 0.  0.
         13    1    1    2    0    0  0.31479595097E+03  0.58278861148E+02  0.70978635885E+03  0.77864600608E+03  0.10566000000E+00 0.  1.
        994    1    1    2    0    0 -0.31375441415E+03 -0.79445360937E+02  0.61471601712E+03  0.71549886057E+03  0.17120000000E+03 0.  0.
        998    1    1    2    0    0 -0.10415368206E+01  0.21166499790E+02  0.17549762031E+03  0.17705513336E+03  0.10000000000E+02 0. -1.
</event>
<event>
 5    1  0.2434200E-008  0.3864846E+03  0.7957747E-01  0.3423400E+00
         13   -1    0    0    0    0  0.00000000000E+00  0.00000000000E+00  0.14999999963E+04  0.15000000000E+04  0.10566000000E+00 0.  1.
        994   -1    0    0    0    0 -0.00000000000E+00 -0.00000000000E+00  0.11368683772E-12  0.17120000000E+03  0.17120000000E+03 0.  0.
         13    1    1    2    0    0  0.85751478197E+01  0.52249224685E+01  0.58000831892E+02  0.58863746391E+02  0.10566000000E+00 0.  1.
        994    1    1    2    0    0 -0.83095446659E+01  0.23389612680E+01  0.11387716842E+01  0.17142128244E+03  0.17120000000E+03 0.  0.
        998    1    1    2    0    0 -0.26560315376E+00 -0.75638837365E+01  0.14408603927E+04  0.14409149712E+04  0.10000000000E+02 0.  1.
</event>
<event>
 5    1  0.1218060E-008  0.3858909E+03  0.7957747E-01  0.3425903E+00
         13   -1    0    0    0    0  0.00000000000E+00  0.00000000000E+00  0.14999999963E+04  0.15000000000E+04  0.10566000000E+00 0. -1.
        994   -1    0    0    0    0 -0.00000000000E+00 -0.00000000000E+00  0.11368683772E-12  0.17120000000E+03  0.17120000000E+03 0.  0.
         13    1    1    2    0    0  0.54216949091E+01 -0.89461126848E+01  0.41792165885E+02  0.43081597014E+02  0.10566000000E+00 0. -1.
        994    1    1    2    0    0 -0.10641136832E+02  0.23112883362E+02  0.33144141815E+01  0.17311228874E+03  0.17120000000E+03 0.  0.
        998    1    1    2    0    0  0.52194419225E+01 -0.14166770677E+02  0.14548934162E+04  0.14550061142E+04  0.10000000000E+02 0. -1.
</event>
<event>
 5    1  0.1218060E-008  0.3780132E+03  0.7957747E-01  0.3459855E+00
         13   -1    0    0    0    0  0.00000000000E+00  0.00000000000E+00  0.14999999963E+04  0.15000000000E+04  0.10566000000E+00 0. -1.
        994   -1    0    0    0    0 -0.00000000000E+00 -0.00000000000E+00  0.11368683772E-12  0.17120000000E+03  0.17120000000E+03 0.  0.
         13    1    1    2    0    0  0.13886164465E+02  0.20393922880E+02  0.59385143037E+02  0.64306640649E+02  0.10566000000E+00 0. -1.
        994    1    1    2    0    0 -0.78967820579E+01 -0.21054733865E+01  0.53642196755E+01  0.17147888219E+03  0.17120000000E+03 0.  0.
        998    1    1    2    0    0 -0.59893824067E+01 -0.18288449493E+02  0.14352506336E+04  0.14354144772E+04  0.10000000000E+02 0. -1.
</event>
<event>
 5    1  0.1218060E-008  0.3751927E+03  0.7957747E-01  0.3472361E+00
         13   -1    0    0    0    0  0.00000000000E+00  0.00000000000E+00  0.14999999963E+04  0.15000000000E+04  0.10566000000E+00 0. -1.
        994   -1    0    0    0    0 -0.00000000000E+00 -0.00000000000E+00  0.11368683772E-12  0.17120000000E+03  0.17120000000E+03 0.  0.
         13    1    1    2    0    0 -0.30883339597E+02  0.38478981391E+01  0.29735529817E+02  0.43044162000E+02  0.10566000000E+00 0. -1.
        994    1    1    2    0    0  0.23873495716E+02  0.24507074066E+01  0.15764770124E+02  0.17359123751E+03  0.17120000000E+03 0.  0.
        998    1    1    2    0    0  0.70098438801E+01 -0.62986055457E+01  0.14544996963E+04  0.14545646005E+04  0.10000000000E+02 0. -1.
</event>
<event>
 5    1  0.1218060E-008  0.3842092E+03  0.7957747E-01  0.3433033E+00
         13   -1    0    0    0    0  0.00000000000E+00  0.00000000000E+00  0.14999999963E+04  0.15000000000E+04  0.10566000000E+00 0. -1.
        994   -1    0    0    0    0 -0.00000000000E+00 -0.00000000000E+00  0.11368683772E-12  0.17120000000E+03  0.17120000000E+03 0.  0.
         13    1    1    2    0    0 -0.79541435397E+01  0.14622802742E+02  0.68023471195E+02  0.70030697247E+02  0.10566000000E+00 0. -1.
        994    1    1    2    0    0  0.56958490758E+01 -0.95412765545E+01  0.24304761623E+01  0.17157746317E+03  0.17120000000E+03 0.  0.
        998    1    1    2    0    0  0.22582944639E+01 -0.50815261877E+01  0.14295460489E+04  0.14295918396E+04  0.10000000000E+02 0. -1.
</event>
<event>
 5    1  0.1218060E-008  0.3739727E+03  0.7957747E-01  0.3477830E+00
         13   -1    0    0    0    0  0.00000000000E+00  0.00000000000E+00  0.14999999963E+04  0.15000000000E+04  0.10566000000E+00 0. -1.
        994   -1    0    0    0    0 -0.00000000000E+00 -0.00000000000E+00  0.11368683772E-12  0.17120000000E+03  0.17120000000E+03 0.  0.
         13    1    1    2    0    0 -0.42705828871E+02 -0.25730404379E+02  0.17493778210E+03  0.18190404145E+03  0.10566000000E+00 0. -1.
        994    1    1    2    0    0  0.20376091242E+02  0.12747788331E+02  0.91802493645E+01  0.17312252361E+03  0.17120000000E+03 0.  0.
        998    1    1    2    0    0  0.22329737629E+02  0.12982616048E+02  0.13158819648E+04  0.13161734349E+04  0.10000000000E+02 0. -1.
</event>
<event>
 5    1  0.1218060E-008  0.3852671E+03  0.7957747E-01  0.3428540E+00
         13   -1    0    0    0    0  0.00000000000E+00  0.00000000000E+00  0.14999999963E+04  0.15000000000E+04  0.10566000000E+00 0. -1.
        994   -1    0    0    0    0 -0.00000000000E+00 -0.00000000000E+00  0.11368683772E-12  0.17120000000E+03  0.17120000000E+03 0.  0.
         13    1    1    2    0    0  0.62914918297E+01 -0.11519492028E+02  0.58236968962E+02  0.59697883412E+02  0.10566000000E+00 0. -1.
        994    1    1    2    0    0 -0.50870527558E+01  0.53485765459E+01  0.16766111469E+01  0.17136725592E+03  0.17120000000E+03 0.  0.
        998    1    1    2    0    0 -0.12044390739E+01  0.61709154818E+01  0.14400864162E+04  0.14401348607E+04  0.10000000000E+02 0. -1.
</event>
<event>
 5    1  0.1218060E-008  0.3842797E+03  0.7957747E-01  0.3432733E+00
         13   -1    0    0    0    0  0.00000000000E+00  0.00000000000E+00  0.14999999963E+04  0.15000000000E+04  0.10566000000E+00 0.  1.
        994   -1    0    0    0    0 -0.00000000000E+00 -0.00000000000E+00  0.11368683772E-12  0.17120000000E+03  0.17120000000E+03 0.  0.
         13    1    1    2    0    0 -0.12213323734E+02 -0.66460086365E+01  0.47582892640E+02  0.49572951732E+02  0.10566000000E+00 0.  1.
        994    1    1    2    0    0  0.94553558519E+01  0.78517047824E+01  0.24862623485E+01  0.17165859874E+03  0.17120000000E+03 0.  0.
        998    1    1    2    0    0  0.27579678818E+01 -0.12056961459E+01  0.14499308413E+04  0.14499684495E+04  0.10000000000E+02 0.  1.
</event>
<event>
 5    1  0.1218060E-008  0.3834662E+03  0.7957747E-01  0.3436203E+00
         13   -1    0    0    0    0  0.00000000000E+00  0.00000000000E+00  0.14999999963E+04  0.15000000000E+04  0.10566000000E+00 0.  1.
        994   -1    0    0    0    0 -0.00000000000E+00 -0.00000000000E+00  0.11368683772E-12  0.17120000000E+03  0.17120000000E+03 0.  0.
         13    1    1    2    0    0  0.18621926874E+02 -0.11537610813E+02  0.93298978915E+02  0.95836335773E+02  0.10566000000E+00 0.  1.
        994    1    1    2    0    0 -0.18165429523E+02  0.16613130492E+02  0.43989420076E+01  0.17301667441E+03  0.17120000000E+03 0.  0.
        998    1    1    2    0    0 -0.45649735124E+00 -0.50755196792E+01  0.14023020754E+04  0.14023469898E+04  0.10000000000E+02 0.  1.
</event>
<event>
 5    1  0.1218060E-008  0.3674587E+03  0.7957747E-01  0.3507652E+00
         13   -1    0    0    0    0  0.00000000000E+00  0.00000000000E+00  0.14999999963E+04  0.15000000000E+04  0.10566000000E+00 0. -1.
        994   -1    0    0    0    0 -0.00000000000E+00 -0.00000000000E+00  0.11368683772E-12  0.17120000000E+03  0.17120000000E+03 0.  0.
         13    1    1    2    0    0  0.60744001066E+02 -0.31311665814E+03  0.66139095997E+03  0.73428188618E+03  0.10566000000E+00 0. -1.
        994    1    1    2    0    0 -0.72266657492E+02  0.32252634861E+03  0.66257838786E+03  0.75997715452E+03  0.17120000000E+03 0.  0.
        998    1    1    2    0    0  0.11522656425E+02 -0.94096904730E+01  0.17603064845E+03  0.17694095930E+03  0.10000000000E+02 0.  1.
</event>
<event>
 5    1  0.1218060E-008  0.3813585E+03  0.7957747E-01  0.3445264E+00
         13   -1    0    0    0    0  0.00000000000E+00  0.00000000000E+00  0.14999999963E+04  0.15000000000E+04  0.10566000000E+00 0. -1.
        994   -1    0    0    0    0 -0.00000000000E+00 -0.00000000000E+00  0.11368683772E-12  0.17120000000E+03  0.17120000000E+03 0.  0.
         13    1    1    2    0    0 -0.92383925696E+01  0.57900577924E+01  0.16392419508E+02  0.19687438834E+02  0.10566000000E+00 0. -1.
        994    1    1    2    0    0 -0.90452048453E+00  0.10202167713E+02  0.37981209831E+01  0.17154815098E+03  0.17120000000E+03 0.  0.
        998    1    1    2    0    0  0.10142913054E+02 -0.15992225505E+02  0.14798094558E+04  0.14799644102E+04  0.10000000000E+02 0. -1.
</event>
<event>
 5    1  0.1218060E-008  0.3832264E+03  0.7957747E-01  0.3437229E+00
         13   -1    0    0    0    0  0.00000000000E+00  0.00000000000E+00  0.14999999963E+04  0.15000000000E+04  0.10566000000E+00 0. -1.
        994   -1    0    0    0    0 -0.00000000000E+00 -0.00000000000E+00  0.11368683772E-12  0.17120000000E+03  0.17120000000E+03 0.  0.
         13    1    1    2    0    0  0.42074720405E+01  0.15043779961E+02  0.46560391601E+02  0.49111092093E+02  0.10566000000E+00 0. -1.
        994    1    1    2    0    0  0.11793449873E+01 -0.17318561645E+02  0.35105603968E+01  0.17211358885E+03  0.17120000000E+03 0.  0.
        998    1    1    2    0    0 -0.53868170278E+01  0.22747816837E+01  0.14499290443E+04  0.14499753191E+04  0.10000000000E+02 0. -1.
</event>
<event>
 5    1  0.1218060E-008  0.3953460E+03  0.7957747E-01  0.3386945E+00
         13   -1    0    0    0    0  0.00000000000E+00  0.00000000000E+00  0.14999999963E+04  0.15000000000E+04  0.10566000000E+00 0. -1.
        994   -1    0    0    0    0 -0.00000000000E+00 -0.00000000000E+00  0.11368683772E-12  0.17120000000E+03  0.17120000000E+03 0.  0.
         13    1    1    2    0    0 -0.60678649031E+01 -0.48177689643E+02  0.34869719682E+02  0.59781412484E+02  0.10566000000E+00 0. -1.
        994    1    1    2    0    0  0.47002688053E+01  0.68632092769E+02  0.43445098209E+02  0.18955045039E+03  0.17120000000E+03 0.  0.
        998    1    1    2    0    0  0.13675960978E+01 -0.20454403126E+02  0.14216851784E+04  0.14218681371E+04  0.10000000000E+02 0. -1.
</event>
<event>
 5    1  0.1218060E-008  0.3810817E+03  0.7957747E-01  0.3446462E+00
         13   -1    0    0    0    0  0.00000000000E+00  0.00000000000E+00  0.14999999963E+04  0.15000000000E+04  0.10566000000E+00 0.  1.
        994   -1    0    0    0    0 -0.00000000000E+00 -0.00000000000E+00  0.11368683772E-12  0.17120000000E+03  0.17120000000E+03 0.  0.
         13    1    1    2    0    0  0.57605579653E+02  0.10115221856E+02  0.83350986519E+02  0.10182395906E+03  0.10566000000E+00 0.  1.
        994    1    1    2    0    0 -0.81915148721E+02 -0.16611716819E+02  0.42802503605E+02  0.19526273336E+03  0.17120000000E+03 0.  0.
        998    1    1    2    0    0  0.24309569069E+02  0.64964949626E+01  0.13738465062E+04  0.13741133076E+04  0.10000000000E+02 0.  1.
</event>
<event>
 5    1  0.1218060E-008  0.3846228E+03  0.7957747E-01  0.3431274E+00
         13   -1    0    0    0    0  0.00000000000E+00  0.00000000000E+00  0.14999999963E+04  0.15000000000E+04  0.10566000000E+00 0.  1.
        994   -1    0    0    0    0 -0.00000000000E+00 -0.00000000000E+00  0.11368683772E-12  0.17120000000E+03  0.17120000000E+03 0.  0.
         13    1    1    2    0    0  0.56922427707E+01  0.13246304569E+02  0.54156639347E+02  0.56043009929E+02  0.10566000000E+00 0.  1.
        994    1    1    2    0    0 -0.13012333813E+02 -0.14960979988E+02  0.31131247257E+01  0.17237251318E+03  0.17120000000E+03 0.  0.
        998    1    1    2    0    0  0.73200910426E+01  0.17146754189E+01  0.14427302322E+04  0.14427844769E+04  0.10000000000E+02 0.  1.
</event>
<event>
 5    1  0.1218060E-008  0.3842540E+03  0.7957747E-01  0.3432842E+00
         13   -1    0    0    0    0  0.00000000000E+00  0.00000000000E+00  0.14999999963E+04  0.15000000000E+04  0.10566000000E+00 0. -1.
        994   -1    0    0    0    0 -0.00000000000E+00 -0.00000000000E+00  0.11368683772E-12  0.17120000000E+03  0.17120000000E+03 0.  0.
         13    1    1    2    0    0 -0.48189875944E+01  0.15207486683E+02  0.64668466059E+02  0.66607146457E+02  0.10566000000E+00 0. -1.
        994    1    1    2    0    0 -0.29565566949E+00 -0.70301674997E+01  0.21642236092E+01  0.17135820532E+03  0.17120000000E+03 0.  0.
        998    1    1    2    0    0  0.51146432638E+01 -0.81773191835E+01  0.14331673066E+04  0.14332346482E+04  0.10000000000E+02 0. -1.
</event>
<event>
 5    1  0.1218060E-008  0.3837478E+03  0.7957747E-01  0.3435000E+00
         13   -1    0    0    0    0  0.00000000000E+00  0.00000000000E+00  0.14999999963E+04  0.15000000000E+04  0.10566000000E+00 0. -1.
        994   -1    0    0    0    0 -0.00000000000E+00 -0.00000000000E+00  0.11368683772E-12  0.17120000000E+03  0.17120000000E+03 0.  0.
         13    1    1    2    0    0  0.13315592297E+02  0.45459943133E+01  0.43543288192E+02  0.45760246646E+02  0.10566000000E+00 0. -1.
        994    1    1    2    0    0 -0.79057486904E+01 -0.29231815854E+01  0.24877327340E+01  0.17142542013E+03  0.17120000000E+03 0.  0.
        998    1    1    2    0    0 -0.54098436067E+01 -0.16228127279E+01  0.14539689754E+04  0.14540143332E+04  0.10000000000E+02 0. -1.
</event>
<event>
 5    1  0.1218060E-008  0.3842227E+03  0.7957747E-01  0.3432975E+00
         13   -1    0    0    0    0  0.00000000000E+00  0.00000000000E+00  0.14999999963E+04  0.15000000000E+04  0.10566000000E+00 0. -1.
        994   -1    0    0    0    0 -0.00000000000E+00 -0.00000000000E+00  0.11368683772E-12  0.17120000000E+03  0.17120000000E+03 0.  0.
         13    1    1    2    0    0 -0.14470384912E+02 -0.75797197291E+00  0.51170063128E+02  0.53182262885E+02  0.10566000000E+00 0. -1.
        994    1    1    2    0    0  0.12071376243E+02 -0.83740346980E+01  0.27284806054E+01  0.17185088649E+03  0.17120000000E+03 0.  0.
        998    1    1    2    0    0  0.23990086690E+01  0.91320066709E+01  0.14461014525E+04  0.14461668506E+04  0.10000000000E+02 0. -1.
</event>
<event>
 5    1  0.1218060E-008  0.3790098E+03  0.7957747E-01  0.3455481E+00
         13   -1    0    0    0    0  0.00000000000E+00  0.00000000000E+00  0.14999999963E+04  0.15000000000E+04  0.10566000000E+00 0. -1.
        994   -1    0    0    0    0 -0.00000000000E+00 -0.00000000000E+00  0.11368683772E-12  0.17120000000E+03  0.17120000000E+03 0.  0.
         13    1    1    2    0    0 -0.97250051392E+01  0.87951324795E+01  0.16532173496E+02  0.21101042743E+02  0.10566000000E+00 0. -1.
        994    1    1    2    0    0  0.14697894003E+02  0.13713896625E+01  0.53649880819E+01  0.17191896898E+03  0.17120000000E+03 0.  0.
        998    1    1    2    0    0 -0.49728888640E+01 -0.10166522142E+02  0.14781028347E+04  0.14781799883E+04  0.10000000000E+02 0. -1.
</event>
<event>
 5    1  0.1218060E-008  0.3841651E+03  0.7957747E-01  0.3433221E+00
         13   -1    0    0    0    0  0.00000000000E+00  0.00000000000E+00  0.14999999963E+04  0.15000000000E+04  0.10566000000E+00 0. -1.
        994   -1    0    0    0    0 -0.00000000000E+00 -0.00000000000E+00  0.11368683772E-12  0.17120000000E+03  0.17120000000E+03 0.  0.
         13    1    1    2    0    0  0.17464212188E+02 -0.18518500797E+02  0.14843714790E+03  0.15060388979E+03  0.10566000000E+00 0. -1.
        994    1    1    2    0    0 -0.12077958103E+02  0.19821637185E+02  0.38239000410E+01  0.17280867045E+03  0.17120000000E+03 0.  0.
        998    1    1    2    0    0 -0.53862540843E+01 -0.13031363884E+01  0.13477389483E+04  0.13477874398E+04  0.10000000000E+02 0. -1.
</event>
<event>
 5    1  0.1218060E-008  0.3862345E+03  0.7957747E-01  0.3424453E+00
         13   -1    0    0    0    0  0.00000000000E+00  0.00000000000E+00  0.14999999963E+04  0.15000000000E+04  0.10566000000E+00 0.  1.
        994   -1    0    0    0    0 -0.00000000000E+00 -0.00000000000E+00  0.11368683772E-12  0.17120000000E+03  0.17120000000E+03 0.  0.
         13    1    1    2    0    0  0.15377461874E+02 -0.13820988032E+02  0.12382760392E+03  0.12554191611E+03  0.10566000000E+00 0.  1.
        994    1    1    2    0    0 -0.51625567566E+02  0.43263582314E+02  0.16022744801E+02  0.18467026055E+03  0.17120000000E+03 0.  0.
        998    1    1    2    0    0  0.36248105692E+02 -0.29442594282E+02  0.13601496476E+04  0.13609878233E+04  0.10000000000E+02 0.  1.
</event>
<event>
 5    1  0.1218060E-008  0.3783819E+03  0.7957747E-01  0.3458234E+00
         13   -1    0    0    0    0  0.00000000000E+00  0.00000000000E+00  0.14999999963E+04  0.15000000000E+04  0.10566000000E+00 0.  1.
        994   -1    0    0    0    0 -0.00000000000E+00 -0.00000000000E+00  0.11368683772E-12  0.17120000000E+03  0.17120000000E+03 0.  0.
         13    1    1    2    0    0  0.83806769265E+00  0.49182560991E+02  0.20353054306E+03  0.20939035265E+03  0.10566000000E+00 0.  1.
        994    1    1    2    0    0  0.59992587015E+01 -0.54665877834E+02  0.15184802299E+02  0.18045599886E+03  0.17120000000E+03 0.  0.
        998    1    1    2    0    0 -0.68373263942E+01  0.54833168428E+01  0.12812846509E+04  0.12813536485E+04  0.10000000000E+02 0.  1.
</event>
<event>
 5    1  0.1218060E-008  0.3808507E+03  0.7957747E-01  0.3447463E+00
         13   -1    0    0    0    0  0.00000000000E+00  0.00000000000E+00  0.14999999963E+04  0.15000000000E+04  0.10566000000E+00 0. -1.
        994   -1    0    0    0    0 -0.00000000000E+00 -0.00000000000E+00  0.11368683772E-12  0.17120000000E+03  0.17120000000E+03 0.  0.
         13    1    1    2    0    0  0.22969321964E+02  0.18460715231E+01  0.66877943701E+02  0.70736611802E+02  0.10566000000E+00 0. -1.
        994    1    1    2    0    0 -0.25763129528E+02 -0.50928841432E+01  0.60067857771E+01  0.17330665823E+03  0.17120000000E+03 0.  0.
        998    1    1    2    0    0  0.27938075645E+01  0.32468126201E+01  0.14271152668E+04  0.14271567300E+04  0.10000000000E+02 0. -1.
</event>
<event>
 5    1  0.1218060E-008  0.3824033E+03  0.7957747E-01  0.3440760E+00
         13   -1    0    0    0    0  0.00000000000E+00  0.00000000000E+00  0.14999999963E+04  0.15000000000E+04  0.10566000000E+00 0.  1.
        994   -1    0    0    0    0 -0.00000000000E+00 -0.00000000000E+00  0.11368683772E-12  0.17120000000E+03  0.17120000000E+03 0.  0.
         13    1    1    2    0    0 -0.22623832397E+02  0.37204152954E+01  0.65427287602E+01  0.23843190768E+02  0.10566000000E+00 0.  1.
        994    1    1    2    0    0  0.45070832838E+02 -0.33523721284E-01  0.25116975136E+02  0.17880627376E+03  0.17120000000E+03 0.  0.
        998    1    1    2    0    0 -0.22447000441E+02 -0.36868915741E+01  0.14683402924E+04  0.14685505355E+04  0.10000000000E+02 0.  1.
</event>
<event>
 5    1  0.1218060E-008  0.3826559E+03  0.7957747E-01  0.3439675E+00
         13   -1    0    0    0    0  0.00000000000E+00  0.00000000000E+00  0.14999999963E+04  0.15000000000E+04  0.10566000000E+00 0. -1.
        994   -1    0    0    0    0 -0.00000000000E+00 -0.00000000000E+00  0.11368683772E-12  0.17120000000E+03  0.17120000000E+03 0.  0.
         13    1    1    2    0    0 -0.26207201212E+02 -0.16634658132E+01  0.12733609308E+03  0.13001567705E+03  0.10566000000E+00 0. -1.
        994    1    1    2    0    0  0.12078342821E+02 -0.20219822629E+02  0.46388574197E+01  0.17287477141E+03  0.17120000000E+03 0.  0.
        998    1    1    2    0    0  0.14128858390E+02  0.21883288442E+02  0.13680250458E+04  0.13683095515E+04  0.10000000000E+02 0. -1.
</event>
<event>
 5    1  0.1218060E-008  0.3809357E+03  0.7957747E-01  0.3447094E+00
         13   -1    0    0    0    0  0.00000000000E+00  0.00000000000E+00  0.14999999963E+04  0.15000000000E+04  0.10566000000E+00 0.  1.
        994   -1    0    0    0    0 -0.00000000000E+00 -0.00000000000E+00  0.11368683772E-12  0.17120000000E+03  0.17120000000E+03 0.  0.
         13    1    1    2    0    0 -0.47103618700E+02  0.12815561810E+02  0.65505481787E+02  0.81694362274E+02  0.10566000000E+00 0.  1.
        994    1    1    2    0    0  0.28325924987E+02 -0.98825099793E+01  0.20121432722E+02  0.17496952330E+03  0.17120000000E+03 0.  0.
        998    1    1    2    0    0  0.18777693714E+02 -0.29330518308E+01  0.14143730818E+04  0.14145361144E+04  0.10000000000E+02 0.  1.
</event>
<event>
 5    1  0.1218060E-008  0.3955766E+03  0.7957747E-01  0.3386018E+00
         13   -1    0    0    0    0  0.00000000000E+00  0.00000000000E+00  0.14999999963E+04  0.15000000000E+04  0.10566000000E+00 0.  1.
        994   -1    0    0    0    0 -0.00000000000E+00 -0.00000000000E+00  0.11368683772E-12  0.17120000000E+03  0.17120000000E+03 0.  0.
         13    1    1    2    0    0 -0.79382110671E+02 -0.40797633512E+02  0.13844427005E+03  0.16472034929E+03  0.10566000000E+00 0.  1.
        994    1    1    2    0    0  0.74586153726E+02  0.43583444628E+02  0.54473587452E+02  0.19934749234E+03  0.17120000000E+03 0.  0.
        998    1    1    2    0    0  0.47959569452E+01 -0.27858111164E+01  0.13070821388E+04  0.13071321584E+04  0.10000000000E+02 0.  1.
</event>
<event>
 5    1  0.1218060E-008  0.3827885E+03  0.7957747E-01  0.3439106E+00
         13   -1    0    0    0    0  0.00000000000E+00  0.00000000000E+00  0.14999999963E+04  0.15000000000E+04  0.10566000000E+00 0. -1.
        994   -1    0    0    0    0 -0.00000000000E+00 -0.00000000000E+00  0.11368683772E-12  0.17120000000E+03  0.17120000000E+03 0.  0.
         13    1    1    2    0    0 -0.23404888554E+02  0.19093036216E+03  0.93660075306E+03  0.95615018371E+03  0.10566000000E+00 0. -1.
        994    1    1    2    0    0 -0.14289741002E+01 -0.22280104777E+03  0.18966584526E+03  0.33900578419E+03  0.17120000000E+03 0.  0.
        998    1    1    2    0    0  0.24833862654E+02  0.31870685609E+02  0.37373339795E+03  0.37604403211E+03  0.10000000000E+02 0.  1.
</event>
<event>
 5    1  0.1218060E-008  0.3829644E+03  0.7957747E-01  0.3438352E+00
         13   -1    0    0    0    0  0.00000000000E+00  0.00000000000E+00  0.14999999963E+04  0.15000000000E+04  0.10566000000E+00 0. -1.
        994   -1    0    0    0    0 -0.00000000000E+00 -0.00000000000E+00  0.11368683772E-12  0.17120000000E+03  0.17120000000E+03 0.  0.
         13    1    1    2    0    0  0.13819101953E+02 -0.31204510826E+02  0.20157401597E+03  0.20444261824E+03  0.10566000000E+00 0. -1.
        994    1    1    2    0    0 -0.99243540724E+01  0.27698825452E+02  0.55154076227E+01  0.17379751856E+03  0.17120000000E+03 0.  0.
        998    1    1    2    0    0 -0.38947478811E+01  0.35056853738E+01  0.12929105727E+04  0.12929598632E+04  0.10000000000E+02 0. -1.
</event>
<event>
 5    1  0.1218060E-008  0.3895848E+03  0.7957747E-01  0.3410457E+00
         13   -1    0    0    0    0  0.00000000000E+00  0.00000000000E+00  0.14999999963E+04  0.15000000000E+04  0.10566000000E+00 0. -1.
        994   -1    0    0    0    0 -0.00000000000E+00 -0.00000000000E+00  0.11368683772E-12  0.17120000000E+03  0.17120000000E+03 0.  0.
         13    1    1    2    0    0 -0.89466584735E+02 -0.73325800893E+02  0.24212076389E+03  0.26833452691E+03  0.10566000000E+00 0. -1.
        994    1    1    2    0    0  0.87600714826E+02  0.85072560238E+02  0.80165559924E+02  0.22504928958E+03  0.17120000000E+03 0.  0.
        998    1    1    2    0    0  0.18658699088E+01 -0.11746759345E+02  0.11777136725E+04  0.11778161835E+04  0.10000000000E+02 0.  1.
</event>
<event>
 5    1  0.1218060E-008  0.3775489E+03  0.7957747E-01  0.3461901E+00
         13   -1    0    0    0    0  0.00000000000E+00  0.00000000000E+00  0.14999999963E+04  0.15000000000E+04  0.10566000000E+00 0. -1.
        994   -1    0    0    0    0 -0.00000000000E+00 -0.00000000000E+00  0.11368683772E-12  0.17120000000E+03  0.17120000000E+03 0.  0.
         13    1    1    2    0    0 -0.12444264091E+01 -0.22758805411E+02  0.56695270687E+02  0.61105455592E+02  0.10566000000E+00 0. -1.
        994    1    1    2    0    0  0.35783943769E+02 -0.43160548175E+02  0.16043547328E+02  0.18085950061E+03  0.17120000000E+03 0.  0.
        998    1    1    2    0    0 -0.34539517360E+02  0.65919353586E+02  0.14272611783E+04  0.14292350438E+04  0.10000000000E+02 0. -1.
</event>
<event>
 5    1  0.1218060E-008  0.3849180E+03  0.7957747E-01  0.3430020E+00
         13   -1    0    0    0    0  0.00000000000E+00  0.00000000000E+00  0.14999999963E+04  0.15000000000E+04  0.10566000000E+00 0.  1.
        994   -1    0    0    0    0 -0.00000000000E+00 -0.00000000000E+00  0.11368683772E-12  0.17120000000E+03  0.17120000000E+03 0.  0.
         13    1    1    2    0    0 -0.10059015961E+02  0.52768376252E+01  0.38090364154E+02  0.39748154961E+02  0.10566000000E+00 0.  1.
        994    1    1    2    0    0  0.96977373824E+01 -0.20032530930E+01  0.19934850495E+01  0.17149773502E+03  0.17120000000E+03 0.  0.
        998    1    1    2    0    0  0.36127857863E+00 -0.32735845321E+01  0.14599161471E+04  0.14599541100E+04  0.10000000000E+02 0.  1.
</event>
<event>
 5    1  0.1218060E-008  0.3791165E+03  0.7957747E-01  0.3455014E+00
         13   -1    0    0    0    0  0.00000000000E+00  0.00000000000E+00  0.14999999963E+04  0.15000000000E+04  0.10566000000E+00 0.  1.
        994   -1    0    0    0    0 -0.00000000000E+00 -0.00000000000E+00  0.11368683772E-12  0.17120000000E+03  0.17120000000E+03 0.  0.
         13    1    1    2    0    0  0.16047915084E+02  0.60308440313E+01  0.29335966316E+02  0.33978180381E+02  0.10566000000E+00 0.  1.
        994    1    1    2    0    0 -0.20360091255E+02 -0.82293097231E+01  0.61983165429E+01  0.17271396580E+03  0.17120000000E+03 0.  0.
        998    1    1    2    0    0  0.43121761708E+01  0.21984656918E+01  0.14644657134E+04  0.14645078538E+04  0.10000000000E+02 0.  1.
</event>
<event>
 5    1  0.1218060E-008  0.3762107E+03  0.7957747E-01  0.3467826E+00
         13   -1    0    0    0    0  0.00000000000E+00  0.00000000000E+00  0.14999999963E+04  0.15000000000E+04  0.10566000000E+00 0.  1.
        994   -1    0    0    0    0 -0.00000000000E+00 -0.00000000000E+00  0.11368683772E-12  0.17120000000E+03  0.17120000000E+03 0.  0.
         13    1    1    2    0    0 -0.36587823896E+02  0.36035457419E+02  0.25315845765E+03  0.25831461223E+03  0.10566000000E+00 0.  1.
        994    1    1    2    0    0  0.34076295520E+00 -0.10470314427E+02  0.64299271894E+01  0.17164069321E+03  0.17120000000E+03 0.  0.
        998    1    1    2    0    0  0.36247060940E+02 -0.25565142992E+02  0.12404116114E+04  0.12412446946E+04  0.10000000000E+02 0.  1.
</event>
<event>
 5    1  0.1218060E-008  0.3803227E+03  0.7957747E-01  0.3449755E+00
         13   -1    0    0    0    0  0.00000000000E+00  0.00000000000E+00  0.14999999963E+04  0.15000000000E+04  0.10566000000E+00 0.  1.
        994   -1    0    0    0    0 -0.00000000000E+00 -0.00000000000E+00  0.11368683772E-12  0.17120000000E+03  0.17120000000E+03 0.  0.
         13    1    1    2    0    0  0.30424109876E+01  0.11388481686E+02  0.15696643525E+02  0.19630322507E+02  0.10566000000E+00 0.  1.
        994    1    1    2    0    0 -0.18761911389E+01 -0.11133105687E+02  0.43961218825E+01  0.17162817957E+03  0.17120000000E+03 0.  0.
        998    1    1    2    0    0 -0.11662198487E+01 -0.25537599915E+00  0.14799072309E+04  0.14799414979E+04  0.10000000000E+02 0.  1.
</event>
<event>
 5    1  0.1218060E-008  0.3830854E+03  0.7957747E-01  0.3437833E+00
         13   -1    0    0    0    0  0.00000000000E+00  0.00000000000E+00  0.14999999963E+04  0.15000000000E+04  0.10566000000E+00 0.  1.
        994   -1    0    0    0    0 -0.00000000000E+00 -0.00000000000E+00  0.11368683772E-12  0.17120000000E+03  0.17120000000E+03 0.  0.
         13    1    1    2    0    0  0.11992328008E+02  0.10442456780E+02  0.46770014893E+02  0.49399456392E+02  0.10566000000E+00 0.  1.
        994    1    1    2    0    0 -0.48025575317E+01 -0.20793726747E+02  0.40922948675E+01  0.17257355101E+03  0.17120000000E+03 0.  0.
        998    1    1    2    0    0 -0.71897704761E+01  0.10351269967E+02  0.14491376865E+04  0.14492269926E+04  0.10000000000E+02 0.  1.
</event>
<event>
 5    1  0.1218060E-008  0.3843646E+03  0.7957747E-01  0.3432372E+00
         13   -1    0    0    0    0  0.00000000000E+00  0.00000000000E+00  0.14999999963E+04  0.15000000000E+04  0.10566000000E+00 0. -1.
        994   -1    0    0    0    0 -0.00000000000E+00 -0.00000000000E+00  0.11368683772E-12  0.17120000000E+03  0.17120000000E+03 0.  0.
         13    1    1    2    0    0  0.12514427592E+02  0.56168335336E+01  0.47117226533E+02  0.49073454301E+02  0.10566000000E+00 0. -1.
        994    1    1    2    0    0 -0.13268013168E+02 -0.19281494073E+01  0.25385382067E+01  0.17174295360E+03  0.17120000000E+03 0.  0.
        998    1    1    2    0    0  0.75358557579E+00 -0.36886841263E+01  0.14503442315E+04  0.14503835921E+04  0.10000000000E+02 0. -1.
</event>
<event>
 5    1  0.1218060E-008  0.3836570E+03  0.7957747E-01  0.3435388E+00
         13   -1    0    0    0    0  0.00000000000E+00  0.00000000000E+00  0.14999999963E+04  0.15000000000E+04  0.10566000000E+00 0.  1.
        994   -1    0    0    0    0 -0.00000000000E+00 -0.00000000000E+00  0.11368683772E-12  0.17120000000E+03  0.17120000000E+03 0.  0.
         13    1    1    2    0    0  0.10900658347E+02  0.30412305539E+01  0.27188166768E+02  0.29449635175E+02  0.10566000000E+00 0.  1.
        994    1    1    2    0    0 -0.58684440299E+01 -0.61189414030E+01  0.25358626971E+01  0.17142855853E+03  0.17120000000E+03 0.  0.
        998    1    1    2    0    0 -0.50322143172E+01  0.30777108491E+01  0.14702759668E+04  0.14703218063E+04  0.10000000000E+02 0.  1.
</event>
<event>
 5    1  0.1218060E-008  0.3811413E+03  0.7957747E-01  0.3446204E+00
         13   -1    0    0    0    0  0.00000000000E+00  0.00000000000E+00  0.14999999963E+04  0.15000000000E+04  0.10566000000E+00 0. -1.
        994   -1    0    0    0    0 -0.00000000000E+00 -0.00000000000E+00  0.11368683772E-12  0.17120000000E+03  0.17120000000E+03 0.  0.
         13    1    1    2    0    0 -0.21624061557E+02 -0.30350849861E+02  0.20545477483E+03  0.20880720723E+03  0.10566000000E+00 0. -1.
        994    1    1    2    0    0  0.22342124775E+02  0.24313129398E+01  0.52420334483E+01  0.17274837405E+03  0.17120000000E+03 0.  0.
        998    1    1    2    0    0 -0.71806321853E+00  0.27919536921E+02  0.12893031880E+04  0.12896444187E+04  0.10000000000E+02 0. -1.
</event>
<event>
 5    1  0.1218060E-008  0.3684643E+03  0.7957747E-01  0.3502979E+00
         13   -1    0    0    0    0  0.00000000000E+00  0.00000000000E+00  0.14999999963E+04  0.15000000000E+04  0.10566000000E+00 0.  1.
        994   -1    0    0    0    0 -0.00000000000E+00 -0.00000000000E+00  0.11368683772E-12  0.17120000000E+03  0.17120000000E+03 0.  0.
         13    1    1    2    0    0 -0.27337482144E+01 -0.39963230377E+02  0.85785806094E+02  0.94677076702E+02  0.10566000000E+00 0.  1.
        994    1    1    2    0    0 -0.14270278613E+02 -0.10657106055E+02  0.11232851390E+02  0.17249009163E+03  0.17120000000E+03 0.  0.
        998    1    1    2    0    0  0.17004026828E+02  0.50620336432E+02  0.14029813388E+04  0.14040328317E+04  0.10000000000E+02 0.  1.
</event>
<event>
 5    1  0.1218060E-008  0.3849592E+03  0.7957747E-01  0.3429845E+00
         13   -1    0    0    0    0  0.00000000000E+00  0.00000000000E+00  0.14999999963E+04  0.15000000000E+04  0.10566000000E+00 0.  1.
        994   -1    0    0    0    0 -0.00000000000E+00 -0.00000000000E+00  0.11368683772E-12  0.17120000000E+03  0.17120000000E+03 0.  0.
         13    1    1    2    0    0 -0.12685528472E+02  0.12447785421E+01  0.48340462384E+02  0.49992835224E+02  0.10566000000E+00 0.  1.
        994    1    1    2    0    0  0.11403855712E+02 -0.19768249443E+01  0.20911347174E+01  0.17160352154E+03  0.17120000000E+03 0.  0.
        998    1    1    2    0    0  0.12816727596E+01  0.73204640227E+00  0.14495683992E+04  0.14496036432E+04  0.10000000000E+02 0.  1.
</event>
<event>
 5    1  0.2151300E-008  0.3864833E+03  0.7957747E-01  0.3423405E+00
         13   -1    0    0    0    0  0.00000000000E+00  0.00000000000E+00  0.14999999963E+04  0.15000000000E+04  0.10566000000E+00 0. -1.
        994   -1    0    0    0    0 -0.00000000000E+00 -0.00000000000E+00  0.11368683772E-12  0.17120000000E+03  0.17120000000E+03 0.  0.
         13    1    1    2    0    0  0.10275799790E+02 -0.80730992922E+00  0.53608529203E+02  0.54590561253E+02  0.10566000000E+00 0. -1.
        994    1    1    2    0    0 -0.23356111569E+02 -0.16610152913E+00  0.26829950139E+01  0.17280675334E+03  0.17120000000E+03 0.  0.
        998    1    1    2    0    0  0.13080311779E+02  0.97341145836E+00  0.14437084721E+04  0.14438026854E+04  0.10000000000E+02 0. -1.
</event>
<event>
 5    1  0.1218060E-008  0.3861194E+03  0.7957747E-01  0.3424938E+00
         13   -1    0    0    0    0  0.00000000000E+00  0.00000000000E+00  0.14999999963E+04  0.15000000000E+04  0.10566000000E+00 0.  1.
        994   -1    0    0    0    0 -0.00000000000E+00 -0.00000000000E+00  0.11368683772E-12  0.17120000000E+03  0.17120000000E+03 0.  0.
         13    1    1    2    0    0 -0.87826345975E+02 -0.26756029837E+01  0.25227329559E+03  0.26713751652E+03  0.10566000000E+00 0.  1.
        994    1    1    2    0    0 -0.81393376651E+01  0.23013428181E+02  0.21941826100E+02  0.17431795784E+03  0.17120000000E+03 0.  0.
        998    1    1    2    0    0  0.95965683640E+02 -0.20337825198E+02  0.12257848746E+04  0.12297445256E+04  0.10000000000E+02 0. -1.
</event>
<event>
 5    1  0.1218060E-008  0.3779115E+03  0.7957747E-01  0.3460303E+00
         13   -1    0    0    0    0  0.00000000000E+00  0.00000000000E+00  0.14999999963E+04  0.15000000000E+04  0.10566000000E+00 0. -1.
        994   -1    0    0    0    0 -0.00000000000E+00 -0.00000000000E+00  0.11368683772E-12  0.17120000000E+03  0.17120000000E+03 0.  0.
         13    1    1    2    0    0  0.81210726294E+01  0.38983214784E+02  0.15110281771E+03  0.15626168929E+03  0.10566000000E+00 0. -1.
        994    1    1    2    0    0 -0.12134906331E+02 -0.21254446272E+02  0.72100830487E+01  0.17309082222E+03  0.17120000000E+03 0.  0.
        998    1    1    2    0    0  0.40138337016E+01 -0.17728768512E+02  0.13416870955E+04  0.13418474885E+04  0.10000000000E+02 0. -1.
</event>
<event>
 5    1  0.1218060E-008  0.3846801E+03  0.7957747E-01  0.3431030E+00
         13   -1    0    0    0    0  0.00000000000E+00  0.00000000000E+00  0.14999999963E+04  0.15000000000E+04  0.10566000000E+00 0. -1.
        994   -1    0    0    0    0 -0.00000000000E+00 -0.00000000000E+00  0.11368683772E-12  0.17120000000E+03  0.17120000000E+03 0.  0.
         13    1    1    2    0    0 -0.10383411937E+02  0.30056138060E+01  0.31798651048E+02  0.33585924586E+02  0.10566000000E+00 0. -1.
        994    1    1    2    0    0  0.10599443327E+02 -0.33809255500E+01  0.21966244102E+01  0.17157518473E+03  0.17120000000E+03 0.  0.
        998    1    1    2    0    0 -0.21603138973E+00  0.37531174398E+00  0.14660047208E+04  0.14660388907E+04  0.10000000000E+02 0. -1.
</event>
<event>
 5    1  0.1218060E-008  0.3728940E+03  0.7957747E-01  0.3482695E+00
         13   -1    0    0    0    0  0.00000000000E+00  0.00000000000E+00  0.14999999963E+04  0.15000000000E+04  0.10566000000E+00 0.  1.
        994   -1    0    0    0    0 -0.00000000000E+00 -0.00000000000E+00  0.11368683772E-12  0.17120000000E+03  0.17120000000E+03 0.  0.
         13    1    1    2    0    0  0.49023816713E+02 -0.17363888626E+02  0.10870891216E+03  0.12050924437E+03  0.10566000000E+00 0.  1.
        994    1    1    2    0    0 -0.21742408420E+02  0.17268241673E+01  0.14159197306E+02  0.17316361371E+03  0.17120000000E+03 0.  0.
        998    1    1    2    0    0 -0.27281408293E+02  0.15637064459E+02  0.13771318868E+04  0.13775271419E+04  0.10000000000E+02 0.  1.
</event>
<event>
 5    1  0.1218060E-008  0.3772938E+03  0.7957747E-01  0.3463027E+00
         13   -1    0    0    0    0  0.00000000000E+00  0.00000000000E+00  0.14999999963E+04  0.15000000000E+04  0.10566000000E+00 0.  1.
        994   -1    0    0    0    0 -0.00000000000E+00 -0.00000000000E+00  0.11368683772E-12  0.17120000000E+03  0.17120000000E+03 0.  0.
         13    1    1    2    0    0 -0.28177526642E+02 -0.15840428044E+02  0.94610860914E+02  0.99980589792E+02  0.10566000000E+00 0.  1.
        994    1    1    2    0    0  0.13584738770E+02  0.80530333565E+01  0.63471938073E+01  0.17204395759E+03  0.17120000000E+03 0.  0.
        998    1    1    2    0    0  0.14592787872E+02  0.77873946871E+01  0.13990419416E+04  0.13991754526E+04  0.10000000000E+02 0.  1.
</event>
<event>
 5    1  0.1218060E-008  0.3856909E+03  0.7957747E-01  0.3426747E+00
         13   -1    0    0    0    0  0.00000000000E+00  0.00000000000E+00  0.14999999963E+04  0.15000000000E+04  0.10566000000E+00 0. -1.
        994   -1    0    0    0    0 -0.00000000000E+00 -0.00000000000E+00  0.11368683772E-12  0.17120000000E+03  0.17120000000E+03 0.  0.
         13    1    1    2    0    0  0.10045858187E+02 -0.92338218291E+01  0.70122264229E+02  0.71437566006E+02  0.10566000000E+00 0. -1.
        994    1    1    2    0    0 -0.12789057014E+02  0.70876675185E+01  0.19893447565E+01  0.17183478258E+03  0.17120000000E+03 0.  0.
        998    1    1    2    0    0  0.27431988269E+01  0.21461543106E+01  0.14278883873E+04  0.14279276514E+04  0.10000000000E+02 0. -1.
</event>
<event>
 5    1  0.1218060E-008  0.3704838E+03  0.7957747E-01  0.3493670E+00
         13   -1    0    0    0    0  0.00000000000E+00  0.00000000000E+00  0.14999999963E+04  0.15000000000E+04  0.10566000000E+00 0.  1.
        994   -1    0    0    0    0 -0.00000000000E+00 -0.00000000000E+00  0.11368683772E-12  0.17120000000E+03  0.17120000000E+03 0.  0.
         13    1    1    2    0    0  0.45757913593E+02  0.62060364249E+02  0.42865999094E+03  0.43553952113E+03  0.10566000000E+00 0.  1.
        994    1    1    2    0    0 -0.29794756623E+02  0.39103297203E+01  0.12139877314E+02  0.17424073812E+03  0.17120000000E+03 0.  0.
        998    1    1    2    0    0 -0.15963156971E+02 -0.65970693969E+02  0.10592001280E+04  0.10614197407E+04  0.10000000000E+02 0.  1.
</event>
<event>
 5    1  0.1218060E-008  0.3784039E+03  0.7957747E-01  0.3458138E+00
         13   -1    0    0    0    0  0.00000000000E+00  0.00000000000E+00  0.14999999963E+04  0.15000000000E+04  0.10566000000E+00 0.  1.
        994   -1    0    0    0    0 -0.00000000000E+00 -0.00000000000E+00  0.11368683772E-12  0.17120000000E+03  0.17120000000E+03 0.  0.
         13    1    1    2    0    0  0.37440520858E+02 -0.42659637213E+02  0.28236719431E+03  0.28801541771E+03  0.10566000000E+00 0.  1.
        994    1    1    2    0    0 -0.20920315149E+02  0.47849755170E+02  0.14161686899E+02  0.17954735317E+03  0.17120000000E+03 0.  0.
        998    1    1    2    0    0 -0.16520205708E+02 -0.51901179564E+01  0.12034711151E+04  0.12036372291E+04  0.10000000000E+02 0.  1.
</event>
<event>
 5    1  0.1218060E-008  0.3853304E+03  0.7957747E-01  0.3428272E+00
         13   -1    0    0    0    0  0.00000000000E+00  0.00000000000E+00  0.14999999963E+04  0.15000000000E+04  0.10566000000E+00 0. -1.
        994   -1    0    0    0    0 -0.00000000000E+00 -0.00000000000E+00  0.11368683772E-12  0.17120000000E+03  0.17120000000E+03 0.  0.
         13    1    1    2    0    0 -0.14678738341E+02 -0.68234428649E+01  0.90034972352E+02  0.91478588436E+02  0.10566000000E+00 0. -1.
        994    1    1    2    0    0  0.14655368501E+02 -0.73366369740E+01  0.23490854046E+01  0.17199873334E+03  0.17120000000E+03 0.  0.
        998    1    1    2    0    0  0.23369839955E-01  0.14160079839E+02  0.14076159385E+04  0.14077226782E+04  0.10000000000E+02 0. -1.
</event>
<event>
 5    1  0.1218060E-008  0.3842891E+03  0.7957747E-01  0.3432693E+00
         13   -1    0    0    0    0  0.00000000000E+00  0.00000000000E+00  0.14999999963E+04  0.15000000000E+04  0.10566000000E+00 0.  1.
        994   -1    0    0    0    0 -0.00000000000E+00 -0.00000000000E+00  0.11368683772E-12  0.17120000000E+03  0.17120000000E+03 0.  0.
         13    1    1    2    0    0 -0.62926983259E+01 -0.12676422688E+02  0.49109721608E+02  0.51108371769E+02  0.10566000000E+00 0.  1.
        994    1    1    2    0    0  0.88148784362E+01  0.10672357344E+02  0.26153346392E+01  0.17177858210E+03  0.17120000000E+03 0.  0.
        998    1    1    2    0    0 -0.25221801103E+01  0.20040653445E+01  0.14482749400E+04  0.14483130461E+04  0.10000000000E+02 0.  1.
</event>
<event>
 5    1  0.1218060E-008  0.3856950E+03  0.7957747E-01  0.3426730E+00
         13   -1    0    0    0    0  0.00000000000E+00  0.00000000000E+00  0.14999999963E+04  0.15000000000E+04  0.10566000000E+00 0.  1.
        994   -1    0    0    0    0 -0.00000000000E+00 -0.00000000000E+00  0.11368683772E-12  0.17120000000E+03  0.17120000000E+03 0.  0.
         13    1    1    2    0    0  0.60846926006E+01  0.14686569833E+02  0.93873692704E+02  0.95210294419E+02  0.10566000000E+00 0.  1.
        994    1    1    2    0    0 -0.81696615303E+01 -0.14497893668E+02  0.21946692253E+01  0.17202089659E+03  0.17120000000E+03 0.  0.
        998    1    1    2    0    0  0.20849689297E+01 -0.18867616531E+00  0.14039316343E+04  0.14039688090E+04  0.10000000000E+02 0.  1.
</event>
<event>
 5    1  0.1218060E-008  0.3840416E+03  0.7957747E-01  0.3433747E+00
         13   -1    0    0    0    0  0.00000000000E+00  0.00000000000E+00  0.14999999963E+04  0.15000000000E+04  0.10566000000E+00 0.  1.
        994   -1    0    0    0    0 -0.00000000000E+00 -0.00000000000E+00  0.11368683772E-12  0.17120000000E+03  0.17120000000E+03 0.  0.
         13    1    1    2    0    0  0.17608959131E+01 -0.16478215672E+02  0.64856102514E+02  0.66939954762E+02  0.10566000000E+00 0.  1.
        994    1    1    2    0    0 -0.92447647012E+01  0.96899325889E+01  0.26986239662E+01  0.17174423728E+03  0.17120000000E+03 0.  0.
        998    1    1    2    0    0  0.74838687881E+01  0.67882830835E+01  0.14324452698E+04  0.14325158080E+04  0.10000000000E+02 0.  1.
</event>
<event>
 5    1  0.1218060E-008  0.3789011E+03  0.7957747E-01  0.3455957E+00
         13   -1    0    0    0    0  0.00000000000E+00  0.00000000000E+00  0.14999999963E+04  0.15000000000E+04  0.10566000000E+00 0. -1.
        994   -1    0    0    0    0 -0.00000000000E+00 -0.00000000000E+00  0.11368683772E-12  0.17120000000E+03  0.17120000000E+03 0.  0.
         13    1    1    2    0    0 -0.37778104380E+02  0.22873331960E+02  0.18676348393E+03  0.19191400308E+03  0.10566000000E+00 0. -1.
        994    1    1    2    0    0  0.38018267618E+02 -0.15719442826E+02  0.10388395621E+02  0.17637984102E+03  0.17120000000E+03 0.  0.
        998    1    1    2    0    0 -0.24016323815E+00 -0.71538891341E+01  0.13028481167E+04  0.13029061559E+04  0.10000000000E+02 0. -1.
</event>
<event>
 5    1  0.1218060E-008  0.3726802E+03  0.7957747E-01  0.3483663E+00
         13   -1    0    0    0    0  0.00000000000E+00  0.00000000000E+00  0.14999999963E+04  0.15000000000E+04  0.10566000000E+00 0.  1.
        994   -1    0    0    0    0 -0.00000000000E+00 -0.00000000000E+00  0.11368683772E-12  0.17120000000E+03  0.17120000000E+03 0.  0.
         13    1    1    2    0    0  0.94046414265E+01 -0.51363648641E+02  0.20686352962E+03  0.21335229723E+03  0.10566000000E+00 0.  1.
        994    1    1    2    0    0 -0.26363334143E+01 -0.31172619670E+01  0.79319357855E+01  0.17143226995E+03  0.17120000000E+03 0.  0.
        998    1    1    2    0    0 -0.67683080122E+01  0.54480910608E+02  0.12852045309E+04  0.12864154328E+04  0.10000000000E+02 0.  1.
</event>
<event>
 5    1  0.1218060E-008  0.3848914E+03  0.7957747E-01  0.3430133E+00
         13   -1    0    0    0    0  0.00000000000E+00  0.00000000000E+00  0.14999999963E+04  0.15000000000E+04  0.10566000000E+00 0.  1.
        994   -1    0    0    0    0 -0.00000000000E+00 -0.00000000000E+00  0.11368683772E-12  0.17120000000E+03  0.17120000000E+03 0.  0.
         13    1    1    2    0    0 -0.34676000905E+01 -0.16799764293E+02  0.85936079243E+02  0.87631485269E+02  0.10566000000E+00 0.  1.
        994    1    1    2    0    0  0.14013238060E+01  0.13351235064E+02  0.22771737967E+01  0.17174063208E+03  0.17120000000E+03 0.  0.
        998    1    1    2    0    0  0.20662762845E+01  0.34485292289E+01  0.14117867432E+04  0.14118278827E+04  0.10000000000E+02 0.  1.
</event>
<event>
 5    1  0.1218060E-008  0.3834736E+03  0.7957747E-01  0.3436172E+00
         13   -1    0    0    0    0  0.00000000000E+00  0.00000000000E+00  0.14999999963E+04  0.15000000000E+04  0.10566000000E+00 0.  1.
        994   -1    0    0    0    0 -0.00000000000E+00 -0.00000000000E+00  0.11368683772E-12  0.17120000000E+03  0.17120000000E+03 0.  0.
         13    1    1    2    0    0  0.19620944149E+02  0.19743631292E+02  0.15090541260E+03  0.15345112297E+03  0.10566000000E+00 0.  1.
        994    1    1    2    0    0 -0.23283474149E+02 -0.12312588042E+02  0.46859988575E+01  0.17327757667E+03  0.17120000000E+03 0.  0.
        998    1    1    2    0    0  0.36625300001E+01 -0.74310432503E+01  0.13444085848E+04  0.13444713004E+04  0.10000000000E+02 0.  1.
</event>
<event>
 5    1  0.1218060E-008  0.3809882E+03  0.7957747E-01  0.3446867E+00
         13   -1    0    0    0    0  0.00000000000E+00  0.00000000000E+00  0.14999999963E+04  0.15000000000E+04  0.10566000000E+00 0.  1.
        994   -1    0    0    0    0 -0.00000000000E+00 -0.00000000000E+00  0.11368683772E-12  0.17120000000E+03  0.17120000000E+03 0.  0.
         13    1    1    2    0    0 -0.67038141430E+02  0.87576052445E+02  0.66395437719E+03  0.67305208084E+03  0.10566000000E+00 0.  1.
        994    1    1    2    0    0  0.87031531468E+02 -0.94571541541E+02  0.60789187338E+02  0.22253770295E+03  0.17120000000E+03 0.  0.
        998    1    1    2    0    0 -0.19993390037E+02  0.69954890962E+01  0.77525643175E+03  0.77561021620E+03  0.10000000000E+02 0.  1.
</event>
<event>
 5    1  0.1218060E-008  0.3820967E+03  0.7957747E-01  0.3442079E+00
         13   -1    0    0    0    0  0.00000000000E+00  0.00000000000E+00  0.14999999963E+04  0.15000000000E+04  0.10566000000E+00 0.  1.
        994   -1    0    0    0    0 -0.00000000000E+00 -0.00000000000E+00  0.11368683772E-12  0.17120000000E+03  0.17120000000E+03 0.  0.
         13    1    1    2    0    0 -0.39729202444E+01  0.22636095413E+02  0.79899005535E+02  0.83138674276E+02  0.10566000000E+00 0.  1.
        994    1    1    2    0    0 -0.24832944045E+02 -0.31296496184E+02  0.83957040386E+01  0.17600020918E+03  0.17120000000E+03 0.  0.
        998    1    1    2    0    0  0.28805864290E+02  0.86604007712E+01  0.14117052867E+04  0.14120611165E+04  0.10000000000E+02 0.  1.
</event>
<event>
 5    1  0.1218060E-008  0.3769236E+03  0.7957747E-01  0.3464664E+00
         13   -1    0    0    0    0  0.00000000000E+00  0.00000000000E+00  0.14999999963E+04  0.15000000000E+04  0.10566000000E+00 0.  1.
        994   -1    0    0    0    0 -0.00000000000E+00 -0.00000000000E+00  0.11368683772E-12  0.17120000000E+03  0.17120000000E+03 0.  0.
         13    1    1    2    0    0  0.20273850248E+02 -0.32700899430E+02  0.12960988111E+03  0.13520025989E+03  0.10566000000E+00 0.  1.
        994    1    1    2    0    0 -0.92831587766E+01  0.18388629203E+02  0.71285577809E+01  0.17258208209E+03  0.17120000000E+03 0.  0.
        998    1    1    2    0    0 -0.10990691471E+02  0.14312270227E+02  0.13632615574E+04  0.13634176580E+04  0.10000000000E+02 0.  1.
</event>
<event>
 5    1  0.1218060E-008  0.3839348E+03  0.7957747E-01  0.3434203E+00
         13   -1    0    0    0    0  0.00000000000E+00  0.00000000000E+00  0.14999999963E+04  0.15000000000E+04  0.10566000000E+00 0.  1.
        994   -1    0    0    0    0 -0.00000000000E+00 -0.00000000000E+00  0.11368683772E-12  0.17120000000E+03  0.17120000000E+03 0.  0.
         13    1    1    2    0    0 -0.44422727145E+01  0.16417907372E+02  0.54386001333E+02  0.56983592151E+02  0.10566000000E+00 0.  1.
        994    1    1    2    0    0 -0.19930916038E+02 -0.59504887713E+02  0.15265823798E+02  0.18297693421E+03  0.17120000000E+03 0.  0.
        998    1    1    2    0    0  0.24373188752E+02  0.43086980340E+02  0.14303481711E+04  0.14312394736E+04  0.10000000000E+02 0.  1.
</event>
<event>
 5    1  0.1218060E-008  0.3834577E+03  0.7957747E-01  0.3436240E+00
         13   -1    0    0    0    0  0.00000000000E+00  0.00000000000E+00  0.14999999963E+04  0.15000000000E+04  0.10566000000E+00 0.  1.
        994   -1    0    0    0    0 -0.00000000000E+00 -0.00000000000E+00  0.11368683772E-12  0.17120000000E+03  0.17120000000E+03 0.  0.
         13    1    1    2    0    0  0.18825692505E+02  0.15633332328E+00  0.74009415790E+02  0.76366458135E+02  0.10566000000E+00 0.  1.
        994    1    1    2    0    0 -0.10884827299E+02  0.19207834981E+02  0.40104616308E+01  0.17266425279E+03  0.17120000000E+03 0.  0.
        998    1    1    2    0    0 -0.79408652060E+01 -0.19364168304E+02  0.14219801189E+04  0.14221692891E+04  0.10000000000E+02 0.  1.
</event>
<event>
 5    1  0.1218060E-008  0.3823944E+03  0.7957747E-01  0.3440799E+00
         13   -1    0    0    0    0  0.00000000000E+00  0.00000000000E+00  0.14999999963E+04  0.15000000000E+04  0.10566000000E+00 0.  1.
        994   -1    0    0    0    0 -0.00000000000E+00 -0.00000000000E+00  0.11368683772E-12  0.17120000000E+03  0.17120000000E+03 0.  0.
         13    1    1    2    0    0  0.17071935548E+02 -0.16566133452E+02  0.91830595318E+02  0.94861779245E+02  0.10566000000E+00 0.  1.
        994    1    1    2    0    0 -0.20841769353E+02  0.10102873497E+02  0.47105831302E+01  0.17282383226E+03  0.17120000000E+03 0.  0.
        998    1    1    2    0    0  0.37698338055E+01  0.64632599554E+01  0.14034588178E+04  0.14035143885E+04  0.10000000000E+02 0.  1.
</event>
<event>
 5    1  0.1218060E-008  0.3891642E+03  0.7957747E-01  0.3412201E+00
         13   -1    0    0    0    0  0.00000000000E+00  0.00000000000E+00  0.14999999963E+04  0.15000000000E+04  0.10566000000E+00 0. -1.
        994   -1    0    0    0    0 -0.00000000000E+00 -0.00000000000E+00  0.11368683772E-12  0.17120000000E+03  0.17120000000E+03 0.  0.
         13    1    1    2    0    0  0.27078352434E+02 -0.26404559229E+02  0.24542354374E+02  0.45086319886E+02  0.10566000000E+00 0. -1.
        994    1    1    2    0    0 -0.22950532006E+02  0.26224945439E+02  0.26022658872E+02  0.17663831254E+03  0.17120000000E+03 0.  0.
        998    1    1    2    0    0 -0.41278204283E+01  0.17961379009E+00  0.14494349830E+04  0.14494753676E+04  0.10000000000E+02 0. -1.
</event>
<event>
 5    1  0.1218060E-008  0.2738634E+03  0.7957747E-01  0.4102303E+00
         13   -1    0    0    0    0  0.00000000000E+00  0.00000000000E+00  0.14999999963E+04  0.15000000000E+04  0.10566000000E+00 0. -1.
        994   -1    0    0    0    0 -0.00000000000E+00 -0.00000000000E+00  0.11368683772E-12  0.17120000000E+03  0.17120000000E+03 0.  0.
         13    1    1    2    0    0  0.50195724948E+02  0.15035173922E+03  0.61786909718E+03  0.63787733045E+03  0.10566000000E+00 0. -1.
        994    1    1    2    0    0 -0.92224874600E+01 -0.65626690644E+02  0.42578115870E+02  0.18845225589E+03  0.17120000000E+03 0.  0.
        998    1    1    2    0    0 -0.40973237489E+02 -0.84725048573E+02  0.83955278323E+03  0.84487041366E+03  0.10000000000E+02 0. -1.
</event>
<event>
 5    1  0.1218060E-008  0.3854116E+03  0.7957747E-01  0.3427928E+00
         13   -1    0    0    0    0  0.00000000000E+00  0.00000000000E+00  0.14999999963E+04  0.15000000000E+04  0.10566000000E+00 0. -1.
        994   -1    0    0    0    0 -0.00000000000E+00 -0.00000000000E+00  0.11368683772E-12  0.17120000000E+03  0.17120000000E+03 0.  0.
         13    1    1    2    0    0  0.13830812474E+02  0.74297822653E+01  0.82721597854E+02  0.84198378569E+02  0.10566000000E+00 0. -1.
        994    1    1    2    0    0 -0.13336071950E+02 -0.10206370012E+02  0.23526997683E+01  0.17203777492E+03  0.17120000000E+03 0.  0.
        998    1    1    2    0    0 -0.49474052445E+00  0.27765877467E+01  0.14149256987E+04  0.14149638465E+04  0.10000000000E+02 0. -1.
</event>
<event>
 5    1  0.1218060E-008  0.3854212E+03  0.7957747E-01  0.3427888E+00
         13   -1    0    0    0    0  0.00000000000E+00  0.00000000000E+00  0.14999999963E+04  0.15000000000E+04  0.10566000000E+00 0.  1.
        994   -1    0    0    0    0 -0.00000000000E+00 -0.00000000000E+00  0.11368683772E-12  0.17120000000E+03  0.17120000000E+03 0.  0.
         13    1    1    2    0    0  0.13191435109E+02  0.82514459815E+01  0.83641252640E+02  0.85076263601E+02  0.10566000000E+00 0.  1.
        994    1    1    2    0    0 -0.11741994156E+02 -0.58459300497E+01  0.19863812810E+01  0.17171323489E+03  0.17120000000E+03 0.  0.
        998    1    1    2    0    0 -0.14494409531E+01 -0.24055159318E+01  0.14143723624E+04  0.14144105015E+04  0.10000000000E+02 0.  1.
</event>
<event>
 5    1  0.1218060E-008  0.3828170E+03  0.7957747E-01  0.3438984E+00
         13   -1    0    0    0    0  0.00000000000E+00  0.00000000000E+00  0.14999999963E+04  0.15000000000E+04  0.10566000000E+00 0.  1.
        994   -1    0    0    0    0 -0.00000000000E+00 -0.00000000000E+00  0.11368683772E-12  0.17120000000E+03  0.17120000000E+03 0.  0.
         13    1    1    2    0    0 -0.86659839544E+01  0.65566409976E+01  0.20438126752E+02  0.23147721448E+02  0.10566000000E+00 0.  1.
        994    1    1    2    0    0  0.11007688598E+02 -0.50583521384E+01  0.32040550737E+01  0.17165798002E+03  0.17120000000E+03 0.  0.
        998    1    1    2    0    0 -0.23417046433E+01 -0.14982888592E+01  0.14763578145E+04  0.14763942985E+04  0.10000000000E+02 0.  1.
</event>
<event>
 5    1  0.1218060E-008  0.3795692E+03  0.7957747E-01  0.3453037E+00
         13   -1    0    0    0    0  0.00000000000E+00  0.00000000000E+00  0.14999999963E+04  0.15000000000E+04  0.10566000000E+00 0.  1.
        994   -1    0    0    0    0 -0.00000000000E+00 -0.00000000000E+00  0.11368683772E-12  0.17120000000E+03  0.17120000000E+03 0.  0.
         13    1    1    2    0    0  0.98137706603E+02  0.18756706444E+03  0.94798001811E+03  0.97132823444E+03  0.10566000000E+00 0.  1.
        994    1    1    2    0    0 -0.10414055710E+03 -0.19661696634E+03  0.19330121151E+03  0.34084935889E+03  0.17120000000E+03 0.  0.
        998    1    1    2    0    0  0.60028504929E+01  0.90499018996E+01  0.35871876665E+03  0.35902240667E+03  0.10000000000E+02 0.  0.
</event>
<event>
 5    1  0.1218060E-008  0.3829166E+03  0.7957747E-01  0.3438557E+00
         13   -1    0    0    0    0  0.00000000000E+00  0.00000000000E+00  0.14999999963E+04  0.15000000000E+04  0.10566000000E+00 0.  1.
        994   -1    0    0    0    0 -0.00000000000E+00 -0.00000000000E+00  0.11368683772E-12  0.17120000000E+03  0.17120000000E+03 0.  0.
         13    1    1    2    0    0  0.12062242847E+02  0.41490196249E+01  0.29830884204E+02  0.32443872807E+02  0.10566000000E+00 0.  1.
        994    1    1    2    0    0 -0.31640158430E+01 -0.10398157408E+02  0.30593012610E+01  0.17157194409E+03  0.17120000000E+03 0.  0.
        998    1    1    2    0    0 -0.88982270038E+01  0.62491377836E+01  0.14671098108E+04  0.14671841831E+04  0.10000000000E+02 0.  1.
</event>
<event>
 5    1  0.1218060E-008  0.3858219E+03  0.7957747E-01  0.3426194E+00
         13   -1    0    0    0    0  0.00000000000E+00  0.00000000000E+00  0.14999999963E+04  0.15000000000E+04  0.10566000000E+00 0. -1.
        994   -1    0    0    0    0 -0.00000000000E+00 -0.00000000000E+00  0.11368683772E-12  0.17120000000E+03  0.17120000000E+03 0.  0.
         13    1    1    2    0    0 -0.15025064504E+01  0.10933566821E+02  0.49678268867E+02  0.50889507472E+02  0.10566000000E+00 0. -1.
        994    1    1    2    0    0 -0.31289832117E+01 -0.97698046280E+01  0.15678668794E+01  0.17151424963E+03  0.17120000000E+03 0.  0.
        998    1    1    2    0    0  0.46314896621E+01 -0.11637621931E+01  0.14487538605E+04  0.14487962429E+04  0.10000000000E+02 0. -1.
</event>
<event>
 5    1  0.1218060E-008  0.2934072E+03  0.7957747E-01  0.3944240E+00
         13   -1    0    0    0    0  0.00000000000E+00  0.00000000000E+00  0.14999999963E+04  0.15000000000E+04  0.10566000000E+00 0. -1.
        994   -1    0    0    0    0 -0.00000000000E+00 -0.00000000000E+00  0.11368683772E-12  0.17120000000E+03  0.17120000000E+03 0.  0.
         13    1    1    2    0    0 -0.52750212821E+02 -0.17347137005E+03  0.57441942941E+03  0.60235586925E+03  0.10566000000E+00 0. -1.
        994    1    1    2    0    0  0.10488423672E+03  0.17798616545E+03  0.18396828823E+03  0.32532068683E+03  0.17120000000E+03 0.  0.
        998    1    1    2    0    0 -0.52134023897E+02 -0.45147954025E+01  0.74161227864E+03  0.74352344392E+03  0.10000000000E+02 0. -1.
</event>
<event>
 5    1  0.1218060E-008  0.3849898E+03  0.7957747E-01  0.3429716E+00
         13   -1    0    0    0    0  0.00000000000E+00  0.00000000000E+00  0.14999999963E+04  0.15000000000E+04  0.10566000000E+00 0. -1.
        994   -1    0    0    0    0 -0.00000000000E+00 -0.00000000000E+00  0.11368683772E-12  0.17120000000E+03  0.17120000000E+03 0.  0.
         13    1    1    2    0    0  0.90018611998E+01  0.61525188863E+01  0.35869379005E+02  0.37490138810E+02  0.10566000000E+00 0. -1.
        994    1    1    2    0    0 -0.94252811163E+01 -0.25297926306E+01  0.19484863655E+01  0.17148898616E+03  0.17120000000E+03 0.  0.
        998    1    1    2    0    0  0.42341991646E+00 -0.36227262557E+01  0.14621821309E+04  0.14622208750E+04  0.10000000000E+02 0. -1.
</event>
<event>
 5    1  0.1218060E-008  0.3834088E+03  0.7957747E-01  0.3436449E+00
         13   -1    0    0    0    0  0.00000000000E+00  0.00000000000E+00  0.14999999963E+04  0.15000000000E+04  0.10566000000E+00 0.  1.
        994   -1    0    0    0    0 -0.00000000000E+00 -0.00000000000E+00  0.11368683772E-12  0.17120000000E+03  0.17120000000E+03 0.  0.
         13    1    1    2    0    0 -0.17242289461E+02  0.18441162909E+02  0.94079384638E+02  0.97407981260E+02  0.10566000000E+00 0.  1.
        994    1    1    2    0    0  0.33742891995E+02 -0.65206784287E+02  0.20450310461E+02  0.18739840628E+03  0.17120000000E+03 0.  0.
        998    1    1    2    0    0 -0.16500602534E+02  0.46765621378E+02  0.13854703012E+04  0.13863936125E+04  0.10000000000E+02 0.  1.
</event>
<event>
 5    1  0.1218060E-008  0.3785003E+03  0.7957747E-01  0.3457714E+00
         13   -1    0    0    0    0  0.00000000000E+00  0.00000000000E+00  0.14999999963E+04  0.15000000000E+04  0.10566000000E+00 0. -1.
        994   -1    0    0    0    0 -0.00000000000E+00 -0.00000000000E+00  0.11368683772E-12  0.17120000000E+03  0.17120000000E+03 0.  0.
         13    1    1    2    0    0  0.16064742280E+02  0.42308934867E+02  0.22394232433E+03  0.22846946778E+03  0.10566000000E+00 0. -1.
        994    1    1    2    0    0 -0.34407516642E+00 -0.16813578238E+02  0.58427835550E+01  0.17212319112E+03  0.17120000000E+03 0.  0.
        998    1    1    2    0    0 -0.15720667113E+02 -0.25495356628E+02  0.12702148884E+04  0.12706073411E+04  0.10000000000E+02 0. -1.
</event>
<event>
 5    1  0.1218060E-008  0.3764383E+03  0.7957747E-01  0.3466815E+00
         13   -1    0    0    0    0  0.00000000000E+00  0.00000000000E+00  0.14999999963E+04  0.15000000000E+04  0.10566000000E+00 0.  1.
        994   -1    0    0    0    0 -0.00000000000E+00 -0.00000000000E+00  0.11368683772E-12  0.17120000000E+03  0.17120000000E+03 0.  0.
         13    1    1    2    0    0  0.47356510243E+02  0.18465496562E+02  0.22597334511E+03  0.23161946699E+03  0.10566000000E+00 0.  1.
        994    1    1    2    0    0 -0.16086050795E+02 -0.20412362267E+02  0.82301601097E+01  0.17335686055E+03  0.17120000000E+03 0.  0.
        998    1    1    2    0    0 -0.31270459448E+02  0.19468657051E+01  0.12657964911E+04  0.12662236725E+04  0.10000000000E+02 0. -1.
</event>
<event>
 5    1  0.1218060E-008  0.3739741E+03  0.7957747E-01  0.3477824E+00
         13   -1    0    0    0    0  0.00000000000E+00  0.00000000000E+00  0.14999999963E+04  0.15000000000E+04  0.10566000000E+00 0. -1.
        994   -1    0    0    0    0 -0.00000000000E+00 -0.00000000000E+00  0.11368683772E-12  0.17120000000E+03  0.17120000000E+03 0.  0.
         13    1    1    2    0    0  0.11112783546E+01 -0.14660060798E+02  0.11660654252E+02  0.18765242972E+02  0.10566000000E+00 0. -1.
        994    1    1    2    0    0 -0.72380368782E+00  0.15459348302E+02  0.80238919738E+01  0.17208526429E+03  0.17120000000E+03 0.  0.
        998    1    1    2    0    0 -0.38747466679E+00 -0.79928750395E+00  0.14803154501E+04  0.14803494927E+04  0.10000000000E+02 0. -1.
</event>
<event>
 5    1  0.1218060E-008  0.3745628E+03  0.7957747E-01  0.3475181E+00
         13   -1    0    0    0    0  0.00000000000E+00  0.00000000000E+00  0.14999999963E+04  0.15000000000E+04  0.10566000000E+00 0. -1.
        994   -1    0    0    0    0 -0.00000000000E+00 -0.00000000000E+00  0.11368683772E-12  0.17120000000E+03  0.17120000000E+03 0.  0.
         13    1    1    2    0    0 -0.11169759605E+02  0.21351264251E+02  0.38691149959E+02  0.45581314856E+02  0.10566000000E+00 0. -1.
        994    1    1    2    0    0  0.74295261963E+01 -0.20456685207E+02  0.85175805884E+01  0.17278791337E+03  0.17120000000E+03 0.  0.
        998    1    1    2    0    0  0.37402334089E+01 -0.89457904441E+00  0.14527912657E+04  0.14528307718E+04  0.10000000000E+02 0. -1.
</event>
<event>
 5    1  0.1218060E-008  0.3852065E+03  0.7957747E-01  0.3428797E+00
         13   -1    0    0    0    0  0.00000000000E+00  0.00000000000E+00  0.14999999963E+04  0.15000000000E+04  0.10566000000E+00 0. -1.
        994   -1    0    0    0    0 -0.00000000000E+00 -0.00000000000E+00  0.11368683772E-12  0.17120000000E+03  0.17120000000E+03 0.  0.
         13    1    1    2    0    0 -0.13728163108E+02  0.45840235216E+01  0.68933437864E+02  0.70436537066E+02  0.10566000000E+00 0. -1.
        994    1    1    2    0    0  0.86700863944E+01 -0.25991733810E+01  0.17969260331E+01  0.17144852010E+03  0.17120000000E+03 0.  0.
        998    1    1    2    0    0  0.50580767140E+01 -0.19848501406E+01  0.14292696324E+04  0.14293149428E+04  0.10000000000E+02 0. -1.
</event>
<event>
 5    1  0.1218060E-008  0.3823610E+03  0.7957747E-01  0.3440942E+00
         13   -1    0    0    0    0  0.00000000000E+00  0.00000000000E+00  0.14999999963E+04  0.15000000000E+04  0.10566000000E+00 0. -1.
        994   -1    0    0    0    0 -0.00000000000E+00 -0.00000000000E+00  0.11368683772E-12  0.17120000000E+03  0.17120000000E+03 0.  0.
         13    1    1    2    0    0 -0.77311229703E+01 -0.10203486061E+02  0.26759686701E+02  0.29664345375E+02  0.10566000000E+00 0. -1.
        994    1    1    2    0    0 -0.25108979066E+01  0.12524794799E+02  0.34875128220E+01  0.17171132123E+03  0.17120000000E+03 0.  0.
        998    1    1    2    0    0  0.10242020877E+02 -0.23213087379E+01  0.14697527968E+04  0.14698243334E+04  0.10000000000E+02 0. -1.
</event>
<event>
 5    1  0.1218060E-008  0.3733902E+03  0.7957747E-01  0.3480454E+00
         13   -1    0    0    0    0  0.00000000000E+00  0.00000000000E+00  0.14999999963E+04  0.15000000000E+04  0.10566000000E+00 0.  1.
        994   -1    0    0    0    0 -0.00000000000E+00 -0.00000000000E+00  0.11368683772E-12  0.17120000000E+03  0.17120000000E+03 0.  0.
         13    1    1    2    0    0  0.38896212336E+02  0.47680277224E+01  0.53124638361E+02  0.66014299872E+02  0.10566000000E+00 0.  1.
        994    1    1    2    0    0 -0.43255014149E+02  0.33711596922E+01  0.19432395095E+02  0.17767785159E+03  0.17120000000E+03 0.  0.
        998    1    1    2    0    0  0.43588018129E+01 -0.81391874147E+01  0.14274429628E+04  0.14275078485E+04  0.10000000000E+02 0.  1.
</event>
<event>
 5    1  0.1218060E-008  0.3842656E+03  0.7957747E-01  0.3432793E+00
         13   -1    0    0    0    0  0.00000000000E+00  0.00000000000E+00  0.14999999963E+04  0.15000000000E+04  0.10566000000E+00 0.  1.
        994   -1    0    0    0    0 -0.00000000000E+00 -0.00000000000E+00  0.11368683772E-12  0.17120000000E+03  0.17120000000E+03 0.  0.
         13    1    1    2    0    0 -0.23091358972E+02 -0.57602105269E+01  0.13859547454E+03  0.14062399373E+03  0.10566000000E+00 0.  1.
        994    1    1    2    0    0  0.16440890193E+02  0.46158942795E+01  0.29570469502E+01  0.17207496470E+03  0.17120000000E+03 0.  0.
        998    1    1    2    0    0  0.66504687787E+01  0.11443162474E+01  0.13584474748E+04  0.13585010416E+04  0.10000000000E+02 0.  1.
</event>
<event>
 5    1  0.1218060E-008  0.3707107E+03  0.7957747E-01  0.3492631E+00
         13   -1    0    0    0    0  0.00000000000E+00  0.00000000000E+00  0.14999999963E+04  0.15000000000E+04  0.10566000000E+00 0. -1.
        994   -1    0    0    0    0 -0.00000000000E+00 -0.00000000000E+00  0.11368683772E-12  0.17120000000E+03  0.17120000000E+03 0.  0.
         13    1    1    2    0    0 -0.65858733726E+02 -0.35603219101E+01  0.29824877963E+03  0.30545440644E+03  0.10566000000E+00 0. -1.
        994    1    1    2    0    0  0.68491413227E+01  0.14031092146E+02  0.97393332220E+01  0.17218616929E+03  0.17120000000E+03 0.  0.
        998    1    1    2    0    0  0.59009592403E+02 -0.10470770235E+02  0.11920118834E+04  0.11935594243E+04  0.10000000000E+02 0. -1.
</event>
<event>
 5    1  0.1218060E-008  0.3719090E+03  0.7957747E-01  0.3487163E+00
         13   -1    0    0    0    0  0.00000000000E+00  0.00000000000E+00  0.14999999963E+04  0.15000000000E+04  0.10566000000E+00 0.  1.
        994   -1    0    0    0    0 -0.00000000000E+00 -0.00000000000E+00  0.11368683772E-12  0.17120000000E+03  0.17120000000E+03 0.  0.
         13    1    1    2    0    0  0.22633640678E+02 -0.52295434841E+02  0.12104494027E+03  0.13378708056E+03  0.10566000000E+00 0.  1.
        994    1    1    2    0    0 -0.23682152922E+02  0.53511478747E+02  0.24103217284E+02  0.18252322539E+03  0.17120000000E+03 0.  0.
        998    1    1    2    0    0  0.10485122439E+01 -0.12160439065E+01  0.13548518387E+04  0.13548896940E+04  0.10000000000E+02 0.  1.
</event>
<event>
 5    1  0.1218060E-008  0.4038157E+03  0.7957747E-01  0.3353593E+00
         13   -1    0    0    0    0  0.00000000000E+00  0.00000000000E+00  0.14999999963E+04  0.15000000000E+04  0.10566000000E+00 0. -1.
        994   -1    0    0    0    0 -0.00000000000E+00 -0.00000000000E+00  0.11368683772E-12  0.17120000000E+03  0.17120000000E+03 0.  0.
         13    1    1    2    0    0 -0.62751342353E+00 -0.84517495330E+02  0.10449169002E+03  0.13439540631E+03  0.10566000000E+00 0. -1.
        994    1    1    2    0    0 -0.26700939444E+01  0.77651744007E+02  0.54512368341E+02  0.19574974087E+03  0.17120000000E+03 0.  0.
        998    1    1    2    0    0  0.32976073680E+01  0.68657513233E+01  0.13409959379E+04  0.13410548528E+04  0.10000000000E+02 0. -1.
</event>
<event>
 5    1  0.1218060E-008  0.2873985E+03  0.7957747E-01  0.3990304E+00
         13   -1    0    0    0    0  0.00000000000E+00  0.00000000000E+00  0.14999999963E+04  0.15000000000E+04  0.10566000000E+00 0.  1.
        994   -1    0    0    0    0 -0.00000000000E+00 -0.00000000000E+00  0.11368683772E-12  0.17120000000E+03  0.17120000000E+03 0.  0.
         13    1    1    2    0    0 -0.37087588631E+01  0.19738729756E+03  0.52466833228E+03  0.56058217077E+03  0.10566000000E+00 0.  1.
        994    1    1    2    0    0  0.19888349295E+02 -0.19013994549E+03  0.17635707970E+03  0.31138401511E+03  0.17120000000E+03 0.  0.
        998    1    1    2    0    0 -0.16179590432E+02 -0.72473520723E+01  0.79897458430E+03  0.79923381411E+03  0.10000000000E+02 0.  1.
</event>
<event>
 5    1  0.1218060E-008  0.3792513E+03  0.7957747E-01  0.3454425E+00
         13   -1    0    0    0    0  0.00000000000E+00  0.00000000000E+00  0.14999999963E+04  0.15000000000E+04  0.10566000000E+00 0.  1.
        994   -1    0    0    0    0 -0.00000000000E+00 -0.00000000000E+00  0.11368683772E-12  0.17120000000E+03  0.17120000000E+03 0.  0.
         13    1    1    2    0    0 -0.67814079787E+01 -0.12665360689E+02  0.21120188560E+02  0.25543538995E+02  0.10566000000E+00 0.  1.
        994    1    1    2    0    0  0.97831250769E+01  0.34547862955E+01  0.48723892361E+01  0.17158328958E+03  0.17120000000E+03 0.  0.
        998    1    1    2    0    0 -0.30017170983E+01  0.92105743937E+01  0.14740074185E+04  0.14740731714E+04  0.10000000000E+02 0.  1.
</event>
<event>
 5    1  0.1218060E-008  0.3799318E+03  0.7957747E-01  0.3451455E+00
         13   -1    0    0    0    0  0.00000000000E+00  0.00000000000E+00  0.14999999963E+04  0.15000000000E+04  0.10566000000E+00 0. -1.
        994   -1    0    0    0    0 -0.00000000000E+00 -0.00000000000E+00  0.11368683772E-12  0.17120000000E+03  0.17120000000E+03 0.  0.
         13    1    1    2    0    0  0.22525286500E+02  0.86391898615E+01  0.11507668555E+02  0.26729416996E+02  0.10566000000E+00 0. -1.
        994    1    1    2    0    0 -0.27244647285E+01  0.20068987787E+02  0.17777129341E+02  0.17330797243E+03  0.17120000000E+03 0.  0.
        998    1    1    2    0    0 -0.19800821771E+02 -0.28708177649E+02  0.14707151984E+04  0.14711626106E+04  0.10000000000E+02 0. -1.
</event>
<event>
 5    1  0.1218060E-008  0.3788839E+03  0.7957747E-01  0.3456033E+00
         13   -1    0    0    0    0  0.00000000000E+00  0.00000000000E+00  0.14999999963E+04  0.15000000000E+04  0.10566000000E+00 0. -1.
        994   -1    0    0    0    0 -0.00000000000E+00 -0.00000000000E+00  0.11368683772E-12  0.17120000000E+03  0.17120000000E+03 0.  0.
         13    1    1    2    0    0  0.12164778875E+02 -0.43434340282E+01  0.15564097791E+02  0.20226209935E+02  0.10566000000E+00 0. -1.
        994    1    1    2    0    0 -0.11963340680E+02  0.66888456550E+01  0.53282015582E+01  0.17183041613E+03  0.17120000000E+03 0.  0.
        998    1    1    2    0    0 -0.20143819500E+00 -0.23454116268E+01  0.14791076969E+04  0.14791433739E+04  0.10000000000E+02 0. -1.
</event>
<event>
 5    1  0.1218060E-008  0.3842166E+03  0.7957747E-01  0.3433002E+00
         13   -1    0    0    0    0  0.00000000000E+00  0.00000000000E+00  0.14999999963E+04  0.15000000000E+04  0.10566000000E+00 0.  1.
        994   -1    0    0    0    0 -0.00000000000E+00 -0.00000000000E+00  0.11368683772E-12  0.17120000000E+03  0.17120000000E+03 0.  0.
         13    1    1    2    0    0 -0.17774246470E+02 -0.23510436826E+01  0.76794441937E+02  0.78859677405E+02  0.10566000000E+00 0.  1.
        994    1    1    2    0    0  0.15866152674E+02  0.69970648887E+01  0.30116244406E+01  0.17210230562E+03  0.17120000000E+03 0.  0.
        998    1    1    2    0    0  0.19080937966E+01 -0.46460212061E+01  0.14201939299E+04  0.14202380170E+04  0.10000000000E+02 0.  1.
</event>
<event>
 5    1  0.1218060E-008  0.3856498E+03  0.7957747E-01  0.3426921E+00
         13   -1    0    0    0    0  0.00000000000E+00  0.00000000000E+00  0.14999999963E+04  0.15000000000E+04  0.10566000000E+00 0.  1.
        994   -1    0    0    0    0 -0.00000000000E+00 -0.00000000000E+00  0.11368683772E-12  0.17120000000E+03  0.17120000000E+03 0.  0.
         13    1    1    2    0    0 -0.13565350687E+02  0.16259847955E+01  0.72798003890E+02  0.74069042793E+02  0.10566000000E+00 0.  1.
        994    1    1    2    0    0  0.77921475198E+01  0.38082705991E+01  0.15547480536E+01  0.17142659575E+03  0.17120000000E+03 0.  0.
        998    1    1    2    0    0  0.57732031673E+01 -0.54342553946E+01  0.14256472443E+04  0.14257043615E+04  0.10000000000E+02 0.  1.
</event>
<event>
 5    1  0.1218060E-008  0.3709568E+03  0.7957747E-01  0.3491505E+00
         13   -1    0    0    0    0  0.00000000000E+00  0.00000000000E+00  0.14999999963E+04  0.15000000000E+04  0.10566000000E+00 0.  1.
        994   -1    0    0    0    0 -0.00000000000E+00 -0.00000000000E+00  0.11368683772E-12  0.17120000000E+03  0.17120000000E+03 0.  0.
         13    1    1    2    0    0 -0.45011061894E+02  0.48548189435E+02  0.25912573721E+03  0.26744921245E+03  0.10566000000E+00 0.  1.
        994    1    1    2    0    0  0.32303031091E+02 -0.12208192635E+02  0.12890685560E+02  0.17512320109E+03  0.17120000000E+03 0.  0.
        998    1    1    2    0    0  0.12708030803E+02 -0.36339996800E+02  0.12279835735E+04  0.12286275865E+04  0.10000000000E+02 0.  1.
</event>
<event>
 5    1  0.1218060E-008  0.3784343E+03  0.7957747E-01  0.3458004E+00
         13   -1    0    0    0    0  0.00000000000E+00  0.00000000000E+00  0.14999999963E+04  0.15000000000E+04  0.10566000000E+00 0. -1.
        994   -1    0    0    0    0 -0.00000000000E+00 -0.00000000000E+00  0.11368683772E-12  0.17120000000E+03  0.17120000000E+03 0.  0.
         13    1    1    2    0    0  0.75903149488E+01 -0.71290447223E+01  0.87063255935E+01  0.13573777258E+02  0.10566000000E+00 0. -1.
        994    1    1    2    0    0 -0.15569124439E+02  0.29354965243E+00  0.57408171394E+01  0.17200256041E+03  0.17120000000E+03 0.  0.
        998    1    1    2    0    0  0.79788094905E+01  0.68354950699E+01  0.14855528535E+04  0.14856236623E+04  0.10000000000E+02 0. -1.
</event>
<event>
 5    1  0.1218060E-008  0.3783651E+03  0.7957747E-01  0.3458308E+00
         13   -1    0    0    0    0  0.00000000000E+00  0.00000000000E+00  0.14999999963E+04  0.15000000000E+04  0.10566000000E+00 0.  1.
        994   -1    0    0    0    0 -0.00000000000E+00 -0.00000000000E+00  0.11368683772E-12  0.17120000000E+03  0.17120000000E+03 0.  0.
         13    1    1    2    0    0 -0.37364502032E+01  0.10506483688E+02  0.10391005941E+02  0.15242421989E+02  0.10566000000E+00 0.  1.
        994    1    1    2    0    0  0.42353155893E+00 -0.52057437309E+01  0.50524051596E+01  0.17135415357E+03  0.17120000000E+03 0.  0.
        998    1    1    2    0    0  0.33129186443E+01 -0.53007399567E+01  0.14845565852E+04  0.14846034244E+04  0.10000000000E+02 0.  1.
</event>
<event>
 5    1  0.1218060E-008  0.3779089E+03  0.7957747E-01  0.3460314E+00
         13   -1    0    0    0    0  0.00000000000E+00  0.00000000000E+00  0.14999999963E+04  0.15000000000E+04  0.10566000000E+00 0.  1.
        994   -1    0    0    0    0 -0.00000000000E+00 -0.00000000000E+00  0.11368683772E-12  0.17120000000E+03  0.17120000000E+03 0.  0.
         13    1    1    2    0    0 -0.15405549098E+02  0.19069691819E+02  0.54745008788E+02  0.59983424713E+02  0.10566000000E+00 0.  1.
        994    1    1    2    0    0  0.11494146355E+02 -0.18586446365E+02  0.68016848286E+01  0.17272311457E+03  0.17120000000E+03 0.  0.
        998    1    1    2    0    0  0.39114027428E+01 -0.48324545395E+00  0.14384533027E+04  0.14384934607E+04  0.10000000000E+02 0.  1.
</event>
<event>
 5    1  0.1218060E-008  0.3694645E+03  0.7957747E-01  0.3498356E+00
         13   -1    0    0    0    0  0.00000000000E+00  0.00000000000E+00  0.14999999963E+04  0.15000000000E+04  0.10566000000E+00 0.  1.
        994   -1    0    0    0    0 -0.00000000000E+00 -0.00000000000E+00  0.11368683772E-12  0.17120000000E+03  0.17120000000E+03 0.  0.
         13    1    1    2    0    0  0.14559893021E+03 -0.35857648279E+02  0.73818671999E+03  0.75326254662E+03  0.10566000000E+00 0.  1.
        994    1    1    2    0    0 -0.13438010051E+03 -0.15670539126E+02  0.77554341884E+02  0.23157653844E+03  0.17120000000E+03 0.  0.
        998    1    1    2    0    0 -0.11218829700E+02  0.51528187404E+02  0.68425893441E+03  0.68636091494E+03  0.10000000000E+02 0.  1.
</event>
<event>
 5    1  0.1218060E-008  0.3815207E+03  0.7957747E-01  0.3444563E+00
         13   -1    0    0    0    0  0.00000000000E+00  0.00000000000E+00  0.14999999963E+04  0.15000000000E+04  0.10566000000E+00 0.  1.
        994   -1    0    0    0    0 -0.00000000000E+00 -0.00000000000E+00  0.11368683772E-12  0.17120000000E+03  0.17120000000E+03 0.  0.
         13    1    1    2    0    0  0.20711600354E+02  0.17378953181E+02  0.10482221233E+03  0.10825297116E+03  0.10566000000E+00 0.  1.
        994    1    1    2    0    0 -0.16239387186E+02 -0.12907305373E+02  0.48000745097E+01  0.17251897560E+03  0.17120000000E+03 0.  0.
        998    1    1    2    0    0 -0.44722131678E+01 -0.44716478081E+01  0.13903777094E+04  0.13904280532E+04  0.10000000000E+02 0.  1.
</event>
<event>
 5    1  0.1218060E-008  0.3849358E+03  0.7957747E-01  0.3429944E+00
         13   -1    0    0    0    0  0.00000000000E+00  0.00000000000E+00  0.14999999963E+04  0.15000000000E+04  0.10566000000E+00 0. -1.
        994   -1    0    0    0    0 -0.00000000000E+00 -0.00000000000E+00  0.11368683772E-12  0.17120000000E+03  0.17120000000E+03 0.  0.
         13    1    1    2    0    0  0.47080238378E+01  0.97400021142E+01  0.34516969505E+02  0.36172717308E+02  0.10566000000E+00 0. -1.
        994    1    1    2    0    0 -0.30687159633E+01 -0.10004780881E+02  0.20223132101E+01  0.17153146186E+03  0.17120000000E+03 0.  0.
        998    1    1    2    0    0 -0.16393078745E+01  0.26477876728E+00  0.14634607136E+04  0.14634958208E+04  0.10000000000E+02 0. -1.
</event>
<event>
 5    1  0.1218060E-008  0.3808631E+03  0.7957747E-01  0.3447409E+00
         13   -1    0    0    0    0  0.00000000000E+00  0.00000000000E+00  0.14999999963E+04  0.15000000000E+04  0.10566000000E+00 0.  1.
        994   -1    0    0    0    0 -0.00000000000E+00 -0.00000000000E+00  0.11368683772E-12  0.17120000000E+03  0.17120000000E+03 0.  0.
         13    1    1    2    0    0  0.11858524387E+02 -0.12775298695E+02  0.42133842505E+02  0.45597200634E+02  0.10566000000E+00 0.  1.
        994    1    1    2    0    0 -0.47413116986E+01 -0.10731114281E+02  0.41570514086E+01  0.17165185093E+03  0.17120000000E+03 0.  0.
        998    1    1    2    0    0 -0.71172126880E+01  0.23506412976E+02  0.14537091024E+04  0.14539509484E+04  0.10000000000E+02 0.  1.
</event>
<event>
 5    1  0.1218060E-008  0.3840759E+03  0.7957747E-01  0.3433601E+00
         13   -1    0    0    0    0  0.00000000000E+00  0.00000000000E+00  0.14999999963E+04  0.15000000000E+04  0.10566000000E+00 0.  1.
        994   -1    0    0    0    0 -0.00000000000E+00 -0.00000000000E+00  0.11368683772E-12  0.17120000000E+03  0.17120000000E+03 0.  0.
         13    1    1    2    0    0 -0.11473765109E+02 -0.22331455346E+01  0.31785980950E+02  0.33867299475E+02  0.10566000000E+00 0.  1.
        994    1    1    2    0    0  0.11787078887E+02 -0.43349887179E+01  0.26100565104E+01  0.17167987579E+03  0.17120000000E+03 0.  0.
        998    1    1    2    0    0 -0.31331377885E+00  0.65681342526E+01  0.14656039588E+04  0.14656528247E+04  0.10000000000E+02 0.  1.
</event>
<event>
 5    1  0.1218060E-008  0.3853014E+03  0.7957747E-01  0.3428395E+00
         13   -1    0    0    0    0  0.00000000000E+00  0.00000000000E+00  0.14999999963E+04  0.15000000000E+04  0.10566000000E+00 0. -1.
        994   -1    0    0    0    0 -0.00000000000E+00 -0.00000000000E+00  0.11368683772E-12  0.17120000000E+03  0.17120000000E+03 0.  0.
         13    1    1    2    0    0  0.64670066540E+01 -0.12254044639E+02  0.66126381840E+02  0.67562514195E+02  0.10566000000E+00 0. -1.
        994    1    1    2    0    0  0.17198045026E+01  0.84833401369E+01  0.17267834687E+01  0.17142737987E+03  0.17120000000E+03 0.  0.
        998    1    1    2    0    0 -0.81868111567E+01  0.37707045023E+01  0.14321468310E+04  0.14322101059E+04  0.10000000000E+02 0. -1.
</event>
<event>
 5    1  0.1218060E-008  0.3795136E+03  0.7957747E-01  0.3453279E+00
         13   -1    0    0    0    0  0.00000000000E+00  0.00000000000E+00  0.14999999963E+04  0.15000000000E+04  0.10566000000E+00 0.  1.
        994   -1    0    0    0    0 -0.00000000000E+00 -0.00000000000E+00  0.11368683772E-12  0.17120000000E+03  0.17120000000E+03 0.  0.
         13    1    1    2    0    0  0.11385097307E+02  0.18441258541E+02  0.50844020736E+02  0.55270480963E+02  0.10566000000E+00 0.  1.
        994    1    1    2    0    0 -0.12650792422E+02 -0.15841609061E+02  0.57562338875E+01  0.17249224143E+03  0.17120000000E+03 0.  0.
        998    1    1    2    0    0  0.12656951149E+01 -0.25996494794E+01  0.14433997417E+04  0.14434372776E+04  0.10000000000E+02 0.  1.
</event>
<event>
 5    1  0.1218060E-008  0.3840859E+03  0.7957747E-01  0.3433558E+00
         13   -1    0    0    0    0  0.00000000000E+00  0.00000000000E+00  0.14999999963E+04  0.15000000000E+04  0.10566000000E+00 0.  1.
        994   -1    0    0    0    0 -0.00000000000E+00 -0.00000000000E+00  0.11368683772E-12  0.17120000000E+03  0.17120000000E+03 0.  0.
         13    1    1    2    0    0  0.19722146152E+02 -0.33435704065E-01  0.88848022246E+02  0.91010693811E+02  0.10566000000E+00 0.  1.
        994    1    1    2    0    0 -0.19380226528E+02 -0.59320457261E+01  0.34407400147E+01  0.17242987281E+03  0.17120000000E+03 0.  0.
        998    1    1    2    0    0 -0.34191962467E+00  0.59654814301E+01  0.14077112340E+04  0.14077594334E+04  0.10000000000E+02 0.  1.
</event>
<event>
 5    1  0.1218060E-008  0.3844668E+03  0.7957747E-01  0.3431937E+00
         13   -1    0    0    0    0  0.00000000000E+00  0.00000000000E+00  0.14999999963E+04  0.15000000000E+04  0.10566000000E+00 0. -1.
        994   -1    0    0    0    0 -0.00000000000E+00 -0.00000000000E+00  0.11368683772E-12  0.17120000000E+03  0.17120000000E+03 0.  0.
         13    1    1    2    0    0 -0.24546814964E+01  0.21276762293E+02  0.10984283525E+03  0.11191150832E+03  0.10566000000E+00 0. -1.
        994    1    1    2    0    0  0.64552230499E+01 -0.25394788593E+02  0.41601396804E+01  0.17324350480E+03  0.17120000000E+03 0.  0.
        998    1    1    2    0    0 -0.40005415535E+01  0.41180262999E+01  0.13859970213E+04  0.13860449869E+04  0.10000000000E+02 0. -1.
</event>
<event>
 5    1  0.1218060E-008  0.3743350E+03  0.7957747E-01  0.3476202E+00
         13   -1    0    0    0    0  0.00000000000E+00  0.00000000000E+00  0.14999999963E+04  0.15000000000E+04  0.10566000000E+00 0.  1.
        994   -1    0    0    0    0 -0.00000000000E+00 -0.00000000000E+00  0.11368683772E-12  0.17120000000E+03  0.17120000000E+03 0.  0.
         13    1    1    2    0    0 -0.63755486340E+01  0.14779608095E+02  0.15131378632E+02  0.22091949193E+02  0.10566000000E+00 0.  1.
        994    1    1    2    0    0 -0.93588993721E+00 -0.20480091828E+02  0.84538306988E+01  0.17263029081E+03  0.17120000000E+03 0.  0.
        998    1    1    2    0    0  0.73114385712E+01  0.57004837332E+01  0.14764147869E+04  0.14764777600E+04  0.10000000000E+02 0.  1.
</event>
<event>
 5    1  0.1218060E-008  0.3842787E+03  0.7957747E-01  0.3432737E+00
         13   -1    0    0    0    0  0.00000000000E+00  0.00000000000E+00  0.14999999963E+04  0.15000000000E+04  0.10566000000E+00 0.  1.
        994   -1    0    0    0    0 -0.00000000000E+00 -0.00000000000E+00  0.11368683772E-12  0.17120000000E+03  0.17120000000E+03 0.  0.
         13    1    1    2    0    0 -0.11128683301E+02  0.85499401101E+01  0.48920281398E+02  0.50893557195E+02  0.10566000000E+00 0.  1.
        994    1    1    2    0    0  0.89894461163E+01 -0.51493396542E+01  0.23425162862E+01  0.17152916144E+03  0.17120000000E+03 0.  0.
        998    1    1    2    0    0  0.21392371842E+01 -0.34006004558E+01  0.14487371986E+04  0.14487772814E+04  0.10000000000E+02 0.  1.
</event>
<event>
 5    1  0.1218060E-008  0.3816530E+03  0.7957747E-01  0.3443993E+00
         13   -1    0    0    0    0  0.00000000000E+00  0.00000000000E+00  0.14999999963E+04  0.15000000000E+04  0.10566000000E+00 0.  1.
        994   -1    0    0    0    0 -0.00000000000E+00 -0.00000000000E+00  0.11368683772E-12  0.17120000000E+03  0.17120000000E+03 0.  0.
         13    1    1    2    0    0 -0.50932406275E+01 -0.38046747001E+02  0.23170856324E+03  0.23486669730E+03  0.10566000000E+00 0.  1.
        994    1    1    2    0    0  0.37472207726E+02  0.14951154542E+02  0.87317498593E+01  0.17610618055E+03  0.17120000000E+03 0.  0.
        998    1    1    2    0    0 -0.32378967098E+02  0.23095592460E+02  0.12595596832E+04  0.12602271221E+04  0.10000000000E+02 0.  1.
</event>
<event>
 5    1  0.1218060E-008  0.3779442E+03  0.7957747E-01  0.3460159E+00
         13   -1    0    0    0    0  0.00000000000E+00  0.00000000000E+00  0.14999999963E+04  0.15000000000E+04  0.10566000000E+00 0. -1.
        994   -1    0    0    0    0 -0.00000000000E+00 -0.00000000000E+00  0.11368683772E-12  0.17120000000E+03  0.17120000000E+03 0.  0.
         13    1    1    2    0    0  0.76963239751E+02  0.13303291046E+02  0.45049376811E+03  0.45721435246E+03  0.10566000000E+00 0. -1.
        994    1    1    2    0    0 -0.87967403803E+02  0.46093267242E+02  0.39123922407E+02  0.20174978246E+03  0.17120000000E+03 0.  0.
        998    1    1    2    0    0  0.11004164052E+02 -0.59396558288E+02  0.10103823058E+04  0.10122358651E+04  0.10000000000E+02 0. -1.
</event>
<event>
 5    1  0.1218060E-008  0.3728911E+03  0.7957747E-01  0.3482708E+00
         13   -1    0    0    0    0  0.00000000000E+00  0.00000000000E+00  0.14999999963E+04  0.15000000000E+04  0.10566000000E+00 0.  1.
        994   -1    0    0    0    0 -0.00000000000E+00 -0.00000000000E+00  0.11368683772E-12  0.17120000000E+03  0.17120000000E+03 0.  0.
         13    1    1    2    0    0 -0.25133329655E+02  0.87020338556E+02  0.44113438873E+03  0.45033741091E+03  0.10566000000E+00 0.  1.
        994    1    1    2    0    0 -0.23133503890E+01 -0.14776496974E+02  0.13266191958E+02  0.17236336125E+03  0.17120000000E+03 0.  0.
        998    1    1    2    0    0  0.27446680044E+02 -0.72243841582E+02  0.10455994156E+04  0.10484992278E+04  0.10000000000E+02 0.  1.
</event>
<event>
 5    1  0.1218060E-008  0.3793578E+03  0.7957747E-01  0.3453959E+00
         13   -1    0    0    0    0  0.00000000000E+00  0.00000000000E+00  0.14999999963E+04  0.15000000000E+04  0.10566000000E+00 0. -1.
        994   -1    0    0    0    0 -0.00000000000E+00 -0.00000000000E+00  0.11368683772E-12  0.17120000000E+03  0.17120000000E+03 0.  0.
         13    1    1    2    0    0 -0.51389377226E+02  0.16977344972E+02  0.27075731704E+03  0.27611344449E+03  0.10566000000E+00 0. -1.
        994    1    1    2    0    0  0.47274733814E+02 -0.29136515357E+02  0.14858767410E+02  0.18059363210E+03  0.17120000000E+03 0.  0.
        998    1    1    2    0    0  0.41146434112E+01  0.12159170385E+02  0.12143839118E+04  0.12144929234E+04  0.10000000000E+02 0. -1.
</event>
<event>
 5    1  0.1218060E-008  0.3855904E+03  0.7957747E-01  0.3427172E+00
         13   -1    0    0    0    0  0.00000000000E+00  0.00000000000E+00  0.14999999963E+04  0.15000000000E+04  0.10566000000E+00 0.  1.
        994   -1    0    0    0    0 -0.00000000000E+00 -0.00000000000E+00  0.11368683772E-12  0.17120000000E+03  0.17120000000E+03 0.  0.
         13    1    1    2    0    0 -0.13371505987E+02 -0.81181409010E+01  0.92238811713E+02  0.93555924100E+02  0.10566000000E+00 0.  1.
        994    1    1    2    0    0  0.75582072039E+01  0.65230080050E+01  0.16645302444E+01  0.17149894108E+03  0.17120000000E+03 0.  0.
        998    1    1    2    0    0  0.58132987827E+01  0.15951328959E+01  0.14060966543E+04  0.14061451348E+04  0.10000000000E+02 0.  1.
</event>
<event>
 5    1  0.1218060E-008  0.3835197E+03  0.7957747E-01  0.3435975E+00
         13   -1    0    0    0    0  0.00000000000E+00  0.00000000000E+00  0.14999999963E+04  0.15000000000E+04  0.10566000000E+00 0. -1.
        994   -1    0    0    0    0 -0.00000000000E+00 -0.00000000000E+00  0.11368683772E-12  0.17120000000E+03  0.17120000000E+03 0.  0.
         13    1    1    2    0    0  0.30479734766E+02  0.16412888492E+01  0.14943586330E+03  0.15252146231E+03  0.10566000000E+00 0. -1.
        994    1    1    2    0    0 -0.53386205943E+02  0.10283113989E+01  0.11846111390E+02  0.17972455248E+03  0.17120000000E+03 0.  0.
        998    1    1    2    0    0  0.22906471177E+02 -0.26696002480E+01  0.13387180216E+04  0.13389539852E+04  0.10000000000E+02 0. -1.
</event>
<event>
 5    1  0.1218060E-008  0.3720362E+03  0.7957747E-01  0.3486585E+00
         13   -1    0    0    0    0  0.00000000000E+00  0.00000000000E+00  0.14999999963E+04  0.15000000000E+04  0.10566000000E+00 0.  1.
        994   -1    0    0    0    0 -0.00000000000E+00 -0.00000000000E+00  0.11368683772E-12  0.17120000000E+03  0.17120000000E+03 0.  0.
         13    1    1    2    0    0  0.24528248489E+02 -0.22226075997E+02  0.58947548679E+02  0.67605163172E+02  0.10566000000E+00 0.  1.
        994    1    1    2    0    0 -0.32054865209E+02  0.32573245793E+02  0.15413982503E+02  0.17786388498E+03  0.17120000000E+03 0.  0.
        998    1    1    2    0    0  0.75266167200E+01 -0.10347169797E+02  0.14256384651E+04  0.14257309518E+04  0.10000000000E+02 0.  1.
</event>
<event>
 5    1  0.1218060E-008  0.3732930E+03  0.7957747E-01  0.3480893E+00
         13   -1    0    0    0    0  0.00000000000E+00  0.00000000000E+00  0.14999999963E+04  0.15000000000E+04  0.10566000000E+00 0. -1.
        994   -1    0    0    0    0 -0.00000000000E+00 -0.00000000000E+00  0.11368683772E-12  0.17120000000E+03  0.17120000000E+03 0.  0.
         13    1    1    2    0    0  0.19621351744E+02  0.80522138813E+02  0.23811989795E+03  0.25213073840E+03  0.10566000000E+00 0. -1.
        994    1    1    2    0    0 -0.56603909946E+02 -0.14528212367E+03  0.95850634810E+02  0.25061460906E+03  0.17120000000E+03 0.  0.
        998    1    1    2    0    0  0.36982558202E+02  0.64759984858E+02  0.11660294635E+04  0.11684546525E+04  0.10000000000E+02 0. -1.
</event>
<event>
 5    1  0.1218060E-008  0.3794556E+03  0.7957747E-01  0.3453533E+00
         13   -1    0    0    0    0  0.00000000000E+00  0.00000000000E+00  0.14999999963E+04  0.15000000000E+04  0.10566000000E+00 0. -1.
        994   -1    0    0    0    0 -0.00000000000E+00 -0.00000000000E+00  0.11368683772E-12  0.17120000000E+03  0.17120000000E+03 0.  0.
         13    1    1    2    0    0 -0.14860462135E+02  0.50897086029E+01  0.25596601528E+02  0.30032243378E+02  0.10566000000E+00 0. -1.
        994    1    1    2    0    0  0.13627781100E+02 -0.18117783451E+02  0.61313745321E+01  0.17280336874E+03  0.17120000000E+03 0.  0.
        998    1    1    2    0    0  0.12326810348E+01  0.13028074848E+02  0.14682720202E+04  0.14683643879E+04  0.10000000000E+02 0. -1.
</event>
<event>
 5    1  0.3127217E-008  0.3865742E+03  0.7957747E-01  0.3423023E+00
         13   -1    0    0    0    0  0.00000000000E+00  0.00000000000E+00  0.14999999963E+04  0.15000000000E+04  0.10566000000E+00 0. -1.
        994   -1    0    0    0    0 -0.00000000000E+00 -0.00000000000E+00  0.11368683772E-12  0.17120000000E+03  0.17120000000E+03 0.  0.
         13    1    1    2    0    0 -0.31316585145E+01  0.95041932514E+01  0.59255131492E+02  0.60094248864E+02  0.10566000000E+00 0. -1.
        994    1    1    2    0    0 -0.32621100369E+01 -0.10406491996E+02  0.12398187898E+01  0.17155148961E+03  0.17120000000E+03 0.  0.
        998    1    1    2    0    0  0.63937685514E+01  0.90229874491E+00  0.14395050460E+04  0.14395542615E+04  0.10000000000E+02 0. -1.
</event>
<event>
 5    1  0.1218060E-008  0.3796540E+03  0.7957747E-01  0.3452667E+00
         13   -1    0    0    0    0  0.00000000000E+00  0.00000000000E+00  0.14999999963E+04  0.15000000000E+04  0.10566000000E+00 0. -1.
        994   -1    0    0    0    0 -0.00000000000E+00 -0.00000000000E+00  0.11368683772E-12  0.17120000000E+03  0.17120000000E+03 0.  0.
         13    1    1    2    0    0  0.77372390747E+01  0.30920095964E+02  0.12212248341E+03  0.12621342766E+03  0.10566000000E+00 0. -1.
        994    1    1    2    0    0 -0.86408884279E+01 -0.87964500229E+01  0.48169229267E+01  0.17171105157E+03  0.17120000000E+03 0.  0.
        998    1    1    2    0    0  0.90364935322E+00 -0.22123645941E+02  0.13730605899E+04  0.13732755208E+04  0.10000000000E+02 0. -1.
</event>
<event>
 5    1  0.1218060E-008  0.3858325E+03  0.7957747E-01  0.3426149E+00
         13   -1    0    0    0    0  0.00000000000E+00  0.00000000000E+00  0.14999999963E+04  0.15000000000E+04  0.10566000000E+00 0. -1.
        994   -1    0    0    0    0 -0.00000000000E+00 -0.00000000000E+00  0.11368683772E-12  0.17120000000E+03  0.17120000000E+03 0.  0.
         13    1    1    2    0    0 -0.51189579596E+01 -0.10065142864E+02  0.50386757831E+02  0.51636686186E+02  0.10566000000E+00 0. -1.
        994    1    1    2    0    0  0.43377702686E+00  0.16754745921E+02  0.21392662354E+01  0.17203175908E+03  0.17120000000E+03 0.  0.
        998    1    1    2    0    0  0.46851809327E+01 -0.66896030573E+01  0.14474739722E+04  0.14475315547E+04  0.10000000000E+02 0. -1.
</event>
<event>
 5    1  0.1218060E-008  0.3767519E+03  0.7957747E-01  0.3465425E+00
         13   -1    0    0    0    0  0.00000000000E+00  0.00000000000E+00  0.14999999963E+04  0.15000000000E+04  0.10566000000E+00 0. -1.
        994   -1    0    0    0    0 -0.00000000000E+00 -0.00000000000E+00  0.11368683772E-12  0.17120000000E+03  0.17120000000E+03 0.  0.
         13    1    1    2    0    0 -0.26705821046E+02 -0.46862837841E+01  0.62781211374E+02  0.68386064363E+02  0.10566000000E+00 0. -1.
        994    1    1    2    0    0  0.12974144150E+02 -0.88351734595E+01  0.66148921861E+01  0.17204530074E+03  0.17120000000E+03 0.  0.
        998    1    1    2    0    0  0.13731676896E+02  0.13521457244E+02  0.14306038927E+04  0.14307686349E+04  0.10000000000E+02 0. -1.
</event>
<event>
 5    1  0.1218060E-008  0.3844608E+03  0.7957747E-01  0.3431962E+00
         13   -1    0    0    0    0  0.00000000000E+00  0.00000000000E+00  0.14999999963E+04  0.15000000000E+04  0.10566000000E+00 0.  1.
        994   -1    0    0    0    0 -0.00000000000E+00 -0.00000000000E+00  0.11368683772E-12  0.17120000000E+03  0.17120000000E+03 0.  0.
         13    1    1    2    0    0  0.15267709489E+02  0.63217816094E+00  0.59838539340E+02  0.61758922891E+02  0.10566000000E+00 0.  1.
        994    1    1    2    0    0 -0.14351628236E+02  0.31485709552E+01  0.26095808396E+01  0.17184915666E+03  0.17120000000E+03 0.  0.
        998    1    1    2    0    0 -0.91608125309E+00 -0.37807491161E+01  0.14375518761E+04  0.14375919205E+04  0.10000000000E+02 0.  1.
</event>
<event>
 5    1  0.1218060E-008  0.3816724E+03  0.7957747E-01  0.3443909E+00
         13   -1    0    0    0    0  0.00000000000E+00  0.00000000000E+00  0.14999999963E+04  0.15000000000E+04  0.10566000000E+00 0. -1.
        994   -1    0    0    0    0 -0.00000000000E+00 -0.00000000000E+00  0.11368683772E-12  0.17120000000E+03  0.17120000000E+03 0.  0.
         13    1    1    2    0    0  0.30235398986E+02  0.87609950846E+01  0.13879820011E+03  0.14232317417E+03  0.10566000000E+00 0. -1.
        994    1    1    2    0    0 -0.26983180157E+02 -0.14156595345E+02  0.63842813828E+01  0.17400775917E+03  0.17120000000E+03 0.  0.
        998    1    1    2    0    0 -0.32522188284E+01  0.53956002605E+01  0.13548175148E+04  0.13548690667E+04  0.10000000000E+02 0.  0.
</event>
<event>
 5    1  0.1218060E-008  0.3808295E+03  0.7957747E-01  0.3447555E+00
         13   -1    0    0    0    0  0.00000000000E+00  0.00000000000E+00  0.14999999963E+04  0.15000000000E+04  0.10566000000E+00 0. -1.
        994   -1    0    0    0    0 -0.00000000000E+00 -0.00000000000E+00  0.11368683772E-12  0.17120000000E+03  0.17120000000E+03 0.  0.
         13    1    1    2    0    0  0.30925705172E+01 -0.10808121048E+02  0.15857199253E+02  0.19438143048E+02  0.10566000000E+00 0. -1.
        994    1    1    2    0    0 -0.18389693066E+02 -0.78324951787E+01  0.50480969662E+01  0.17243680603E+03  0.17120000000E+03 0.  0.
        998    1    1    2    0    0  0.15297122549E+02  0.18640616227E+02  0.14790947001E+04  0.14793250509E+04  0.10000000000E+02 0. -1.
</event>
<event>
 5    1  0.1218060E-008  0.3832960E+03  0.7957747E-01  0.3436931E+00
         13   -1    0    0    0    0  0.00000000000E+00  0.00000000000E+00  0.14999999963E+04  0.15000000000E+04  0.10566000000E+00 0. -1.
        994   -1    0    0    0    0 -0.00000000000E+00 -0.00000000000E+00  0.11368683772E-12  0.17120000000E+03  0.17120000000E+03 0.  0.
         13    1    1    2    0    0 -0.25520991366E+01 -0.16501478191E+02  0.53178187790E+02  0.55738162987E+02  0.10566000000E+00 0. -1.
        994    1    1    2    0    0  0.11121763846E+02  0.18756917194E+02  0.40525989381E+01  0.17263075952E+03  0.17120000000E+03 0.  0.
        998    1    1    2    0    0 -0.85696647091E+01 -0.22554390031E+01  0.14427692096E+04  0.14428310775E+04  0.10000000000E+02 0. -1.
</event>
<event>
 5    1  0.1218060E-008  0.3842170E+03  0.7957747E-01  0.3433000E+00
         13   -1    0    0    0    0  0.00000000000E+00  0.00000000000E+00  0.14999999963E+04  0.15000000000E+04  0.10566000000E+00 0. -1.
        994   -1    0    0    0    0 -0.00000000000E+00 -0.00000000000E+00  0.11368683772E-12  0.17120000000E+03  0.17120000000E+03 0.  0.
         13    1    1    2    0    0 -0.76692957944E+01 -0.65189824159E+01  0.23531822280E+02  0.25594394964E+02  0.10566000000E+00 0. -1.
        994    1    1    2    0    0  0.14129898553E+02  0.11374935270E+02  0.31049769885E+01  0.17218630627E+03  0.17120000000E+03 0.  0.
        998    1    1    2    0    0 -0.64606027582E+01 -0.48559528538E+01  0.14733631970E+04  0.14734192988E+04  0.10000000000E+02 0. -1.
</event>
<event>
 5    1  0.1218060E-008  0.3893398E+03  0.7957747E-01  0.3411473E+00
         13   -1    0    0    0    0  0.00000000000E+00  0.00000000000E+00  0.14999999963E+04  0.15000000000E+04  0.10566000000E+00 0. -1.
        994   -1    0    0    0    0 -0.00000000000E+00 -0.00000000000E+00  0.11368683772E-12  0.17120000000E+03  0.17120000000E+03 0.  0.
         13    1    1    2    0    0  0.13521255974E+01  0.12456558781E+02 -0.62760093411E+01  0.14014048579E+02  0.10566000000E+00 0. -1.
        994    1    1    2    0    0 -0.17526333351E+02 -0.15530017481E+02  0.23615545476E+02  0.17440036638E+03  0.17120000000E+03 0.  0.
        998    1    1    2    0    0  0.16174207754E+02  0.30734586997E+01  0.14826604601E+04  0.14827855850E+04  0.10000000000E+02 0. -1.
</event>
<event>
 5    1  0.1218060E-008  0.3846773E+03  0.7957747E-01  0.3431042E+00
         13   -1    0    0    0    0  0.00000000000E+00  0.00000000000E+00  0.14999999963E+04  0.15000000000E+04  0.10566000000E+00 0.  1.
        994   -1    0    0    0    0 -0.00000000000E+00 -0.00000000000E+00  0.11368683772E-12  0.17120000000E+03  0.17120000000E+03 0.  0.
         13    1    1    2    0    0 -0.27482133596E+01  0.13140434654E+02  0.50398445512E+02  0.52155902577E+02  0.10566000000E+00 0.  1.
        994    1    1    2    0    0  0.38473366245E+00 -0.80354399522E+01  0.20035374681E+01  0.17140061399E+03  0.17120000000E+03 0.  0.
        998    1    1    2    0    0  0.23634796971E+01 -0.51049947023E+01  0.14475980133E+04  0.14476434834E+04  0.10000000000E+02 0.  1.
</event>
<event>
 5    1  0.1218060E-008  0.3773253E+03  0.7957747E-01  0.3462888E+00
         13   -1    0    0    0    0  0.00000000000E+00  0.00000000000E+00  0.14999999963E+04  0.15000000000E+04  0.10566000000E+00 0.  1.
        994   -1    0    0    0    0 -0.00000000000E+00 -0.00000000000E+00  0.11368683772E-12  0.17120000000E+03  0.17120000000E+03 0.  0.
         13    1    1    2    0    0 -0.28549405730E+02  0.44417188431E+01  0.78182349690E+02  0.83350395326E+02  0.10566000000E+00 0.  1.
        994    1    1    2    0    0  0.53508343133E+01  0.34938598905E+01  0.56271879382E+01  0.17141162075E+03  0.17120000000E+03 0.  0.
        998    1    1    2    0    0  0.23198571417E+02 -0.79355787336E+01  0.14161904587E+04  0.14164379839E+04  0.10000000000E+02 0.  1.
</event>
<event>
 5    1  0.1218060E-008  0.3704207E+03  0.7957747E-01  0.3493960E+00
         13   -1    0    0    0    0  0.00000000000E+00  0.00000000000E+00  0.14999999963E+04  0.15000000000E+04  0.10566000000E+00 0.  1.
        994   -1    0    0    0    0 -0.00000000000E+00 -0.00000000000E+00  0.11368683772E-12  0.17120000000E+03  0.17120000000E+03 0.  0.
         13    1    1    2    0    0  0.37129357362E+02 -0.13074055189E+03  0.62324022283E+03  0.63788719034E+03  0.10566000000E+00 0.  1.
        994    1    1    2    0    0 -0.38652537793E+02  0.12120053852E+03  0.67189976184E+02  0.22362361708E+03  0.17120000000E+03 0.  0.
        998    1    1    2    0    0  0.15231804310E+01  0.95400133709E+01  0.80956979727E+03  0.80968919258E+03  0.10000000000E+02 0.  1.
</event>
<event>
 5    1  0.1218060E-008  0.3822978E+03  0.7957747E-01  0.3441214E+00
         13   -1    0    0    0    0  0.00000000000E+00  0.00000000000E+00  0.14999999963E+04  0.15000000000E+04  0.10566000000E+00 0. -1.
        994   -1    0    0    0    0 -0.00000000000E+00 -0.00000000000E+00  0.11368683772E-12  0.17120000000E+03  0.17120000000E+03 0.  0.
         13    1    1    2    0    0 -0.23486288457E+02  0.14113640728E+02  0.13851437685E+03  0.14119859899E+03  0.10566000000E+00 0. -1.
        994    1    1    2    0    0 -0.16809804334E+01 -0.73338297715E+01  0.31655618865E+01  0.17139449097E+03  0.17120000000E+03 0.  0.
        998    1    1    2    0    0  0.25167268891E+02 -0.67798109566E+01  0.13583200575E+04  0.13586069100E+04  0.10000000000E+02 0. -1.
</event>
<event>
 5    1  0.1218060E-008  0.3856319E+03  0.7957747E-01  0.3426997E+00
         13   -1    0    0    0    0  0.00000000000E+00  0.00000000000E+00  0.14999999963E+04  0.15000000000E+04  0.10566000000E+00 0.  1.
        994   -1    0    0    0    0 -0.00000000000E+00 -0.00000000000E+00  0.11368683772E-12  0.17120000000E+03  0.17120000000E+03 0.  0.
         13    1    1    2    0    0  0.12845642038E+01 -0.12475267766E+02  0.64714107773E+02  0.65918201735E+02  0.10566000000E+00 0.  1.
        994    1    1    2    0    0  0.11285008405E+02 -0.70626734245E+00  0.17364439187E+01  0.17158177486E+03  0.17120000000E+03 0.  0.
        998    1    1    2    0    0 -0.12569572609E+02  0.13181535109E+02  0.14335494446E+04  0.14337000234E+04  0.10000000000E+02 0.  1.
</event>
<event>
 5    1  0.1218060E-008  0.3791440E+03  0.7957747E-01  0.3454894E+00
         13   -1    0    0    0    0  0.00000000000E+00  0.00000000000E+00  0.14999999963E+04  0.15000000000E+04  0.10566000000E+00 0.  1.
        994   -1    0    0    0    0 -0.00000000000E+00 -0.00000000000E+00  0.11368683772E-12  0.17120000000E+03  0.17120000000E+03 0.  0.
         13    1    1    2    0    0 -0.31389078654E+02 -0.21997672572E+01  0.10788737672E+03  0.11238242947E+03  0.10566000000E+00 0.  1.
        994    1    1    2    0    0  0.16647848556E+02  0.75135819952E+01  0.56850487398E+01  0.17226538989E+03  0.17120000000E+03 0.  0.
        998    1    1    2    0    0  0.14741230099E+02 -0.53138147379E+01  0.13864275708E+04  0.13865521806E+04  0.10000000000E+02 0.  1.
</event>
<event>
 5    1  0.1218060E-008  0.3698622E+03  0.7957747E-01  0.3496525E+00
         13   -1    0    0    0    0  0.00000000000E+00  0.00000000000E+00  0.14999999963E+04  0.15000000000E+04  0.10566000000E+00 0.  1.
        994   -1    0    0    0    0 -0.00000000000E+00 -0.00000000000E+00  0.11368683772E-12  0.17120000000E+03  0.17120000000E+03 0.  0.
         13    1    1    2    0    0 -0.19764160836E+02  0.39617697536E+02  0.87782306198E+02  0.98315453806E+02  0.10566000000E+00 0.  1.
        994    1    1    2    0    0  0.29334169881E+01 -0.24923362567E+02  0.13069692938E+02  0.17352243604E+03  0.17120000000E+03 0.  0.
        998    1    1    2    0    0  0.16830743848E+02 -0.14694334968E+02  0.13991479971E+04  0.13993621102E+04  0.10000000000E+02 0.  1.
</event>
<event>
 5    1  0.1218060E-008  0.3821402E+03  0.7957747E-01  0.3441892E+00
         13   -1    0    0    0    0  0.00000000000E+00  0.00000000000E+00  0.14999999963E+04  0.15000000000E+04  0.10566000000E+00 0. -1.
        994   -1    0    0    0    0 -0.00000000000E+00 -0.00000000000E+00  0.11368683772E-12  0.17120000000E+03  0.17120000000E+03 0.  0.
         13    1    1    2    0    0  0.26633991424E+02 -0.13011678131E+02  0.16455229071E+03  0.16720089954E+03  0.10566000000E+00 0. -1.
        994    1    1    2    0    0  0.37822633665E+01  0.65641202480E+01  0.32472058199E+01  0.17139830086E+03  0.17120000000E+03 0.  0.
        998    1    1    2    0    0 -0.30416254790E+02  0.64475578834E+01  0.13322004998E+04  0.13326007996E+04  0.10000000000E+02 0. -1.
</event>
<event>
 5    1  0.1218060E-008  0.3855349E+03  0.7957747E-01  0.3427407E+00
         13   -1    0    0    0    0  0.00000000000E+00  0.00000000000E+00  0.14999999963E+04  0.15000000000E+04  0.10566000000E+00 0.  1.
        994   -1    0    0    0    0 -0.00000000000E+00 -0.00000000000E+00  0.11368683772E-12  0.17120000000E+03  0.17120000000E+03 0.  0.
         13    1    1    2    0    0 -0.11731012853E+02  0.18521921378E+01  0.51913248719E+02  0.53254519385E+02  0.10566000000E+00 0.  1.
        994    1    1    2    0    0  0.82536240902E+01  0.84516634226E+00  0.15908334444E+01  0.17140830601E+03  0.17120000000E+03 0.  0.
        998    1    1    2    0    0  0.34773887629E+01 -0.26973584800E+01  0.14464959141E+04  0.14465371746E+04  0.10000000000E+02 0.  1.
</event>
<event>
 5    1  0.1218060E-008  0.3751997E+03  0.7957747E-01  0.3472330E+00
         13   -1    0    0    0    0  0.00000000000E+00  0.00000000000E+00  0.14999999963E+04  0.15000000000E+04  0.10566000000E+00 0.  1.
        994   -1    0    0    0    0 -0.00000000000E+00 -0.00000000000E+00  0.11368683772E-12  0.17120000000E+03  0.17120000000E+03 0.  0.
         13    1    1    2    0    0 -0.62424637603E+00  0.22768832353E+02  0.35899301438E+02  0.42515649096E+02  0.10566000000E+00 0.  1.
        994    1    1    2    0    0  0.38585231577E+00 -0.24031571325E+02  0.85409894236E+01  0.17308972761E+03  0.17120000000E+03 0.  0.
        998    1    1    2    0    0  0.23839406026E+00  0.12627389716E+01  0.14555597054E+04  0.14555946233E+04  0.10000000000E+02 0.  1.
</event>
<event>
 5    1  0.1218060E-008  0.3684777E+03  0.7957747E-01  0.3502916E+00
         13   -1    0    0    0    0  0.00000000000E+00  0.00000000000E+00  0.14999999963E+04  0.15000000000E+04  0.10566000000E+00 0.  1.
        994   -1    0    0    0    0 -0.00000000000E+00 -0.00000000000E+00  0.11368683772E-12  0.17120000000E+03  0.17120000000E+03 0.  0.
         13    1    1    2    0    0 -0.27112146188E+02 -0.34979087312E+02  0.91787605212E+02  0.10189985601E+03  0.10566000000E+00 0.  1.
        994    1    1    2    0    0  0.25019787044E+02  0.23700102702E+02  0.14206465607E+02  0.17521115340E+03  0.17120000000E+03 0.  0.
        998    1    1    2    0    0  0.20923591442E+01  0.11278984609E+02  0.13940059255E+04  0.13940889906E+04  0.10000000000E+02 0.  1.
</event>
<event>
 5    1  0.1218060E-008  0.3814056E+03  0.7957747E-01  0.3445061E+00
         13   -1    0    0    0    0  0.00000000000E+00  0.00000000000E+00  0.14999999963E+04  0.15000000000E+04  0.10566000000E+00 0. -1.
        994   -1    0    0    0    0 -0.00000000000E+00 -0.00000000000E+00  0.11368683772E-12  0.17120000000E+03  0.17120000000E+03 0.  0.
         13    1    1    2    0    0  0.24087184896E+02  0.21031027575E+02  0.13860339952E+03  0.14224419187E+03  0.10566000000E+00 0. -1.
        994    1    1    2    0    0 -0.14480341422E+02 -0.27945308750E+02  0.67285253639E+01  0.17419912061E+03  0.17120000000E+03 0.  0.
        998    1    1    2    0    0 -0.96068434739E+01  0.69142811752E+01  0.13546680714E+04  0.13547566875E+04  0.10000000000E+02 0. -1.
</event>
<event>
 5    1  0.1218060E-008  0.3772813E+03  0.7957747E-01  0.3463082E+00
         13   -1    0    0    0    0  0.00000000000E+00  0.00000000000E+00  0.14999999963E+04  0.15000000000E+04  0.10566000000E+00 0. -1.
        994   -1    0    0    0    0 -0.00000000000E+00 -0.00000000000E+00  0.11368683772E-12  0.17120000000E+03  0.17120000000E+03 0.  0.
         13    1    1    2    0    0 -0.90721910161E+01 -0.29425827530E+02  0.93456155681E+02  0.98398415508E+02  0.10566000000E+00 0. -1.
        994    1    1    2    0    0  0.45936817310E+02 -0.17814757592E+02  0.13744785852E+02  0.17867824689E+03  0.17120000000E+03 0.  0.
        998    1    1    2    0    0 -0.36864626294E+02  0.47240585122E+02  0.13927990547E+04  0.13941233376E+04  0.10000000000E+02 0. -1.
</event>
<event>
 5    1  0.1218060E-008  0.3815557E+03  0.7957747E-01  0.3444413E+00
         13   -1    0    0    0    0  0.00000000000E+00  0.00000000000E+00  0.14999999963E+04  0.15000000000E+04  0.10566000000E+00 0.  1.
        994   -1    0    0    0    0 -0.00000000000E+00 -0.00000000000E+00  0.11368683772E-12  0.17120000000E+03  0.17120000000E+03 0.  0.
         13    1    1    2    0    0  0.13093319147E+02 -0.89959862480E+01  0.35690246352E+02  0.39066195407E+02  0.10566000000E+00 0.  1.
        994    1    1    2    0    0 -0.11180887763E+02  0.12929241340E+02  0.43222309547E+01  0.17210548862E+03  0.17120000000E+03 0.  0.
        998    1    1    2    0    0 -0.19124313837E+01 -0.39332550921E+01  0.14599875190E+04  0.14600283160E+04  0.10000000000E+02 0.  1.
</event>
<event>
 5    1  0.1218060E-008  0.3742071E+03  0.7957747E-01  0.3476776E+00
         13   -1    0    0    0    0  0.00000000000E+00  0.00000000000E+00  0.14999999963E+04  0.15000000000E+04  0.10566000000E+00 0. -1.
        994   -1    0    0    0    0 -0.00000000000E+00 -0.00000000000E+00  0.11368683772E-12  0.17120000000E+03  0.17120000000E+03 0.  0.
         13    1    1    2    0    0 -0.25105253228E+02 -0.43104816193E+01  0.41149118678E+02  0.48395403950E+02  0.10566000000E+00 0. -1.
        994    1    1    2    0    0  0.31296133760E+02  0.59378890948E+01  0.10552698431E+02  0.17445774835E+03  0.17120000000E+03 0.  0.
        998    1    1    2    0    0 -0.61908805312E+01 -0.16274074755E+01  0.14482981792E+04  0.14483468477E+04  0.10000000000E+02 0. -1.
</event>
<event>
 5    1  0.1218060E-008  0.3704636E+03  0.7957747E-01  0.3493763E+00
         13   -1    0    0    0    0  0.00000000000E+00  0.00000000000E+00  0.14999999963E+04  0.15000000000E+04  0.10566000000E+00 0. -1.
        994   -1    0    0    0    0 -0.00000000000E+00 -0.00000000000E+00  0.11368683772E-12  0.17120000000E+03  0.17120000000E+03 0.  0.
         13    1    1    2    0    0 -0.26210140643E+02  0.80010743745E+01  0.40311053105E+02  0.48744033790E+02  0.10566000000E+00 0. -1.
        994    1    1    2    0    0  0.62671481651E-01  0.11817743246E+02  0.95092245232E+01  0.17187067328E+03  0.17120000000E+03 0.  0.
        998    1    1    2    0    0  0.26147469161E+02 -0.19818817620E+02  0.14501797187E+04  0.14505852929E+04  0.10000000000E+02 0. -1.
</event>
<event>
 5    1  0.1218060E-008  0.3706175E+03  0.7957747E-01  0.3493058E+00
         13   -1    0    0    0    0  0.00000000000E+00  0.00000000000E+00  0.14999999963E+04  0.15000000000E+04  0.10566000000E+00 0. -1.
        994   -1    0    0    0    0 -0.00000000000E+00 -0.00000000000E+00  0.11368683772E-12  0.17120000000E+03  0.17120000000E+03 0.  0.
         13    1    1    2    0    0 -0.54914195909E+02 -0.51427255935E+02  0.25470560488E+03  0.26558480357E+03  0.10566000000E+00 0. -1.
        994    1    1    2    0    0  0.60831395683E+02  0.49967200282E+02  0.30642988320E+02  0.19090734019E+03  0.17120000000E+03 0.  0.
        998    1    1    2    0    0 -0.59171997734E+01  0.14600556532E+01  0.12146514031E+04  0.12147078562E+04  0.10000000000E+02 0. -1.
</event>
<event>
 5    1  0.1218060E-008  0.3858067E+03  0.7957747E-01  0.3426258E+00
         13   -1    0    0    0    0  0.00000000000E+00  0.00000000000E+00  0.14999999963E+04  0.15000000000E+04  0.10566000000E+00 0.  1.
        994   -1    0    0    0    0 -0.00000000000E+00 -0.00000000000E+00  0.11368683772E-12  0.17120000000E+03  0.17120000000E+03 0.  0.
         13    1    1    2    0    0  0.10200505729E+02 -0.10239275701E+02  0.83864709560E+02  0.85101079650E+02  0.10566000000E+00 0.  1.
        994    1    1    2    0    0 -0.98689354000E+01  0.70764689153E+01  0.17140108322E+01  0.17163871979E+03  0.17120000000E+03 0.  0.
        998    1    1    2    0    0 -0.33157032913E+00  0.31628067857E+01  0.14144212759E+04  0.14144602006E+04  0.10000000000E+02 0.  1.
</event>
<event>
 5    1  0.1218060E-008  0.3810789E+03  0.7957747E-01  0.3446474E+00
         13   -1    0    0    0    0  0.00000000000E+00  0.00000000000E+00  0.14999999963E+04  0.15000000000E+04  0.10566000000E+00 0. -1.
        994   -1    0    0    0    0 -0.00000000000E+00 -0.00000000000E+00  0.11368683772E-12  0.17120000000E+03  0.17120000000E+03 0.  0.
         13    1    1    2    0    0 -0.17886302267E+02 -0.41193039106E+02  0.25431192862E+03  0.25824669307E+03  0.10566000000E+00 0. -1.
        994    1    1    2    0    0  0.23574126837E+02  0.29618219577E+02  0.83775671270E+01  0.17553518741E+03  0.17120000000E+03 0.  0.
        998    1    1    2    0    0 -0.56878245694E+01  0.11574819528E+02  0.12373105005E+04  0.12374181195E+04  0.10000000000E+02 0. -1.
</event>
<event>
 5    1  0.1218060E-008  0.3839665E+03  0.7957747E-01  0.3434067E+00
         13   -1    0    0    0    0  0.00000000000E+00  0.00000000000E+00  0.14999999963E+04  0.15000000000E+04  0.10566000000E+00 0.  1.
        994   -1    0    0    0    0 -0.00000000000E+00 -0.00000000000E+00  0.11368683772E-12  0.17120000000E+03  0.17120000000E+03 0.  0.
         13    1    1    2    0    0 -0.95943252471E+01 -0.36632681873E+01  0.23992142031E+02  0.26097981800E+02  0.10566000000E+00 0.  1.
        994    1    1    2    0    0  0.49705609669E+01  0.50448003680E+01  0.23096530095E+01  0.17136198815E+03  0.17120000000E+03 0.  0.
        998    1    1    2    0    0  0.46237642801E+01 -0.13815321807E+01  0.14736982012E+04  0.14737400300E+04  0.10000000000E+02 0.  1.
</event>
<event>
 5    1  0.1218060E-008  0.3830332E+03  0.7957747E-01  0.3438057E+00
         13   -1    0    0    0    0  0.00000000000E+00  0.00000000000E+00  0.14999999963E+04  0.15000000000E+04  0.10566000000E+00 0. -1.
        994   -1    0    0    0    0 -0.00000000000E+00 -0.00000000000E+00  0.11368683772E-12  0.17120000000E+03  0.17120000000E+03 0.  0.
         13    1    1    2    0    0  0.78260311967E+01  0.18014983646E+02  0.70128497735E+02  0.72827218529E+02  0.10566000000E+00 0. -1.
        994    1    1    2    0    0 -0.86573261184E+01 -0.18715392365E+02  0.40184080351E+01  0.17248421032E+03  0.17120000000E+03 0.  0.
        998    1    1    2    0    0  0.83129492171E+00  0.70040871940E+00  0.14258530905E+04  0.14258885712E+04  0.10000000000E+02 0. -1.
</event>
<event>
 5    1  0.1218060E-008  0.3696704E+03  0.7957747E-01  0.3497407E+00
         13   -1    0    0    0    0  0.00000000000E+00  0.00000000000E+00  0.14999999963E+04  0.15000000000E+04  0.10566000000E+00 0. -1.
        994   -1    0    0    0    0 -0.00000000000E+00 -0.00000000000E+00  0.11368683772E-12  0.17120000000E+03  0.17120000000E+03 0.  0.
         13    1    1    2    0    0  0.58606837848E+01  0.30414539055E+02  0.46606286834E+02  0.55960244253E+02  0.10566000000E+00 0. -1.
        994    1    1    2    0    0 -0.54529101293E+01 -0.24305168857E+02  0.11592218128E+02  0.17339058505E+03  0.17120000000E+03 0.  0.
        998    1    1    2    0    0 -0.40777365551E+00 -0.61093701982E+01  0.14418014913E+04  0.14418491707E+04  0.10000000000E+02 0. -1.
</event>
<event>
 5    1  0.1218060E-008  0.3717510E+03  0.7957747E-01  0.3487882E+00
         13   -1    0    0    0    0  0.00000000000E+00  0.00000000000E+00  0.14999999963E+04  0.15000000000E+04  0.10566000000E+00 0. -1.
        994   -1    0    0    0    0 -0.00000000000E+00 -0.00000000000E+00  0.11368683772E-12  0.17120000000E+03  0.17120000000E+03 0.  0.
         13    1    1    2    0    0  0.96135953944E+01  0.14821922461E+02  0.14952827398E+02  0.23145384271E+02  0.10566000000E+00 0. -1.
        994    1    1    2    0    0 -0.61976498733E+01 -0.13534556271E+02  0.91186694073E+01  0.17208772533E+03  0.17120000000E+03 0.  0.
        998    1    1    2    0    0 -0.34159455211E+01 -0.12873661898E+01  0.14759284995E+04  0.14759668904E+04  0.10000000000E+02 0. -1.
</event>
<event>
 5    1  0.1218060E-008  0.3839316E+03  0.7957747E-01  0.3434216E+00
         13   -1    0    0    0    0  0.00000000000E+00  0.00000000000E+00  0.14999999963E+04  0.15000000000E+04  0.10566000000E+00 0.  1.
        994   -1    0    0    0    0 -0.00000000000E+00 -0.00000000000E+00  0.11368683772E-12  0.17120000000E+03  0.17120000000E+03 0.  0.
         13    1    1    2    0    0  0.72495323795E+01 -0.20998812305E+02  0.12312172272E+03  0.12510985416E+03  0.10566000000E+00 0.  1.
        994    1    1    2    0    0  0.19613139912E+02  0.11317235146E+02  0.38554887472E+01  0.17273407267E+03  0.17120000000E+03 0.  0.
        998    1    1    2    0    0 -0.26862672292E+02  0.96815771593E+01  0.13730227848E+04  0.13733560732E+04  0.10000000000E+02 0.  1.
</event>
<event>
 5    1  0.1218060E-008  0.3785903E+03  0.7957747E-01  0.3457320E+00
         13   -1    0    0    0    0  0.00000000000E+00  0.00000000000E+00  0.14999999963E+04  0.15000000000E+04  0.10566000000E+00 0.  1.
        994   -1    0    0    0    0 -0.00000000000E+00 -0.00000000000E+00  0.11368683772E-12  0.17120000000E+03  0.17120000000E+03 0.  0.
         13    1    1    2    0    0  0.34785058229E+02  0.60319040868E+01  0.11627754270E+03  0.12151897894E+03  0.10566000000E+00 0.  1.
        994    1    1    2    0    0 -0.38023354923E+02 -0.41701123619E+01  0.97763330656E+01  0.17569343199E+03  0.17120000000E+03 0.  0.
        998    1    1    2    0    0  0.32382966939E+01 -0.18617917249E+01  0.13739461205E+04  0.13739875891E+04  0.10000000000E+02 0.  1.
</event>
<event>
 5    1  0.1413902E-008  0.3859692E+03  0.7957747E-01  0.3425572E+00
         13   -1    0    0    0    0  0.00000000000E+00  0.00000000000E+00  0.14999999963E+04  0.15000000000E+04  0.10566000000E+00 0.  1.
        994   -1    0    0    0    0 -0.00000000000E+00 -0.00000000000E+00  0.11368683772E-12  0.17120000000E+03  0.17120000000E+03 0.  0.
         13    1    1    2    0    0 -0.72638516882E+01 -0.97879701683E+01  0.65924038609E+02  0.67041464273E+02  0.10566000000E+00 0.  1.
        994    1    1    2    0    0  0.15580612388E+01  0.74930245079E+01  0.13417520631E+01  0.17137623309E+03  0.17120000000E+03 0.  0.
        998    1    1    2    0    0  0.57057904494E+01  0.22949456604E+01  0.14327342056E+04  0.14327823026E+04  0.10000000000E+02 0.  1.
</event>
<event>
 5    1  0.1218060E-008  0.3796218E+03  0.7957747E-01  0.3452807E+00
         13   -1    0    0    0    0  0.00000000000E+00  0.00000000000E+00  0.14999999963E+04  0.15000000000E+04  0.10566000000E+00 0. -1.
        994   -1    0    0    0    0 -0.00000000000E+00 -0.00000000000E+00  0.11368683772E-12  0.17120000000E+03  0.17120000000E+03 0.  0.
         13    1    1    2    0    0 -0.13050835102E+02  0.22030444486E+02  0.69212010790E+02  0.73796872445E+02  0.10566000000E+00 0. -1.
        994    1    1    2    0    0 -0.50149150544E+01 -0.41317404875E+02  0.10144205013E+02  0.17647839022E+03  0.17120000000E+03 0.  0.
        998    1    1    2    0    0  0.18065750156E+02  0.19286960388E+02  0.14206437805E+04  0.14209247373E+04  0.10000000000E+02 0. -1.
</event>
<event>
 5    1  0.1218060E-008  0.3814896E+03  0.7957747E-01  0.3444698E+00
         13   -1    0    0    0    0  0.00000000000E+00  0.00000000000E+00  0.14999999963E+04  0.15000000000E+04  0.10566000000E+00 0.  1.
        994   -1    0    0    0    0 -0.00000000000E+00 -0.00000000000E+00  0.11368683772E-12  0.17120000000E+03  0.17120000000E+03 0.  0.
         13    1    1    2    0    0 -0.52163700554E+01 -0.27766268917E+02  0.11249929970E+03  0.11599258512E+03  0.10566000000E+00 0.  1.
        994    1    1    2    0    0 -0.99390984197E+01  0.25978280941E+02  0.59609498507E+01  0.17354719727E+03  0.17120000000E+03 0.  0.
        998    1    1    2    0    0  0.15155468475E+02  0.17879879763E+01  0.13815397467E+04  0.13816602176E+04  0.10000000000E+02 0.  1.
</event>
<event>
 5    1  0.1218060E-008  0.3826785E+03  0.7957747E-01  0.3439578E+00
         13   -1    0    0    0    0  0.00000000000E+00  0.00000000000E+00  0.14999999963E+04  0.15000000000E+04  0.10566000000E+00 0. -1.
        994   -1    0    0    0    0 -0.00000000000E+00 -0.00000000000E+00  0.11368683772E-12  0.17120000000E+03  0.17120000000E+03 0.  0.
         13    1    1    2    0    0 -0.10055804518E+02 -0.65356241411E+00  0.17399849016E+02  0.20107517454E+02  0.10566000000E+00 0. -1.
        994    1    1    2    0    0  0.22326983943E+01 -0.89454301260E+01  0.30688251276E+01  0.17147554738E+03  0.17120000000E+03 0.  0.
        998    1    1    2    0    0  0.78231061235E+01  0.95989925401E+01  0.14795313221E+04  0.14796169352E+04  0.10000000000E+02 0. -1.
</event>
<event>
 5    1  0.1218060E-008  0.3709534E+03  0.7957747E-01  0.3491520E+00
         13   -1    0    0    0    0  0.00000000000E+00  0.00000000000E+00  0.14999999963E+04  0.15000000000E+04  0.10566000000E+00 0. -1.
        994   -1    0    0    0    0 -0.00000000000E+00 -0.00000000000E+00  0.11368683772E-12  0.17120000000E+03  0.17120000000E+03 0.  0.
         13    1    1    2    0    0 -0.37713803102E+02 -0.23765008782E+02  0.12269932696E+03  0.13054594053E+03  0.10566000000E+00 0. -1.
        994    1    1    2    0    0 -0.17779642019E+02  0.32907829333E+02  0.13608467467E+02  0.17576595600E+03  0.17120000000E+03 0.  0.
        998    1    1    2    0    0  0.55493445121E+02 -0.91428205516E+01  0.13636922019E+04  0.13648881035E+04  0.10000000000E+02 0. -1.
</event>
<event>
 5    1  0.1218060E-008  0.3794114E+03  0.7957747E-01  0.3453725E+00
         13   -1    0    0    0    0  0.00000000000E+00  0.00000000000E+00  0.14999999963E+04  0.15000000000E+04  0.10566000000E+00 0.  1.
        994   -1    0    0    0    0 -0.00000000000E+00 -0.00000000000E+00  0.11368683772E-12  0.17120000000E+03  0.17120000000E+03 0.  0.
         13    1    1    2    0    0  0.38917647616E+02  0.10232398417E+02  0.16981745230E+03  0.17452009495E+03  0.10566000000E+00 0.  1.
        994    1    1    2    0    0 -0.31884017834E+02 -0.10269377943E+02  0.81979323127E+01  0.17463876091E+03  0.17120000000E+03 0.  0.
        998    1    1    2    0    0 -0.70336297812E+01  0.36979526882E-01  0.13219846117E+04  0.13220411441E+04  0.10000000000E+02 0.  1.
</event>
<event>
 5    1  0.1218060E-008  0.3742586E+03  0.7957747E-01  0.3476545E+00
         13   -1    0    0    0    0  0.00000000000E+00  0.00000000000E+00  0.14999999963E+04  0.15000000000E+04  0.10566000000E+00 0.  1.
        994   -1    0    0    0    0 -0.00000000000E+00 -0.00000000000E+00  0.11368683772E-12  0.17120000000E+03  0.17120000000E+03 0.  0.
         13    1    1    2    0    0  0.16537300190E+02 -0.48993218717E+02  0.22097718286E+03  0.22694656703E+03  0.10566000000E+00 0.  1.
        994    1    1    2    0    0  0.21368036797E+02  0.11689521615E+02  0.90841706772E+01  0.17316235177E+03  0.17120000000E+03 0.  0.
        998    1    1    2    0    0 -0.37905336987E+02  0.37303697102E+02  0.12699386427E+04  0.12710910812E+04  0.10000000000E+02 0.  1.
</event>
<event>
 5    1  0.1218060E-008  0.3690898E+03  0.7957747E-01  0.3500085E+00
         13   -1    0    0    0    0  0.00000000000E+00  0.00000000000E+00  0.14999999963E+04  0.15000000000E+04  0.10566000000E+00 0.  1.
        994   -1    0    0    0    0 -0.00000000000E+00 -0.00000000000E+00  0.11368683772E-12  0.17120000000E+03  0.17120000000E+03 0.  0.
         13    1    1    2    0    0 -0.15569359359E+02 -0.11202007061E+02  0.12749598148E+02  0.23031572461E+02  0.10566000000E+00 0.  1.
        994    1    1    2    0    0  0.16702889973E+02  0.15229924990E+02  0.12240884959E+02  0.17311908160E+03  0.17120000000E+03 0.  0.
        998    1    1    2    0    0 -0.11335306140E+01 -0.40279179290E+01  0.14750095132E+04  0.14750493459E+04  0.10000000000E+02 0.  1.
</event>
<event>
 5    1  0.1218060E-008  0.3820994E+03  0.7957747E-01  0.3442068E+00
         13   -1    0    0    0    0  0.00000000000E+00  0.00000000000E+00  0.14999999963E+04  0.15000000000E+04  0.10566000000E+00 0. -1.
        994   -1    0    0    0    0 -0.00000000000E+00 -0.00000000000E+00  0.11368683772E-12  0.17120000000E+03  0.17120000000E+03 0.  0.
         13    1    1    2    0    0  0.10187279582E+02 -0.41091722074E+01  0.18142379502E+02  0.21209032499E+02  0.10566000000E+00 0. -1.
        994    1    1    2    0    0 -0.10709591409E+02  0.63777580493E+01  0.35930777589E+01  0.17169077248E+03  0.17120000000E+03 0.  0.
        998    1    1    2    0    0  0.52231182754E+00 -0.22685858418E+01  0.14782645390E+04  0.14783001950E+04  0.10000000000E+02 0. -1.
</event>
<event>
 5    1  0.1218060E-008  0.3779578E+03  0.7957747E-01  0.3460099E+00
         13   -1    0    0    0    0  0.00000000000E+00  0.00000000000E+00  0.14999999963E+04  0.15000000000E+04  0.10566000000E+00 0.  1.
        994   -1    0    0    0    0 -0.00000000000E+00 -0.00000000000E+00  0.11368683772E-12  0.17120000000E+03  0.17120000000E+03 0.  0.
         13    1    1    2    0    0 -0.96871137628E+01  0.28230600388E+01  0.74649216916E+01  0.12551735375E+02  0.10566000000E+00 0.  1.
        994    1    1    2    0    0  0.91011350060E+01 -0.26069469651E+01  0.54693338667E+01  0.17154876987E+03  0.17120000000E+03 0.  0.
        998    1    1    2    0    0  0.58597875682E+00 -0.21611307360E+00  0.14870657407E+04  0.14870994948E+04  0.10000000000E+02 0.  1.
</event>
<event>
 5    1  0.1218060E-008  0.3743706E+03  0.7957747E-01  0.3476043E+00
         13   -1    0    0    0    0  0.00000000000E+00  0.00000000000E+00  0.14999999963E+04  0.15000000000E+04  0.10566000000E+00 0.  1.
        994   -1    0    0    0    0 -0.00000000000E+00 -0.00000000000E+00  0.11368683772E-12  0.17120000000E+03  0.17120000000E+03 0.  0.
         13    1    1    2    0    0 -0.28748287943E+02  0.38486436570E+02  0.15328593220E+03  0.16063703818E+03  0.10566000000E+00 0.  1.
        994    1    1    2    0    0  0.35988800620E+02 -0.22993152881E+02  0.13240717419E+02  0.17694246366E+03  0.17120000000E+03 0.  0.
        998    1    1    2    0    0 -0.72405126774E+01 -0.15493283690E+02  0.13334733467E+04  0.13336204982E+04  0.10000000000E+02 0.  1.
</event>
<event>
 5    1  0.1218060E-008  0.2605616E+03  0.7957747E-01  0.4225201E+00
         13   -1    0    0    0    0  0.00000000000E+00  0.00000000000E+00  0.14999999963E+04  0.15000000000E+04  0.10566000000E+00 0. -1.
        994   -1    0    0    0    0 -0.00000000000E+00 -0.00000000000E+00  0.11368683772E-12  0.17120000000E+03  0.17120000000E+03 0.  0.
         13    1    1    2    0    0  0.21556619830E+03  0.94566430316E+02  0.40677771091E+03  0.46997841743E+03  0.10566000000E+00 0. -1.
        994    1    1    2    0    0 -0.11253600957E+03 -0.67920088534E+02  0.17797416749E+03  0.27975299135E+03  0.17120000000E+03 0.  0.
        998    1    1    2    0    0 -0.10303018872E+03 -0.26646341782E+02  0.91524811788E+03  0.92146859122E+03  0.10000000000E+02 0. -1.
</event>
<event>
 5    1  0.1218060E-008  0.3828240E+03  0.7957747E-01  0.3438953E+00
         13   -1    0    0    0    0  0.00000000000E+00  0.00000000000E+00  0.14999999963E+04  0.15000000000E+04  0.10566000000E+00 0. -1.
        994   -1    0    0    0    0 -0.00000000000E+00 -0.00000000000E+00  0.11368683772E-12  0.17120000000E+03  0.17120000000E+03 0.  0.
         13    1    1    2    0    0 -0.12211177628E+02 -0.26127311380E+01  0.27483123513E+02  0.30187289794E+02  0.10566000000E+00 0. -1.
        994    1    1    2    0    0  0.12188901150E+02 -0.15318314149E+01  0.32143251401E+01  0.17167028778E+03  0.17120000000E+03 0.  0.
        998    1    1    2    0    0  0.22276478154E-01  0.41445625528E+01  0.14693025476E+04  0.14693424224E+04  0.10000000000E+02 0. -1.
</event>
<event>
 5    1  0.1218060E-008  0.3840520E+03  0.7957747E-01  0.3433703E+00
         13   -1    0    0    0    0  0.00000000000E+00  0.00000000000E+00  0.14999999963E+04  0.15000000000E+04  0.10566000000E+00 0.  1.
        994   -1    0    0    0    0 -0.00000000000E+00 -0.00000000000E+00  0.11368683772E-12  0.17120000000E+03  0.17120000000E+03 0.  0.
         13    1    1    2    0    0  0.59052968427E+01 -0.26255711924E+02  0.15690318912E+03  0.15919439959E+03  0.10566000000E+00 0.  1.
        994    1    1    2    0    0  0.20956292992E+02  0.33515160296E+02  0.72727845642E+01  0.17585438744E+03  0.17120000000E+03 0.  0.
        998    1    1    2    0    0 -0.26861589835E+02 -0.72594483713E+01  0.13358240226E+04  0.13361512130E+04  0.10000000000E+02 0.  1.
</event>
<event>
 5    1  0.1218060E-008  0.3958766E+03  0.7957747E-01  0.3384814E+00
         13   -1    0    0    0    0  0.00000000000E+00  0.00000000000E+00  0.14999999963E+04  0.15000000000E+04  0.10566000000E+00 0.  1.
        994   -1    0    0    0    0 -0.00000000000E+00 -0.00000000000E+00  0.11368683772E-12  0.17120000000E+03  0.17120000000E+03 0.  0.
         13    1    1    2    0    0 -0.36789843851E+02 -0.80331934357E+02  0.13579348227E+03  0.16200800375E+03  0.10566000000E+00 0.  1.
        994    1    1    2    0    0  0.32478531406E+02  0.76709439635E+02  0.52583470120E+02  0.19751874458E+03  0.17120000000E+03 0.  0.
        998    1    1    2    0    0  0.43113124446E+01  0.36224947222E+01  0.13116230439E+04  0.13116732517E+04  0.10000000000E+02 0.  0.
</event>
<event>
 5    1  0.1218060E-008  0.3775191E+03  0.7957747E-01  0.3462032E+00
         13   -1    0    0    0    0  0.00000000000E+00  0.00000000000E+00  0.14999999963E+04  0.15000000000E+04  0.10566000000E+00 0. -1.
        994   -1    0    0    0    0 -0.00000000000E+00 -0.00000000000E+00  0.11368683772E-12  0.17120000000E+03  0.17120000000E+03 0.  0.
         13    1    1    2    0    0  0.15659175943E+02 -0.17661323017E+02  0.47504714210E+02  0.53045651642E+02  0.10566000000E+00 0. -1.
        994    1    1    2    0    0 -0.36424545674E+02  0.55362956223E+01  0.99796186239E+01  0.17540362278E+03  0.17120000000E+03 0.  0.
        998    1    1    2    0    0  0.20765369731E+02  0.12125027394E+02  0.14425156634E+04  0.14427507256E+04  0.10000000000E+02 0. -1.
</event>
<event>
 5    1  0.1218060E-008  0.3812494E+03  0.7957747E-01  0.3445736E+00
         13   -1    0    0    0    0  0.00000000000E+00  0.00000000000E+00  0.14999999963E+04  0.15000000000E+04  0.10566000000E+00 0. -1.
        994   -1    0    0    0    0 -0.00000000000E+00 -0.00000000000E+00  0.11368683772E-12  0.17120000000E+03  0.17120000000E+03 0.  0.
         13    1    1    2    0    0  0.18342630613E+02  0.12750752378E+01  0.50309108563E+02  0.53563938271E+02  0.10566000000E+00 0. -1.
        994    1    1    2    0    0  0.56279539178E+01 -0.12069188933E+02  0.40943793023E+01  0.17176595451E+03  0.17120000000E+03 0.  0.
        998    1    1    2    0    0 -0.23970584531E+02  0.10794113695E+02  0.14455965084E+04  0.14458701072E+04  0.10000000000E+02 0. -1.
</event>
<event>
 5    1  0.1218060E-008  0.3811729E+03  0.7957747E-01  0.3446067E+00
         13   -1    0    0    0    0  0.00000000000E+00  0.00000000000E+00  0.14999999963E+04  0.15000000000E+04  0.10566000000E+00 0.  1.
        994   -1    0    0    0    0 -0.00000000000E+00 -0.00000000000E+00  0.11368683772E-12  0.17120000000E+03  0.17120000000E+03 0.  0.
         13    1    1    2    0    0 -0.18433843680E+02 -0.76128010283E+02  0.15456308082E+03  0.17327734318E+03  0.10566000000E+00 0.  1.
        994    1    1    2    0    0  0.19045122845E+02  0.80999369587E+02  0.42626073076E+02  0.19506418606E+03  0.17120000000E+03 0.  0.
        998    1    1    2    0    0 -0.61127916453E+00 -0.48713593040E+01  0.13028108424E+04  0.13028584708E+04  0.10000000000E+02 0.  1.
</event>
<event>
 5    1  0.1218060E-008  0.3818779E+03  0.7957747E-01  0.3443022E+00
         13   -1    0    0    0    0  0.00000000000E+00  0.00000000000E+00  0.14999999963E+04  0.15000000000E+04  0.10566000000E+00 0.  1.
        994   -1    0    0    0    0 -0.00000000000E+00 -0.00000000000E+00  0.11368683772E-12  0.17120000000E+03  0.17120000000E+03 0.  0.
         13    1    1    2    0    0  0.20150489088E+02 -0.25740773807E+02  0.15388755928E+03  0.15732139623E+03  0.10566000000E+00 0.  1.
        994    1    1    2    0    0 -0.30567694271E+02  0.15038745773E+02  0.70534494285E+01  0.17469899529E+03  0.17120000000E+03 0.  0.
        998    1    1    2    0    0  0.10417205183E+02  0.10702028034E+02  0.13390589876E+04  0.13391796085E+04  0.10000000000E+02 0.  1.
</event>
<event>
 5    1  0.1218060E-008  0.3830906E+03  0.7957747E-01  0.3437811E+00
         13   -1    0    0    0    0  0.00000000000E+00  0.00000000000E+00  0.14999999963E+04  0.15000000000E+04  0.10566000000E+00 0. -1.
        994   -1    0    0    0    0 -0.00000000000E+00 -0.00000000000E+00  0.11368683772E-12  0.17120000000E+03  0.17120000000E+03 0.  0.
         13    1    1    2    0    0 -0.90372633066E+01  0.60094940834E+01  0.22795310356E+02  0.25247247087E+02  0.10566000000E+00 0. -1.
        994    1    1    2    0    0 -0.72130988401E+01 -0.20468073993E+01  0.27671650243E+01  0.17138645051E+03  0.17120000000E+03 0.  0.
        998    1    1    2    0    0  0.16250362147E+02 -0.39626866841E+01  0.14744375209E+04  0.14745663024E+04  0.10000000000E+02 0. -1.
</event>
<event>
 5    1  0.1218060E-008  0.3846063E+03  0.7957747E-01  0.3431344E+00
         13   -1    0    0    0    0  0.00000000000E+00  0.00000000000E+00  0.14999999963E+04  0.15000000000E+04  0.10566000000E+00 0. -1.
        994   -1    0    0    0    0 -0.00000000000E+00 -0.00000000000E+00  0.11368683772E-12  0.17120000000E+03  0.17120000000E+03 0.  0.
         13    1    1    2    0    0 -0.81479010452E+01  0.16827584531E+02  0.11082169196E+03  0.11238778611E+03  0.10566000000E+00 0. -1.
        994    1    1    2    0    0  0.97364419196E+01  0.11518099765E+02  0.25750818026E+01  0.17188233176E+03  0.17120000000E+03 0.  0.
        998    1    1    2    0    0 -0.15885408744E+01 -0.28345684296E+02  0.13866032225E+04  0.13869298821E+04  0.10000000000E+02 0. -1.
</event>
<event>
 5    1  0.1218060E-008  0.3117469E+03  0.7957747E-01  0.3815569E+00
         13   -1    0    0    0    0  0.00000000000E+00  0.00000000000E+00  0.14999999963E+04  0.15000000000E+04  0.10566000000E+00 0. -1.
        994   -1    0    0    0    0 -0.00000000000E+00 -0.00000000000E+00  0.11368683772E-12  0.17120000000E+03  0.17120000000E+03 0.  0.
         13    1    1    2    0    0 -0.16790418225E+03 -0.14201523912E+03  0.76736285755E+03  0.79825178288E+03  0.10566000000E+00 0. -1.
        994    1    1    2    0    0  0.11543577599E+03  0.11300821672E+03  0.13324247453E+03  0.27047970801E+03  0.17120000000E+03 0.  0.
        998    1    1    2    0    0  0.52468406258E+02  0.29007022393E+02  0.59939466420E+03  0.60246850912E+03  0.10000000000E+02 0. -1.
</event>
<event>
 5    1  0.1218060E-008  0.3831164E+03  0.7957747E-01  0.3437700E+00
         13   -1    0    0    0    0  0.00000000000E+00  0.00000000000E+00  0.14999999963E+04  0.15000000000E+04  0.10566000000E+00 0.  1.
        994   -1    0    0    0    0 -0.00000000000E+00 -0.00000000000E+00  0.11368683772E-12  0.17120000000E+03  0.17120000000E+03 0.  0.
         13    1    1    2    0    0 -0.36164835366E+02  0.16205360703E+02  0.36171789897E+02  0.53655554987E+02  0.10566000000E+00 0.  1.
        994    1    1    2    0    0  0.21785287999E+02 -0.32828862956E+02  0.23761019471E+02  0.17727481226E+03  0.17120000000E+03 0.  0.
        998    1    1    2    0    0  0.14379547367E+02  0.16623502253E+02  0.14400671869E+04  0.14402696328E+04  0.10000000000E+02 0.  1.
</event>
<event>
 5    1  0.1218060E-008  0.3842067E+03  0.7957747E-01  0.3433044E+00
         13   -1    0    0    0    0  0.00000000000E+00  0.00000000000E+00  0.14999999963E+04  0.15000000000E+04  0.10566000000E+00 0.  1.
        994   -1    0    0    0    0 -0.00000000000E+00 -0.00000000000E+00  0.11368683772E-12  0.17120000000E+03  0.17120000000E+03 0.  0.
         13    1    1    2    0    0 -0.10636017332E+02 -0.31614722731E+01  0.29284185879E+02  0.31316041868E+02  0.10566000000E+00 0.  1.
        994    1    1    2    0    0  0.12591996455E+02  0.20931944500E+01  0.25619309000E+01  0.17169433109E+03  0.17120000000E+03 0.  0.
        998    1    1    2    0    0 -0.19559791236E+01  0.10682778231E+01  0.14681538795E+04  0.14681896270E+04  0.10000000000E+02 0.  1.
</event>
<event>
 5    1  0.1218060E-008  0.3815546E+03  0.7957747E-01  0.3444417E+00
         13   -1    0    0    0    0  0.00000000000E+00  0.00000000000E+00  0.14999999963E+04  0.15000000000E+04  0.10566000000E+00 0. -1.
        994   -1    0    0    0    0 -0.00000000000E+00 -0.00000000000E+00  0.11368683772E-12  0.17120000000E+03  0.17120000000E+03 0.  0.
         13    1    1    2    0    0 -0.22596967796E+02  0.10841877433E+02  0.81611079198E+02  0.85372997322E+02  0.10566000000E+00 0. -1.
        994    1    1    2    0    0  0.33027427023E+02 -0.25380836943E+02  0.91423312295E+01  0.17643134653E+03  0.17120000000E+03 0.  0.
        998    1    1    2    0    0 -0.10430459227E+02  0.14538959510E+02  0.14092465859E+04  0.14093956561E+04  0.10000000000E+02 0. -1.
</event>
<event>
 5    1  0.1218060E-008  0.3846778E+03  0.7957747E-01  0.3431040E+00
         13   -1    0    0    0    0  0.00000000000E+00  0.00000000000E+00  0.14999999963E+04  0.15000000000E+04  0.10566000000E+00 0.  1.
        994   -1    0    0    0    0 -0.00000000000E+00 -0.00000000000E+00  0.11368683772E-12  0.17120000000E+03  0.17120000000E+03 0.  0.
         13    1    1    2    0    0  0.11354120199E+02  0.36214424941E+01  0.38520499556E+02  0.40322089992E+02  0.10566000000E+00 0.  1.
        994    1    1    2    0    0 -0.10445209184E+02 -0.94593296761E+01  0.24441953097E+01  0.17179637774E+03  0.17120000000E+03 0.  0.
        998    1    1    2    0    0 -0.90891101493E+00  0.58378871821E+01  0.14590353014E+04  0.14590815323E+04  0.10000000000E+02 0.  1.
</event>
<event>
 5    1  0.1218060E-008  0.3788095E+03  0.7957747E-01  0.3456359E+00
         13   -1    0    0    0    0  0.00000000000E+00  0.00000000000E+00  0.14999999963E+04  0.15000000000E+04  0.10566000000E+00 0. -1.
        994   -1    0    0    0    0 -0.00000000000E+00 -0.00000000000E+00  0.11368683772E-12  0.17120000000E+03  0.17120000000E+03 0.  0.
         13    1    1    2    0    0  0.42314708612E+02  0.12805036730E+02  0.22211327479E+03  0.22647035464E+03  0.10566000000E+00 0. -1.
        994    1    1    2    0    0 -0.15976684858E+02  0.23836039164E+01  0.56115187229E+01  0.17205192579E+03  0.17120000000E+03 0.  0.
        998    1    1    2    0    0 -0.26338023754E+02 -0.15188640646E+02  0.12722752028E+04  0.12726777196E+04  0.10000000000E+02 0. -1.
</event>
<event>
 5    1  0.1218060E-008  0.3842999E+03  0.7957747E-01  0.3432647E+00
         13   -1    0    0    0    0  0.00000000000E+00  0.00000000000E+00  0.14999999963E+04  0.15000000000E+04  0.10566000000E+00 0.  1.
        994   -1    0    0    0    0 -0.00000000000E+00 -0.00000000000E+00  0.11368683772E-12  0.17120000000E+03  0.17120000000E+03 0.  0.
         13    1    1    2    0    0 -0.21666520114E+02 -0.10780448812E+02  0.10261110988E+03  0.10542631173E+03  0.10566000000E+00 0.  1.
        994    1    1    2    0    0  0.77873521343E+02  0.83097537778E-01  0.22229472080E+02  0.18938817719E+03  0.17120000000E+03 0.  0.
        998    1    1    2    0    0 -0.56207001229E+02  0.10697351274E+02  0.13751594143E+04  0.13763855111E+04  0.10000000000E+02 0.  1.
</event>
<event>
 5    1  0.1218060E-008  0.3816700E+03  0.7957747E-01  0.3443919E+00
         13   -1    0    0    0    0  0.00000000000E+00  0.00000000000E+00  0.14999999963E+04  0.15000000000E+04  0.10566000000E+00 0. -1.
        994   -1    0    0    0    0 -0.00000000000E+00 -0.00000000000E+00  0.11368683772E-12  0.17120000000E+03  0.17120000000E+03 0.  0.
         13    1    1    2    0    0  0.11219382862E+02 -0.24659648104E+02  0.11004135669E+03  0.11332733185E+03  0.10566000000E+00 0. -1.
        994    1    1    2    0    0  0.18573704179E+01  0.19602448668E+02  0.45825219327E+01  0.17238951629E+03  0.17120000000E+03 0.  0.
        998    1    1    2    0    0 -0.13076753280E+02  0.50571994355E+01  0.13853761177E+04  0.13854831519E+04  0.10000000000E+02 0. -1.
</event>
<event>
 5    1  0.1218060E-008  0.3972536E+03  0.7957747E-01  0.3379310E+00
         13   -1    0    0    0    0  0.00000000000E+00  0.00000000000E+00  0.14999999963E+04  0.15000000000E+04  0.10566000000E+00 0. -1.
        994   -1    0    0    0    0 -0.00000000000E+00 -0.00000000000E+00  0.11368683772E-12  0.17120000000E+03  0.17120000000E+03 0.  0.
         13    1    1    2    0    0  0.94808314610E+02 -0.39810477242E+02  0.16956160151E+03  0.19830440865E+03  0.10566000000E+00 0. -1.
        994    1    1    2    0    0 -0.10072376658E+03  0.34335832783E+02  0.71486884928E+02  0.21387856667E+03  0.17120000000E+03 0.  0.
        998    1    1    2    0    0  0.59154519653E+01  0.54746444581E+01  0.12589515098E+04  0.12590170247E+04  0.10000000000E+02 0. -1.
</event>
<event>
 5    1  0.1218060E-008  0.3845057E+03  0.7957747E-01  0.3431771E+00
         13   -1    0    0    0    0  0.00000000000E+00  0.00000000000E+00  0.14999999963E+04  0.15000000000E+04  0.10566000000E+00 0. -1.
        994   -1    0    0    0    0 -0.00000000000E+00 -0.00000000000E+00  0.11368683772E-12  0.17120000000E+03  0.17120000000E+03 0.  0.
         13    1    1    2    0    0  0.10321492272E+02 -0.81969262992E+01  0.45493413584E+02  0.47364381628E+02  0.10566000000E+00 0. -1.
        994    1    1    2    0    0 -0.58239486045E+01  0.10505979308E+02  0.23512027247E+01  0.17163700689E+03  0.17120000000E+03 0.  0.
        998    1    1    2    0    0 -0.44975436677E+01 -0.23090530088E+01  0.14521553800E+04  0.14521986115E+04  0.10000000000E+02 0. -1.
</event>
<event>
 5    1  0.1218060E-008  0.3813952E+03  0.7957747E-01  0.3445106E+00
         13   -1    0    0    0    0  0.00000000000E+00  0.00000000000E+00  0.14999999963E+04  0.15000000000E+04  0.10566000000E+00 0. -1.
        994   -1    0    0    0    0 -0.00000000000E+00 -0.00000000000E+00  0.11368683772E-12  0.17120000000E+03  0.17120000000E+03 0.  0.
         13    1    1    2    0    0  0.70802124607E+01 -0.12082731181E+02  0.26462448512E+02  0.29939842126E+02  0.10566000000E+00 0. -1.
        994    1    1    2    0    0 -0.82417236387E+01  0.17265950891E+02  0.46494889596E+01  0.17232845620E+03  0.17120000000E+03 0.  0.
        998    1    1    2    0    0  0.11615111780E+01 -0.51832197104E+01  0.14688880588E+04  0.14689317017E+04  0.10000000000E+02 0. -1.
</event>
<event>
 5    1  0.1218060E-008  0.3731192E+03  0.7957747E-01  0.3481677E+00
         13   -1    0    0    0    0  0.00000000000E+00  0.00000000000E+00  0.14999999963E+04  0.15000000000E+04  0.10566000000E+00 0. -1.
        994   -1    0    0    0    0 -0.00000000000E+00 -0.00000000000E+00  0.11368683772E-12  0.17120000000E+03  0.17120000000E+03 0.  0.
         13    1    1    2    0    0 -0.63271418782E+02 -0.24083039954E+02  0.40652434027E+03  0.41212293754E+03  0.10566000000E+00 0. -1.
        994    1    1    2    0    0  0.81693021372E+01 -0.82911446361E+01  0.81113286236E+01  0.17178682787E+03  0.17120000000E+03 0.  0.
        998    1    1    2    0    0  0.55102116644E+02  0.32374184590E+02  0.10853643274E+04  0.10872902346E+04  0.10000000000E+02 0. -1.
</event>
<event>
 5    1  0.1218060E-008  0.3782139E+03  0.7957747E-01  0.3458972E+00
         13   -1    0    0    0    0  0.00000000000E+00  0.00000000000E+00  0.14999999963E+04  0.15000000000E+04  0.10566000000E+00 0.  1.
        994   -1    0    0    0    0 -0.00000000000E+00 -0.00000000000E+00  0.11368683772E-12  0.17120000000E+03  0.17120000000E+03 0.  0.
         13    1    1    2    0    0  0.46514451810E+02  0.24614296423E+01  0.20663378356E+03  0.21181875398E+03  0.10566000000E+00 0.  1.
        994    1    1    2    0    0 -0.31508522318E+02 -0.44928521652E+01  0.84513910165E+01  0.17433828813E+03  0.17120000000E+03 0.  0.
        998    1    1    2    0    0 -0.15005929492E+02  0.20314225229E+01  0.12849148217E+04  0.12850429579E+04  0.10000000000E+02 0.  0.
</event>
<event>
 5    1  0.1218060E-008  0.3838373E+03  0.7957747E-01  0.3434618E+00
         13   -1    0    0    0    0  0.00000000000E+00  0.00000000000E+00  0.14999999963E+04  0.15000000000E+04  0.10566000000E+00 0.  1.
        994   -1    0    0    0    0 -0.00000000000E+00 -0.00000000000E+00  0.11368683772E-12  0.17120000000E+03  0.17120000000E+03 0.  0.
         13    1    1    2    0    0 -0.72299148140E+01  0.29659011463E+02  0.16819997244E+03  0.17094785908E+03  0.10566000000E+00 0.  1.
        994    1    1    2    0    0  0.11137852114E+02 -0.42710173416E+02  0.86664200204E+01  0.17701061409E+03  0.17120000000E+03 0.  0.
        998    1    1    2    0    0 -0.39079373004E+01  0.13051161953E+02  0.13231336038E+04  0.13232415268E+04  0.10000000000E+02 0.  1.
</event>
<event>
 5    1  0.1450030E-008  0.3845011E+03  0.7957747E-01  0.3431791E+00
         13   -1    0    0    0    0  0.00000000000E+00  0.00000000000E+00  0.14999999963E+04  0.15000000000E+04  0.10566000000E+00 0.  1.
        994   -1    0    0    0    0 -0.00000000000E+00 -0.00000000000E+00  0.11368683772E-12  0.17120000000E+03  0.17120000000E+03 0.  0.
         13    1    1    2    0    0  0.97080128898E+01 -0.53534414078E+01  0.32550793655E+02  0.34387064149E+02  0.10566000000E+00 0.  1.
        994    1    1    2    0    0 -0.36664664133E+01  0.56003335478E+01  0.20256454328E+01  0.17134278494E+03  0.17120000000E+03 0.  0.
        998    1    1    2    0    0 -0.60415464765E+01 -0.24689214007E+00  0.14654235572E+04  0.14654701509E+04  0.10000000000E+02 0.  1.
</event>
<event>
 5    1  0.1218060E-008  0.3701778E+03  0.7957747E-01  0.3495074E+00
         13   -1    0    0    0    0  0.00000000000E+00  0.00000000000E+00  0.14999999963E+04  0.15000000000E+04  0.10566000000E+00 0.  1.
        994   -1    0    0    0    0 -0.00000000000E+00 -0.00000000000E+00  0.11368683772E-12  0.17120000000E+03  0.17120000000E+03 0.  0.
         13    1    1    2    0    0  0.35254066430E+02  0.97765657344E+00  0.51192069625E+02  0.62164653693E+02  0.10566000000E+00 0.  1.
        994    1    1    2    0    0 -0.30283014394E+02 -0.11463736789E+02  0.14709437905E+02  0.17485504221E+03  0.17120000000E+03 0.  0.
        998    1    1    2    0    0 -0.49710520360E+01  0.10486080215E+02  0.14340984887E+04  0.14341803041E+04  0.10000000000E+02 0.  1.
</event>
<event>
 5    1  0.1218060E-008  0.3716747E+03  0.7957747E-01  0.3488230E+00
         13   -1    0    0    0    0  0.00000000000E+00  0.00000000000E+00  0.14999999963E+04  0.15000000000E+04  0.10566000000E+00 0. -1.
        994   -1    0    0    0    0 -0.00000000000E+00 -0.00000000000E+00  0.11368683772E-12  0.17120000000E+03  0.17120000000E+03 0.  0.
         13    1    1    2    0    0 -0.14634595278E+02  0.49146941907E+02  0.12384995413E+03  0.13404631879E+03  0.10566000000E+00 0. -1.
        994    1    1    2    0    0  0.26686296385E+02 -0.77282166149E+02  0.31739770742E+02  0.19235785574E+03  0.17120000000E+03 0.  0.
        998    1    1    2    0    0 -0.12051701107E+02  0.28135224243E+02  0.13444102714E+04  0.13447958255E+04  0.10000000000E+02 0. -1.
</event>
<event>
 5    1  0.1218060E-008  0.3806087E+03  0.7957747E-01  0.3448513E+00
         13   -1    0    0    0    0  0.00000000000E+00  0.00000000000E+00  0.14999999963E+04  0.15000000000E+04  0.10566000000E+00 0. -1.
        994   -1    0    0    0    0 -0.00000000000E+00 -0.00000000000E+00  0.11368683772E-12  0.17120000000E+03  0.17120000000E+03 0.  0.
         13    1    1    2    0    0  0.23777942779E+02  0.48419071370E+01  0.75330525566E+02  0.79142490949E+02  0.10566000000E+00 0. -1.
        994    1    1    2    0    0 -0.11065525646E+02 -0.27808845269E+02  0.68204662944E+01  0.17393026331E+03  0.17120000000E+03 0.  0.
        998    1    1    2    0    0 -0.12712417133E+02  0.22966938132E+02  0.14178490044E+04  0.14181272457E+04  0.10000000000E+02 0. -1.
</event>
<event>
 5    1  0.1218060E-008  0.3832084E+03  0.7957747E-01  0.3437306E+00
         13   -1    0    0    0    0  0.00000000000E+00  0.00000000000E+00  0.14999999963E+04  0.15000000000E+04  0.10566000000E+00 0.  1.
        994   -1    0    0    0    0 -0.00000000000E+00 -0.00000000000E+00  0.11368683772E-12  0.17120000000E+03  0.17120000000E+03 0.  0.
         13    1    1    2    0    0  0.11728821570E+02  0.20772662499E+02  0.10999861859E+03  0.11255565743E+03  0.10566000000E+00 0.  1.
        994    1    1    2    0    0 -0.10544245258E+02 -0.14160659432E+02  0.35540078708E+01  0.17214463789E+03  0.17120000000E+03 0.  0.
        998    1    1    2    0    0 -0.11845763114E+01 -0.66120030662E+01  0.13864473698E+04  0.13864997047E+04  0.10000000000E+02 0.  1.
</event>
<event>
 5    1  0.1218060E-008  0.4210777E+03  0.7957747E-01  0.3289732E+00
         13   -1    0    0    0    0  0.00000000000E+00  0.00000000000E+00  0.14999999963E+04  0.15000000000E+04  0.10566000000E+00 0.  1.
        994   -1    0    0    0    0 -0.00000000000E+00 -0.00000000000E+00  0.11368683772E-12  0.17120000000E+03  0.17120000000E+03 0.  0.
         13    1    1    2    0    0 -0.97275002316E+02 -0.23557952774E+02  0.12261817201E+03  0.15828022772E+03  0.10566000000E+00 0.  1.
        994    1    1    2    0    0  0.17046237519E+02  0.86163720797E+02  0.74979411349E+02  0.20650935359E+03  0.17120000000E+03 0.  0.
        998    1    1    2    0    0  0.80228764797E+02 -0.62605768023E+02  0.13024024129E+04  0.13064104187E+04  0.10000000000E+02 0.  1.
</event>
<event>
 5    1  0.1218060E-008  0.3770674E+03  0.7957747E-01  0.3464028E+00
         13   -1    0    0    0    0  0.00000000000E+00  0.00000000000E+00  0.14999999963E+04  0.15000000000E+04  0.10566000000E+00 0. -1.
        994   -1    0    0    0    0 -0.00000000000E+00 -0.00000000000E+00  0.11368683772E-12  0.17120000000E+03  0.17120000000E+03 0.  0.
         13    1    1    2    0    0  0.84188943120E+02 -0.51950343920E+02  0.50081535078E+03  0.51049254952E+03  0.10566000000E+00 0. -1.
        994    1    1    2    0    0 -0.96479312851E+02  0.52258972908E+02  0.47405661428E+02  0.20879653923E+03  0.17120000000E+03 0.  0.
        998    1    1    2    0    0  0.12290369732E+02 -0.30862898858E+00  0.95177898407E+03  0.95191091125E+03  0.10000000000E+02 0. -1.
</event>
<event>
 5    1  0.1218060E-008  0.3715606E+03  0.7957747E-01  0.3488749E+00
         13   -1    0    0    0    0  0.00000000000E+00  0.00000000000E+00  0.14999999963E+04  0.15000000000E+04  0.10566000000E+00 0. -1.
        994   -1    0    0    0    0 -0.00000000000E+00 -0.00000000000E+00  0.11368683772E-12  0.17120000000E+03  0.17120000000E+03 0.  0.
         13    1    1    2    0    0 -0.62495626331E+02  0.46250208431E+02  0.24965013342E+03  0.26147654841E+03  0.10566000000E+00 0. -1.
        994    1    1    2    0    0  0.83130523997E+02 -0.62409371485E+02  0.46587479668E+02  0.20563425525E+03  0.17120000000E+03 0.  0.
        998    1    1    2    0    0 -0.20634897666E+02  0.16159163053E+02  0.12037623832E+04  0.12040891963E+04  0.10000000000E+02 0. -1.
</event>
<event>
 5    1  0.1218060E-008  0.3819145E+03  0.7957747E-01  0.3442865E+00
         13   -1    0    0    0    0  0.00000000000E+00  0.00000000000E+00  0.14999999963E+04  0.15000000000E+04  0.10566000000E+00 0.  1.
        994   -1    0    0    0    0 -0.00000000000E+00 -0.00000000000E+00  0.11368683772E-12  0.17120000000E+03  0.17120000000E+03 0.  0.
         13    1    1    2    0    0 -0.16811456254E+02  0.75101279312E+01  0.50688951345E+02  0.53929658217E+02  0.10566000000E+00 0.  1.
        994    1    1    2    0    0  0.16915709730E+02 -0.11071585900E+02  0.45287413783E+01  0.17244903812E+03  0.17120000000E+03 0.  0.
        998    1    1    2    0    0 -0.10425347556E+00  0.35614579690E+01  0.14447823036E+04  0.14448213037E+04  0.10000000000E+02 0.  1.
</event>
<event>
 5    1  0.1218060E-008  0.3792692E+03  0.7957747E-01  0.3454347E+00
         13   -1    0    0    0    0  0.00000000000E+00  0.00000000000E+00  0.14999999963E+04  0.15000000000E+04  0.10566000000E+00 0. -1.
        994   -1    0    0    0    0 -0.00000000000E+00 -0.00000000000E+00  0.11368683772E-12  0.17120000000E+03  0.17120000000E+03 0.  0.
         13    1    1    2    0    0  0.12028283315E+02  0.72789953887E+01  0.19966537816E+02  0.24420015761E+02  0.10566000000E+00 0. -1.
        994    1    1    2    0    0 -0.98009872576E+01 -0.61867844940E+01  0.49528067743E+01  0.17166335063E+03  0.17120000000E+03 0.  0.
        998    1    1    2    0    0 -0.22272960577E+01 -0.10922108947E+01  0.14750806517E+04  0.14751166336E+04  0.10000000000E+02 0. -1.
</event>
<event>
 5    1  0.1218060E-008  0.3796222E+03  0.7957747E-01  0.3452805E+00
         13   -1    0    0    0    0  0.00000000000E+00  0.00000000000E+00  0.14999999963E+04  0.15000000000E+04  0.10566000000E+00 0. -1.
        994   -1    0    0    0    0 -0.00000000000E+00 -0.00000000000E+00  0.11368683772E-12  0.17120000000E+03  0.17120000000E+03 0.  0.
         13    1    1    2    0    0 -0.17543997532E+02 -0.39278971984E+02  0.18444338901E+03  0.18939378132E+03  0.10566000000E+00 0. -1.
        994    1    1    2    0    0  0.32910784347E+01  0.49085093357E+02  0.12467463398E+02  0.17856386877E+03  0.17120000000E+03 0.  0.
        998    1    1    2    0    0  0.14252919097E+02 -0.98061213728E+01  0.13030891439E+04  0.13032423499E+04  0.10000000000E+02 0. -1.
</event>
<event>
 5    1  0.1218060E-008  0.3727961E+03  0.7957747E-01  0.3483138E+00
         13   -1    0    0    0    0  0.00000000000E+00  0.00000000000E+00  0.14999999963E+04  0.15000000000E+04  0.10566000000E+00 0.  1.
        994   -1    0    0    0    0 -0.00000000000E+00 -0.00000000000E+00  0.11368683772E-12  0.17120000000E+03  0.17120000000E+03 0.  0.
         13    1    1    2    0    0  0.60397507160E+01  0.12566286707E+02  0.88787661265E+01  0.16529785306E+02  0.10566000000E+00 0.  1.
        994    1    1    2    0    0 -0.78531539129E+01 -0.93971421929E+01  0.83286459664E+01  0.17183941530E+03  0.17120000000E+03 0.  0.
        998    1    1    2    0    0  0.18134031970E+01 -0.31691445137E+01  0.14827925842E+04  0.14828307994E+04  0.10000000000E+02 0.  1.
</event>
<event>
 5    1  0.1218060E-008  0.3750820E+03  0.7957747E-01  0.3472856E+00
         13   -1    0    0    0    0  0.00000000000E+00  0.00000000000E+00  0.14999999963E+04  0.15000000000E+04  0.10566000000E+00 0. -1.
        994   -1    0    0    0    0 -0.00000000000E+00 -0.00000000000E+00  0.11368683772E-12  0.17120000000E+03  0.17120000000E+03 0.  0.
         13    1    1    2    0    0  0.12341092512E+02 -0.40187213674E+02  0.13306558753E+03  0.13954847350E+03  0.10566000000E+00 0. -1.
        994    1    1    2    0    0 -0.33761599365E+02  0.12877372930E+02  0.11086550351E+02  0.17532262810E+03  0.17120000000E+03 0.  0.
        998    1    1    2    0    0  0.21420506853E+02  0.27309840743E+02  0.13558478584E+04  0.13563288984E+04  0.10000000000E+02 0. -1.
</event>
<event>
 5    1  0.1218060E-008  0.3780889E+03  0.7957747E-01  0.3459522E+00
         13   -1    0    0    0    0  0.00000000000E+00  0.00000000000E+00  0.14999999963E+04  0.15000000000E+04  0.10566000000E+00 0. -1.
        994   -1    0    0    0    0 -0.00000000000E+00 -0.00000000000E+00  0.11368683772E-12  0.17120000000E+03  0.17120000000E+03 0.  0.
         13    1    1    2    0    0  0.92348967092E+01  0.36149801261E+02  0.14018253303E+03  0.14506290077E+03  0.10566000000E+00 0. -1.
        994    1    1    2    0    0 -0.11199704840E+02 -0.12619438014E+02  0.60593043052E+01  0.17213610537E+03  0.17120000000E+03 0.  0.
        998    1    1    2    0    0  0.19648081305E+01 -0.23530363248E+02  0.13537581589E+04  0.13540009939E+04  0.10000000000E+02 0. -1.
</event>
<event>
 5    1  0.1218060E-008  0.3852792E+03  0.7957747E-01  0.3428489E+00
         13   -1    0    0    0    0  0.00000000000E+00  0.00000000000E+00  0.14999999963E+04  0.15000000000E+04  0.10566000000E+00 0.  1.
        994   -1    0    0    0    0 -0.00000000000E+00 -0.00000000000E+00  0.11368683772E-12  0.17120000000E+03  0.17120000000E+03 0.  0.
         13    1    1    2    0    0 -0.71302066745E+01  0.10190844084E+02  0.68016788636E+02  0.69144687798E+02  0.10566000000E+00 0.  1.
        994    1    1    2    0    0  0.12721922496E+02  0.42718123364E+02  0.80465957118E+01  0.17709001406E+03  0.17120000000E+03 0.  0.
        998    1    1    2    0    0 -0.55917158212E+01 -0.52908967448E+02  0.14239366119E+04  0.14249652981E+04  0.10000000000E+02 0.  1.
</event>
<event>
 5    1  0.1218060E-008  0.3827862E+03  0.7957747E-01  0.3439116E+00
         13   -1    0    0    0    0  0.00000000000E+00  0.00000000000E+00  0.14999999963E+04  0.15000000000E+04  0.10566000000E+00 0.  1.
        994   -1    0    0    0    0 -0.00000000000E+00 -0.00000000000E+00  0.11368683772E-12  0.17120000000E+03  0.17120000000E+03 0.  0.
         13    1    1    2    0    0 -0.73170351513E+01 -0.16765437749E+02  0.61688876210E+02  0.64343978105E+02  0.10566000000E+00 0.  1.
        994    1    1    2    0    0  0.45697024857E+01  0.61905792141E+01  0.29293740492E+01  0.17139786079E+03  0.17120000000E+03 0.  0.
        998    1    1    2    0    0  0.27473326656E+01  0.10574858535E+02  0.14353817460E+04  0.14354581611E+04  0.10000000000E+02 0.  1.
</event>
<event>
 5    1  0.1218060E-008  0.3711792E+03  0.7957747E-01  0.3490489E+00
         13   -1    0    0    0    0  0.00000000000E+00  0.00000000000E+00  0.14999999963E+04  0.15000000000E+04  0.10566000000E+00 0.  1.
        994   -1    0    0    0    0 -0.00000000000E+00 -0.00000000000E+00  0.11368683772E-12  0.17120000000E+03  0.17120000000E+03 0.  0.
         13    1    1    2    0    0 -0.77678617476E+01  0.88071548279E+02  0.30853678956E+03  0.32095466809E+03  0.10566000000E+00 0.  1.
        994    1    1    2    0    0  0.25885359823E+02 -0.63166361359E+02  0.28107453684E+02  0.18643902492E+03  0.17120000000E+03 0.  0.
        998    1    1    2    0    0 -0.18117498075E+02 -0.24905186920E+02  0.11633557530E+04  0.11638063070E+04  0.10000000000E+02 0.  1.
</event>
<event>
 5    1  0.1218060E-008  0.3829687E+03  0.7957747E-01  0.3438333E+00
         13   -1    0    0    0    0  0.00000000000E+00  0.00000000000E+00  0.14999999963E+04  0.15000000000E+04  0.10566000000E+00 0.  1.
        994   -1    0    0    0    0 -0.00000000000E+00 -0.00000000000E+00  0.11368683772E-12  0.17120000000E+03  0.17120000000E+03 0.  0.
         13    1    1    2    0    0 -0.10394380505E+02  0.35735021386E+01  0.21936261322E+02  0.24536173060E+02  0.10566000000E+00 0.  1.
        994    1    1    2    0    0  0.61195242252E+01 -0.41299869611E+01  0.28224539137E+01  0.17138235503E+03  0.17120000000E+03 0.  0.
        998    1    1    2    0    0  0.42748562795E+01  0.55648482246E+00  0.14752412810E+04  0.14752814719E+04  0.10000000000E+02 0.  1.
</event>
<event>
 5    1  0.1218060E-008  0.3762629E+03  0.7957747E-01  0.3467594E+00
         13   -1    0    0    0    0  0.00000000000E+00  0.00000000000E+00  0.14999999963E+04  0.15000000000E+04  0.10566000000E+00 0. -1.
        994   -1    0    0    0    0 -0.00000000000E+00 -0.00000000000E+00  0.11368683772E-12  0.17120000000E+03  0.17120000000E+03 0.  0.
         13    1    1    2    0    0  0.17200788267E+02  0.54979877950E+02  0.23942630662E+03  0.24625925681E+03  0.10566000000E+00 0. -1.
        994    1    1    2    0    0 -0.18984895330E+02 -0.48996905479E+02  0.15435271506E+02  0.17974651764E+03  0.17120000000E+03 0.  0.
        998    1    1    2    0    0  0.17841070627E+01 -0.59829724712E+01  0.12451384181E+04  0.12451942256E+04  0.10000000000E+02 0. -1.
</event>
<event>
 5    1  0.1218060E-008  0.3770142E+03  0.7957747E-01  0.3464263E+00
         13   -1    0    0    0    0  0.00000000000E+00  0.00000000000E+00  0.14999999963E+04  0.15000000000E+04  0.10566000000E+00 0. -1.
        994   -1    0    0    0    0 -0.00000000000E+00 -0.00000000000E+00  0.11368683772E-12  0.17120000000E+03  0.17120000000E+03 0.  0.
         13    1    1    2    0    0  0.35745217804E+02  0.22282493225E+02  0.16962622017E+03  0.17477784709E+03  0.10566000000E+00 0. -1.
        994    1    1    2    0    0  0.84596966370E+01 -0.34032251545E+02  0.98112481748E+01  0.17502988660E+03  0.17120000000E+03 0.  0.
        998    1    1    2    0    0 -0.44204914441E+02  0.11749758320E+02  0.13205625279E+04  0.13213922663E+04  0.10000000000E+02 0. -1.
</event>
<event>
 5    1  0.1218060E-008  0.3817143E+03  0.7957747E-01  0.3443728E+00
         13   -1    0    0    0    0  0.00000000000E+00  0.00000000000E+00  0.14999999963E+04  0.15000000000E+04  0.10566000000E+00 0.  1.
        994   -1    0    0    0    0 -0.00000000000E+00 -0.00000000000E+00  0.11368683772E-12  0.17120000000E+03  0.17120000000E+03 0.  0.
         13    1    1    2    0    0  0.50634967803E+01  0.12967778558E+02  0.28606376431E+02  0.31814119773E+02  0.10566000000E+00 0.  1.
        994    1    1    2    0    0 -0.19428458908E+01 -0.70245603719E+01  0.34468795827E+01  0.17138973154E+03  0.17120000000E+03 0.  0.
        998    1    1    2    0    0 -0.31206508895E+01 -0.59432181866E+01  0.14679467403E+04  0.14679961487E+04  0.10000000000E+02 0.  1.
</event>
<event>
 5    1  0.1218060E-008  0.3855313E+03  0.7957747E-01  0.3427422E+00
         13   -1    0    0    0    0  0.00000000000E+00  0.00000000000E+00  0.14999999963E+04  0.15000000000E+04  0.10566000000E+00 0.  1.
        994   -1    0    0    0    0 -0.00000000000E+00 -0.00000000000E+00  0.11368683772E-12  0.17120000000E+03  0.17120000000E+03 0.  0.
         13    1    1    2    0    0  0.76724847099E+01 -0.95533579303E+01  0.53661686160E+02  0.55042905037E+02  0.10566000000E+00 0.  1.
        994    1    1    2    0    0 -0.13158492787E+02  0.58629645901E+01  0.20481821144E+01  0.17181721490E+03  0.17120000000E+03 0.  0.
        998    1    1    2    0    0  0.54860080773E+01  0.36903933402E+01  0.14442901280E+04  0.14443398801E+04  0.10000000000E+02 0.  1.
</event>
<event>
 5    1  0.1218060E-008  0.3771682E+03  0.7957747E-01  0.3463582E+00
         13   -1    0    0    0    0  0.00000000000E+00  0.00000000000E+00  0.14999999963E+04  0.15000000000E+04  0.10566000000E+00 0. -1.
        994   -1    0    0    0    0 -0.00000000000E+00 -0.00000000000E+00  0.11368683772E-12  0.17120000000E+03  0.17120000000E+03 0.  0.
         13    1    1    2    0    0  0.13253200300E+01 -0.36027345553E+02  0.11578835187E+03  0.12127109999E+03  0.10566000000E+00 0. -1.
        994    1    1    2    0    0  0.61556147937E+01  0.20084338418E+02  0.70600224408E+01  0.17262837588E+03  0.17120000000E+03 0.  0.
        998    1    1    2    0    0 -0.74809348237E+01  0.15943007135E+02  0.13771516220E+04  0.13773005241E+04  0.10000000000E+02 0. -1.
</event>
<event>
 5    1  0.1218060E-008  0.2419677E+03  0.7957747E-01  0.4423327E+00
         13   -1    0    0    0    0  0.00000000000E+00  0.00000000000E+00  0.14999999963E+04  0.15000000000E+04  0.10566000000E+00 0.  1.
        994   -1    0    0    0    0 -0.00000000000E+00 -0.00000000000E+00  0.11368683772E-12  0.17120000000E+03  0.17120000000E+03 0.  0.
         13    1    1    2    0    0  0.17725886103E+03  0.34712007934E+02  0.26363057142E+03  0.31957270950E+03  0.10566000000E+00 0.  1.
        994    1    1    2    0    0 -0.13177787830E+03 -0.53237494890E+02  0.15992440589E+03  0.27401623250E+03  0.17120000000E+03 0.  0.
        998    1    1    2    0    0 -0.45480982729E+02  0.18525486956E+02  0.10764450190E+04  0.10776110580E+04  0.10000000000E+02 0. -1.
</event>
<event>
 5    1  0.1218060E-008  0.3703114E+03  0.7957747E-01  0.3494461E+00
         13   -1    0    0    0    0  0.00000000000E+00  0.00000000000E+00  0.14999999963E+04  0.15000000000E+04  0.10566000000E+00 0.  1.
        994   -1    0    0    0    0 -0.00000000000E+00 -0.00000000000E+00  0.11368683772E-12  0.17120000000E+03  0.17120000000E+03 0.  0.
         13    1    1    2    0    0 -0.39027367165E+02  0.43551640284E+02  0.17657526901E+03  0.18600730510E+03  0.10566000000E+00 0.  1.
        994    1    1    2    0    0  0.21592786632E+01 -0.58212914844E+02  0.20919847502E+02  0.18204528546E+03  0.17120000000E+03 0.  0.
        998    1    1    2    0    0  0.36868088502E+02  0.14661274560E+02  0.13025048798E+04  0.13031474094E+04  0.10000000000E+02 0.  1.
</event>
<event>
 5    1  0.1218060E-008  0.3688122E+03  0.7957747E-01  0.3501368E+00
         13   -1    0    0    0    0  0.00000000000E+00  0.00000000000E+00  0.14999999963E+04  0.15000000000E+04  0.10566000000E+00 0. -1.
        994   -1    0    0    0    0 -0.00000000000E+00 -0.00000000000E+00  0.11368683772E-12  0.17120000000E+03  0.17120000000E+03 0.  0.
         13    1    1    2    0    0 -0.25553347745E+02  0.69329558819E+01  0.30785297575E+02  0.40605235734E+02  0.10566000000E+00 0. -1.
        994    1    1    2    0    0  0.24282455931E+02 -0.11309935007E+02  0.12386506017E+02  0.17372512146E+03  0.17120000000E+03 0.  0.
        998    1    1    2    0    0  0.12708918138E+01  0.43769791254E+01  0.14568281927E+04  0.14568696428E+04  0.10000000000E+02 0. -1.
</event>
<event>
 5    1  0.1218060E-008  0.3837742E+03  0.7957747E-01  0.3434887E+00
         13   -1    0    0    0    0  0.00000000000E+00  0.00000000000E+00  0.14999999963E+04  0.15000000000E+04  0.10566000000E+00 0.  1.
        994   -1    0    0    0    0 -0.00000000000E+00 -0.00000000000E+00  0.11368683772E-12  0.17120000000E+03  0.17120000000E+03 0.  0.
         13    1    1    2    0    0  0.12905357232E+02  0.21552954862E+01  0.40731399436E+02  0.42781439994E+02  0.10566000000E+00 0.  1.
        994    1    1    2    0    0  0.94506923999E+01 -0.13534755967E+01  0.25409338839E+01  0.17148482098E+03  0.17120000000E+03 0.  0.
        998    1    1    2    0    0 -0.22356049632E+02 -0.80181988941E+00  0.14567276630E+04  0.14569337390E+04  0.10000000000E+02 0.  1.
</event>
<event>
 5    1  0.1218060E-008  0.3978851E+03  0.7957747E-01  0.3376798E+00
         13   -1    0    0    0    0  0.00000000000E+00  0.00000000000E+00  0.14999999963E+04  0.15000000000E+04  0.10566000000E+00 0. -1.
        994   -1    0    0    0    0 -0.00000000000E+00 -0.00000000000E+00  0.11368683772E-12  0.17120000000E+03  0.17120000000E+03 0.  0.
         13    1    1    2    0    0  0.15699466899E+02 -0.36632748872E+02  0.19045041879E+02  0.44171895307E+02  0.10566000000E+00 0. -1.
        994    1    1    2    0    0 -0.12247701945E+02  0.39671427584E+02  0.33239874979E+02  0.17927118468E+03  0.17120000000E+03 0.  0.
        998    1    1    2    0    0 -0.34517649542E+01 -0.30386787114E+01  0.14477150794E+04  0.14477569200E+04  0.10000000000E+02 0. -1.
</event>
<event>
 5    1  0.1218060E-008  0.3817137E+03  0.7957747E-01  0.3443731E+00
         13   -1    0    0    0    0  0.00000000000E+00  0.00000000000E+00  0.14999999963E+04  0.15000000000E+04  0.10566000000E+00 0.  1.
        994   -1    0    0    0    0 -0.00000000000E+00 -0.00000000000E+00  0.11368683772E-12  0.17120000000E+03  0.17120000000E+03 0.  0.
         13    1    1    2    0    0  0.11553605224E+03  0.24409060796E+02  0.54062169686E+03  0.55336806187E+03  0.10566000000E+00 0.  1.
        994    1    1    2    0    0 -0.26954940236E+02 -0.29035073974E+02  0.23016848353E+02  0.17722533575E+03  0.17120000000E+03 0.  0.
        998    1    1    2    0    0 -0.88581112003E+02  0.46260131789E+01  0.93636145107E+03  0.94060660238E+03  0.10000000000E+02 0.  1.
</event>
<event>
 5    1  0.1218060E-008  0.3855606E+03  0.7957747E-01  0.3427298E+00
         13   -1    0    0    0    0  0.00000000000E+00  0.00000000000E+00  0.14999999963E+04  0.15000000000E+04  0.10566000000E+00 0. -1.
        994   -1    0    0    0    0 -0.00000000000E+00 -0.00000000000E+00  0.11368683772E-12  0.17120000000E+03  0.17120000000E+03 0.  0.
         13    1    1    2    0    0  0.30521004016E+01 -0.10901830754E+02  0.46818982713E+02  0.48168387320E+02  0.10566000000E+00 0. -1.
        994    1    1    2    0    0 -0.12141578200E+02  0.76441343079E+01  0.20280958418E+01  0.17181211798E+03  0.17120000000E+03 0.  0.
        998    1    1    2    0    0  0.90894777981E+01  0.32576964465E+01  0.14511529177E+04  0.14512194947E+04  0.10000000000E+02 0. -1.
</event>
<event>
 5    1  0.1218060E-008  0.3808644E+03  0.7957747E-01  0.3447403E+00
         13   -1    0    0    0    0  0.00000000000E+00  0.00000000000E+00  0.14999999963E+04  0.15000000000E+04  0.10566000000E+00 0. -1.
        994   -1    0    0    0    0 -0.00000000000E+00 -0.00000000000E+00  0.11368683772E-12  0.17120000000E+03  0.17120000000E+03 0.  0.
         13    1    1    2    0    0  0.26286872554E+02  0.38968276632E+02  0.22822043430E+03  0.23301095264E+03  0.10566000000E+00 0. -1.
        994    1    1    2    0    0 -0.26436013767E+02 -0.54731255191E+02  0.16111853772E+02  0.18238257853E+03  0.17120000000E+03 0.  0.
        998    1    1    2    0    0  0.14914121328E+00  0.15762978559E+02  0.12556677082E+04  0.12558064688E+04  0.10000000000E+02 0. -1.
</event>
<event>
 5    1  0.1218060E-008  0.3849709E+03  0.7957747E-01  0.3429796E+00
         13   -1    0    0    0    0  0.00000000000E+00  0.00000000000E+00  0.14999999963E+04  0.15000000000E+04  0.10566000000E+00 0.  1.
        994   -1    0    0    0    0 -0.00000000000E+00 -0.00000000000E+00  0.11368683772E-12  0.17120000000E+03  0.17120000000E+03 0.  0.
         13    1    1    2    0    0 -0.11967775505E+02 -0.20510204835E+02  0.12005259982E+03  0.12237865026E+03  0.10566000000E+00 0.  1.
        994    1    1    2    0    0  0.57902403134E+02  0.36452914459E+02  0.17196434733E+02  0.18516657536E+03  0.17120000000E+03 0.  0.
        998    1    1    2    0    0 -0.45934627629E+02 -0.15942709624E+02  0.13627509617E+04  0.13636547744E+04  0.10000000000E+02 0.  1.
</event>
<event>
 5    1  0.1218060E-008  0.3757084E+03  0.7957747E-01  0.3470061E+00
         13   -1    0    0    0    0  0.00000000000E+00  0.00000000000E+00  0.14999999963E+04  0.15000000000E+04  0.10566000000E+00 0.  1.
        994   -1    0    0    0    0 -0.00000000000E+00 -0.00000000000E+00  0.11368683772E-12  0.17120000000E+03  0.17120000000E+03 0.  0.
         13    1    1    2    0    0  0.52676834683E+02 -0.17260742743E+02  0.97742125006E+02  0.11236688265E+03  0.10566000000E+00 0.  1.
        994    1    1    2    0    0 -0.54182528915E+02  0.21282115340E+02  0.26179217030E+02  0.18271142897E+03  0.17120000000E+03 0.  0.
        998    1    1    2    0    0  0.15056942324E+01 -0.40213725974E+01  0.13760786542E+04  0.13761216884E+04  0.10000000000E+02 0.  1.
</event>
<event>
 5    1  0.1218060E-008  0.3833568E+03  0.7957747E-01  0.3436671E+00
         13   -1    0    0    0    0  0.00000000000E+00  0.00000000000E+00  0.14999999963E+04  0.15000000000E+04  0.10566000000E+00 0.  1.
        994   -1    0    0    0    0 -0.00000000000E+00 -0.00000000000E+00  0.11368683772E-12  0.17120000000E+03  0.17120000000E+03 0.  0.
         13    1    1    2    0    0 -0.16301336392E+02  0.55142384886E+02  0.75725182952E+02  0.95082756987E+02  0.10566000000E+00 0.  1.
        994    1    1    2    0    0  0.87484905303E+02 -0.52610502857E+02  0.57503969335E+02  0.20745510395E+03  0.17120000000E+03 0.  0.
        998    1    1    2    0    0 -0.71183568911E+02 -0.25318820298E+01  0.13667708440E+04  0.13686621391E+04  0.10000000000E+02 0.  1.
</event>
<event>
 5    1  0.1218060E-008  0.3689565E+03  0.7957747E-01  0.3500701E+00
         13   -1    0    0    0    0  0.00000000000E+00  0.00000000000E+00  0.14999999963E+04  0.15000000000E+04  0.10566000000E+00 0. -1.
        994   -1    0    0    0    0 -0.00000000000E+00 -0.00000000000E+00  0.11368683772E-12  0.17120000000E+03  0.17120000000E+03 0.  0.
         13    1    1    2    0    0 -0.57378235028E+02  0.15228848456E+02  0.15840268192E+03  0.16916146276E+03  0.10566000000E+00 0. -1.
        994    1    1    2    0    0  0.58506583614E+02 -0.10922610751E+02  0.22210509069E+02  0.18260632646E+03  0.17120000000E+03 0.  0.
        998    1    1    2    0    0 -0.11283485861E+01 -0.43062377050E+01  0.13193868053E+04  0.13194322108E+04  0.10000000000E+02 0. -1.
</event>
<event>
 5    1  0.1218060E-008  0.3819159E+03  0.7957747E-01  0.3442858E+00
         13   -1    0    0    0    0  0.00000000000E+00  0.00000000000E+00  0.14999999963E+04  0.15000000000E+04  0.10566000000E+00 0. -1.
        994   -1    0    0    0    0 -0.00000000000E+00 -0.00000000000E+00  0.11368683772E-12  0.17120000000E+03  0.17120000000E+03 0.  0.
         13    1    1    2    0    0  0.15910811902E+02 -0.15784947583E+02  0.77087518846E+02  0.80279606573E+02  0.10566000000E+00 0. -1.
        994    1    1    2    0    0 -0.38391432533E+01  0.20367689891E+02  0.45974382095E+01  0.17251132789E+03  0.17120000000E+03 0.  0.
        998    1    1    2    0    0 -0.12071668649E+02 -0.45827423078E+01  0.14183150392E+04  0.14184090655E+04  0.10000000000E+02 0. -1.
</event>
<event>
 5    1  0.1218060E-008  0.3826250E+03  0.7957747E-01  0.3439808E+00
         13   -1    0    0    0    0  0.00000000000E+00  0.00000000000E+00  0.14999999963E+04  0.15000000000E+04  0.10566000000E+00 0. -1.
        994   -1    0    0    0    0 -0.00000000000E+00 -0.00000000000E+00  0.11368683772E-12  0.17120000000E+03  0.17120000000E+03 0.  0.
         13    1    1    2    0    0  0.36869424222E+02  0.99917833078E+01  0.22802129371E+03  0.23119885753E+03  0.10566000000E+00 0. -1.
        994    1    1    2    0    0 -0.32402891058E+02 -0.16626956891E+02  0.72223043641E+01  0.17517992101E+03  0.17120000000E+03 0.  0.
        998    1    1    2    0    0 -0.44665331635E+01  0.66351735832E+01  0.12647563982E+04  0.12648212215E+04  0.10000000000E+02 0. -1.
</event>
<event>
 5    1  0.1229253E-008  0.3853160E+03  0.7957747E-01  0.3428333E+00
         13   -1    0    0    0    0  0.00000000000E+00  0.00000000000E+00  0.14999999963E+04  0.15000000000E+04  0.10566000000E+00 0.  1.
        994   -1    0    0    0    0 -0.00000000000E+00 -0.00000000000E+00  0.11368683772E-12  0.17120000000E+03  0.17120000000E+03 0.  0.
         13    1    1    2    0    0 -0.92995173520E+01 -0.65393268316E+01  0.44188270974E+02  0.45627385134E+02  0.10566000000E+00 0.  1.
        994    1    1    2    0    0  0.70251766421E+01  0.14162993000E+01  0.16420959789E+01  0.17135779962E+03  0.17120000000E+03 0.  0.
        998    1    1    2    0    0  0.22743407100E+01  0.51230275316E+01  0.14541696293E+04  0.14542148152E+04  0.10000000000E+02 0.  1.
</event>
<event>
 5    1  0.1218060E-008  0.4073522E+03  0.7957747E-01  0.3340074E+00
         13   -1    0    0    0    0  0.00000000000E+00  0.00000000000E+00  0.14999999963E+04  0.15000000000E+04  0.10566000000E+00 0.  1.
        994   -1    0    0    0    0 -0.00000000000E+00 -0.00000000000E+00  0.11368683772E-12  0.17120000000E+03  0.17120000000E+03 0.  0.
         13    1    1    2    0    0  0.25122861525E+02 -0.10766848405E+02 -0.20896438138E+01  0.27412788459E+02  0.10566000000E+00 0.  1.
        994    1    1    2    0    0 -0.26064224761E+02  0.68534156833E+01  0.35186070534E+02  0.17684403490E+03  0.17120000000E+03 0.  0.
        998    1    1    2    0    0  0.94136323641E+00  0.39134327218E+01  0.14669035696E+04  0.14669431766E+04  0.10000000000E+02 0.  1.
</event>
<event>
 5    1  0.1218060E-008  0.3810626E+03  0.7957747E-01  0.3446545E+00
         13   -1    0    0    0    0  0.00000000000E+00  0.00000000000E+00  0.14999999963E+04  0.15000000000E+04  0.10566000000E+00 0.  1.
        994   -1    0    0    0    0 -0.00000000000E+00 -0.00000000000E+00  0.11368683772E-12  0.17120000000E+03  0.17120000000E+03 0.  0.
         13    1    1    2    0    0  0.18111295275E+02 -0.15281653730E+01  0.60410224916E+02  0.63085344926E+02  0.10566000000E+00 0.  1.
        994    1    1    2    0    0  0.56894963175E+02  0.11407915739E+02  0.14896983188E+02  0.18137953987E+03  0.17120000000E+03 0.  0.
        998    1    1    2    0    0 -0.75006258450E+02 -0.98797503664E+01  0.14246927882E+04  0.14267351152E+04  0.10000000000E+02 0.  1.
</event>
<event>
 5    1  0.1218060E-008  0.3827489E+03  0.7957747E-01  0.3439276E+00
         13   -1    0    0    0    0  0.00000000000E+00  0.00000000000E+00  0.14999999963E+04  0.15000000000E+04  0.10566000000E+00 0.  1.
        994   -1    0    0    0    0 -0.00000000000E+00 -0.00000000000E+00  0.11368683772E-12  0.17120000000E+03  0.17120000000E+03 0.  0.
         13    1    1    2    0    0 -0.96620610380E+01 -0.45009335039E+01  0.18228042939E+02  0.21116025652E+02  0.10566000000E+00 0.  1.
        994    1    1    2    0    0  0.34387429839E+02  0.12612983899E+01  0.66844838395E+01  0.17475184843E+03  0.17120000000E+03 0.  0.
        998    1    1    2    0    0 -0.24725368801E+02  0.32396351140E+01  0.14750874695E+04  0.14753321259E+04  0.10000000000E+02 0.  1.
</event>
<event>
 5    1  0.1218060E-008  0.3814867E+03  0.7957747E-01  0.3444710E+00
         13   -1    0    0    0    0  0.00000000000E+00  0.00000000000E+00  0.14999999963E+04  0.15000000000E+04  0.10566000000E+00 0. -1.
        994   -1    0    0    0    0 -0.00000000000E+00 -0.00000000000E+00  0.11368683772E-12  0.17120000000E+03  0.17120000000E+03 0.  0.
         13    1    1    2    0    0 -0.13064175767E+02 -0.18855534955E+02  0.82103476534E+02  0.85247849884E+02  0.10566000000E+00 0. -1.
        994    1    1    2    0    0 -0.16474175875E+02  0.12943572817E+02  0.48460474526E+01  0.17254523675E+03  0.17120000000E+03 0.  0.
        998    1    1    2    0    0  0.29538351643E+02  0.59119621389E+01  0.14130504723E+04  0.14134069134E+04  0.10000000000E+02 0. -1.
</event>
<event>
 5    1  0.1218060E-008  0.3793918E+03  0.7957747E-01  0.3453811E+00
         13   -1    0    0    0    0  0.00000000000E+00  0.00000000000E+00  0.14999999963E+04  0.15000000000E+04  0.10566000000E+00 0. -1.
        994   -1    0    0    0    0 -0.00000000000E+00 -0.00000000000E+00  0.11368683772E-12  0.17120000000E+03  0.17120000000E+03 0.  0.
         13    1    1    2    0    0  0.26866044726E+02  0.15744264357E+02  0.10712555491E+03  0.11155967864E+03  0.10566000000E+00 0. -1.
        994    1    1    2    0    0 -0.19518564983E+02 -0.57994628351E+01  0.58304722705E+01  0.17250519573E+03  0.17120000000E+03 0.  0.
        998    1    1    2    0    0 -0.73474797427E+01 -0.99448015219E+01  0.13870439691E+04  0.13871351256E+04  0.10000000000E+02 0. -1.
</event>
<event>
 5    1  0.1218060E-008  0.3839615E+03  0.7957747E-01  0.3434088E+00
         13   -1    0    0    0    0  0.00000000000E+00  0.00000000000E+00  0.14999999963E+04  0.15000000000E+04  0.10566000000E+00 0. -1.
        994   -1    0    0    0    0 -0.00000000000E+00 -0.00000000000E+00  0.11368683772E-12  0.17120000000E+03  0.17120000000E+03 0.  0.
         13    1    1    2    0    0 -0.11851721625E+02  0.15375662516E+01  0.32145995902E+02  0.34295825286E+02  0.10566000000E+00 0. -1.
        994    1    1    2    0    0  0.12660431230E+02  0.22401491050E+01  0.26922564664E+01  0.17170321206E+03  0.17120000000E+03 0.  0.
        998    1    1    2    0    0 -0.80870960474E+00 -0.37777153566E+01  0.14651617439E+04  0.14652009627E+04  0.10000000000E+02 0. -1.
</event>
<event>
 5    1  0.1218060E-008  0.3790951E+03  0.7957747E-01  0.3455108E+00
         13   -1    0    0    0    0  0.00000000000E+00  0.00000000000E+00  0.14999999963E+04  0.15000000000E+04  0.10566000000E+00 0.  1.
        994   -1    0    0    0    0 -0.00000000000E+00 -0.00000000000E+00  0.11368683772E-12  0.17120000000E+03  0.17120000000E+03 0.  0.
         13    1    1    2    0    0  0.72232463813E+01  0.78742453536E+01  0.10535745274E+02  0.15006402656E+02  0.10566000000E+00 0.  1.
        994    1    1    2    0    0 -0.24867769074E+02  0.21589685895E+02  0.82355262299E+01  0.17453304664E+03  0.17120000000E+03 0.  0.
        998    1    1    2    0    0  0.17644522692E+02 -0.29463931248E+02  0.14812287248E+04  0.14816605507E+04  0.10000000000E+02 0.  1.
</event>
<event>
 5    1  0.1218060E-008  0.3831355E+03  0.7957747E-01  0.3437618E+00
         13   -1    0    0    0    0  0.00000000000E+00  0.00000000000E+00  0.14999999963E+04  0.15000000000E+04  0.10566000000E+00 0. -1.
        994   -1    0    0    0    0 -0.00000000000E+00 -0.00000000000E+00  0.11368683772E-12  0.17120000000E+03  0.17120000000E+03 0.  0.
         13    1    1    2    0    0  0.35139248436E+01 -0.25125683603E+02  0.11748832484E+03  0.12019636135E+03  0.10566000000E+00 0. -1.
        994    1    1    2    0    0 -0.11313176704E+02  0.23320780903E+02  0.47847292177E+01  0.17321714818E+03  0.17120000000E+03 0.  0.
        998    1    1    2    0    0  0.77992518606E+01  0.18049027002E+01  0.13777269422E+04  0.13777864905E+04  0.10000000000E+02 0. -1.
</event>
<event>
 5    1  0.1218060E-008  0.3856569E+03  0.7957747E-01  0.3426891E+00
         13   -1    0    0    0    0  0.00000000000E+00  0.00000000000E+00  0.14999999963E+04  0.15000000000E+04  0.10566000000E+00 0.  1.
        994   -1    0    0    0    0 -0.00000000000E+00 -0.00000000000E+00  0.11368683772E-12  0.17120000000E+03  0.17120000000E+03 0.  0.
         13    1    1    2    0    0 -0.43636652045E+01 -0.14474313959E+02  0.83542323195E+02  0.84899224187E+02  0.10566000000E+00 0.  1.
        994    1    1    2    0    0  0.73901385346E+00  0.17243843508E+02  0.22825737835E+01  0.17208296378E+03  0.17120000000E+03 0.  0.
        998    1    1    2    0    0  0.36246513510E+01 -0.27695295496E+01  0.14141750993E+04  0.14142178120E+04  0.10000000000E+02 0.  1.
</event>
<event>
 5    1  0.1218060E-008  0.3844625E+03  0.7957747E-01  0.3431955E+00
         13   -1    0    0    0    0  0.00000000000E+00  0.00000000000E+00  0.14999999963E+04  0.15000000000E+04  0.10566000000E+00 0. -1.
        994   -1    0    0    0    0 -0.00000000000E+00 -0.00000000000E+00  0.11368683772E-12  0.17120000000E+03  0.17120000000E+03 0.  0.
         13    1    1    2    0    0 -0.24337777230E+01 -0.98235549737E+01  0.25900643384E+02  0.27807912508E+02  0.10566000000E+00 0. -1.
        994    1    1    2    0    0  0.20649125781E+01  0.12923794529E+02  0.24617282012E+01  0.17171717571E+03  0.17120000000E+03 0.  0.
        998    1    1    2    0    0  0.36886514492E+00 -0.31002395556E+01  0.14716376247E+04  0.14716749118E+04  0.10000000000E+02 0. -1.
</event>
<event>
 5    1  0.1218060E-008  0.3816268E+03  0.7957747E-01  0.3444106E+00
         13   -1    0    0    0    0  0.00000000000E+00  0.00000000000E+00  0.14999999963E+04  0.15000000000E+04  0.10566000000E+00 0. -1.
        994   -1    0    0    0    0 -0.00000000000E+00 -0.00000000000E+00  0.11368683772E-12  0.17120000000E+03  0.17120000000E+03 0.  0.
         13    1    1    2    0    0 -0.27416077582E+01  0.98007105715E+01  0.14272918313E+02  0.17529908785E+02  0.10566000000E+00 0. -1.
        994    1    1    2    0    0 -0.32178959129E+01 -0.74503330969E+01  0.35332256450E+01  0.17142866155E+03  0.17120000000E+03 0.  0.
        998    1    1    2    0    0  0.59595036711E+01 -0.23503774747E+01  0.14821938523E+04  0.14822414297E+04  0.10000000000E+02 0. -1.
</event>
<event>
 5    1  0.1218060E-008  0.3720444E+03  0.7957747E-01  0.3486547E+00
         13   -1    0    0    0    0  0.00000000000E+00  0.00000000000E+00  0.14999999963E+04  0.15000000000E+04  0.10566000000E+00 0.  1.
        994   -1    0    0    0    0 -0.00000000000E+00 -0.00000000000E+00  0.11368683772E-12  0.17120000000E+03  0.17120000000E+03 0.  0.
         13    1    1    2    0    0  0.38935065014E+02  0.51281194647E+02  0.33640035894E+03  0.34250680704E+03  0.10566000000E+00 0.  1.
        994    1    1    2    0    0  0.11022266157E+02 -0.72259339906E+01  0.88009841270E+01  0.17193196851E+03  0.17120000000E+03 0.  0.
        998    1    1    2    0    0 -0.49957331172E+02 -0.44055260656E+02  0.11547986532E+04  0.11567612245E+04  0.10000000000E+02 0.  1.
</event>
<event>
 5    1  0.1218060E-008  0.3839056E+03  0.7957747E-01  0.3434327E+00
         13   -1    0    0    0    0  0.00000000000E+00  0.00000000000E+00  0.14999999963E+04  0.15000000000E+04  0.10566000000E+00 0. -1.
        994   -1    0    0    0    0 -0.00000000000E+00 -0.00000000000E+00  0.11368683772E-12  0.17120000000E+03  0.17120000000E+03 0.  0.
         13    1    1    2    0    0 -0.13360614101E+02 -0.97389138500E+01  0.82344910427E+02  0.83988379491E+02  0.10566000000E+00 0. -1.
        994    1    1    2    0    0 -0.21057508355E+02 -0.24644095342E+02  0.56500433988E+01  0.17433333899E+03  0.17120000000E+03 0.  0.
        998    1    1    2    0    0  0.34418122457E+02  0.34383009192E+02  0.14120050425E+04  0.14128782815E+04  0.10000000000E+02 0. -1.
</event>
<event>
 5    1  0.1218060E-008  0.3752763E+03  0.7957747E-01  0.3471988E+00
         13   -1    0    0    0    0  0.00000000000E+00  0.00000000000E+00  0.14999999963E+04  0.15000000000E+04  0.10566000000E+00 0. -1.
        994   -1    0    0    0    0 -0.00000000000E+00 -0.00000000000E+00  0.11368683772E-12  0.17120000000E+03  0.17120000000E+03 0.  0.
         13    1    1    2    0    0  0.13208117037E+02  0.13147093648E+02  0.23437219148E+02  0.29943527389E+02  0.10566000000E+00 0. -1.
        994    1    1    2    0    0 -0.22966290522E+02 -0.39828327289E+01  0.83841839843E+01  0.17298279683E+03  0.17120000000E+03 0.  0.
        998    1    1    2    0    0  0.97581734850E+01 -0.91642609195E+01  0.14681785931E+04  0.14682736758E+04  0.10000000000E+02 0. -1.
</event>
<event>
 5    1  0.1218060E-008  0.3793360E+03  0.7957747E-01  0.3454055E+00
         13   -1    0    0    0    0  0.00000000000E+00  0.00000000000E+00  0.14999999963E+04  0.15000000000E+04  0.10566000000E+00 0. -1.
        994   -1    0    0    0    0 -0.00000000000E+00 -0.00000000000E+00  0.11368683772E-12  0.17120000000E+03  0.17120000000E+03 0.  0.
         13    1    1    2    0    0 -0.11006593160E+02 -0.15999567456E+02  0.40312553277E+02  0.44746445306E+02  0.10566000000E+00 0. -1.
        994    1    1    2    0    0  0.77819110907E+00  0.16519257155E+02  0.53855173500E+01  0.17208118792E+03  0.17120000000E+03 0.  0.
        998    1    1    2    0    0  0.10228402051E+02 -0.51968969873E+00  0.14543019257E+04  0.14543723668E+04  0.10000000000E+02 0. -1.
</event>
<event>
 5    1  0.1218060E-008  0.3834650E+03  0.7957747E-01  0.3436209E+00
         13   -1    0    0    0    0  0.00000000000E+00  0.00000000000E+00  0.14999999963E+04  0.15000000000E+04  0.10566000000E+00 0. -1.
        994   -1    0    0    0    0 -0.00000000000E+00 -0.00000000000E+00  0.11368683772E-12  0.17120000000E+03  0.17120000000E+03 0.  0.
         13    1    1    2    0    0  0.85779078910E+01 -0.61823243690E+01  0.22560351058E+02  0.24915502048E+02  0.10566000000E+00 0. -1.
        994    1    1    2    0    0 -0.94776465456E+01 -0.13302029905E+01  0.26969693085E+01  0.17148850943E+03  0.17120000000E+03 0.  0.
        998    1    1    2    0    0  0.89973865456E+00  0.75125273595E+01  0.14747426759E+04  0.14747959885E+04  0.10000000000E+02 0. -1.
</event>
<event>
 5    1  0.1218060E-008  0.3859368E+03  0.7957747E-01  0.3425709E+00
         13   -1    0    0    0    0  0.00000000000E+00  0.00000000000E+00  0.14999999963E+04  0.15000000000E+04  0.10566000000E+00 0. -1.
        994   -1    0    0    0    0 -0.00000000000E+00 -0.00000000000E+00  0.11368683772E-12  0.17120000000E+03  0.17120000000E+03 0.  0.
         13    1    1    2    0    0 -0.63246224438E+01 -0.12250053398E+02  0.82812654463E+02  0.83952436299E+02  0.10566000000E+00 0. -1.
        994    1    1    2    0    0  0.30134663357E+01  0.78846063091E+01  0.13993654485E+01  0.17141366987E+03  0.17120000000E+03 0.  0.
        998    1    1    2    0    0  0.33111561082E+01  0.43654470893E+01  0.14157879764E+04  0.14158338938E+04  0.10000000000E+02 0. -1.
</event>
<event>
 5    1  0.1218060E-008  0.3818691E+03  0.7957747E-01  0.3443060E+00
         13   -1    0    0    0    0  0.00000000000E+00  0.00000000000E+00  0.14999999963E+04  0.15000000000E+04  0.10566000000E+00 0.  1.
        994   -1    0    0    0    0 -0.00000000000E+00 -0.00000000000E+00  0.11368683772E-12  0.17120000000E+03  0.17120000000E+03 0.  0.
         13    1    1    2    0    0  0.21894760379E+02 -0.12727145556E+02  0.11994451548E+03  0.12258898288E+03  0.10566000000E+00 0.  1.
        994    1    1    2    0    0  0.45106317311E+01 -0.18286659318E+02  0.43721000195E+01  0.17228842958E+03  0.17120000000E+03 0.  0.
        998    1    1    2    0    0 -0.26405392110E+02  0.31013804874E+02  0.13756833808E+04  0.13763225875E+04  0.10000000000E+02 0.  1.
</event>
<event>
 5    1  0.1218060E-008  0.3715683E+03  0.7957747E-01  0.3488714E+00
         13   -1    0    0    0    0  0.00000000000E+00  0.00000000000E+00  0.14999999963E+04  0.15000000000E+04  0.10566000000E+00 0.  1.
        994   -1    0    0    0    0 -0.00000000000E+00 -0.00000000000E+00  0.11368683772E-12  0.17120000000E+03  0.17120000000E+03 0.  0.
         13    1    1    2    0    0 -0.46211281192E+02  0.27353193433E+02  0.15711186593E+03  0.16603562654E+03  0.10566000000E+00 0.  1.
        994    1    1    2    0    0  0.43310432233E+02 -0.16768609549E+02  0.15906314593E+02  0.17809949649E+03  0.17120000000E+03 0.  0.
        998    1    1    2    0    0  0.29008489589E+01 -0.10584583883E+02  0.13269818158E+04  0.13270648770E+04  0.10000000000E+02 0.  1.
</event>
<event>
 5    1  0.1218060E-008  0.3847933E+03  0.7957747E-01  0.3430549E+00
         13   -1    0    0    0    0  0.00000000000E+00  0.00000000000E+00  0.14999999963E+04  0.15000000000E+04  0.10566000000E+00 0. -1.
        994   -1    0    0    0    0 -0.00000000000E+00 -0.00000000000E+00  0.11368683772E-12  0.17120000000E+03  0.17120000000E+03 0.  0.
         13    1    1    2    0    0 -0.15759696508E+01 -0.10638893177E+02  0.32931829536E+02  0.34643704897E+02  0.10566000000E+00 0. -1.
        994    1    1    2    0    0  0.27271074636E+01  0.81002087111E+01  0.19732230187E+01  0.17142457264E+03  0.17120000000E+03 0.  0.
        998    1    1    2    0    0 -0.11511378128E+01  0.25386844656E+01  0.14650949437E+04  0.14651317225E+04  0.10000000000E+02 0. -1.
</event>
<event>
 5    1  0.1218060E-008  0.3837673E+03  0.7957747E-01  0.3434917E+00
         13   -1    0    0    0    0  0.00000000000E+00  0.00000000000E+00  0.14999999963E+04  0.15000000000E+04  0.10566000000E+00 0. -1.
        994   -1    0    0    0    0 -0.00000000000E+00 -0.00000000000E+00  0.11368683772E-12  0.17120000000E+03  0.17120000000E+03 0.  0.
         13    1    1    2    0    0 -0.10340525046E+02  0.79664010597E+01  0.36967912836E+02  0.39204945447E+02  0.10566000000E+00 0. -1.
        994    1    1    2    0    0  0.74405890231E+01 -0.89394708634E+01  0.26901853998E+01  0.17161571490E+03  0.17120000000E+03 0.  0.
        998    1    1    2    0    0  0.28999360230E+01  0.97306980375E+00  0.14603418980E+04  0.14603793396E+04  0.10000000000E+02 0. -1.
</event>
<event>
 5    1  0.1218060E-008  0.3833449E+03  0.7957747E-01  0.3436722E+00
         13   -1    0    0    0    0  0.00000000000E+00  0.00000000000E+00  0.14999999963E+04  0.15000000000E+04  0.10566000000E+00 0. -1.
        994   -1    0    0    0    0 -0.00000000000E+00 -0.00000000000E+00  0.11368683772E-12  0.17120000000E+03  0.17120000000E+03 0.  0.
         13    1    1    2    0    0 -0.19223327356E+02  0.35324637879E+01  0.75082715226E+02  0.77585049492E+02  0.10566000000E+00 0. -1.
        994    1    1    2    0    0  0.16542437549E+02 -0.62993399455E+01  0.34908016784E+01  0.17214807469E+03  0.17120000000E+03 0.  0.
        998    1    1    2    0    0  0.26808898064E+01  0.27668761576E+01  0.14214264794E+04  0.14214668758E+04  0.10000000000E+02 0. -1.
</event>
<event>
 5    1  0.1218060E-008  0.3833583E+03  0.7957747E-01  0.3436665E+00
         13   -1    0    0    0    0  0.00000000000E+00  0.00000000000E+00  0.14999999963E+04  0.15000000000E+04  0.10566000000E+00 0.  1.
        994   -1    0    0    0    0 -0.00000000000E+00 -0.00000000000E+00  0.11368683772E-12  0.17120000000E+03  0.17120000000E+03 0.  0.
         13    1    1    2    0    0 -0.21833071656E+02 -0.34176111726E+01  0.97306669482E+02  0.99784578838E+02  0.10566000000E+00 0.  1.
        994    1    1    2    0    0  0.17489239293E+02 -0.35980186446E+01  0.35022080040E+01  0.17216423755E+03  0.17120000000E+03 0.  0.
        998    1    1    2    0    0  0.43438323625E+01  0.70156298172E+01  0.13991911188E+04  0.13992511836E+04  0.10000000000E+02 0.  1.
</event>
<event>
 5    1  0.1218060E-008  0.3797777E+03  0.7957747E-01  0.3452127E+00
         13   -1    0    0    0    0  0.00000000000E+00  0.00000000000E+00  0.14999999963E+04  0.15000000000E+04  0.10566000000E+00 0.  1.
        994   -1    0    0    0    0 -0.00000000000E+00 -0.00000000000E+00  0.11368683772E-12  0.17120000000E+03  0.17120000000E+03 0.  0.
         13    1    1    2    0    0  0.15009585576E+03 -0.38633662161E+02  0.86386888484E+03  0.87766211445E+03  0.10566000000E+00 0.  1.
        994    1    1    2    0    0 -0.15938840781E+03  0.36809678544E+02  0.99687650569E+02  0.25691766124E+03  0.17120000000E+03 0.  0.
        998    1    1    2    0    0  0.92925520526E+01  0.18239836167E+01  0.53644346087E+03  0.53662022432E+03  0.10000000000E+02 0.  1.
</event>
<event>
 5    1  0.1218060E-008  0.3832420E+03  0.7957747E-01  0.3437162E+00
         13   -1    0    0    0    0  0.00000000000E+00  0.00000000000E+00  0.14999999963E+04  0.15000000000E+04  0.10566000000E+00 0. -1.
        994   -1    0    0    0    0 -0.00000000000E+00 -0.00000000000E+00  0.11368683772E-12  0.17120000000E+03  0.17120000000E+03 0.  0.
         13    1    1    2    0    0  0.11242874116E+02 -0.21396950410E+02  0.10705409556E+03  0.10974890544E+03  0.10566000000E+00 0. -1.
        994    1    1    2    0    0 -0.11260713334E+02  0.24531425922E+02  0.49190006130E+01  0.17338463337E+03  0.17120000000E+03 0.  0.
        998    1    1    2    0    0  0.17839218328E-01 -0.31344755123E+01  0.13880269001E+04  0.13880664612E+04  0.10000000000E+02 0. -1.
</event>
<event>
 5    1  0.1218060E-008  0.3716703E+03  0.7957747E-01  0.3488249E+00
         13   -1    0    0    0    0  0.00000000000E+00  0.00000000000E+00  0.14999999963E+04  0.15000000000E+04  0.10566000000E+00 0.  1.
        994   -1    0    0    0    0 -0.00000000000E+00 -0.00000000000E+00  0.11368683772E-12  0.17120000000E+03  0.17120000000E+03 0.  0.
         13    1    1    2    0    0 -0.32573319536E+02  0.28575680951E+02  0.73044407490E+02  0.84929896485E+02  0.10566000000E+00 0.  1.
        994    1    1    2    0    0  0.28770360495E+02 -0.24446684695E+02  0.16853853792E+02  0.17612173751E+03  0.17120000000E+03 0.  0.
        998    1    1    2    0    0  0.38029590403E+01 -0.41289962556E+01  0.14101017350E+04  0.14101483660E+04  0.10000000000E+02 0.  1.
</event>
<event>
 5    1  0.1218060E-008  0.3833390E+03  0.7957747E-01  0.3436747E+00
         13   -1    0    0    0    0  0.00000000000E+00  0.00000000000E+00  0.14999999963E+04  0.15000000000E+04  0.10566000000E+00 0. -1.
        994   -1    0    0    0    0 -0.00000000000E+00 -0.00000000000E+00  0.11368683772E-12  0.17120000000E+03  0.17120000000E+03 0.  0.
         13    1    1    2    0    0  0.29108480937E+02 -0.99326241896E+01  0.18488218765E+03  0.18742303796E+03  0.10566000000E+00 0. -1.
        994    1    1    2    0    0 -0.25399833771E+02 -0.46743904592E+01  0.46655624986E+01  0.17319991038E+03  0.17120000000E+03 0.  0.
        998    1    1    2    0    0 -0.37086471667E+01  0.14607014649E+02  0.13104522461E+04  0.13105770517E+04  0.10000000000E+02 0. -1.
</event>
<event>
 5    1  0.1218060E-008  0.3131076E+03  0.7957747E-01  0.3806670E+00
         13   -1    0    0    0    0  0.00000000000E+00  0.00000000000E+00  0.14999999963E+04  0.15000000000E+04  0.10566000000E+00 0. -1.
        994   -1    0    0    0    0 -0.00000000000E+00 -0.00000000000E+00  0.11368683772E-12  0.17120000000E+03  0.17120000000E+03 0.  0.
         13    1    1    2    0    0 -0.55529064985E+02  0.17723907207E+03  0.82242102230E+03  0.84313315366E+03  0.10566000000E+00 0. -1.
        994    1    1    2    0    0  0.15801448376E+02 -0.13408153917E+03  0.87399255778E+02  0.23489490167E+03  0.17120000000E+03 0.  0.
        998    1    1    2    0    0  0.39727616609E+02 -0.43157532891E+02  0.59017971820E+03  0.59317194467E+03  0.10000000000E+02 0. -1.
</event>
<event>
 5    1  0.1218060E-008  0.3787973E+03  0.7957747E-01  0.3456412E+00
         13   -1    0    0    0    0  0.00000000000E+00  0.00000000000E+00  0.14999999963E+04  0.15000000000E+04  0.10566000000E+00 0. -1.
        994   -1    0    0    0    0 -0.00000000000E+00 -0.00000000000E+00  0.11368683772E-12  0.17120000000E+03  0.17120000000E+03 0.  0.
         13    1    1    2    0    0  0.13435047011E+03  0.12979742990E+03  0.96756047605E+03  0.98542919970E+03  0.10566000000E+00 0. -1.
        994    1    1    2    0    0 -0.13501293647E+03 -0.13127013771E+03  0.13478533333E+03  0.28798761805E+03  0.17120000000E+03 0.  0.
        998    1    1    2    0    0  0.66246636464E+00  0.14727078076E+01  0.39765418689E+03  0.39778318225E+03  0.10000000000E+02 0.  0.
</event>
<event>
 5    1  0.1218060E-008  0.3804820E+03  0.7957747E-01  0.3449062E+00
         13   -1    0    0    0    0  0.00000000000E+00  0.00000000000E+00  0.14999999963E+04  0.15000000000E+04  0.10566000000E+00 0. -1.
        994   -1    0    0    0    0 -0.00000000000E+00 -0.00000000000E+00  0.11368683772E-12  0.17120000000E+03  0.17120000000E+03 0.  0.
         13    1    1    2    0    0 -0.99734359107E+01  0.15561330596E+02  0.64763399634E+02  0.67349339492E+02  0.10566000000E+00 0. -1.
        994    1    1    2    0    0 -0.44060479967E+02  0.67421019938E+02  0.25853228518E+02  0.19095745403E+03  0.17120000000E+03 0.  0.
        998    1    1    2    0    0  0.54033915878E+02 -0.82982350533E+02  0.14093833681E+04  0.14128932065E+04  0.10000000000E+02 0. -1.
</event>
<event>
 5    1  0.1218060E-008  0.3856117E+03  0.7957747E-01  0.3427082E+00
         13   -1    0    0    0    0  0.00000000000E+00  0.00000000000E+00  0.14999999963E+04  0.15000000000E+04  0.10566000000E+00 0.  1.
        994   -1    0    0    0    0 -0.00000000000E+00 -0.00000000000E+00  0.11368683772E-12  0.17120000000E+03  0.17120000000E+03 0.  0.
         13    1    1    2    0    0 -0.92865857903E+01 -0.69513990326E+01  0.48200032611E+02  0.49576374735E+02  0.10566000000E+00 0.  1.
        994    1    1    2    0    0  0.14398773337E+02  0.95811102505E+01  0.23091132900E+01  0.17208688024E+03  0.17120000000E+03 0.  0.
        998    1    1    2    0    0 -0.51121875467E+01 -0.26297112179E+01  0.14494908504E+04  0.14495367450E+04  0.10000000000E+02 0.  1.
</event>
<event>
 5    1  0.1218060E-008  0.3809574E+03  0.7957747E-01  0.3447001E+00
         13   -1    0    0    0    0  0.00000000000E+00  0.00000000000E+00  0.14999999963E+04  0.15000000000E+04  0.10566000000E+00 0.  1.
        994   -1    0    0    0    0 -0.00000000000E+00 -0.00000000000E+00  0.11368683772E-12  0.17120000000E+03  0.17120000000E+03 0.  0.
         13    1    1    2    0    0  0.32634653753E+02  0.39541642885E+02  0.29646453870E+03  0.30086507943E+03  0.10566000000E+00 0.  1.
        994    1    1    2    0    0 -0.17720309855E+02 -0.50141062538E+02  0.13133121698E+02  0.17974997752E+03  0.17120000000E+03 0.  0.
        998    1    1    2    0    0 -0.14914343899E+02  0.10599419653E+02  0.11904023359E+04  0.11905849430E+04  0.10000000000E+02 0.  1.
</event>
<event>
 5    1  0.1218060E-008  0.3822593E+03  0.7957747E-01  0.3441380E+00
         13   -1    0    0    0    0  0.00000000000E+00  0.00000000000E+00  0.14999999963E+04  0.15000000000E+04  0.10566000000E+00 0. -1.
        994   -1    0    0    0    0 -0.00000000000E+00 -0.00000000000E+00  0.11368683772E-12  0.17120000000E+03  0.17120000000E+03 0.  0.
         13    1    1    2    0    0 -0.95594330208E+01 -0.39953759573E+02  0.23606606355E+03  0.23961402961E+03  0.10566000000E+00 0. -1.
        994    1    1    2    0    0 -0.13903360576E+01  0.44367512008E+02  0.95628182692E+01  0.17711944176E+03  0.17120000000E+03 0.  0.
        998    1    1    2    0    0  0.10949769078E+02 -0.44137524350E+01  0.12543711145E+04  0.12544665286E+04  0.10000000000E+02 0. -1.
</event>
<event>
 5    1  0.1218060E-008  0.3777181E+03  0.7957747E-01  0.3461155E+00
         13   -1    0    0    0    0  0.00000000000E+00  0.00000000000E+00  0.14999999963E+04  0.15000000000E+04  0.10566000000E+00 0.  1.
        994   -1    0    0    0    0 -0.00000000000E+00 -0.00000000000E+00  0.11368683772E-12  0.17120000000E+03  0.17120000000E+03 0.  0.
         13    1    1    2    0    0 -0.14267689623E+02 -0.73195878220E+02  0.16290920513E+03  0.17916646962E+03  0.10566000000E+00 0.  1.
        994    1    1    2    0    0  0.10228862220E+02  0.70423635184E+02  0.33509891372E+02  0.18840507115E+03  0.17120000000E+03 0.  0.
        998    1    1    2    0    0  0.40388274026E+01  0.27722430367E+01  0.13035808998E+04  0.13036284592E+04  0.10000000000E+02 0.  1.
</event>
<event>
 5    1  0.1218060E-008  0.3686812E+03  0.7957747E-01  0.3501974E+00
         13   -1    0    0    0    0  0.00000000000E+00  0.00000000000E+00  0.14999999963E+04  0.15000000000E+04  0.10566000000E+00 0. -1.
        994   -1    0    0    0    0 -0.00000000000E+00 -0.00000000000E+00  0.11368683772E-12  0.17120000000E+03  0.17120000000E+03 0.  0.
         13    1    1    2    0    0 -0.76824262444E+02  0.40523084383E+02  0.30080274665E+03  0.31309166584E+03  0.10566000000E+00 0. -1.
        994    1    1    2    0    0  0.79875504584E+02 -0.32480111291E+02  0.36249687715E+02  0.19508596495E+03  0.17120000000E+03 0.  0.
        998    1    1    2    0    0 -0.30512421393E+01 -0.80429730920E+01  0.11629475619E+04  0.11630223692E+04  0.10000000000E+02 0. -1.
</event>
<event>
 5    1  0.1218060E-008  0.3732659E+03  0.7957747E-01  0.3481015E+00
         13   -1    0    0    0    0  0.00000000000E+00  0.00000000000E+00  0.14999999963E+04  0.15000000000E+04  0.10566000000E+00 0.  1.
        994   -1    0    0    0    0 -0.00000000000E+00 -0.00000000000E+00  0.11368683772E-12  0.17120000000E+03  0.17120000000E+03 0.  0.
         13    1    1    2    0    0  0.13105953030E+03 -0.15255622125E+03  0.89570562726E+03  0.91800794277E+03  0.10566000000E+00 0.  1.
        994    1    1    2    0    0 -0.15242632805E+03  0.13280815506E+03  0.16346606555E+03  0.31129148096E+03  0.17120000000E+03 0.  0.
        998    1    1    2    0    0  0.21366797751E+02  0.19748066184E+02  0.44082830347E+03  0.44190057627E+03  0.10000000000E+02 0.  1.
</event>
<event>
 5    1  0.1218060E-008  0.3848812E+03  0.7957747E-01  0.3430176E+00
         13   -1    0    0    0    0  0.00000000000E+00  0.00000000000E+00  0.14999999963E+04  0.15000000000E+04  0.10566000000E+00 0.  1.
        994   -1    0    0    0    0 -0.00000000000E+00 -0.00000000000E+00  0.11368683772E-12  0.17120000000E+03  0.17120000000E+03 0.  0.
         13    1    1    2    0    0  0.41027184626E+00 -0.21879892116E+02  0.11594338120E+03  0.11799057933E+03  0.10566000000E+00 0.  1.
        994    1    1    2    0    0 -0.32707307638E+02  0.39790362914E+02  0.10466616629E+02  0.17908665784E+03  0.17120000000E+03 0.  0.
        998    1    1    2    0    0  0.32297035791E+02 -0.17910470798E+02  0.13735899985E+04  0.13741227628E+04  0.10000000000E+02 0.  1.
</event>
<event>
 5    1  0.1218060E-008  0.3855090E+03  0.7957747E-01  0.3427516E+00
         13   -1    0    0    0    0  0.00000000000E+00  0.00000000000E+00  0.14999999963E+04  0.15000000000E+04  0.10566000000E+00 0.  1.
        994   -1    0    0    0    0 -0.00000000000E+00 -0.00000000000E+00  0.11368683772E-12  0.17120000000E+03  0.17120000000E+03 0.  0.
         13    1    1    2    0    0  0.45185145543E+01 -0.11456371012E+02  0.54861469206E+02  0.56226838591E+02  0.10566000000E+00 0.  1.
        994    1    1    2    0    0  0.19162087402E+01  0.11052375279E+02  0.17908443943E+01  0.17157643771E+03  0.17120000000E+03 0.  0.
        998    1    1    2    0    0 -0.64347232945E+01  0.40399573312E+00  0.14433476827E+04  0.14433967237E+04  0.10000000000E+02 0.  1.
</event>
<event>
 5    1  0.1218060E-008  0.3843290E+03  0.7957747E-01  0.3432523E+00
         13   -1    0    0    0    0  0.00000000000E+00  0.00000000000E+00  0.14999999963E+04  0.15000000000E+04  0.10566000000E+00 0. -1.
        994   -1    0    0    0    0 -0.00000000000E+00 -0.00000000000E+00  0.11368683772E-12  0.17120000000E+03  0.17120000000E+03 0.  0.
         13    1    1    2    0    0  0.98217541113E+01 -0.45092069560E+01  0.29018083907E+02  0.30965467199E+02  0.10566000000E+00 0. -1.
        994    1    1    2    0    0 -0.10367816165E+02 -0.73393194195E-01  0.23180018061E+01  0.17152932732E+03  0.17120000000E+03 0.  0.
        998    1    1    2    0    0  0.54606205324E+00  0.45826001502E+01  0.14686639106E+04  0.14687052055E+04  0.10000000000E+02 0. -1.
</event>
<event>
 5    1  0.1218060E-008  0.4156315E+03  0.7957747E-01  0.3309316E+00
         13   -1    0    0    0    0  0.00000000000E+00  0.00000000000E+00  0.14999999963E+04  0.15000000000E+04  0.10566000000E+00 0. -1.
        994   -1    0    0    0    0 -0.00000000000E+00 -0.00000000000E+00  0.11368683772E-12  0.17120000000E+03  0.17120000000E+03 0.  0.
         13    1    1    2    0    0  0.60872217386E+02  0.58782332707E+02  0.80458195660E+02  0.11676609911E+03  0.10566000000E+00 0. -1.
        994    1    1    2    0    0 -0.60521786506E+02 -0.54918399622E+02  0.66014073067E+02  0.20086367293E+03  0.17120000000E+03 0.  0.
        998    1    1    2    0    0 -0.35043088033E+00 -0.38639330859E+01  0.13535277276E+04  0.13535702280E+04  0.10000000000E+02 0. -1.
</event>
<event>
 5    1  0.1218060E-008  0.3841641E+03  0.7957747E-01  0.3433225E+00
         13   -1    0    0    0    0  0.00000000000E+00  0.00000000000E+00  0.14999999963E+04  0.15000000000E+04  0.10566000000E+00 0. -1.
        994   -1    0    0    0    0 -0.00000000000E+00 -0.00000000000E+00  0.11368683772E-12  0.17120000000E+03  0.17120000000E+03 0.  0.
         13    1    1    2    0    0  0.24859865134E+02  0.84386480030E+01  0.15776809471E+03  0.15993750826E+03  0.10566000000E+00 0. -1.
        994    1    1    2    0    0 -0.19317360440E+02 -0.14721989878E+02  0.39933539079E+01  0.17296035464E+03  0.17120000000E+03 0.  0.
        998    1    1    2    0    0 -0.55425046948E+01  0.62833418752E+01  0.13382385477E+04  0.13383021371E+04  0.10000000000E+02 0. -1.
</event>
<event>
 5    1  0.1218060E-008  0.3717580E+03  0.7957747E-01  0.3487850E+00
         13   -1    0    0    0    0  0.00000000000E+00  0.00000000000E+00  0.14999999963E+04  0.15000000000E+04  0.10566000000E+00 0. -1.
        994   -1    0    0    0    0 -0.00000000000E+00 -0.00000000000E+00  0.11368683772E-12  0.17120000000E+03  0.17120000000E+03 0.  0.
         13    1    1    2    0    0  0.88807269045E+02  0.23043505325E+03  0.82789301155E+03  0.86394090917E+03  0.10566000000E+00 0. -1.
        994    1    1    2    0    0 -0.91259422625E+02 -0.23853095845E+03  0.28283970657E+03  0.41777151647E+03  0.17120000000E+03 0.  0.
        998    1    1    2    0    0  0.24521535799E+01  0.80959052032E+01  0.38926727815E+03  0.38948757436E+03  0.10000000000E+02 0.  0.
</event>
<event>
 5    1  0.1218060E-008  0.3976280E+03  0.7957747E-01  0.3377820E+00
         13   -1    0    0    0    0  0.00000000000E+00  0.00000000000E+00  0.14999999963E+04  0.15000000000E+04  0.10566000000E+00 0. -1.
        994   -1    0    0    0    0 -0.00000000000E+00 -0.00000000000E+00  0.11368683772E-12  0.17120000000E+03  0.17120000000E+03 0.  0.
         13    1    1    2    0    0  0.45792494975E+02 -0.34156034488E+02  0.55274632146E+02  0.79491404635E+02  0.10566000000E+00 0. -1.
        994    1    1    2    0    0 -0.18905962015E+01  0.38398248751E+02  0.32119685084E+02  0.17837913003E+03  0.17120000000E+03 0.  0.
        998    1    1    2    0    0 -0.43901898773E+02 -0.42422142632E+01  0.14126056790E+04  0.14133294653E+04  0.10000000000E+02 0. -1.
</event>
<event>
 5    1  0.1218060E-008  0.3824681E+03  0.7957747E-01  0.3440482E+00
         13   -1    0    0    0    0  0.00000000000E+00  0.00000000000E+00  0.14999999963E+04  0.15000000000E+04  0.10566000000E+00 0. -1.
        994   -1    0    0    0    0 -0.00000000000E+00 -0.00000000000E+00  0.11368683772E-12  0.17120000000E+03  0.17120000000E+03 0.  0.
         13    1    1    2    0    0  0.74164173550E+02  0.33183417568E+02  0.16271830154E+03  0.18187556366E+03  0.10566000000E+00 0. -1.
        994    1    1    2    0    0 -0.75808139865E+02 -0.25681274104E+02  0.41510006155E+02  0.19349140167E+03  0.17120000000E+03 0.  0.
        998    1    1    2    0    0  0.16439663156E+01 -0.75021434641E+01  0.12957716886E+04  0.12958330347E+04  0.10000000000E+02 0. -1.
</event>
<event>
 5    1  0.1218060E-008  0.3847887E+03  0.7957747E-01  0.3430569E+00
         13   -1    0    0    0    0  0.00000000000E+00  0.00000000000E+00  0.14999999963E+04  0.15000000000E+04  0.10566000000E+00 0. -1.
        994   -1    0    0    0    0 -0.00000000000E+00 -0.00000000000E+00  0.11368683772E-12  0.17120000000E+03  0.17120000000E+03 0.  0.
         13    1    1    2    0    0  0.79498828088E+01 -0.94667856354E+01  0.43770538457E+02  0.45482874445E+02  0.10566000000E+00 0. -1.
        994    1    1    2    0    0 -0.66689441276E+01  0.56903455245E+01  0.19880209971E+01  0.17143583953E+03  0.17120000000E+03 0.  0.
        998    1    1    2    0    0 -0.12809386812E+01  0.37764401109E+01  0.14542414368E+04  0.14542812860E+04  0.10000000000E+02 0. -1.
</event>
<event>
 5    1  0.1218060E-008  0.3797716E+03  0.7957747E-01  0.3452154E+00
         13   -1    0    0    0    0  0.00000000000E+00  0.00000000000E+00  0.14999999963E+04  0.15000000000E+04  0.10566000000E+00 0. -1.
        994   -1    0    0    0    0 -0.00000000000E+00 -0.00000000000E+00  0.11368683772E-12  0.17120000000E+03  0.17120000000E+03 0.  0.
         13    1    1    2    0    0  0.17504709808E+02 -0.22778838241E+01  0.34420694591E+02  0.38683316822E+02  0.10566000000E+00 0. -1.
        994    1    1    2    0    0 -0.16747559341E+02  0.43878426000E+01  0.52518698184E+01  0.17215329228E+03  0.17120000000E+03 0.  0.
        998    1    1    2    0    0 -0.75715046699E+00 -0.21099587758E+01  0.14603274319E+04  0.14603633909E+04  0.10000000000E+02 0. -1.
</event>
<event>
 5    1  0.1218060E-008  0.3764473E+03  0.7957747E-01  0.3466775E+00
         13   -1    0    0    0    0  0.00000000000E+00  0.00000000000E+00  0.14999999963E+04  0.15000000000E+04  0.10566000000E+00 0. -1.
        994   -1    0    0    0    0 -0.00000000000E+00 -0.00000000000E+00  0.11368683772E-12  0.17120000000E+03  0.17120000000E+03 0.  0.
         13    1    1    2    0    0  0.15662515601E+02  0.28660292167E+01  0.18707398313E+02  0.24566367947E+02  0.10566000000E+00 0. -1.
        994    1    1    2    0    0 -0.13541414305E+02  0.45053574816E+00  0.65586154120E+01  0.17186049086E+03  0.17120000000E+03 0.  0.
        998    1    1    2    0    0 -0.21211012963E+01 -0.33165649649E+01  0.14747339826E+04  0.14747731412E+04  0.10000000000E+02 0. -1.
</event>
<event>
 5    1  0.1218060E-008  0.3830679E+03  0.7957747E-01  0.3437908E+00
         13   -1    0    0    0    0  0.00000000000E+00  0.00000000000E+00  0.14999999963E+04  0.15000000000E+04  0.10566000000E+00 0.  1.
        994   -1    0    0    0    0 -0.00000000000E+00 -0.00000000000E+00  0.11368683772E-12  0.17120000000E+03  0.17120000000E+03 0.  0.
         13    1    1    2    0    0  0.12030162703E+02  0.15847516044E+02  0.70933052309E+02  0.73670738108E+02  0.10566000000E+00 0.  1.
        994    1    1    2    0    0 -0.16967153354E+02 -0.18227394275E+02  0.46473620812E+01  0.17306403488E+03  0.17120000000E+03 0.  0.
        998    1    1    2    0    0  0.49369906514E+01  0.23798782305E+01  0.14244195819E+04  0.14244652270E+04  0.10000000000E+02 0.  1.
</event>
<event>
 5    1  0.1218060E-008  0.3058957E+03  0.7957747E-01  0.3854808E+00
         13   -1    0    0    0    0  0.00000000000E+00  0.00000000000E+00  0.14999999963E+04  0.15000000000E+04  0.10566000000E+00 0.  1.
        994   -1    0    0    0    0 -0.00000000000E+00 -0.00000000000E+00  0.11368683772E-12  0.17120000000E+03  0.17120000000E+03 0.  0.
         13    1    1    2    0    0 -0.22175288374E+03  0.27495596846E+02  0.54547101633E+03  0.58946500330E+03  0.10566000000E+00 0.  1.
        994    1    1    2    0    0  0.24890693645E+03  0.16721875228E+02  0.30345211204E+03  0.42851710400E+03  0.17120000000E+03 0.  0.
        998    1    1    2    0    0 -0.27154052709E+02 -0.44217472075E+02  0.65107686791E+03  0.65321789270E+03  0.10000000000E+02 0. -1.
</event>
<event>
 5    1  0.1461507E-008  0.3862495E+03  0.7957747E-01  0.3424390E+00
         13   -1    0    0    0    0  0.00000000000E+00  0.00000000000E+00  0.14999999963E+04  0.15000000000E+04  0.10566000000E+00 0.  1.
        994   -1    0    0    0    0 -0.00000000000E+00 -0.00000000000E+00  0.11368683772E-12  0.17120000000E+03  0.17120000000E+03 0.  0.
         13    1    1    2    0    0  0.95760176491E+01  0.46696852165E+01  0.55367859394E+02  0.56383659796E+02  0.10566000000E+00 0.  1.
        994    1    1    2    0    0 -0.11296290345E+02 -0.25416702215E+01  0.14502666227E+01  0.17159723056E+03  0.17120000000E+03 0.  0.
        998    1    1    2    0    0  0.17202726959E+01 -0.21280149950E+01  0.14431818703E+04  0.14432191096E+04  0.10000000000E+02 0.  1.
</event>
<event>
 5    1  0.1218060E-008  0.3835635E+03  0.7957747E-01  0.3435788E+00
         13   -1    0    0    0    0  0.00000000000E+00  0.00000000000E+00  0.14999999963E+04  0.15000000000E+04  0.10566000000E+00 0. -1.
        994   -1    0    0    0    0 -0.00000000000E+00 -0.00000000000E+00  0.11368683772E-12  0.17120000000E+03  0.17120000000E+03 0.  0.
         13    1    1    2    0    0  0.50522884966E+02 -0.85092388463E+02  0.32565699527E+03  0.34036122901E+03  0.10566000000E+00 0. -1.
        994    1    1    2    0    0  0.35596626481E+02  0.46661651977E+02  0.31056261871E+02  0.18362560002E+03  0.17120000000E+03 0.  0.
        998    1    1    2    0    0 -0.86119511447E+02  0.38430736487E+02  0.11432867391E+04  0.11472131710E+04  0.10000000000E+02 0. -1.
</event>
<event>
 5    1  0.1218060E-008  0.3830355E+03  0.7957747E-01  0.3438047E+00
         13   -1    0    0    0    0  0.00000000000E+00  0.00000000000E+00  0.14999999963E+04  0.15000000000E+04  0.10566000000E+00 0.  1.
        994   -1    0    0    0    0 -0.00000000000E+00 -0.00000000000E+00  0.11368683772E-12  0.17120000000E+03  0.17120000000E+03 0.  0.
         13    1    1    2    0    0  0.13301160121E+02  0.41732414312E+01  0.36264552430E+02  0.38851843349E+02  0.10566000000E+00 0.  1.
        994    1    1    2    0    0 -0.12265516587E+02  0.41542575571E+01  0.31638568019E+01  0.17171823067E+03  0.17120000000E+03 0.  0.
        998    1    1    2    0    0 -0.10356435347E+01 -0.83274989883E+01  0.14605715870E+04  0.14606299260E+04  0.10000000000E+02 0.  1.
</event>
<event>
 5    1  0.1218060E-008  0.3856142E+03  0.7957747E-01  0.3427072E+00
         13   -1    0    0    0    0  0.00000000000E+00  0.00000000000E+00  0.14999999963E+04  0.15000000000E+04  0.10566000000E+00 0.  1.
        994   -1    0    0    0    0 -0.00000000000E+00 -0.00000000000E+00  0.11368683772E-12  0.17120000000E+03  0.17120000000E+03 0.  0.
         13    1    1    2    0    0  0.32381413487E+01 -0.12209744265E+02  0.60962677388E+02  0.62257711271E+02  0.10566000000E+00 0.  1.
        994    1    1    2    0    0 -0.13517013785E+01  0.73611497794E+01  0.15093864075E+01  0.17137016038E+03  0.17120000000E+03 0.  0.
        998    1    1    2    0    0 -0.18864399702E+01  0.48485944852E+01  0.14375279325E+04  0.14375721283E+04  0.10000000000E+02 0.  0.
</event>
<event>
 5    1  0.1218060E-008  0.3703077E+03  0.7957747E-01  0.3494478E+00
         13   -1    0    0    0    0  0.00000000000E+00  0.00000000000E+00  0.14999999963E+04  0.15000000000E+04  0.10566000000E+00 0.  1.
        994   -1    0    0    0    0 -0.00000000000E+00 -0.00000000000E+00  0.11368683772E-12  0.17120000000E+03  0.17120000000E+03 0.  0.
         13    1    1    2    0    0  0.10156462173E+03 -0.76919425662E+01  0.44317377375E+03  0.45472798822E+03  0.10566000000E+00 0.  1.
        994    1    1    2    0    0 -0.89294549196E+02 -0.43762974667E+01  0.37244310002E+02  0.19669582386E+03  0.17120000000E+03 0.  0.
        998    1    1    2    0    0 -0.12270072538E+02  0.12068240033E+02  0.10195819125E+04  0.10197761879E+04  0.10000000000E+02 0.  1.
</event>
<event>
 5    1  0.1218060E-008  0.3832502E+03  0.7957747E-01  0.3437127E+00
         13   -1    0    0    0    0  0.00000000000E+00  0.00000000000E+00  0.14999999963E+04  0.15000000000E+04  0.10566000000E+00 0.  1.
        994   -1    0    0    0    0 -0.00000000000E+00 -0.00000000000E+00  0.11368683772E-12  0.17120000000E+03  0.17120000000E+03 0.  0.
         13    1    1    2    0    0 -0.86267684635E+02  0.15552584954E+02  0.17738429047E+03  0.19786155256E+03  0.10566000000E+00 0.  1.
        994    1    1    2    0    0  0.92458673212E+02 -0.14186783201E+02  0.50968414379E+02  0.20163603431E+03  0.17120000000E+03 0.  0.
        998    1    1    2    0    0 -0.61909885770E+01 -0.13658017529E+01  0.12716472914E+04  0.12717024131E+04  0.10000000000E+02 0.  1.
</event>
<event>
 5    1  0.1218060E-008  0.3762728E+03  0.7957747E-01  0.3467550E+00
         13   -1    0    0    0    0  0.00000000000E+00  0.00000000000E+00  0.14999999963E+04  0.15000000000E+04  0.10566000000E+00 0. -1.
        994   -1    0    0    0    0 -0.00000000000E+00 -0.00000000000E+00  0.11368683772E-12  0.17120000000E+03  0.17120000000E+03 0.  0.
         13    1    1    2    0    0 -0.27622587541E+02 -0.39618722683E+02  0.16533220376E+03  0.17224226918E+03  0.10566000000E+00 0. -1.
        994    1    1    2    0    0  0.32609158858E+02  0.43898329279E+02  0.16216075021E+02  0.18045171555E+03  0.17120000000E+03 0.  0.
        998    1    1    2    0    0 -0.49865713165E+01 -0.42796065952E+01  0.13184517175E+04  0.13185060153E+04  0.10000000000E+02 0. -1.
</event>
<event>
 5    1  0.1218060E-008  0.3861041E+03  0.7957747E-01  0.3425003E+00
         13   -1    0    0    0    0  0.00000000000E+00  0.00000000000E+00  0.14999999963E+04  0.15000000000E+04  0.10566000000E+00 0.  1.
        994   -1    0    0    0    0 -0.00000000000E+00 -0.00000000000E+00  0.11368683772E-12  0.17120000000E+03  0.17120000000E+03 0.  0.
         13    1    1    2    0    0 -0.57062512701E+02  0.68327977790E+02  0.18294611686E+03  0.20345548835E+03  0.10566000000E+00 0.  1.
        994    1    1    2    0    0  0.61933039914E+02 -0.43527165234E+02  0.41287130744E+02  0.19168824354E+03  0.17120000000E+03 0.  0.
        998    1    1    2    0    0 -0.48705272131E+01 -0.24800812555E+02  0.12757667487E+04  0.12760562681E+04  0.10000000000E+02 0.  1.
</event>
<event>
 5    1  0.1218060E-008  0.3674953E+03  0.7957747E-01  0.3507482E+00
         13   -1    0    0    0    0  0.00000000000E+00  0.00000000000E+00  0.14999999963E+04  0.15000000000E+04  0.10566000000E+00 0.  1.
        994   -1    0    0    0    0 -0.00000000000E+00 -0.00000000000E+00  0.11368683772E-12  0.17120000000E+03  0.17120000000E+03 0.  0.
         13    1    1    2    0    0 -0.13045612953E+03  0.22105196659E+03  0.10589220164E+04  0.10895864452E+04  0.10566000000E+00 0.  1.
        994    1    1    2    0    0  0.13032265264E+03 -0.21510680937E+03  0.26012413824E+03  0.40028607336E+03  0.17120000000E+03 0.  0.
        998    1    1    2    0    0  0.13347688742E+00 -0.59451572195E+01  0.18095384164E+03  0.18132748141E+03  0.10000000000E+02 0.  0.
</event>
<event>
 5    1  0.1218060E-008  0.3795890E+03  0.7957747E-01  0.3452950E+00
         13   -1    0    0    0    0  0.00000000000E+00  0.00000000000E+00  0.14999999963E+04  0.15000000000E+04  0.10566000000E+00 0. -1.
        994   -1    0    0    0    0 -0.00000000000E+00 -0.00000000000E+00  0.11368683772E-12  0.17120000000E+03  0.17120000000E+03 0.  0.
         13    1    1    2    0    0  0.11296299505E+00  0.10464466941E+02  0.10877430275E+02  0.15094617664E+02  0.10566000000E+00 0. -1.
        994    1    1    2    0    0  0.52311506969E+01 -0.31548840488E+00  0.44327068608E+01  0.17133754218E+03  0.17120000000E+03 0.  0.
        998    1    1    2    0    0 -0.53441136920E+01 -0.10148978536E+02  0.14846898591E+04  0.14847678402E+04  0.10000000000E+02 0. -1.
</event>
<event>
 5    1  0.1218060E-008  0.3713911E+03  0.7957747E-01  0.3489522E+00
         13   -1    0    0    0    0  0.00000000000E+00  0.00000000000E+00  0.14999999963E+04  0.15000000000E+04  0.10566000000E+00 0. -1.
        994   -1    0    0    0    0 -0.00000000000E+00 -0.00000000000E+00  0.11368683772E-12  0.17120000000E+03  0.17120000000E+03 0.  0.
         13    1    1    2    0    0  0.73685987724E+02 -0.90099203894E+02  0.39707832550E+03  0.41378581305E+03  0.10566000000E+00 0. -1.
        994    1    1    2    0    0 -0.74321028281E+02  0.95826276944E+02  0.65297671431E+02  0.21972600322E+03  0.17120000000E+03 0.  0.
        998    1    1    2    0    0  0.63504055680E+00 -0.57270730500E+01  0.10376239993E+04  0.10376881837E+04  0.10000000000E+02 0.  0.
</event>
<event>
 5    1  0.1218060E-008  0.3783360E+03  0.7957747E-01  0.3458436E+00
         13   -1    0    0    0    0  0.00000000000E+00  0.00000000000E+00  0.14999999963E+04  0.15000000000E+04  0.10566000000E+00 0. -1.
        994   -1    0    0    0    0 -0.00000000000E+00 -0.00000000000E+00  0.11368683772E-12  0.17120000000E+03  0.17120000000E+03 0.  0.
         13    1    1    2    0    0 -0.12748753095E+02 -0.33677044459E+02  0.12737424427E+03  0.13236647346E+03  0.10566000000E+00 0. -1.
        994    1    1    2    0    0  0.29913063691E+01  0.23707154127E+02  0.68971525982E+01  0.17299707450E+03  0.17120000000E+03 0.  0.
        998    1    1    2    0    0  0.97574467263E+01  0.99698903327E+01  0.13657285994E+04  0.13658364520E+04  0.10000000000E+02 0. -1.
</event>
<event>
 5    1  0.1218060E-008  0.3852337E+03  0.7957747E-01  0.3428682E+00
         13   -1    0    0    0    0  0.00000000000E+00  0.00000000000E+00  0.14999999963E+04  0.15000000000E+04  0.10566000000E+00 0.  1.
        994   -1    0    0    0    0 -0.00000000000E+00 -0.00000000000E+00  0.11368683772E-12  0.17120000000E+03  0.17120000000E+03 0.  0.
         13    1    1    2    0    0  0.76639118689E+01 -0.97058980565E+01  0.50914233732E+02  0.52394755108E+02  0.10566000000E+00 0.  1.
        994    1    1    2    0    0 -0.71187689726E+00  0.85462109671E+01  0.17558736729E+01  0.17142364943E+03  0.17120000000E+03 0.  0.
        998    1    1    2    0    0 -0.69520349716E+01  0.11596870894E+01  0.14473298889E+04  0.14473815955E+04  0.10000000000E+02 0.  1.
</event>
<event>
 5    1  0.1218060E-008  0.3852939E+03  0.7957747E-01  0.3428427E+00
         13   -1    0    0    0    0  0.00000000000E+00  0.00000000000E+00  0.14999999963E+04  0.15000000000E+04  0.10566000000E+00 0.  1.
        994   -1    0    0    0    0 -0.00000000000E+00 -0.00000000000E+00  0.11368683772E-12  0.17120000000E+03  0.17120000000E+03 0.  0.
         13    1    1    2    0    0  0.44432539594E+01 -0.13789274917E+02  0.71013015229E+02  0.72475831174E+02  0.10566000000E+00 0.  1.
        994    1    1    2    0    0 -0.13824289629E+02  0.55404128473E+01  0.22133727190E+01  0.17186083375E+03  0.17120000000E+03 0.  0.
        998    1    1    2    0    0  0.93810356692E+01  0.82488620696E+01  0.14267736083E+04  0.14268633351E+04  0.10000000000E+02 0.  1.
</event>
<event>
 5    1  0.1218060E-008  0.3848017E+03  0.7957747E-01  0.3430514E+00
         13   -1    0    0    0    0  0.00000000000E+00  0.00000000000E+00  0.14999999963E+04  0.15000000000E+04  0.10566000000E+00 0.  1.
        994   -1    0    0    0    0 -0.00000000000E+00 -0.00000000000E+00  0.11368683772E-12  0.17120000000E+03  0.17120000000E+03 0.  0.
         13    1    1    2    0    0 -0.44727564389E+01  0.10856669373E+02  0.38572445273E+02  0.40320187479E+02  0.10566000000E+00 0.  1.
        994    1    1    2    0    0  0.12235299851E+02 -0.98379398561E+01  0.25401572813E+01  0.17193713974E+03  0.17120000000E+03 0.  0.
        998    1    1    2    0    0 -0.77625434125E+01 -0.10187295167E+01  0.14588873937E+04  0.14589426728E+04  0.10000000000E+02 0.  1.
</event>
<event>
 5    1  0.1218060E-008  0.3780710E+03  0.7957747E-01  0.3459601E+00
         13   -1    0    0    0    0  0.00000000000E+00  0.00000000000E+00  0.14999999963E+04  0.15000000000E+04  0.10566000000E+00 0.  1.
        994   -1    0    0    0    0 -0.00000000000E+00 -0.00000000000E+00  0.11368683772E-12  0.17120000000E+03  0.17120000000E+03 0.  0.
         13    1    1    2    0    0 -0.17115803300E+02  0.93842306285E+01  0.34336432225E+02  0.39497041017E+02  0.10566000000E+00 0.  1.
        994    1    1    2    0    0  0.22262628296E+02 -0.45495582690E+01  0.68490983666E+01  0.17283712925E+03  0.17120000000E+03 0.  0.
        998    1    1    2    0    0 -0.51468249965E+01 -0.48346723596E+01  0.14588144657E+04  0.14588658297E+04  0.10000000000E+02 0.  1.
</event>
<event>
 5    1  0.1218060E-008  0.3821580E+03  0.7957747E-01  0.3441815E+00
         13   -1    0    0    0    0  0.00000000000E+00  0.00000000000E+00  0.14999999963E+04  0.15000000000E+04  0.10566000000E+00 0.  1.
        994   -1    0    0    0    0 -0.00000000000E+00 -0.00000000000E+00  0.11368683772E-12  0.17120000000E+03  0.17120000000E+03 0.  0.
         13    1    1    2    0    0 -0.22122392128E+02 -0.18102158987E+02  0.13181512248E+03  0.13487893117E+03  0.10566000000E+00 0.  1.
        994    1    1    2    0    0  0.12874616085E+02  0.13543216247E+02  0.42075871695E+01  0.17226815793E+03  0.17120000000E+03 0.  0.
        998    1    1    2    0    0  0.92477760429E+01  0.45589427403E+01  0.13639772866E+04  0.13640529109E+04  0.10000000000E+02 0.  1.
</event>
<event>
 5    1  0.1218060E-008  0.2850809E+03  0.7957747E-01  0.4008643E+00
         13   -1    0    0    0    0  0.00000000000E+00  0.00000000000E+00  0.14999999963E+04  0.15000000000E+04  0.10566000000E+00 0.  1.
        994   -1    0    0    0    0 -0.00000000000E+00 -0.00000000000E+00  0.11368683772E-12  0.17120000000E+03  0.17120000000E+03 0.  0.
         13    1    1    2    0    0 -0.79676331194E+02  0.12919678370E+03  0.61578932112E+03  0.63422127514E+03  0.10566000000E+00 0.  1.
        994    1    1    2    0    0  0.79767213631E+02 -0.98722729767E+02  0.73203973332E+02  0.22533807369E+03  0.17120000000E+03 0.  0.
        998    1    1    2    0    0 -0.90882436852E-01 -0.30474053932E+02  0.81100670182E+03  0.81164065117E+03  0.10000000000E+02 0.  1.
</event>
<event>
 5    1  0.1218060E-008  0.3848021E+03  0.7957747E-01  0.3430512E+00
         13   -1    0    0    0    0  0.00000000000E+00  0.00000000000E+00  0.14999999963E+04  0.15000000000E+04  0.10566000000E+00 0.  1.
        994   -1    0    0    0    0 -0.00000000000E+00 -0.00000000000E+00  0.11368683772E-12  0.17120000000E+03  0.17120000000E+03 0.  0.
         13    1    1    2    0    0 -0.16069940587E+02  0.11039629362E+02  0.10194770993E+03  0.10379529436E+03  0.10566000000E+00 0.  1.
        994    1    1    2    0    0  0.28568051630E+02  0.15177637202E+01  0.44263340397E+01  0.17363026699E+03  0.17120000000E+03 0.  0.
        998    1    1    2    0    0 -0.12498111043E+02 -0.12557393082E+02  0.13936259523E+04  0.13937744387E+04  0.10000000000E+02 0.  1.
</event>
<event>
 5    1  0.1218060E-008  0.3819462E+03  0.7957747E-01  0.3442728E+00
         13   -1    0    0    0    0  0.00000000000E+00  0.00000000000E+00  0.14999999963E+04  0.15000000000E+04  0.10566000000E+00 0.  1.
        994   -1    0    0    0    0 -0.00000000000E+00 -0.00000000000E+00  0.11368683772E-12  0.17120000000E+03  0.17120000000E+03 0.  0.
         13    1    1    2    0    0 -0.24322896699E+02  0.26823214228E+02  0.21573237596E+03  0.21874998818E+03  0.10566000000E+00 0.  1.
        994    1    1    2    0    0  0.12666104731E+02 -0.10336932973E+02  0.40422106462E+01  0.17202634060E+03  0.17120000000E+03 0.  0.
        998    1    1    2    0    0  0.11656791968E+02 -0.16486281255E+02  0.12802254097E+04  0.12804236712E+04  0.10000000000E+02 0.  1.
</event>
<event>
 5    1  0.1218060E-008  0.3861464E+03  0.7957747E-01  0.3424825E+00
         13   -1    0    0    0    0  0.00000000000E+00  0.00000000000E+00  0.14999999963E+04  0.15000000000E+04  0.10566000000E+00 0. -1.
        994   -1    0    0    0    0 -0.00000000000E+00 -0.00000000000E+00  0.11368683772E-12  0.17120000000E+03  0.17120000000E+03 0.  0.
         13    1    1    2    0    0 -0.62316691763E+01  0.82343046570E+01  0.48361088328E+02  0.49451425684E+02  0.10566000000E+00 0. -1.
        994    1    1    2    0    0  0.95221931696E+01 -0.11250876762E+02  0.17741833050E+01  0.17184249218E+03  0.17120000000E+03 0.  0.
        998    1    1    2    0    0 -0.32905239932E+01  0.30165721046E+01  0.14498647246E+04  0.14499060821E+04  0.10000000000E+02 0. -1.
</event>
<event>
 5    1  0.1218060E-008  0.3836707E+03  0.7957747E-01  0.3435329E+00
         13   -1    0    0    0    0  0.00000000000E+00  0.00000000000E+00  0.14999999963E+04  0.15000000000E+04  0.10566000000E+00 0.  1.
        994   -1    0    0    0    0 -0.00000000000E+00 -0.00000000000E+00  0.11368683772E-12  0.17120000000E+03  0.17120000000E+03 0.  0.
         13    1    1    2    0    0 -0.12713640555E+02  0.19725884375E+02  0.11822133562E+03  0.12052818148E+03  0.10566000000E+00 0.  1.
        994    1    1    2    0    0  0.11110675877E+02 -0.11922810300E+02  0.31692779135E+01  0.17200315359E+03  0.17120000000E+03 0.  0.
        998    1    1    2    0    0  0.16029646782E+01 -0.78030740752E+01  0.13786093827E+04  0.13786686649E+04  0.10000000000E+02 0.  1.
</event>
<event>
 5    1  0.1218060E-008  0.3860407E+03  0.7957747E-01  0.3425270E+00
         13   -1    0    0    0    0  0.00000000000E+00  0.00000000000E+00  0.14999999963E+04  0.15000000000E+04  0.10566000000E+00 0. -1.
        994   -1    0    0    0    0 -0.00000000000E+00 -0.00000000000E+00  0.11368683772E-12  0.17120000000E+03  0.17120000000E+03 0.  0.
         13    1    1    2    0    0  0.49098737511E+01  0.91293871927E+01  0.48608084058E+02  0.49701202909E+02  0.10566000000E+00 0. -1.
        994    1    1    2    0    0 -0.45643155701E+01 -0.62016516866E+01  0.13086715138E+01  0.17137807935E+03  0.17120000000E+03 0.  0.
        998    1    1    2    0    0 -0.34555818098E+00 -0.29277355061E+01  0.14500832407E+04  0.14501207177E+04  0.10000000000E+02 0. -1.
</event>
<event>
 5    1  0.1218060E-008  0.3841041E+03  0.7957747E-01  0.3433481E+00
         13   -1    0    0    0    0  0.00000000000E+00  0.00000000000E+00  0.14999999963E+04  0.15000000000E+04  0.10566000000E+00 0. -1.
        994   -1    0    0    0    0 -0.00000000000E+00 -0.00000000000E+00  0.11368683772E-12  0.17120000000E+03  0.17120000000E+03 0.  0.
         13    1    1    2    0    0 -0.10777284292E+02  0.90752990297E+01  0.47597256539E+02  0.49638905138E+02  0.10566000000E+00 0. -1.
        994    1    1    2    0    0  0.63373680142E+01 -0.55889120347E+01  0.23110882057E+01  0.17142397528E+03  0.17120000000E+03 0.  0.
        998    1    1    2    0    0  0.44399162778E+01 -0.34863869950E+01  0.14500916515E+04  0.14501371196E+04  0.10000000000E+02 0. -1.
</event>
<event>
 5    1  0.1218060E-008  0.3801458E+03  0.7957747E-01  0.3450524E+00
         13   -1    0    0    0    0  0.00000000000E+00  0.00000000000E+00  0.14999999963E+04  0.15000000000E+04  0.10566000000E+00 0.  1.
        994   -1    0    0    0    0 -0.00000000000E+00 -0.00000000000E+00  0.11368683772E-12  0.17120000000E+03  0.17120000000E+03 0.  0.
         13    1    1    2    0    0  0.17053889222E+02  0.79987882577E+01  0.42562662547E+02  0.46544679162E+02  0.10566000000E+00 0.  1.
        994    1    1    2    0    0 -0.67475479674E+01 -0.87384860994E+01  0.44669286393E+01  0.17161376400E+03  0.17120000000E+03 0.  0.
        998    1    1    2    0    0 -0.10306341254E+02  0.73969784172E+00  0.14529704051E+04  0.14530415568E+04  0.10000000000E+02 0.  1.
</event>
<event>
 5    1  0.1218060E-008  0.3848061E+03  0.7957747E-01  0.3430495E+00
         13   -1    0    0    0    0  0.00000000000E+00  0.00000000000E+00  0.14999999963E+04  0.15000000000E+04  0.10566000000E+00 0. -1.
        994   -1    0    0    0    0 -0.00000000000E+00 -0.00000000000E+00  0.11368683772E-12  0.17120000000E+03  0.17120000000E+03 0.  0.
         13    1    1    2    0    0  0.11101641099E+02  0.67124256570E+01  0.46720653205E+02  0.48488490318E+02  0.10566000000E+00 0. -1.
        994    1    1    2    0    0 -0.75724391941E+01 -0.18951629658E+02  0.30982268658E+01  0.17243997539E+03  0.17120000000E+03 0.  0.
        998    1    1    2    0    0 -0.35292019049E+01  0.12239204001E+02  0.14501811162E+04  0.14502715343E+04  0.10000000000E+02 0. -1.
</event>
<event>
 5    1  0.1218060E-008  0.3802284E+03  0.7957747E-01  0.3450165E+00
         13   -1    0    0    0    0  0.00000000000E+00  0.00000000000E+00  0.14999999963E+04  0.15000000000E+04  0.10566000000E+00 0.  1.
        994   -1    0    0    0    0 -0.00000000000E+00 -0.00000000000E+00  0.11368683772E-12  0.17120000000E+03  0.17120000000E+03 0.  0.
         13    1    1    2    0    0  0.98318924050E+01 -0.22652893314E+02  0.75067265603E+02  0.79024839214E+02  0.10566000000E+00 0.  1.
        994    1    1    2    0    0 -0.21303922725E+01  0.14038367638E+02  0.46916520946E+01  0.17185187208E+03  0.17120000000E+03 0.  0.
        998    1    1    2    0    0 -0.77015001325E+01  0.86145256763E+01  0.14202410786E+04  0.14203232887E+04  0.10000000000E+02 0.  1.
</event>
<event>
 5    1  0.1218060E-008  0.4028668E+03  0.7957747E-01  0.3357260E+00
         13   -1    0    0    0    0  0.00000000000E+00  0.00000000000E+00  0.14999999963E+04  0.15000000000E+04  0.10566000000E+00 0.  1.
        994   -1    0    0    0    0 -0.00000000000E+00 -0.00000000000E+00  0.11368683772E-12  0.17120000000E+03  0.17120000000E+03 0.  0.
         13    1    1    2    0    0  0.74872905955E+02  0.14761516405E+03  0.31670697193E+03  0.35735067642E+03  0.10566000000E+00 0.  1.
        994    1    1    2    0    0 -0.82931310821E+02 -0.15354300943E+03  0.16381940767E+03  0.29427758390E+03  0.17120000000E+03 0.  0.
        998    1    1    2    0    0  0.80584048668E+01  0.59278453777E+01  0.10194736167E+04  0.10195717397E+04  0.10000000000E+02 0.  1.
</event>
<event>
 5    1  0.1218060E-008  0.3845637E+03  0.7957747E-01  0.3431525E+00
         13   -1    0    0    0    0  0.00000000000E+00  0.00000000000E+00  0.14999999963E+04  0.15000000000E+04  0.10566000000E+00 0.  1.
        994   -1    0    0    0    0 -0.00000000000E+00 -0.00000000000E+00  0.11368683772E-12  0.17120000000E+03  0.17120000000E+03 0.  0.
         13    1    1    2    0    0  0.12670484745E+02  0.20903159264E+01  0.42404364658E+02  0.44306341651E+02  0.10566000000E+00 0.  1.
        994    1    1    2    0    0 -0.17674619694E+02 -0.28614524283E+01  0.29033666956E+01  0.17215821104E+03  0.17120000000E+03 0.  0.
        998    1    1    2    0    0  0.50041349493E+01  0.77113650184E+00  0.14546922649E+04  0.14547354473E+04  0.10000000000E+02 0.  1.
</event>
<event>
 5    1  0.1218060E-008  0.3774663E+03  0.7957747E-01  0.3462265E+00
         13   -1    0    0    0    0  0.00000000000E+00  0.00000000000E+00  0.14999999963E+04  0.15000000000E+04  0.10566000000E+00 0. -1.
        994   -1    0    0    0    0 -0.00000000000E+00 -0.00000000000E+00  0.11368683772E-12  0.17120000000E+03  0.17120000000E+03 0.  0.
         13    1    1    2    0    0 -0.35341926287E+02  0.19488853763E+02  0.17908007234E+03  0.18357164991E+03  0.10566000000E+00 0. -1.
        994    1    1    2    0    0 -0.10140176698E+02 -0.63562038489E+01  0.59006013551E+01  0.17171919406E+03  0.17120000000E+03 0.  0.
        998    1    1    2    0    0  0.45482102985E+02 -0.13132649914E+02  0.13150193226E+04  0.13159091560E+04  0.10000000000E+02 0. -1.
</event>
<event>
 5    1  0.1218060E-008  0.3799446E+03  0.7957747E-01  0.3451400E+00
         13   -1    0    0    0    0  0.00000000000E+00  0.00000000000E+00  0.14999999963E+04  0.15000000000E+04  0.10566000000E+00 0.  1.
        994   -1    0    0    0    0 -0.00000000000E+00 -0.00000000000E+00  0.11368683772E-12  0.17120000000E+03  0.17120000000E+03 0.  0.
         13    1    1    2    0    0 -0.20096468263E+02 -0.14648054975E+02  0.70311340014E+02  0.74579683895E+02  0.10566000000E+00 0.  1.
        994    1    1    2    0    0  0.76043069357E+01  0.30190223900E+02  0.74087149473E+01  0.17416545054E+03  0.17120000000E+03 0.  0.
        998    1    1    2    0    0  0.12492161328E+02 -0.15542168924E+02  0.14222799413E+04  0.14224548656E+04  0.10000000000E+02 0.  1.
</event>
<event>
 5    1  0.1218060E-008  0.3854039E+03  0.7957747E-01  0.3427961E+00
         13   -1    0    0    0    0  0.00000000000E+00  0.00000000000E+00  0.14999999963E+04  0.15000000000E+04  0.10566000000E+00 0. -1.
        994   -1    0    0    0    0 -0.00000000000E+00 -0.00000000000E+00  0.11368683772E-12  0.17120000000E+03  0.17120000000E+03 0.  0.
         13    1    1    2    0    0  0.86573332841E+01  0.88581578352E+01  0.51982479339E+02  0.53437867679E+02  0.10566000000E+00 0. -1.
        994    1    1    2    0    0 -0.93636910118E+01 -0.10617621947E+02  0.20882188374E+01  0.17179701180E+03  0.17120000000E+03 0.  0.
        998    1    1    2    0    0  0.70635772764E+00  0.17594641114E+01  0.14459292981E+04  0.14459651205E+04  0.10000000000E+02 0. -1.
</event>
<event>
 5    1  0.1218060E-008  0.3811900E+03  0.7957747E-01  0.3445993E+00
         13   -1    0    0    0    0  0.00000000000E+00  0.00000000000E+00  0.14999999963E+04  0.15000000000E+04  0.10566000000E+00 0.  1.
        994   -1    0    0    0    0 -0.00000000000E+00 -0.00000000000E+00  0.11368683772E-12  0.17120000000E+03  0.17120000000E+03 0.  0.
         13    1    1    2    0    0  0.19363237264E+02 -0.31491356234E+01  0.51642228854E+02  0.55242945048E+02  0.10566000000E+00 0.  1.
        994    1    1    2    0    0 -0.20394389467E+02 -0.18894084173E-01  0.49198515602E+01  0.17248065520E+03  0.17120000000E+03 0.  0.
        998    1    1    2    0    0  0.10311522025E+01  0.31680297075E+01  0.14434379159E+04  0.14434763998E+04  0.10000000000E+02 0.  1.
</event>
<event>
 5    1  0.1218060E-008  0.3852387E+03  0.7957747E-01  0.3428660E+00
         13   -1    0    0    0    0  0.00000000000E+00  0.00000000000E+00  0.14999999963E+04  0.15000000000E+04  0.10566000000E+00 0.  1.
        994   -1    0    0    0    0 -0.00000000000E+00 -0.00000000000E+00  0.11368683772E-12  0.17120000000E+03  0.17120000000E+03 0.  0.
         13    1    1    2    0    0 -0.48827003327E+01  0.13589737772E+02  0.62240669744E+02  0.63893926703E+02  0.10566000000E+00 0.  1.
        994    1    1    2    0    0  0.39259767483E+01 -0.26455406957E+02  0.38657648407E+01  0.17331960647E+03  0.17120000000E+03 0.  0.
        998    1    1    2    0    0  0.95672358447E+00  0.12865669185E+02  0.14338935617E+04  0.14339864668E+04  0.10000000000E+02 0.  1.
</event>
<event>
 5    1  0.1218060E-008  0.3785050E+03  0.7957747E-01  0.3457694E+00
         13   -1    0    0    0    0  0.00000000000E+00  0.00000000000E+00  0.14999999963E+04  0.15000000000E+04  0.10566000000E+00 0. -1.
        994   -1    0    0    0    0 -0.00000000000E+00 -0.00000000000E+00  0.11368683772E-12  0.17120000000E+03  0.17120000000E+03 0.  0.
         13    1    1    2    0    0 -0.37205466895E+02 -0.15819265730E+02  0.18866008698E+03  0.19294334795E+03  0.10566000000E+00 0. -1.
        994    1    1    2    0    0  0.47791273810E+01 -0.66880833310E+00  0.49679415114E+01  0.17134003562E+03  0.17120000000E+03 0.  0.
        998    1    1    2    0    0  0.32426339514E+02  0.16488074063E+02  0.13063719678E+04  0.13069166164E+04  0.10000000000E+02 0. -1.
</event>
<event>
 5    1  0.1218060E-008  0.3834303E+03  0.7957747E-01  0.3436357E+00
         13   -1    0    0    0    0  0.00000000000E+00  0.00000000000E+00  0.14999999963E+04  0.15000000000E+04  0.10566000000E+00 0. -1.
        994   -1    0    0    0    0 -0.00000000000E+00 -0.00000000000E+00  0.11368683772E-12  0.17120000000E+03  0.17120000000E+03 0.  0.
         13    1    1    2    0    0 -0.11202158541E+02  0.11705322882E+02  0.52352378543E+02  0.54802241222E+02  0.10566000000E+00 0. -1.
        994    1    1    2    0    0  0.13553252795E+02 -0.95935470585E+01  0.33234304591E+01  0.17203549633E+03  0.17120000000E+03 0.  0.
        998    1    1    2    0    0 -0.23510942540E+01 -0.21117758240E+01  0.14443241873E+04  0.14443622625E+04  0.10000000000E+02 0. -1.
</event>
<event>
 5    1  0.1218060E-008  0.3753549E+03  0.7957747E-01  0.3471637E+00
         13   -1    0    0    0    0  0.00000000000E+00  0.00000000000E+00  0.14999999963E+04  0.15000000000E+04  0.10566000000E+00 0. -1.
        994   -1    0    0    0    0 -0.00000000000E+00 -0.00000000000E+00  0.11368683772E-12  0.17120000000E+03  0.17120000000E+03 0.  0.
         13    1    1    2    0    0  0.32904233618E+02 -0.82065599881E+00  0.89094879287E+02  0.94980370316E+02  0.10566000000E+00 0. -1.
        994    1    1    2    0    0  0.28559726105E+01  0.50945508720E+00  0.65251932357E+01  0.17134886714E+03  0.17120000000E+03 0.  0.
        998    1    1    2    0    0 -0.35760206229E+02  0.31120091161E+00  0.14043799238E+04  0.14048707625E+04  0.10000000000E+02 0. -1.
</event>
<event>
 5    1  0.1218060E-008  0.3719969E+03  0.7957747E-01  0.3486763E+00
         13   -1    0    0    0    0  0.00000000000E+00  0.00000000000E+00  0.14999999963E+04  0.15000000000E+04  0.10566000000E+00 0.  1.
        994   -1    0    0    0    0 -0.00000000000E+00 -0.00000000000E+00  0.11368683772E-12  0.17120000000E+03  0.17120000000E+03 0.  0.
         13    1    1    2    0    0 -0.55683104663E+02  0.87425784059E+02  0.28504631085E+03  0.30330724745E+03  0.10566000000E+00 0.  1.
        994    1    1    2    0    0  0.39401571440E+02 -0.14017081547E+03  0.90884857328E+02  0.24242491339E+03  0.17120000000E+03 0.  0.
        998    1    1    2    0    0  0.16281533223E+02  0.52745031415E+02  0.11240688281E+04  0.11254678392E+04  0.10000000000E+02 0.  1.
</event>
<event>
 5    1  0.1218060E-008  0.3809830E+03  0.7957747E-01  0.3446889E+00
         13   -1    0    0    0    0  0.00000000000E+00  0.00000000000E+00  0.14999999963E+04  0.15000000000E+04  0.10566000000E+00 0.  1.
        994   -1    0    0    0    0 -0.00000000000E+00 -0.00000000000E+00  0.11368683772E-12  0.17120000000E+03  0.17120000000E+03 0.  0.
         13    1    1    2    0    0  0.43405921889E+02 -0.10357325099E+02  0.50685754021E+02  0.67530771231E+02  0.10566000000E+00 0.  1.
        994    1    1    2    0    0 -0.46302410312E+02  0.10387396357E+02  0.25102672837E+02  0.17941960703E+03  0.17120000000E+03 0.  0.
        998    1    1    2    0    0  0.28964884228E+01 -0.30071257871E-01  0.14242115694E+04  0.14242496217E+04  0.10000000000E+02 0.  1.
</event>
<event>
 5    1  0.1218060E-008  0.3826392E+03  0.7957747E-01  0.3439747E+00
         13   -1    0    0    0    0  0.00000000000E+00  0.00000000000E+00  0.14999999963E+04  0.15000000000E+04  0.10566000000E+00 0. -1.
        994   -1    0    0    0    0 -0.00000000000E+00 -0.00000000000E+00  0.11368683772E-12  0.17120000000E+03  0.17120000000E+03 0.  0.
         13    1    1    2    0    0  0.35735124234E+02 -0.27391055243E+02  0.21511652299E+03  0.21977806679E+03  0.10566000000E+00 0. -1.
        994    1    1    2    0    0 -0.33410275223E+02  0.11512422312E+03  0.51986227758E+02  0.21536443791E+03  0.17120000000E+03 0.  0.
        998    1    1    2    0    0 -0.23248490104E+01 -0.87733167878E+02  0.12328972455E+04  0.12360574953E+04  0.10000000000E+02 0. -1.
</event>
<event>
 5    1  0.1218060E-008  0.3856379E+03  0.7957747E-01  0.3426971E+00
         13   -1    0    0    0    0  0.00000000000E+00  0.00000000000E+00  0.14999999963E+04  0.15000000000E+04  0.10566000000E+00 0.  1.
        994   -1    0    0    0    0 -0.00000000000E+00 -0.00000000000E+00  0.11368683772E-12  0.17120000000E+03  0.17120000000E+03 0.  0.
         13    1    1    2    0    0 -0.61372442672E+01  0.80142892392E+01  0.36238916648E+02  0.37618676785E+02  0.10566000000E+00 0.  1.
        994    1    1    2    0    0  0.16874346231E+02 -0.13101115945E+02  0.28129653045E+01  0.17255067538E+03  0.17120000000E+03 0.  0.
        998    1    1    2    0    0 -0.10737101964E+02  0.50868267060E+01  0.14609481143E+04  0.14610306478E+04  0.10000000000E+02 0.  1.
</event>
<event>
 5    1  0.1218060E-008  0.3830887E+03  0.7957747E-01  0.3437819E+00
         13   -1    0    0    0    0  0.00000000000E+00  0.00000000000E+00  0.14999999963E+04  0.15000000000E+04  0.10566000000E+00 0.  1.
        994   -1    0    0    0    0 -0.00000000000E+00 -0.00000000000E+00  0.11368683772E-12  0.17120000000E+03  0.17120000000E+03 0.  0.
         13    1    1    2    0    0  0.13401172574E+02 -0.95355560520E+01  0.49982067034E+02  0.52618784143E+02  0.10566000000E+00 0.  1.
        994    1    1    2    0    0 -0.15368565548E+02  0.93959622099E+01  0.36565025735E+01  0.17218387533E+03  0.17120000000E+03 0.  0.
        998    1    1    2    0    0  0.19673929738E+01  0.13959384206E+00  0.14463614267E+04  0.14463973405E+04  0.10000000000E+02 0.  1.
</event>
<event>
 5    1  0.1218060E-008  0.3817948E+03  0.7957747E-01  0.3443381E+00
         13   -1    0    0    0    0  0.00000000000E+00  0.00000000000E+00  0.14999999963E+04  0.15000000000E+04  0.10566000000E+00 0. -1.
        994   -1    0    0    0    0 -0.00000000000E+00 -0.00000000000E+00  0.11368683772E-12  0.17120000000E+03  0.17120000000E+03 0.  0.
         13    1    1    2    0    0  0.43351386089E+02 -0.83847428353E+01  0.25506569804E+03  0.25885935963E+03  0.10566000000E+00 0. -1.
        994    1    1    2    0    0 -0.44300348392E+02 -0.10815315768E+01  0.97832921107E+01  0.17711251617E+03  0.17120000000E+03 0.  0.
        998    1    1    2    0    0  0.94896230366E+00  0.94662744121E+01  0.12351510061E+04  0.12352281242E+04  0.10000000000E+02 0. -1.
</event>
<event>
 5    1  0.1218060E-008  0.3696483E+03  0.7957747E-01  0.3497509E+00
         13   -1    0    0    0    0  0.00000000000E+00  0.00000000000E+00  0.14999999963E+04  0.15000000000E+04  0.10566000000E+00 0. -1.
        994   -1    0    0    0    0 -0.00000000000E+00 -0.00000000000E+00  0.11368683772E-12  0.17120000000E+03  0.17120000000E+03 0.  0.
         13    1    1    2    0    0  0.56718703810E+02 -0.49843499196E+01  0.13471009685E+03  0.14624868021E+03  0.10566000000E+00 0. -1.
        994    1    1    2    0    0 -0.56074672911E+02  0.10074360002E+02  0.22173897739E+02  0.18178829284E+03  0.17120000000E+03 0.  0.
        998    1    1    2    0    0 -0.64403089924E+00 -0.50900100828E+01  0.13431160017E+04  0.13431630270E+04  0.10000000000E+02 0. -1.
</event>
<event>
 5    1  0.1218060E-008  0.3723255E+03  0.7957747E-01  0.3485271E+00
         13   -1    0    0    0    0  0.00000000000E+00  0.00000000000E+00  0.14999999963E+04  0.15000000000E+04  0.10566000000E+00 0. -1.
        994   -1    0    0    0    0 -0.00000000000E+00 -0.00000000000E+00  0.11368683772E-12  0.17120000000E+03  0.17120000000E+03 0.  0.
         13    1    1    2    0    0 -0.23972701517E+02  0.81718117211E+00  0.18604439025E+02  0.30356128188E+02  0.10566000000E+00 0. -1.
        994    1    1    2    0    0  0.14624075167E+02  0.79150501847E+01  0.13148995550E+02  0.17250752934E+03  0.17120000000E+03 0.  0.
        998    1    1    2    0    0  0.93486263502E+01 -0.87322313569E+01  0.14682465617E+04  0.14683363425E+04  0.10000000000E+02 0. -1.
</event>
<event>
 5    1  0.1218060E-008  0.3776195E+03  0.7957747E-01  0.3461590E+00
         13   -1    0    0    0    0  0.00000000000E+00  0.00000000000E+00  0.14999999963E+04  0.15000000000E+04  0.10566000000E+00 0.  1.
        994   -1    0    0    0    0 -0.00000000000E+00 -0.00000000000E+00  0.11368683772E-12  0.17120000000E+03  0.17120000000E+03 0.  0.
         13    1    1    2    0    0  0.15607989727E+02  0.98106952042E+02  0.17592471505E+03  0.20203489776E+03  0.10566000000E+00 0.  1.
        994    1    1    2    0    0 -0.20374092907E+02 -0.19499966824E+03  0.16979619105E+03  0.31077348788E+03  0.17120000000E+03 0.  0.
        998    1    1    2    0    0  0.47661031801E+01  0.96892716198E+02  0.11542790902E+04  0.11583916144E+04  0.10000000000E+02 0.  1.
</event>
<event>
 5    1  0.1218060E-008  0.3709116E+03  0.7957747E-01  0.3491712E+00
         13   -1    0    0    0    0  0.00000000000E+00  0.00000000000E+00  0.14999999963E+04  0.15000000000E+04  0.10566000000E+00 0.  1.
        994   -1    0    0    0    0 -0.00000000000E+00 -0.00000000000E+00  0.11368683772E-12  0.17120000000E+03  0.17120000000E+03 0.  0.
         13    1    1    2    0    0  0.12905720653E+02  0.54915134052E+02  0.19991878475E+03  0.20772520606E+03  0.10566000000E+00 0.  1.
        994    1    1    2    0    0  0.74612372926E+01 -0.13943981783E+02  0.96558580286E+01  0.17219982661E+03  0.17120000000E+03 0.  0.
        998    1    1    2    0    0 -0.20366957946E+02 -0.40971152270E+02  0.12904253535E+04  0.12912749673E+04  0.10000000000E+02 0.  1.
</event>
<event>
 5    1  0.1218060E-008  0.3921135E+03  0.7957747E-01  0.3400052E+00
         13   -1    0    0    0    0  0.00000000000E+00  0.00000000000E+00  0.14999999963E+04  0.15000000000E+04  0.10566000000E+00 0.  1.
        994   -1    0    0    0    0 -0.00000000000E+00 -0.00000000000E+00  0.11368683772E-12  0.17120000000E+03  0.17120000000E+03 0.  0.
         13    1    1    2    0    0 -0.41802025843E+02  0.48303345061E+02  0.76874927045E+02  0.99951928850E+02  0.10566000000E+00 0.  1.
        994    1    1    2    0    0  0.45846703788E+02 -0.42671992096E+02  0.38183641705E+02  0.18625318696E+03  0.17120000000E+03 0.  0.
        998    1    1    2    0    0 -0.40446779447E+01 -0.56313529652E+01  0.13849414275E+04  0.13849948842E+04  0.10000000000E+02 0.  1.
</event>
<event>
 5    1  0.1218060E-008  0.3787086E+03  0.7957747E-01  0.3456801E+00
         13   -1    0    0    0    0  0.00000000000E+00  0.00000000000E+00  0.14999999963E+04  0.15000000000E+04  0.10566000000E+00 0.  1.
        994   -1    0    0    0    0 -0.00000000000E+00 -0.00000000000E+00  0.11368683772E-12  0.17120000000E+03  0.17120000000E+03 0.  0.
         13    1    1    2    0    0 -0.74405047205E+02  0.41478418952E+02  0.34439859872E+03  0.35477736153E+03  0.10566000000E+00 0.  1.
        994    1    1    2    0    0 -0.21296776338E+02 -0.31789706000E+01  0.17293573058E+02  0.17341328151E+03  0.17120000000E+03 0.  0.
        998    1    1    2    0    0  0.95701823543E+02 -0.38299448351E+02  0.11383078245E+04  0.11430093570E+04  0.10000000000E+02 0.  1.
</event>
<event>
 5    1  0.1218060E-008  0.3770291E+03  0.7957747E-01  0.3464197E+00
         13   -1    0    0    0    0  0.00000000000E+00  0.00000000000E+00  0.14999999963E+04  0.15000000000E+04  0.10566000000E+00 0.  1.
        994   -1    0    0    0    0 -0.00000000000E+00 -0.00000000000E+00  0.11368683772E-12  0.17120000000E+03  0.17120000000E+03 0.  0.
         13    1    1    2    0    0 -0.11468662629E+02  0.28120086630E+02  0.77056194821E+02  0.82824741587E+02  0.10566000000E+00 0.  1.
        994    1    1    2    0    0  0.11488826535E+02 -0.24875377840E+02  0.81792552897E+01  0.17357165026E+03  0.17120000000E+03 0.  0.
        998    1    1    2    0    0 -0.20163905901E-01 -0.32447087896E+01  0.14147645462E+04  0.14148036082E+04  0.10000000000E+02 0.  1.
</event>
<event>
 5    1  0.1218060E-008  0.3852654E+03  0.7957747E-01  0.3428547E+00
         13   -1    0    0    0    0  0.00000000000E+00  0.00000000000E+00  0.14999999963E+04  0.15000000000E+04  0.10566000000E+00 0. -1.
        994   -1    0    0    0    0 -0.00000000000E+00 -0.00000000000E+00  0.11368683772E-12  0.17120000000E+03  0.17120000000E+03 0.  0.
         13    1    1    2    0    0  0.11368235817E+02  0.84107547311E+01  0.67767005058E+02  0.69226842477E+02  0.10566000000E+00 0. -1.
        994    1    1    2    0    0 -0.53385527490E+01 -0.52914231337E+01  0.16840979520E+01  0.17137320529E+03  0.17120000000E+03 0.  0.
        998    1    1    2    0    0 -0.60296830684E+01 -0.31193315975E+01  0.14305488933E+04  0.14305999522E+04  0.10000000000E+02 0. -1.
</event>
<event>
 5    1  0.1218060E-008  0.3726278E+03  0.7957747E-01  0.3483901E+00
         13   -1    0    0    0    0  0.00000000000E+00  0.00000000000E+00  0.14999999963E+04  0.15000000000E+04  0.10566000000E+00 0. -1.
        994   -1    0    0    0    0 -0.00000000000E+00 -0.00000000000E+00  0.11368683772E-12  0.17120000000E+03  0.17120000000E+03 0.  0.
         13    1    1    2    0    0  0.53368479814E+02  0.15309041570E+01  0.10383726208E+03  0.11675926715E+03  0.10566000000E+00 0. -1.
        994    1    1    2    0    0 -0.53202923185E+02 -0.31687513794E+02  0.25991508792E+02  0.18390119112E+03  0.17120000000E+03 0.  0.
        998    1    1    2    0    0 -0.16555662853E+00  0.30156609637E+02  0.13701712254E+04  0.13705395417E+04  0.10000000000E+02 0. -1.
</event>
<event>
 5    1  0.1218060E-008  0.3817472E+03  0.7957747E-01  0.3443586E+00
         13   -1    0    0    0    0  0.00000000000E+00  0.00000000000E+00  0.14999999963E+04  0.15000000000E+04  0.10566000000E+00 0.  1.
        994   -1    0    0    0    0 -0.00000000000E+00 -0.00000000000E+00  0.11368683772E-12  0.17120000000E+03  0.17120000000E+03 0.  0.
         13    1    1    2    0    0  0.19431819900E+01  0.16953416966E+02  0.43573724534E+02  0.46796099590E+02  0.10566000000E+00 0.  1.
        994    1    1    2    0    0 -0.20124821971E+01 -0.11307453545E+02  0.36922983666E+01  0.17162453687E+03  0.17120000000E+03 0.  0.
        998    1    1    2    0    0  0.69300207128E-01 -0.56459634208E+01  0.14527339734E+04  0.14527793635E+04  0.10000000000E+02 0.  1.
</event>
<event>
 5    1  0.1218060E-008  0.3822216E+03  0.7957747E-01  0.3441542E+00
         13   -1    0    0    0    0  0.00000000000E+00  0.00000000000E+00  0.14999999963E+04  0.15000000000E+04  0.10566000000E+00 0.  1.
        994   -1    0    0    0    0 -0.00000000000E+00 -0.00000000000E+00  0.11368683772E-12  0.17120000000E+03  0.17120000000E+03 0.  0.
         13    1    1    2    0    0  0.13172761590E+02 -0.14262500017E+02  0.62205600655E+02  0.65165086292E+02  0.10566000000E+00 0.  1.
        994    1    1    2    0    0 -0.31103640845E+00  0.13589581178E+02  0.36293114987E+01  0.17177713865E+03  0.17120000000E+03 0.  0.
        998    1    1    2    0    0 -0.12861725182E+02  0.67291883916E+00  0.14341650841E+04  0.14342577751E+04  0.10000000000E+02 0.  1.
</event>
<event>
 5    1  0.1218060E-008  0.3857078E+03  0.7957747E-01  0.3426676E+00
         13   -1    0    0    0    0  0.00000000000E+00  0.00000000000E+00  0.14999999963E+04  0.15000000000E+04  0.10566000000E+00 0. -1.
        994   -1    0    0    0    0 -0.00000000000E+00 -0.00000000000E+00  0.11368683772E-12  0.17120000000E+03  0.17120000000E+03 0.  0.
         13    1    1    2    0    0 -0.14142036380E+02 -0.44906180888E+02  0.48624880925E+02  0.67682734016E+02  0.10566000000E+00 0. -1.
        994    1    1    2    0    0  0.13553536024E+02  0.40885355290E+02  0.26396737977E+02  0.17849800669E+03  0.17120000000E+03 0.  0.
        998    1    1    2    0    0  0.58850035692E+00  0.40208255983E+01  0.14249783774E+04  0.14250192593E+04  0.10000000000E+02 0. -1.
</event>
<event>
 5    1  0.1218060E-008  0.3764573E+03  0.7957747E-01  0.3466731E+00
         13   -1    0    0    0    0  0.00000000000E+00  0.00000000000E+00  0.14999999963E+04  0.15000000000E+04  0.10566000000E+00 0. -1.
        994   -1    0    0    0    0 -0.00000000000E+00 -0.00000000000E+00  0.11368683772E-12  0.17120000000E+03  0.17120000000E+03 0.  0.
         13    1    1    2    0    0  0.29799108393E+02  0.71047224649E+01  0.77105023863E+02  0.82967823952E+02  0.10566000000E+00 0. -1.
        994    1    1    2    0    0 -0.15929831825E+02 -0.13447125493E+02  0.74036737228E+01  0.17262340256E+03  0.17120000000E+03 0.  0.
        998    1    1    2    0    0 -0.13869276568E+02  0.63424030282E+01  0.14154912987E+04  0.14156087735E+04  0.10000000000E+02 0. -1.
</event>
<event>
 5    1  0.1218060E-008  0.3794801E+03  0.7957747E-01  0.3453426E+00
         13   -1    0    0    0    0  0.00000000000E+00  0.00000000000E+00  0.14999999963E+04  0.15000000000E+04  0.10566000000E+00 0. -1.
        994   -1    0    0    0    0 -0.00000000000E+00 -0.00000000000E+00  0.11368683772E-12  0.17120000000E+03  0.17120000000E+03 0.  0.
         13    1    1    2    0    0  0.27936622304E+02  0.11943900480E+02  0.98195871670E+02  0.10278887100E+03  0.10566000000E+00 0. -1.
        994    1    1    2    0    0 -0.29557885148E+02 -0.48566157181E+01  0.74062728298E+01  0.17395846679E+03  0.17120000000E+03 0.  0.
        998    1    1    2    0    0  0.16212628441E+01 -0.70872847623E+01  0.13943978518E+04  0.13944526622E+04  0.10000000000E+02 0. -1.
</event>
<event>
 5    1  0.1218060E-008  0.3815952E+03  0.7957747E-01  0.3444242E+00
         13   -1    0    0    0    0  0.00000000000E+00  0.00000000000E+00  0.14999999963E+04  0.15000000000E+04  0.10566000000E+00 0. -1.
        994   -1    0    0    0    0 -0.00000000000E+00 -0.00000000000E+00  0.11368683772E-12  0.17120000000E+03  0.17120000000E+03 0.  0.
         13    1    1    2    0    0 -0.21355682200E+02  0.15942470547E+02  0.10703142165E+03  0.11029942844E+03  0.10566000000E+00 0. -1.
        994    1    1    2    0    0  0.10210953559E+02 -0.94720701174E+01  0.39753823889E+01  0.17181160424E+03  0.17120000000E+03 0.  0.
        998    1    1    2    0    0  0.11144728641E+02 -0.64704004293E+01  0.13889931922E+04  0.13890889673E+04  0.10000000000E+02 0. -1.
</event>
<event>
 5    1  0.1218060E-008  0.3813394E+03  0.7957747E-01  0.3445347E+00
         13   -1    0    0    0    0  0.00000000000E+00  0.00000000000E+00  0.14999999963E+04  0.15000000000E+04  0.10566000000E+00 0. -1.
        994   -1    0    0    0    0 -0.00000000000E+00 -0.00000000000E+00  0.11368683772E-12  0.17120000000E+03  0.17120000000E+03 0.  0.
         13    1    1    2    0    0 -0.31408776890E+02 -0.12089503536E+01  0.17388014802E+03  0.17669830182E+03  0.10566000000E+00 0. -1.
        994    1    1    2    0    0 -0.79431998690E+01 -0.31509813835E+01  0.37016050329E+01  0.17145309851E+03  0.17120000000E+03 0.  0.
        998    1    1    2    0    0  0.39351976759E+02  0.43599317371E+01  0.13224182432E+04  0.13230485997E+04  0.10000000000E+02 0. -1.
</event>
<event>
 5    1  0.1218060E-008  0.3852672E+03  0.7957747E-01  0.3428540E+00
         13   -1    0    0    0    0  0.00000000000E+00  0.00000000000E+00  0.14999999963E+04  0.15000000000E+04  0.10566000000E+00 0. -1.
        994   -1    0    0    0    0 -0.00000000000E+00 -0.00000000000E+00  0.11368683772E-12  0.17120000000E+03  0.17120000000E+03 0.  0.
         13    1    1    2    0    0 -0.10543778411E+02 -0.23124086243E+01  0.42656858784E+02  0.44001559770E+02  0.10566000000E+00 0. -1.
        994    1    1    2    0    0 -0.92836188855E+01 -0.25377555349E+01  0.18019369260E+01  0.17147977362E+03  0.17120000000E+03 0.  0.
        998    1    1    2    0    0  0.19827397296E+02  0.48501641591E+01  0.14555412006E+04  0.14557186666E+04  0.10000000000E+02 0. -1.
</event>
<event>
 5    1  0.1218060E-008  0.3852175E+03  0.7957747E-01  0.3428750E+00
         13   -1    0    0    0    0  0.00000000000E+00  0.00000000000E+00  0.14999999963E+04  0.15000000000E+04  0.10566000000E+00 0.  1.
        994   -1    0    0    0    0 -0.00000000000E+00 -0.00000000000E+00  0.11368683772E-12  0.17120000000E+03  0.17120000000E+03 0.  0.
         13    1    1    2    0    0 -0.32805412254E+01  0.10563625794E+02  0.39602552871E+02  0.41118432589E+02  0.10566000000E+00 0.  1.
        994    1    1    2    0    0  0.52321780309E+01 -0.90518332233E+01  0.18815191847E+01  0.17152927297E+03  0.17120000000E+03 0.  0.
        998    1    1    2    0    0 -0.19516368055E+01 -0.15117925704E+01  0.14585159242E+04  0.14585522944E+04  0.10000000000E+02 0.  1.
</event>
<event>
 5    1  0.1218060E-008  0.3713512E+03  0.7957747E-01  0.3489704E+00
         13   -1    0    0    0    0  0.00000000000E+00  0.00000000000E+00  0.14999999963E+04  0.15000000000E+04  0.10566000000E+00 0. -1.
        994   -1    0    0    0    0 -0.00000000000E+00 -0.00000000000E+00  0.11368683772E-12  0.17120000000E+03  0.17120000000E+03 0.  0.
         13    1    1    2    0    0 -0.47864698230E+02 -0.15439965513E+02  0.13300699775E+03  0.14219808187E+03  0.10566000000E+00 0. -1.
        994    1    1    2    0    0  0.46316581012E+02  0.18503056696E+02  0.17174903507E+02  0.17914241847E+03  0.17120000000E+03 0.  0.
        998    1    1    2    0    0  0.15481172176E+01 -0.30630911835E+01  0.13498180950E+04  0.13498594997E+04  0.10000000000E+02 0. -1.
</event>
<event>
 5    1  0.1218060E-008  0.3837285E+03  0.7957747E-01  0.3435083E+00
         13   -1    0    0    0    0  0.00000000000E+00  0.00000000000E+00  0.14999999963E+04  0.15000000000E+04  0.10566000000E+00 0.  1.
        994   -1    0    0    0    0 -0.00000000000E+00 -0.00000000000E+00  0.11368683772E-12  0.17120000000E+03  0.17120000000E+03 0.  0.
         13    1    1    2    0    0 -0.90867240987E+01 -0.11427164465E+02  0.46029453897E+02  0.48289444319E+02  0.10566000000E+00 0.  1.
        994    1    1    2    0    0  0.29373132017E+01  0.13052895206E+02  0.28541008680E+01  0.17174571836E+03  0.17120000000E+03 0.  0.
        998    1    1    2    0    0  0.61494108970E+01 -0.16257307404E+01  0.14511164415E+04  0.14511648373E+04  0.10000000000E+02 0.  1.
</event>
<event>
 5    1  0.1218060E-008  0.3796460E+03  0.7957747E-01  0.3452701E+00
         13   -1    0    0    0    0  0.00000000000E+00  0.00000000000E+00  0.14999999963E+04  0.15000000000E+04  0.10566000000E+00 0. -1.
        994   -1    0    0    0    0 -0.00000000000E+00 -0.00000000000E+00  0.11368683772E-12  0.17120000000E+03  0.17120000000E+03 0.  0.
         13    1    1    2    0    0  0.14742377644E+02  0.59599787455E+01  0.27290222646E+02  0.31585225365E+02  0.10566000000E+00 0. -1.
        994    1    1    2    0    0 -0.16451074496E+02  0.20582044681E+01  0.52324531018E+01  0.17208048298E+03  0.17120000000E+03 0.  0.
        998    1    1    2    0    0  0.17086968528E+01 -0.80181832137E+01  0.14674773205E+04  0.14675342917E+04  0.10000000000E+02 0. -1.
</event>
<event>
 5    1  0.1218060E-008  0.3762790E+03  0.7957747E-01  0.3467522E+00
         13   -1    0    0    0    0  0.00000000000E+00  0.00000000000E+00  0.14999999963E+04  0.15000000000E+04  0.10566000000E+00 0.  1.
        994   -1    0    0    0    0 -0.00000000000E+00 -0.00000000000E+00  0.11368683772E-12  0.17120000000E+03  0.17120000000E+03 0.  0.
         13    1    1    2    0    0 -0.44984610674E+02 -0.53793810967E+01  0.19947757807E+03  0.20455773820E+03  0.10566000000E+00 0.  1.
        994    1    1    2    0    0 -0.11946064221E+01  0.94060535499E+01  0.63277233129E+01  0.17157908092E+03  0.17120000000E+03 0.  0.
        998    1    1    2    0    0  0.46179217096E+02 -0.40266724532E+01  0.12941946949E+04  0.12950631809E+04  0.10000000000E+02 0.  1.
</event>
<event>
 5    1  0.1218060E-008  0.3820789E+03  0.7957747E-01  0.3442156E+00
         13   -1    0    0    0    0  0.00000000000E+00  0.00000000000E+00  0.14999999963E+04  0.15000000000E+04  0.10566000000E+00 0.  1.
        994   -1    0    0    0    0 -0.00000000000E+00 -0.00000000000E+00  0.11368683772E-12  0.17120000000E+03  0.17120000000E+03 0.  0.
         13    1    1    2    0    0 -0.23559628887E+02 -0.22605015356E+02  0.16893238131E+03  0.17205872094E+03  0.10566000000E+00 0.  1.
        994    1    1    2    0    0  0.38577109029E+02 -0.72003906640E+01  0.82173905223E+01  0.17583231920E+03  0.17120000000E+03 0.  0.
        998    1    1    2    0    0 -0.15017480142E+02  0.29805406020E+02  0.13228502245E+04  0.13233089599E+04  0.10000000000E+02 0.  1.
</event>
<event>
 5    1  0.1218060E-008  0.3834666E+03  0.7957747E-01  0.3436202E+00
         13   -1    0    0    0    0  0.00000000000E+00  0.00000000000E+00  0.14999999963E+04  0.15000000000E+04  0.10566000000E+00 0. -1.
        994   -1    0    0    0    0 -0.00000000000E+00 -0.00000000000E+00  0.11368683772E-12  0.17120000000E+03  0.17120000000E+03 0.  0.
         13    1    1    2    0    0 -0.76344608957E+01 -0.73590156234E+01  0.21903194135E+02  0.24335184024E+02  0.10566000000E+00 0. -1.
        994    1    1    2    0    0  0.15603762084E+02  0.93507128752E+01  0.34878375800E+01  0.17219906572E+03  0.17120000000E+03 0.  0.
        998    1    1    2    0    0 -0.79693011888E+01 -0.19916972517E+01  0.14746089646E+04  0.14746657503E+04  0.10000000000E+02 0. -1.
</event>
<event>
 5    1  0.1218060E-008  0.3847900E+03  0.7957747E-01  0.3430563E+00
         13   -1    0    0    0    0  0.00000000000E+00  0.00000000000E+00  0.14999999963E+04  0.15000000000E+04  0.10566000000E+00 0. -1.
        994   -1    0    0    0    0 -0.00000000000E+00 -0.00000000000E+00  0.11368683772E-12  0.17120000000E+03  0.17120000000E+03 0.  0.
         13    1    1    2    0    0  0.85096052534E+01 -0.10499417092E+02  0.51270524439E+02  0.53021966968E+02  0.10566000000E+00 0. -1.
        994    1    1    2    0    0 -0.10039168202E+02  0.90916189953E+01  0.23383387639E+01  0.17175083773E+03  0.17120000000E+03 0.  0.
        998    1    1    2    0    0  0.15295629482E+01  0.14077980972E+01  0.14463911331E+04  0.14464271953E+04  0.10000000000E+02 0. -1.
</event>
<event>
 5    1  0.1218060E-008  0.3923632E+03  0.7957747E-01  0.3399032E+00
         13   -1    0    0    0    0  0.00000000000E+00  0.00000000000E+00  0.14999999963E+04  0.15000000000E+04  0.10566000000E+00 0.  1.
        994   -1    0    0    0    0 -0.00000000000E+00 -0.00000000000E+00  0.11368683772E-12  0.17120000000E+03  0.17120000000E+03 0.  0.
         13    1    1    2    0    0  0.70627451133E+02  0.11810100682E+01  0.98186806400E+02  0.12095574295E+03  0.10566000000E+00 0.  1.
        994    1    1    2    0    0 -0.54866457591E+02 -0.18979765178E+01  0.34825413024E+02  0.18312886139E+03  0.17120000000E+03 0.  0.
        998    1    1    2    0    0 -0.15760993542E+02  0.71696644962E+00  0.13669877769E+04  0.13671153957E+04  0.10000000000E+02 0.  1.
</event>
<event>
 5    1  0.1218060E-008  0.3790206E+03  0.7957747E-01  0.3455434E+00
         13   -1    0    0    0    0  0.00000000000E+00  0.00000000000E+00  0.14999999963E+04  0.15000000000E+04  0.10566000000E+00 0.  1.
        994   -1    0    0    0    0 -0.00000000000E+00 -0.00000000000E+00  0.11368683772E-12  0.17120000000E+03  0.17120000000E+03 0.  0.
         13    1    1    2    0    0  0.31900096836E+02 -0.19942733872E+02  0.14286334997E+03  0.14773380365E+03  0.10566000000E+00 0.  1.
        994    1    1    2    0    0 -0.28941036932E+02  0.14153703028E+02  0.81170961014E+01  0.17439391669E+03  0.17120000000E+03 0.  0.
        998    1    1    2    0    0 -0.29590599035E+01  0.57890308443E+01  0.13490195502E+04  0.13490722797E+04  0.10000000000E+02 0.  1.
</event>
<event>
 5    1  0.1218060E-008  0.3739575E+03  0.7957747E-01  0.3477898E+00
         13   -1    0    0    0    0  0.00000000000E+00  0.00000000000E+00  0.14999999963E+04  0.15000000000E+04  0.10566000000E+00 0.  1.
        994   -1    0    0    0    0 -0.00000000000E+00 -0.00000000000E+00  0.11368683772E-12  0.17120000000E+03  0.17120000000E+03 0.  0.
         13    1    1    2    0    0 -0.41214628690E+02 -0.13328418532E+02  0.12006518268E+03  0.12763992955E+03  0.10566000000E+00 0.  1.
        994    1    1    2    0    0  0.50421170100E+02 -0.24626251450E+02  0.18033135669E+02  0.18106181441E+03  0.17120000000E+03 0.  0.
        998    1    1    2    0    0 -0.92065414105E+01  0.37954669982E+02  0.13619016779E+04  0.13624982560E+04  0.10000000000E+02 0.  1.
</event>
<event>
 5    1  0.1218060E-008  0.3758618E+03  0.7957747E-01  0.3469377E+00
         13   -1    0    0    0    0  0.00000000000E+00  0.00000000000E+00  0.14999999963E+04  0.15000000000E+04  0.10566000000E+00 0.  1.
        994   -1    0    0    0    0 -0.00000000000E+00 -0.00000000000E+00  0.11368683772E-12  0.17120000000E+03  0.17120000000E+03 0.  0.
         13    1    1    2    0    0  0.72290062322E+02  0.10923355994E+02  0.21270467729E+03  0.22491879361E+03  0.10566000000E+00 0.  1.
        994    1    1    2    0    0 -0.10686601232E+02 -0.33514106537E+02  0.18502097993E+02  0.17575314055E+03  0.17120000000E+03 0.  0.
        998    1    1    2    0    0 -0.61603461090E+02  0.22590750543E+02  0.12687932210E+04  0.12705280658E+04  0.10000000000E+02 0.  1.
</event>
<event>
 5    1  0.1218060E-008  0.3852117E+03  0.7957747E-01  0.3428775E+00
         13   -1    0    0    0    0  0.00000000000E+00  0.00000000000E+00  0.14999999963E+04  0.15000000000E+04  0.10566000000E+00 0.  1.
        994   -1    0    0    0    0 -0.00000000000E+00 -0.00000000000E+00  0.11368683772E-12  0.17120000000E+03  0.17120000000E+03 0.  0.
         13    1    1    2    0    0  0.51929800214E+01  0.10595986430E+02  0.46517684957E+02  0.47991125718E+02  0.10566000000E+00 0.  1.
        994    1    1    2    0    0  0.34833904225E+01 -0.69155650959E+01  0.17221459502E+01  0.17138367727E+03  0.17120000000E+03 0.  0.
        998    1    1    2    0    0 -0.86763704438E+01 -0.36804213343E+01  0.14517601654E+04  0.14518251970E+04  0.10000000000E+02 0.  1.
</event>
<event>
 5    1  0.1218060E-008  0.4321227E+03  0.7957747E-01  0.3251502E+00
         13   -1    0    0    0    0  0.00000000000E+00  0.00000000000E+00  0.14999999963E+04  0.15000000000E+04  0.10566000000E+00 0. -1.
        994   -1    0    0    0    0 -0.00000000000E+00 -0.00000000000E+00  0.11368683772E-12  0.17120000000E+03  0.17120000000E+03 0.  0.
         13    1    1    2    0    0  0.78130699908E+02 -0.66010562184E+00  0.42752856818E+02  0.89065481180E+02  0.10566000000E+00 0. -1.
        994    1    1    2    0    0 -0.98565903996E+02 -0.55873958193E+01  0.94278929385E+02  0.21896212674E+03  0.17120000000E+03 0.  0.
        998    1    1    2    0    0  0.20435204087E+02  0.62475014411E+01  0.13629682101E+04  0.13631723921E+04  0.10000000000E+02 0. -1.
</event>
<event>
 5    1  0.1218060E-008  0.3792579E+03  0.7957747E-01  0.3454396E+00
         13   -1    0    0    0    0  0.00000000000E+00  0.00000000000E+00  0.14999999963E+04  0.15000000000E+04  0.10566000000E+00 0.  1.
        994   -1    0    0    0    0 -0.00000000000E+00 -0.00000000000E+00  0.11368683772E-12  0.17120000000E+03  0.17120000000E+03 0.  0.
         13    1    1    2    0    0  0.19674554664E+02 -0.82118236892E+00  0.43434336531E+02  0.47689780830E+02  0.10566000000E+00 0.  1.
        994    1    1    2    0    0  0.15844582895E+01 -0.70264913213E+01  0.46821281157E+01  0.17141541474E+03  0.17120000000E+03 0.  0.
        998    1    1    2    0    0 -0.21259012954E+02  0.78476736902E+01  0.14518835316E+04  0.14520948044E+04  0.10000000000E+02 0.  1.
</event>
<event>
 5    1  0.1218060E-008  0.2655542E+03  0.7957747E-01  0.4177433E+00
         13   -1    0    0    0    0  0.00000000000E+00  0.00000000000E+00  0.14999999963E+04  0.15000000000E+04  0.10566000000E+00 0.  1.
        994   -1    0    0    0    0 -0.00000000000E+00 -0.00000000000E+00  0.11368683772E-12  0.17120000000E+03  0.17120000000E+03 0.  0.
         13    1    1    2    0    0 -0.83312959804E+01  0.20220016343E+03  0.38126404491E+03  0.43164406597E+03  0.10566000000E+00 0.  1.
        994    1    1    2    0    0  0.32680438577E+02 -0.16748237922E+03  0.18394233512E+03  0.30374756141E+03  0.17120000000E+03 0.  0.
        998    1    1    2    0    0 -0.24349142597E+02 -0.34717784213E+02  0.93479361625E+03  0.93580837262E+03  0.10000000000E+02 0.  1.
</event>
<event>
 5    1  0.1218060E-008  0.3817670E+03  0.7957747E-01  0.3443501E+00
         13   -1    0    0    0    0  0.00000000000E+00  0.00000000000E+00  0.14999999963E+04  0.15000000000E+04  0.10566000000E+00 0. -1.
        994   -1    0    0    0    0 -0.00000000000E+00 -0.00000000000E+00  0.11368683772E-12  0.17120000000E+03  0.17120000000E+03 0.  0.
         13    1    1    2    0    0  0.45588846583E+00  0.25174451540E+02  0.88068374919E+02  0.91597001422E+02  0.10566000000E+00 0. -1.
        994    1    1    2    0    0  0.10951137230E+02 -0.33385723707E+02  0.73576922733E+01  0.17492315338E+03  0.17120000000E+03 0.  0.
        998    1    1    2    0    0 -0.11407025696E+02  0.82112721668E+01  0.14045739291E+04  0.14046798452E+04  0.10000000000E+02 0. -1.
</event>
<event>
 5    1  0.1218060E-008  0.3858475E+03  0.7957747E-01  0.3426086E+00
         13   -1    0    0    0    0  0.00000000000E+00  0.00000000000E+00  0.14999999963E+04  0.15000000000E+04  0.10566000000E+00 0. -1.
        994   -1    0    0    0    0 -0.00000000000E+00 -0.00000000000E+00  0.11368683772E-12  0.17120000000E+03  0.17120000000E+03 0.  0.
         13    1    1    2    0    0  0.13856275515E+02  0.39865444029E+00  0.78374610267E+02  0.79591117564E+02  0.10566000000E+00 0. -1.
        994    1    1    2    0    0 -0.11786144395E+02 -0.43357867718E+01  0.17273653107E+01  0.17166868100E+03  0.17120000000E+03 0.  0.
        998    1    1    2    0    0 -0.20701311206E+01  0.39371323315E+01  0.14198980207E+04  0.14199402014E+04  0.10000000000E+02 0. -1.
</event>
<event>
 5    1  0.1218060E-008  0.3736364E+03  0.7957747E-01  0.3479344E+00
         13   -1    0    0    0    0  0.00000000000E+00  0.00000000000E+00  0.14999999963E+04  0.15000000000E+04  0.10566000000E+00 0. -1.
        994   -1    0    0    0    0 -0.00000000000E+00 -0.00000000000E+00  0.11368683772E-12  0.17120000000E+03  0.17120000000E+03 0.  0.
         13    1    1    2    0    0 -0.36707193491E+02 -0.21631830612E+02  0.13391589980E+03  0.14053054306E+03  0.10566000000E+00 0. -1.
        994    1    1    2    0    0 -0.33220396776E+01  0.11963268809E+02  0.79072562533E+01  0.17183166312E+03  0.17120000000E+03 0.  0.
        998    1    1    2    0    0  0.40029233169E+02  0.96685618023E+01  0.13581768402E+04  0.13588377938E+04  0.10000000000E+02 0. -1.
</event>
<event>
 5    1  0.1218060E-008  0.3853654E+03  0.7957747E-01  0.3428124E+00
         13   -1    0    0    0    0  0.00000000000E+00  0.00000000000E+00  0.14999999963E+04  0.15000000000E+04  0.10566000000E+00 0. -1.
        994   -1    0    0    0    0 -0.00000000000E+00 -0.00000000000E+00  0.11368683772E-12  0.17120000000E+03  0.17120000000E+03 0.  0.
         13    1    1    2    0    0 -0.13571380701E+02  0.69509238208E+01  0.83511508450E+02  0.84892172334E+02  0.10566000000E+00 0. -1.
        994    1    1    2    0    0  0.12929045174E+01 -0.90539233456E+01  0.17236238520E+01  0.17145278070E+03  0.17120000000E+03 0.  0.
        998    1    1    2    0    0  0.12278476184E+02  0.21029995248E+01  0.14147648640E+04  0.14148550470E+04  0.10000000000E+02 0. -1.
</event>
<event>
 5    1  0.1218060E-008  0.3840067E+03  0.7957747E-01  0.3433896E+00
         13   -1    0    0    0    0  0.00000000000E+00  0.00000000000E+00  0.14999999963E+04  0.15000000000E+04  0.10566000000E+00 0. -1.
        994   -1    0    0    0    0 -0.00000000000E+00 -0.00000000000E+00  0.11368683772E-12  0.17120000000E+03  0.17120000000E+03 0.  0.
         13    1    1    2    0    0  0.69633786144E+01 -0.78168210452E+01  0.25048960680E+02  0.27148718720E+02  0.10566000000E+00 0. -1.
        994    1    1    2    0    0 -0.49281646932E+01  0.69374151132E+01  0.23630244710E+01  0.17142764777E+03  0.17120000000E+03 0.  0.
        998    1    1    2    0    0 -0.20352139213E+01  0.87940593197E+00  0.14725880111E+04  0.14726236335E+04  0.10000000000E+02 0. -1.
</event>
<event>
 5    1  0.1218060E-008  0.3854392E+03  0.7957747E-01  0.3427811E+00
         13   -1    0    0    0    0  0.00000000000E+00  0.00000000000E+00  0.14999999963E+04  0.15000000000E+04  0.10566000000E+00 0.  1.
        994   -1    0    0    0    0 -0.00000000000E+00 -0.00000000000E+00  0.11368683772E-12  0.17120000000E+03  0.17120000000E+03 0.  0.
         13    1    1    2    0    0 -0.47520496223E+02 -0.11213125371E+03  0.30768694499E+03  0.33091219818E+03  0.10566000000E+00 0.  1.
        994    1    1    2    0    0  0.44186067109E+02  0.10438904725E+03  0.68577079648E+02  0.21647572050E+03  0.17120000000E+03 0.  0.
        998    1    1    2    0    0  0.33344291145E+01  0.77422064660E+01  0.11237359716E+04  0.11238120813E+04  0.10000000000E+02 0.  0.
</event>
<event>
 5    1  0.1218060E-008  0.3775511E+03  0.7957747E-01  0.3461891E+00
         13   -1    0    0    0    0  0.00000000000E+00  0.00000000000E+00  0.14999999963E+04  0.15000000000E+04  0.10566000000E+00 0.  1.
        994   -1    0    0    0    0 -0.00000000000E+00 -0.00000000000E+00  0.11368683772E-12  0.17120000000E+03  0.17120000000E+03 0.  0.
         13    1    1    2    0    0 -0.13674047995E+02 -0.12097715043E+02  0.28727445907E+02  0.34038384365E+02  0.10566000000E+00 0.  1.
        994    1    1    2    0    0  0.10025664415E+02  0.90045946205E+01  0.59867301792E+01  0.17183386631E+03  0.17120000000E+03 0.  0.
        998    1    1    2    0    0  0.36483835801E+01  0.30931204228E+01  0.14652858202E+04  0.14653277493E+04  0.10000000000E+02 0.  1.
</event>
<event>
 5    1  0.1218060E-008  0.3777003E+03  0.7957747E-01  0.3461234E+00
         13   -1    0    0    0    0  0.00000000000E+00  0.00000000000E+00  0.14999999963E+04  0.15000000000E+04  0.10566000000E+00 0. -1.
        994   -1    0    0    0    0 -0.00000000000E+00 -0.00000000000E+00  0.11368683772E-12  0.17120000000E+03  0.17120000000E+03 0.  0.
         13    1    1    2    0    0  0.27565554404E+02  0.33434058415E+02  0.23706174356E+03  0.24098957960E+03  0.10566000000E+00 0. -1.
        994    1    1    2    0    0  0.19101041688E+02  0.24020948751E+01  0.65479981562E+01  0.17240341103E+03  0.17120000000E+03 0.  0.
        998    1    1    2    0    0 -0.46666596093E+02 -0.35836153290E+02  0.12563902546E+04  0.12578070094E+04  0.10000000000E+02 0. -1.
</event>
<event>
 5    1  0.1218060E-008  0.3694003E+03  0.7957747E-01  0.3498652E+00
         13   -1    0    0    0    0  0.00000000000E+00  0.00000000000E+00  0.14999999963E+04  0.15000000000E+04  0.10566000000E+00 0. -1.
        994   -1    0    0    0    0 -0.00000000000E+00 -0.00000000000E+00  0.11368683772E-12  0.17120000000E+03  0.17120000000E+03 0.  0.
         13    1    1    2    0    0 -0.34704678987E+02  0.72657571497E+02  0.32338587162E+03  0.33325961437E+03  0.10566000000E+00 0. -1.
        994    1    1    2    0    0 -0.35010131414E+01 -0.60194286464E+02  0.22287277006E+02  0.18287091604E+03  0.17120000000E+03 0.  0.
        998    1    1    2    0    0  0.38205692129E+02 -0.12463285033E+02  0.11543268477E+04  0.11550694696E+04  0.10000000000E+02 0. -1.
</event>
<event>
 5    1  0.1218060E-008  0.3781538E+03  0.7957747E-01  0.3459237E+00
         13   -1    0    0    0    0  0.00000000000E+00  0.00000000000E+00  0.14999999963E+04  0.15000000000E+04  0.10566000000E+00 0. -1.
        994   -1    0    0    0    0 -0.00000000000E+00 -0.00000000000E+00  0.11368683772E-12  0.17120000000E+03  0.17120000000E+03 0.  0.
         13    1    1    2    0    0  0.14633868239E+02 -0.13944864076E+02  0.37858945947E+02  0.42917598791E+02  0.10566000000E+00 0. -1.
        994    1    1    2    0    0 -0.11652021137E+02  0.12818621112E+02  0.60779751048E+01  0.17218149850E+03  0.17120000000E+03 0.  0.
        998    1    1    2    0    0 -0.29818471022E+01  0.11262429637E+01  0.14560630752E+04  0.14561009027E+04  0.10000000000E+02 0. -1.
</event>
<event>
 5    1  0.1218060E-008  0.3763090E+03  0.7957747E-01  0.3467389E+00
         13   -1    0    0    0    0  0.00000000000E+00  0.00000000000E+00  0.14999999963E+04  0.15000000000E+04  0.10566000000E+00 0. -1.
        994   -1    0    0    0    0 -0.00000000000E+00 -0.00000000000E+00  0.11368683772E-12  0.17120000000E+03  0.17120000000E+03 0.  0.
         13    1    1    2    0    0  0.23885289349E+02  0.87741943813E+01  0.50758019067E+02  0.56779232100E+02  0.10566000000E+00 0. -1.
        994    1    1    2    0    0 -0.20098172683E+02 -0.73445006225E+01  0.75591683085E+01  0.17269759483E+03  0.17120000000E+03 0.  0.
        998    1    1    2    0    0 -0.37871166659E+01 -0.14296937589E+01  0.14416828089E+04  0.14417231731E+04  0.10000000000E+02 0. -1.
</event>
<event>
 5    1  0.1218060E-008  0.3779391E+03  0.7957747E-01  0.3460182E+00
         13   -1    0    0    0    0  0.00000000000E+00  0.00000000000E+00  0.14999999963E+04  0.15000000000E+04  0.10566000000E+00 0. -1.
        994   -1    0    0    0    0 -0.00000000000E+00 -0.00000000000E+00  0.11368683772E-12  0.17120000000E+03  0.17120000000E+03 0.  0.
         13    1    1    2    0    0 -0.28248722901E+02  0.55205421148E+01  0.92918606706E+02  0.97274587468E+02  0.10566000000E+00 0. -1.
        994    1    1    2    0    0 -0.23283147211E+02 -0.17427824699E+02  0.80293210297E+01  0.17383826970E+03  0.17120000000E+03 0.  0.
        998    1    1    2    0    0  0.51531870113E+02  0.11907282584E+02  0.13990520685E+04  0.14000871428E+04  0.10000000000E+02 0. -1.
</event>
<event>
 5    1  0.1218060E-008  0.3794661E+03  0.7957747E-01  0.3453486E+00
         13   -1    0    0    0    0  0.00000000000E+00  0.00000000000E+00  0.14999999963E+04  0.15000000000E+04  0.10566000000E+00 0. -1.
        994   -1    0    0    0    0 -0.00000000000E+00 -0.00000000000E+00  0.11368683772E-12  0.17120000000E+03  0.17120000000E+03 0.  0.
         13    1    1    2    0    0  0.17124595444E+02  0.61934015781E+01  0.35030453668E+02  0.39481056729E+02  0.10566000000E+00 0. -1.
        994    1    1    2    0    0 -0.18204781843E+02 -0.90197735019E+01  0.57863862160E+01  0.17249838452E+03  0.17120000000E+03 0.  0.
        998    1    1    2    0    0  0.10801863993E+01  0.28263719238E+01  0.14591831564E+04  0.14592205588E+04  0.10000000000E+02 0. -1.
</event>
<event>
 5    1  0.1218060E-008  0.3841800E+03  0.7957747E-01  0.3433158E+00
         13   -1    0    0    0    0  0.00000000000E+00  0.00000000000E+00  0.14999999963E+04  0.15000000000E+04  0.10566000000E+00 0. -1.
        994   -1    0    0    0    0 -0.00000000000E+00 -0.00000000000E+00  0.11368683772E-12  0.17120000000E+03  0.17120000000E+03 0.  0.
         13    1    1    2    0    0 -0.13240708194E+02 -0.49062827949E+01  0.48553929853E+02  0.50565632920E+02  0.10566000000E+00 0. -1.
        994    1    1    2    0    0  0.79267467874E+01  0.51763375502E+01  0.23334114556E+01  0.17147744048E+03  0.17120000000E+03 0.  0.
        998    1    1    2    0    0  0.53139614068E+01 -0.27005475535E+00  0.14491126550E+04  0.14491569266E+04  0.10000000000E+02 0. -1.
</event>
<event>
 5    1  0.1218060E-008  0.3827362E+03  0.7957747E-01  0.3439330E+00
         13   -1    0    0    0    0  0.00000000000E+00  0.00000000000E+00  0.14999999963E+04  0.15000000000E+04  0.10566000000E+00 0. -1.
        994   -1    0    0    0    0 -0.00000000000E+00 -0.00000000000E+00  0.11368683772E-12  0.17120000000E+03  0.17120000000E+03 0.  0.
         13    1    1    2    0    0 -0.14189458918E+02  0.32178671625E+01  0.30185742100E+02  0.33509485279E+02  0.10566000000E+00 0. -1.
        994    1    1    2    0    0  0.56453450377E+02 -0.68278383164E+02  0.29211885275E+02  0.19496590448E+03  0.17120000000E+03 0.  0.
        998    1    1    2    0    0 -0.42263991459E+02  0.65060516001E+02  0.14406023689E+04  0.14427246102E+04  0.10000000000E+02 0. -1.
</event>
<event>
 5    1  0.1218060E-008  0.2821754E+03  0.7957747E-01  0.4032106E+00
         13   -1    0    0    0    0  0.00000000000E+00  0.00000000000E+00  0.14999999963E+04  0.15000000000E+04  0.10566000000E+00 0.  1.
        994   -1    0    0    0    0 -0.00000000000E+00 -0.00000000000E+00  0.11368683772E-12  0.17120000000E+03  0.17120000000E+03 0.  0.
         13    1    1    2    0    0  0.19353993196E+03  0.63006180167E+02  0.46089832140E+03  0.50384001215E+03  0.10566000000E+00 0.  1.
        994    1    1    2    0    0 -0.18658738716E+03 -0.66504060247E+02  0.20334192730E+03  0.33150418169E+03  0.17120000000E+03 0.  0.
        998    1    1    2    0    0 -0.69525448063E+01  0.34978800795E+01  0.83575974757E+03  0.83585580617E+03  0.10000000000E+02 0. -1.
</event>
<event>
 5    1  0.1218060E-008  0.3776554E+03  0.7957747E-01  0.3461431E+00
         13   -1    0    0    0    0  0.00000000000E+00  0.00000000000E+00  0.14999999963E+04  0.15000000000E+04  0.10566000000E+00 0.  1.
        994   -1    0    0    0    0 -0.00000000000E+00 -0.00000000000E+00  0.11368683772E-12  0.17120000000E+03  0.17120000000E+03 0.  0.
         13    1    1    2    0    0  0.47582758168E+02 -0.16948607228E+01  0.18977698717E+03  0.19565865033E+03  0.10566000000E+00 0.  1.
        994    1    1    2    0    0 -0.44158344747E+02  0.20465620740E+02  0.13343898790E+02  0.17848333445E+03  0.17120000000E+03 0.  0.
        998    1    1    2    0    0 -0.34244134216E+01 -0.18770760018E+02  0.12968791103E+04  0.12970580152E+04  0.10000000000E+02 0.  1.
</event>
<event>
 5    1  0.1218060E-008  0.3800151E+03  0.7957747E-01  0.3451093E+00
         13   -1    0    0    0    0  0.00000000000E+00  0.00000000000E+00  0.14999999963E+04  0.15000000000E+04  0.10566000000E+00 0.  1.
        994   -1    0    0    0    0 -0.00000000000E+00 -0.00000000000E+00  0.11368683772E-12  0.17120000000E+03  0.17120000000E+03 0.  0.
         13    1    1    2    0    0 -0.21125452958E+02 -0.75644915388E+01  0.61246665761E+02  0.65227843180E+02  0.10566000000E+00 0.  1.
        994    1    1    2    0    0  0.55417973629E+01  0.65492784023E+01  0.43716069755E+01  0.17147056748E+03  0.17120000000E+03 0.  0.
        998    1    1    2    0    0  0.15583655595E+02  0.10152131365E+01  0.14343817235E+04  0.14345015893E+04  0.10000000000E+02 0.  1.
</event>
<event>
 5    1  0.1218060E-008  0.3836574E+03  0.7957747E-01  0.3435386E+00
         13   -1    0    0    0    0  0.00000000000E+00  0.00000000000E+00  0.14999999963E+04  0.15000000000E+04  0.10566000000E+00 0.  1.
        994   -1    0    0    0    0 -0.00000000000E+00 -0.00000000000E+00  0.11368683772E-12  0.17120000000E+03  0.17120000000E+03 0.  0.
         13    1    1    2    0    0 -0.55268186999E+01 -0.13391545518E+02  0.45217146609E+02  0.47481372430E+02  0.10566000000E+00 0.  1.
        994    1    1    2    0    0  0.28197364319E+01  0.84481357658E+01  0.25602126415E+01  0.17145062438E+03  0.17120000000E+03 0.  0.
        998    1    1    2    0    0  0.27070822680E+01  0.49434097521E+01  0.14522226370E+04  0.14522680032E+04  0.10000000000E+02 0.  1.
</event>
<event>
 5    1  0.1218060E-008  0.2763193E+03  0.7957747E-01  0.4081071E+00
         13   -1    0    0    0    0  0.00000000000E+00  0.00000000000E+00  0.14999999963E+04  0.15000000000E+04  0.10566000000E+00 0. -1.
        994   -1    0    0    0    0 -0.00000000000E+00 -0.00000000000E+00  0.11368683772E-12  0.17120000000E+03  0.17120000000E+03 0.  0.
         13    1    1    2    0    0 -0.43388802682E+02  0.21315419076E+03  0.33647120069E+03  0.40066217353E+03  0.10566000000E+00 0. -1.
        994    1    1    2    0    0  0.14908149058E+02 -0.21037114020E+03  0.29324148750E+03  0.39972275333E+03  0.17120000000E+03 0.  0.
        998    1    1    2    0    0  0.28480653624E+02 -0.27830505576E+01  0.87028730808E+03  0.87081507314E+03  0.10000000000E+02 0. -1.
</event>
<event>
 5    1  0.1218060E-008  0.3806201E+03  0.7957747E-01  0.3448463E+00
         13   -1    0    0    0    0  0.00000000000E+00  0.00000000000E+00  0.14999999963E+04  0.15000000000E+04  0.10566000000E+00 0. -1.
        994   -1    0    0    0    0 -0.00000000000E+00 -0.00000000000E+00  0.11368683772E-12  0.17120000000E+03  0.17120000000E+03 0.  0.
         13    1    1    2    0    0 -0.23527136346E+01 -0.15814667332E+02  0.31288921025E+02  0.35137539857E+02  0.10566000000E+00 0. -1.
        994    1    1    2    0    0 -0.50877303896E+01  0.18539120489E+02  0.50543617611E+01  0.17235013943E+03  0.17120000000E+03 0.  0.
        998    1    1    2    0    0  0.74404440242E+01 -0.27244531574E+01  0.14636567135E+04  0.14637123207E+04  0.10000000000E+02 0. -1.
</event>
<event>
 5    1  0.1218060E-008  0.3857411E+03  0.7957747E-01  0.3426535E+00
         13   -1    0    0    0    0  0.00000000000E+00  0.00000000000E+00  0.14999999963E+04  0.15000000000E+04  0.10566000000E+00 0.  1.
        994   -1    0    0    0    0 -0.00000000000E+00 -0.00000000000E+00  0.11368683772E-12  0.17120000000E+03  0.17120000000E+03 0.  0.
         13    1    1    2    0    0 -0.68814611988E+01  0.10927449629E+02  0.65851141763E+02  0.67105496788E+02  0.10566000000E+00 0.  1.
        994    1    1    2    0    0  0.54068897208E+01 -0.84938588970E+01  0.15953307026E+01  0.17150325121E+03  0.17120000000E+03 0.  0.
        998    1    1    2    0    0  0.14745714780E+01 -0.24335907321E+01  0.14325535238E+04  0.14325912520E+04  0.10000000000E+02 0.  1.
</event>
<event>
 5    1  0.1218060E-008  0.3748407E+03  0.7957747E-01  0.3473936E+00
         13   -1    0    0    0    0  0.00000000000E+00  0.00000000000E+00  0.14999999963E+04  0.15000000000E+04  0.10566000000E+00 0. -1.
        994   -1    0    0    0    0 -0.00000000000E+00 -0.00000000000E+00  0.11368683772E-12  0.17120000000E+03  0.17120000000E+03 0.  0.
         13    1    1    2    0    0 -0.19591482409E+02 -0.29514803108E+02  0.88400891329E+02  0.95234859885E+02  0.10566000000E+00 0. -1.
        994    1    1    2    0    0  0.25879279980E+02  0.15931113249E+02  0.99079437862E+01  0.17415839013E+03  0.17120000000E+03 0.  0.
        998    1    1    2    0    0 -0.62877975708E+01  0.13583689858E+02  0.14016911612E+04  0.14018067500E+04  0.10000000000E+02 0. -1.
</event>
<event>
 5    1  0.1218060E-008  0.3848148E+03  0.7957747E-01  0.3430458E+00
         13   -1    0    0    0    0  0.00000000000E+00  0.00000000000E+00  0.14999999963E+04  0.15000000000E+04  0.10566000000E+00 0.  1.
        994   -1    0    0    0    0 -0.00000000000E+00 -0.00000000000E+00  0.11368683772E-12  0.17120000000E+03  0.17120000000E+03 0.  0.
         13    1    1    2    0    0  0.12646137434E+02  0.77497294153E+01  0.68253241550E+02  0.69846254332E+02  0.10566000000E+00 0.  1.
        994    1    1    2    0    0 -0.38721565752E+01  0.77276032342E+01  0.19680156738E+01  0.17142935144E+03  0.17120000000E+03 0.  0.
        998    1    1    2    0    0 -0.87739808592E+01 -0.15477332650E+02  0.14297787391E+04  0.14299243942E+04  0.10000000000E+02 0.  1.
</event>
<event>
 5    1  0.1218060E-008  0.3754362E+03  0.7957747E-01  0.3471274E+00
         13   -1    0    0    0    0  0.00000000000E+00  0.00000000000E+00  0.14999999963E+04  0.15000000000E+04  0.10566000000E+00 0.  1.
        994   -1    0    0    0    0 -0.00000000000E+00 -0.00000000000E+00  0.11368683772E-12  0.17120000000E+03  0.17120000000E+03 0.  0.
         13    1    1    2    0    0  0.84462388225E+00  0.18100460912E+02  0.22783141495E+02  0.29110526878E+02  0.10566000000E+00 0.  1.
        994    1    1    2    0    0 -0.81136888837E+01 -0.10861403330E+02  0.70789867433E+01  0.17188180265E+03  0.17120000000E+03 0.  0.
        998    1    1    2    0    0  0.72690650015E+01 -0.72390575820E+01  0.14701378680E+04  0.14702076705E+04  0.10000000000E+02 0.  1.
</event>
<event>
 5    1  0.1218060E-008  0.3785789E+03  0.7957747E-01  0.3457370E+00
         13   -1    0    0    0    0  0.00000000000E+00  0.00000000000E+00  0.14999999963E+04  0.15000000000E+04  0.10566000000E+00 0. -1.
        994   -1    0    0    0    0 -0.00000000000E+00 -0.00000000000E+00  0.11368683772E-12  0.17120000000E+03  0.17120000000E+03 0.  0.
         13    1    1    2    0    0 -0.72619370478E+01 -0.89998102897E+01  0.11468133893E+02  0.16286852795E+02  0.10566000000E+00 0. -1.
        994    1    1    2    0    0  0.14243107350E+02  0.70026004831E+01  0.56987513530E+01  0.17202853917E+03  0.17120000000E+03 0.  0.
        998    1    1    2    0    0 -0.69811703025E+01  0.19972098066E+01  0.14828331110E+04  0.14828846080E+04  0.10000000000E+02 0. -1.
</event>
<event>
 5    1  0.1218060E-008  0.3700214E+03  0.7957747E-01  0.3495792E+00
         13   -1    0    0    0    0  0.00000000000E+00  0.00000000000E+00  0.14999999963E+04  0.15000000000E+04  0.10566000000E+00 0. -1.
        994   -1    0    0    0    0 -0.00000000000E+00 -0.00000000000E+00  0.11368683772E-12  0.17120000000E+03  0.17120000000E+03 0.  0.
         13    1    1    2    0    0  0.75906809590E+02 -0.24785594407E+02  0.24329165281E+03  0.25606055714E+03  0.10566000000E+00 0. -1.
        994    1    1    2    0    0 -0.75747057340E+02  0.19343674054E+02  0.32635807069E+02  0.19101395322E+03  0.17120000000E+03 0.  0.
        998    1    1    2    0    0 -0.15975225065E+00  0.54419203538E+01  0.12240725364E+04  0.12241254896E+04  0.10000000000E+02 0. -1.
</event>
<event>
 5    1  0.1218060E-008  0.3784820E+03  0.7957747E-01  0.3457795E+00
         13   -1    0    0    0    0  0.00000000000E+00  0.00000000000E+00  0.14999999963E+04  0.15000000000E+04  0.10566000000E+00 0. -1.
        994   -1    0    0    0    0 -0.00000000000E+00 -0.00000000000E+00  0.11368683772E-12  0.17120000000E+03  0.17120000000E+03 0.  0.
         13    1    1    2    0    0  0.81917284613E+00 -0.11712224369E+02  0.11919855983E+02  0.16731448667E+02  0.10566000000E+00 0. -1.
        994    1    1    2    0    0 -0.52880119929E+01  0.72262142426E+01  0.51708022201E+01  0.17151197754E+03  0.17120000000E+03 0.  0.
        998    1    1    2    0    0  0.44688391468E+01  0.44860101267E+01  0.14829093381E+04  0.14829565738E+04  0.10000000000E+02 0. -1.
</event>
<event>
 5    1  0.1218060E-008  0.3764581E+03  0.7957747E-01  0.3466727E+00
         13   -1    0    0    0    0  0.00000000000E+00  0.00000000000E+00  0.14999999963E+04  0.15000000000E+04  0.10566000000E+00 0. -1.
        994   -1    0    0    0    0 -0.00000000000E+00 -0.00000000000E+00  0.11368683772E-12  0.17120000000E+03  0.17120000000E+03 0.  0.
         13    1    1    2    0    0  0.50320082482E+02  0.13787312558E+01  0.20322935487E+03  0.20937094700E+03  0.10566000000E+00 0. -1.
        994    1    1    2    0    0 -0.35302633859E+02 -0.99115525517E+01  0.10493294324E+02  0.17539687585E+03  0.17120000000E+03 0.  0.
        998    1    1    2    0    0 -0.15017448623E+02  0.85328212959E+01  0.12862773471E+04  0.12864321772E+04  0.10000000000E+02 0. -1.
</event>
<event>
 5    1  0.1218060E-008  0.3832940E+03  0.7957747E-01  0.3436940E+00
         13   -1    0    0    0    0  0.00000000000E+00  0.00000000000E+00  0.14999999963E+04  0.15000000000E+04  0.10566000000E+00 0. -1.
        994   -1    0    0    0    0 -0.00000000000E+00 -0.00000000000E+00  0.11368683772E-12  0.17120000000E+03  0.17120000000E+03 0.  0.
         13    1    1    2    0    0  0.57051360314E+01  0.16478355852E+02  0.59906201315E+02  0.62392699163E+02  0.10566000000E+00 0. -1.
        994    1    1    2    0    0  0.33816625542E+02 -0.27645827080E+02  0.88144135978E+01  0.17690389991E+03  0.17120000000E+03 0.  0.
        998    1    1    2    0    0 -0.39521761573E+02  0.11167471228E+02  0.14312793814E+04  0.14319034009E+04  0.10000000000E+02 0. -1.
</event>
<event>
 5    1  0.1218060E-008  0.3849633E+03  0.7957747E-01  0.3429828E+00
         13   -1    0    0    0    0  0.00000000000E+00  0.00000000000E+00  0.14999999963E+04  0.15000000000E+04  0.10566000000E+00 0.  1.
        994   -1    0    0    0    0 -0.00000000000E+00 -0.00000000000E+00  0.11368683772E-12  0.17120000000E+03  0.17120000000E+03 0.  0.
         13    1    1    2    0    0  0.13034705392E+02 -0.89746135056E+01  0.74004684898E+02  0.75677947800E+02  0.10566000000E+00 0.  1.
        994    1    1    2    0    0 -0.12308383617E+02  0.73186630449E+01  0.23230770912E+01  0.17181354959E+03  0.17120000000E+03 0.  0.
        998    1    1    2    0    0 -0.72632177547E+00  0.16559504607E+01  0.14236722343E+04  0.14237085026E+04  0.10000000000E+02 0.  1.
</event>
<event>
 5    1  0.1218060E-008  0.3742501E+03  0.7957747E-01  0.3476583E+00
         13   -1    0    0    0    0  0.00000000000E+00  0.00000000000E+00  0.14999999963E+04  0.15000000000E+04  0.10566000000E+00 0. -1.
        994   -1    0    0    0    0 -0.00000000000E+00 -0.00000000000E+00  0.11368683772E-12  0.17120000000E+03  0.17120000000E+03 0.  0.
         13    1    1    2    0    0  0.17819377778E+02 -0.62140493837E+01  0.22392415951E+02  0.29284400118E+02  0.10566000000E+00 0. -1.
        994    1    1    2    0    0 -0.10783728493E+02 -0.77574770795E+00  0.74627403881E+01  0.17170329956E+03  0.17120000000E+03 0.  0.
        998    1    1    2    0    0 -0.70356492849E+01  0.69897970917E+01  0.14701448399E+04  0.14702123003E+04  0.10000000000E+02 0. -1.
</event>
<event>
 5    1  0.1218060E-008  0.3731757E+03  0.7957747E-01  0.3481422E+00
         13   -1    0    0    0    0  0.00000000000E+00  0.00000000000E+00  0.14999999963E+04  0.15000000000E+04  0.10566000000E+00 0. -1.
        994   -1    0    0    0    0 -0.00000000000E+00 -0.00000000000E+00  0.11368683772E-12  0.17120000000E+03  0.17120000000E+03 0.  0.
         13    1    1    2    0    0  0.33372582552E+02  0.97459878160E+01  0.72363184021E+02  0.80281723389E+02  0.10566000000E+00 0. -1.
        994    1    1    2    0    0 -0.36382726559E+02 -0.11095379973E+02  0.12583156541E+02  0.17582544206E+03  0.17120000000E+03 0.  0.
        998    1    1    2    0    0  0.30101440070E+01  0.13493921574E+01  0.14150536557E+04  0.14150928345E+04  0.10000000000E+02 0. -1.
</event>
<event>
 5    1  0.1218060E-008  0.3859162E+03  0.7957747E-01  0.3425796E+00
         13   -1    0    0    0    0  0.00000000000E+00  0.00000000000E+00  0.14999999963E+04  0.15000000000E+04  0.10566000000E+00 0.  1.
        994   -1    0    0    0    0 -0.00000000000E+00 -0.00000000000E+00  0.11368683772E-12  0.17120000000E+03  0.17120000000E+03 0.  0.
         13    1    1    2    0    0 -0.99747085184E+01 -0.20387001645E+01  0.48888945395E+02  0.49937873946E+02  0.10566000000E+00 0.  1.
        994    1    1    2    0    0 -0.77717907139E+01  0.89156630533E+00  0.13766412849E+01  0.17138416135E+03  0.17120000000E+03 0.  0.
        998    1    1    2    0    0  0.17746499232E+02  0.11471338592E+01  0.14497344096E+04  0.14498779647E+04  0.10000000000E+02 0.  1.
</event>
<event>
 5    1  0.1218060E-008  0.3814050E+03  0.7957747E-01  0.3445064E+00
         13   -1    0    0    0    0  0.00000000000E+00  0.00000000000E+00  0.14999999963E+04  0.15000000000E+04  0.10566000000E+00 0.  1.
        994   -1    0    0    0    0 -0.00000000000E+00 -0.00000000000E+00  0.11368683772E-12  0.17120000000E+03  0.17120000000E+03 0.  0.
         13    1    1    2    0    0  0.19797831377E+02 -0.39883674030E+01  0.56292162159E+02  0.59805349981E+02  0.10566000000E+00 0.  1.
        994    1    1    2    0    0 -0.22251664040E+02 -0.17032685826E+01  0.50845676582E+01  0.17272327725E+03  0.17120000000E+03 0.  0.
        998    1    1    2    0    0  0.24538326634E+01  0.56916359855E+01  0.14386232665E+04  0.14386713728E+04  0.10000000000E+02 0.  1.
</event>
<event>
 5    1  0.1218060E-008  0.3858936E+03  0.7957747E-01  0.3425891E+00
         13   -1    0    0    0    0  0.00000000000E+00  0.00000000000E+00  0.14999999963E+04  0.15000000000E+04  0.10566000000E+00 0. -1.
        994   -1    0    0    0    0 -0.00000000000E+00 -0.00000000000E+00  0.11368683772E-12  0.17120000000E+03  0.17120000000E+03 0.  0.
         13    1    1    2    0    0  0.16880827447E+01  0.11094552666E+02  0.49900815103E+02  0.51147250505E+02  0.10566000000E+00 0. -1.
        994    1    1    2    0    0 -0.57057050365E+01 -0.18015437500E+02  0.23590455204E+01  0.17225596116E+03  0.17120000000E+03 0.  0.
        998    1    1    2    0    0  0.40176222918E+01  0.69208848341E+01  0.14477401357E+04  0.14477967883E+04  0.10000000000E+02 0. -1.
</event>
<event>
 5    1  0.1218060E-008  0.3778037E+03  0.7957747E-01  0.3460778E+00
         13   -1    0    0    0    0  0.00000000000E+00  0.00000000000E+00  0.14999999963E+04  0.15000000000E+04  0.10566000000E+00 0.  1.
        994   -1    0    0    0    0 -0.00000000000E+00 -0.00000000000E+00  0.11368683772E-12  0.17120000000E+03  0.17120000000E+03 0.  0.
         13    1    1    2    0    0 -0.40902624976E+01  0.18476415408E+02  0.32063752550E+02  0.37231754797E+02  0.10566000000E+00 0.  1.
        994    1    1    2    0    0  0.63610524705E+01 -0.11137316511E+02  0.58000929654E+01  0.17177771650E+03  0.17120000000E+03 0.  0.
        998    1    1    2    0    0 -0.22707899729E+01 -0.73390988973E+01  0.14621361508E+04  0.14621905287E+04  0.10000000000E+02 0.  1.
</event>
<event>
 5    1  0.1218060E-008  0.3838520E+03  0.7957747E-01  0.3434556E+00
         13   -1    0    0    0    0  0.00000000000E+00  0.00000000000E+00  0.14999999963E+04  0.15000000000E+04  0.10566000000E+00 0. -1.
        994   -1    0    0    0    0 -0.00000000000E+00 -0.00000000000E+00  0.11368683772E-12  0.17120000000E+03  0.17120000000E+03 0.  0.
         13    1    1    2    0    0 -0.13816938061E+02  0.16564025057E+02  0.12981873914E+03  0.13159859764E+03  0.10566000000E+00 0. -1.
        994    1    1    2    0    0 -0.63265602627E+01  0.10919014648E+02  0.27270101541E+01  0.17168612882E+03  0.17120000000E+03 0.  0.
        998    1    1    2    0    0  0.20143498324E+02 -0.27483039705E+02  0.13674542470E+04  0.13679152735E+04  0.10000000000E+02 0. -1.
</event>
<event>
 5    1  0.1218060E-008  0.3821139E+03  0.7957747E-01  0.3442006E+00
         13   -1    0    0    0    0  0.00000000000E+00  0.00000000000E+00  0.14999999963E+04  0.15000000000E+04  0.10566000000E+00 0. -1.
        994   -1    0    0    0    0 -0.00000000000E+00 -0.00000000000E+00  0.11368683772E-12  0.17120000000E+03  0.17120000000E+03 0.  0.
         13    1    1    2    0    0  0.14671076141E+02 -0.26562188123E+01  0.34815605786E+02  0.37873916404E+02  0.10566000000E+00 0. -1.
        994    1    1    2    0    0 -0.12404406338E+02  0.11026417426E+01  0.35848666441E+01  0.17168976785E+03  0.17120000000E+03 0.  0.
        998    1    1    2    0    0 -0.22666698026E+01  0.15535770697E+01  0.14615995238E+04  0.14616363157E+04  0.10000000000E+02 0. -1.
</event>
<event>
 5    1  0.1218060E-008  0.3725309E+03  0.7957747E-01  0.3484339E+00
         13   -1    0    0    0    0  0.00000000000E+00  0.00000000000E+00  0.14999999963E+04  0.15000000000E+04  0.10566000000E+00 0. -1.
        994   -1    0    0    0    0 -0.00000000000E+00 -0.00000000000E+00  0.11368683772E-12  0.17120000000E+03  0.17120000000E+03 0.  0.
         13    1    1    2    0    0  0.17005923144E+02  0.30639726730E+02  0.71717894906E+02  0.79821437533E+02  0.10566000000E+00 0. -1.
        994    1    1    2    0    0 -0.19325648495E+02 -0.26526043280E+02  0.11653167671E+02  0.17470646233E+03  0.17120000000E+03 0.  0.
        998    1    1    2    0    0  0.23197253512E+01 -0.41136834497E+01  0.14166289337E+04  0.14166721001E+04  0.10000000000E+02 0. -1.
</event>
<event>
 5    1  0.1429797E-008  0.3864992E+03  0.7957747E-01  0.3423339E+00
         13   -1    0    0    0    0  0.00000000000E+00  0.00000000000E+00  0.14999999963E+04  0.15000000000E+04  0.10566000000E+00 0.  1.
        994   -1    0    0    0    0 -0.00000000000E+00 -0.00000000000E+00  0.11368683772E-12  0.17120000000E+03  0.17120000000E+03 0.  0.
         13    1    1    2    0    0 -0.86110309109E+01  0.65885027797E+01  0.64025686203E+02  0.64937338103E+02  0.10566000000E+00 0.  1.
        994    1    1    2    0    0  0.52648943367E+01 -0.16194467098E+02  0.18372135875E+01  0.17205462862E+03  0.17120000000E+03 0.  0.
        998    1    1    2    0    0  0.33461365742E+01  0.96059643180E+01  0.14341370965E+04  0.14342080333E+04  0.10000000000E+02 0.  1.
</event>
<event>
 5    1  0.1218060E-008  0.3830524E+03  0.7957747E-01  0.3437974E+00
         13   -1    0    0    0    0  0.00000000000E+00  0.00000000000E+00  0.14999999963E+04  0.15000000000E+04  0.10566000000E+00 0. -1.
        994   -1    0    0    0    0 -0.00000000000E+00 -0.00000000000E+00  0.11368683772E-12  0.17120000000E+03  0.17120000000E+03 0.  0.
         13    1    1    2    0    0 -0.30929890347E+01  0.10639561770E+02  0.22781034023E+02  0.25332854774E+02  0.10566000000E+00 0. -1.
        994    1    1    2    0    0  0.37099776848E+00 -0.63948097975E+01  0.27359868395E+01  0.17134163783E+03  0.17120000000E+03 0.  0.
        998    1    1    2    0    0  0.27219912662E+01 -0.42447519728E+01  0.14744829754E+04  0.14745255074E+04  0.10000000000E+02 0. -1.
</event>
<event>
 5    1  0.1218060E-008  0.3707563E+03  0.7957747E-01  0.3492422E+00
         13   -1    0    0    0    0  0.00000000000E+00  0.00000000000E+00  0.14999999963E+04  0.15000000000E+04  0.10566000000E+00 0.  1.
        994   -1    0    0    0    0 -0.00000000000E+00 -0.00000000000E+00  0.11368683772E-12  0.17120000000E+03  0.17120000000E+03 0.  0.
         13    1    1    2    0    0  0.39942065817E+02 -0.10282775240E+02  0.81100698562E+02  0.90985925063E+02  0.10566000000E+00 0.  1.
        994    1    1    2    0    0  0.10163617068E+02 -0.20798670180E+02  0.13219922853E+02  0.17326306633E+03  0.17120000000E+03 0.  0.
        998    1    1    2    0    0 -0.50105682885E+02  0.31081445420E+02  0.14056793749E+04  0.14069510086E+04  0.10000000000E+02 0.  1.
</event>
<event>
 5    1  0.1218060E-008  0.3689158E+03  0.7957747E-01  0.3500888E+00
         13   -1    0    0    0    0  0.00000000000E+00  0.00000000000E+00  0.14999999963E+04  0.15000000000E+04  0.10566000000E+00 0.  1.
        994   -1    0    0    0    0 -0.00000000000E+00 -0.00000000000E+00  0.11368683772E-12  0.17120000000E+03  0.17120000000E+03 0.  0.
         13    1    1    2    0    0  0.91491408883E+01  0.46581002858E+02  0.13028889081E+03  0.13866759837E+03  0.10566000000E+00 0.  1.
        994    1    1    2    0    0  0.27438324956E+02  0.33575804918E+01  0.12493461890E+02  0.17386679273E+03  0.17120000000E+03 0.  0.
        998    1    1    2    0    0 -0.36587465844E+02 -0.49938583350E+02  0.13572176436E+04  0.13586656089E+04  0.10000000000E+02 0.  1.
</event>
<event>
 5    1  0.1218060E-008  0.3803948E+03  0.7957747E-01  0.3449441E+00
         13   -1    0    0    0    0  0.00000000000E+00  0.00000000000E+00  0.14999999963E+04  0.15000000000E+04  0.10566000000E+00 0. -1.
        994   -1    0    0    0    0 -0.00000000000E+00 -0.00000000000E+00  0.11368683772E-12  0.17120000000E+03  0.17120000000E+03 0.  0.
         13    1    1    2    0    0  0.18407498786E+02  0.14072741220E+02  0.63896017193E+02  0.67967567517E+02  0.10566000000E+00 0. -1.
        994    1    1    2    0    0 -0.20094234227E+02 -0.15380465811E+02  0.60747260204E+01  0.17316662286E+03  0.17120000000E+03 0.  0.
        998    1    1    2    0    0  0.16867354409E+01  0.13077245906E+01  0.14300292531E+04  0.14300658096E+04  0.10000000000E+02 0. -1.
</event>
<event>
 5    1  0.1218060E-008  0.3809269E+03  0.7957747E-01  0.3447133E+00
         13   -1    0    0    0    0  0.00000000000E+00  0.00000000000E+00  0.14999999963E+04  0.15000000000E+04  0.10566000000E+00 0. -1.
        994   -1    0    0    0    0 -0.00000000000E+00 -0.00000000000E+00  0.11368683772E-12  0.17120000000E+03  0.17120000000E+03 0.  0.
         13    1    1    2    0    0  0.18008587435E+03  0.13908852528E+03  0.11016145602E+04  0.11248694104E+04  0.10566000000E+00 0. -1.
        994    1    1    2    0    0 -0.18116869875E+03 -0.13485932677E+03  0.19816932790E+03  0.34581737658E+03  0.17120000000E+03 0.  0.
        998    1    1    2    0    0  0.10828243955E+01 -0.42291985119E+01  0.20021610821E+03  0.20051321307E+03  0.10000000000E+02 0.  1.
</event>
<event>
 5    1  0.1218060E-008  0.3823266E+03  0.7957747E-01  0.3441090E+00
         13   -1    0    0    0    0  0.00000000000E+00  0.00000000000E+00  0.14999999963E+04  0.15000000000E+04  0.10566000000E+00 0.  1.
        994   -1    0    0    0    0 -0.00000000000E+00 -0.00000000000E+00  0.11368683772E-12  0.17120000000E+03  0.17120000000E+03 0.  0.
         13    1    1    2    0    0 -0.12656710126E+02 -0.11842466691E+02  0.46434485940E+02  0.49564190472E+02  0.10566000000E+00 0.  1.
        994    1    1    2    0    0  0.38299417495E+02  0.29909620270E+00  0.78450364679E+01  0.17560728754E+03  0.17120000000E+03 0.  0.
        998    1    1    2    0    0 -0.25642707369E+02  0.11543370489E+02  0.14457204739E+04  0.14460285220E+04  0.10000000000E+02 0.  1.
</event>
<event>
 5    1  0.1218060E-008  0.3769356E+03  0.7957747E-01  0.3464611E+00
         13   -1    0    0    0    0  0.00000000000E+00  0.00000000000E+00  0.14999999963E+04  0.15000000000E+04  0.10566000000E+00 0. -1.
        994   -1    0    0    0    0 -0.00000000000E+00 -0.00000000000E+00  0.11368683772E-12  0.17120000000E+03  0.17120000000E+03 0.  0.
         13    1    1    2    0    0  0.35330575703E+02 -0.29788561147E+01  0.38243534336E+02  0.52150764575E+02  0.10566000000E+00 0. -1.
        994    1    1    2    0    0 -0.15024091458E+02 -0.13329654131E+02  0.16100860434E+02  0.17312446595E+03  0.17120000000E+03 0.  0.
        998    1    1    2    0    0 -0.20306484244E+02  0.16308510246E+02  0.14456556015E+04  0.14459247695E+04  0.10000000000E+02 0. -1.
</event>
<event>
 5    1  0.1218060E-008  0.3731419E+03  0.7957747E-01  0.3481575E+00
         13   -1    0    0    0    0  0.00000000000E+00  0.00000000000E+00  0.14999999963E+04  0.15000000000E+04  0.10566000000E+00 0.  1.
        994   -1    0    0    0    0 -0.00000000000E+00 -0.00000000000E+00  0.11368683772E-12  0.17120000000E+03  0.17120000000E+03 0.  0.
         13    1    1    2    0    0  0.94531751395E+02  0.73867899106E+02  0.63390557072E+03  0.64515812193E+03  0.10566000000E+00 0.  1.
        994    1    1    2    0    0 -0.80476006069E+02 -0.67934508747E+02  0.46582639417E+02  0.20632708820E+03  0.17120000000E+03 0.  0.
        998    1    1    2    0    0 -0.14055745326E+02 -0.59333903584E+01  0.81951178614E+03  0.81971478986E+03  0.10000000000E+02 0.  1.
</event>
<event>
 5    1  0.1218060E-008  0.3820218E+03  0.7957747E-01  0.3442402E+00
         13   -1    0    0    0    0  0.00000000000E+00  0.00000000000E+00  0.14999999963E+04  0.15000000000E+04  0.10566000000E+00 0.  1.
        994   -1    0    0    0    0 -0.00000000000E+00 -0.00000000000E+00  0.11368683772E-12  0.17120000000E+03  0.17120000000E+03 0.  0.
         13    1    1    2    0    0 -0.16158199508E+01 -0.10917538726E+02  0.18006042677E+02  0.21119475913E+02  0.10566000000E+00 0.  1.
        994    1    1    2    0    0  0.45862389134E+01  0.12914091372E+02  0.37399272524E+01  0.17178834186E+03  0.17120000000E+03 0.  0.
        998    1    1    2    0    0 -0.29704189626E+01 -0.19965526455E+01  0.14782540263E+04  0.14782921822E+04  0.10000000000E+02 0.  1.
</event>
<event>
 5    1  0.1218060E-008  0.3835839E+03  0.7957747E-01  0.3435700E+00
         13   -1    0    0    0    0  0.00000000000E+00  0.00000000000E+00  0.14999999963E+04  0.15000000000E+04  0.10566000000E+00 0.  1.
        994   -1    0    0    0    0 -0.00000000000E+00 -0.00000000000E+00  0.11368683772E-12  0.17120000000E+03  0.17120000000E+03 0.  0.
         13    1    1    2    0    0 -0.12765794190E+02 -0.81900664923E+00  0.36692610057E+02  0.38858655021E+02  0.10566000000E+00 0.  1.
        994    1    1    2    0    0 -0.71144448770E+01 -0.53341826878E+00  0.25030338666E+01  0.17136687264E+03  0.17120000000E+03 0.  0.
        998    1    1    2    0    0  0.19880239067E+02  0.13524249180E+01  0.14608043524E+04  0.14609744723E+04  0.10000000000E+02 0.  1.
</event>
<event>
 5    1  0.1218060E-008  0.3806421E+03  0.7957747E-01  0.3448367E+00
         13   -1    0    0    0    0  0.00000000000E+00  0.00000000000E+00  0.14999999963E+04  0.15000000000E+04  0.10566000000E+00 0.  1.
        994   -1    0    0    0    0 -0.00000000000E+00 -0.00000000000E+00  0.11368683772E-12  0.17120000000E+03  0.17120000000E+03 0.  0.
         13    1    1    2    0    0  0.19602518231E+02 -0.19351104098E+02  0.10250089573E+03  0.10613749922E+03  0.10566000000E+00 0.  1.
        994    1    1    2    0    0 -0.13599993252E+02 -0.74820338317E+00  0.44284598172E+01  0.17179805261E+03  0.17120000000E+03 0.  0.
        998    1    1    2    0    0 -0.60025249785E+01  0.20099307482E+02  0.13930706407E+04  0.13932644482E+04  0.10000000000E+02 0.  1.
</event>
<event>
 5    1  0.1218060E-008  0.3891066E+03  0.7957747E-01  0.3412440E+00
         13   -1    0    0    0    0  0.00000000000E+00  0.00000000000E+00  0.14999999963E+04  0.15000000000E+04  0.10566000000E+00 0. -1.
        994   -1    0    0    0    0 -0.00000000000E+00 -0.00000000000E+00  0.11368683772E-12  0.17120000000E+03  0.17120000000E+03 0.  0.
         13    1    1    2    0    0 -0.69965374176E+02 -0.50574752933E+02  0.16185588531E+03  0.18344017551E+03  0.10566000000E+00 0. -1.
        994    1    1    2    0    0  0.56828489430E+02  0.34075480121E+02  0.38076875177E+02  0.18748307652E+03  0.17120000000E+03 0.  0.
        998    1    1    2    0    0  0.13136884746E+02  0.16499272812E+02  0.13000672358E+04  0.13002767480E+04  0.10000000000E+02 0. -1.
</event>
<event>
 5    1  0.1218060E-008  0.3850274E+03  0.7957747E-01  0.3429556E+00
         13   -1    0    0    0    0  0.00000000000E+00  0.00000000000E+00  0.14999999963E+04  0.15000000000E+04  0.10566000000E+00 0. -1.
        994   -1    0    0    0    0 -0.00000000000E+00 -0.00000000000E+00  0.11368683772E-12  0.17120000000E+03  0.17120000000E+03 0.  0.
         13    1    1    2    0    0  0.13370865726E+02  0.52351850599E+01  0.61654055270E+02  0.63304193448E+02  0.10566000000E+00 0. -1.
        994    1    1    2    0    0 -0.14357503034E+02 -0.45845039625E+01  0.23638365889E+01  0.17187839682E+03  0.17120000000E+03 0.  0.
        998    1    1    2    0    0  0.98663730840E+00 -0.65068109740E+00  0.14359821044E+04  0.14360174097E+04  0.10000000000E+02 0. -1.
</event>
<event>
 5    1  0.1218060E-008  0.3858568E+03  0.7957747E-01  0.3426047E+00
         13   -1    0    0    0    0  0.00000000000E+00  0.00000000000E+00  0.14999999963E+04  0.15000000000E+04  0.10566000000E+00 0.  1.
        994   -1    0    0    0    0 -0.00000000000E+00 -0.00000000000E+00  0.11368683772E-12  0.17120000000E+03  0.17120000000E+03 0.  0.
         13    1    1    2    0    0  0.92605217439E+01 -0.99637213367E+01  0.74365891175E+02  0.75599801191E+02  0.10566000000E+00 0.  1.
        994    1    1    2    0    0 -0.69720428856E+01  0.12976727569E+02  0.19173564307E+01  0.17184330390E+03  0.17120000000E+03 0.  0.
        998    1    1    2    0    0 -0.22884788583E+01 -0.30130062322E+01  0.14237167487E+04  0.14237568949E+04  0.10000000000E+02 0.  1.
</event>
<event>
 5    1  0.1218060E-008  0.3846355E+03  0.7957747E-01  0.3431219E+00
         13   -1    0    0    0    0  0.00000000000E+00  0.00000000000E+00  0.14999999963E+04  0.15000000000E+04  0.10566000000E+00 0. -1.
        994   -1    0    0    0    0 -0.00000000000E+00 -0.00000000000E+00  0.11368683772E-12  0.17120000000E+03  0.17120000000E+03 0.  0.
         13    1    1    2    0    0  0.10827851186E+02 -0.90228196948E+01  0.52539190311E+02  0.54396978952E+02  0.10566000000E+00 0. -1.
        994    1    1    2    0    0 -0.15300031630E+02  0.75820206349E+01  0.27718246285E+01  0.17207179030E+03  0.17120000000E+03 0.  0.
        998    1    1    2    0    0  0.44721804443E+01  0.14407990600E+01  0.14446889813E+04  0.14447312307E+04  0.10000000000E+02 0. -1.
</event>
<event>
 5    1  0.1218060E-008  0.3797166E+03  0.7957747E-01  0.3452393E+00
         13   -1    0    0    0    0  0.00000000000E+00  0.00000000000E+00  0.14999999963E+04  0.15000000000E+04  0.10566000000E+00 0.  1.
        994   -1    0    0    0    0 -0.00000000000E+00 -0.00000000000E+00  0.11368683772E-12  0.17120000000E+03  0.17120000000E+03 0.  0.
         13    1    1    2    0    0 -0.78566794582E+02 -0.47383010730E+02  0.17925233754E+03  0.20136857400E+03  0.10566000000E+00 0.  1.
        994    1    1    2    0    0  0.92424763073E+02  0.11808161761E+03  0.10282002244E+03  0.24973386287E+03  0.17120000000E+03 0.  0.
        998    1    1    2    0    0 -0.13857968491E+02 -0.70698606884E+02  0.12179276363E+04  0.12200975631E+04  0.10000000000E+02 0.  1.
</event>
<event>
 5    1  0.1218060E-008  0.3815076E+03  0.7957747E-01  0.3444620E+00
         13   -1    0    0    0    0  0.00000000000E+00  0.00000000000E+00  0.14999999963E+04  0.15000000000E+04  0.10566000000E+00 0.  1.
        994   -1    0    0    0    0 -0.00000000000E+00 -0.00000000000E+00  0.11368683772E-12  0.17120000000E+03  0.17120000000E+03 0.  0.
         13    1    1    2    0    0 -0.38400448897E+01 -0.28989927175E+02  0.13966220894E+03  0.14269094432E+03  0.10566000000E+00 0.  1.
        994    1    1    2    0    0 -0.75086024527E+01  0.29462168231E+01  0.35904793835E+01  0.17142750901E+03  0.17120000000E+03 0.  0.
        998    1    1    2    0    0  0.11348647342E+02  0.26043710352E+02  0.13567473080E+04  0.13570815467E+04  0.10000000000E+02 0.  1.
</event>
<event>
 5    1  0.1218060E-008  0.3716971E+03  0.7957747E-01  0.3488128E+00
         13   -1    0    0    0    0  0.00000000000E+00  0.00000000000E+00  0.14999999963E+04  0.15000000000E+04  0.10566000000E+00 0. -1.
        994   -1    0    0    0    0 -0.00000000000E+00 -0.00000000000E+00  0.11368683772E-12  0.17120000000E+03  0.17120000000E+03 0.  0.
         13    1    1    2    0    0 -0.14116609897E+01  0.16503333146E+02  0.41935640937E+01  0.17086542527E+02  0.10566000000E+00 0. -1.
        994    1    1    2    0    0  0.11137692688E+03 -0.84477381585E+02  0.84126173097E+02  0.23649080498E+03  0.17120000000E+03 0.  0.
        998    1    1    2    0    0 -0.10996526589E+03  0.67974048438E+02  0.14116802591E+04  0.14176226525E+04  0.10000000000E+02 0. -1.
</event>
<event>
 5    1  0.1218060E-008  0.3856004E+03  0.7957747E-01  0.3427130E+00
         13   -1    0    0    0    0  0.00000000000E+00  0.00000000000E+00  0.14999999963E+04  0.15000000000E+04  0.10566000000E+00 0. -1.
        994   -1    0    0    0    0 -0.00000000000E+00 -0.00000000000E+00  0.11368683772E-12  0.17120000000E+03  0.17120000000E+03 0.  0.
         13    1    1    2    0    0  0.14649659598E+01 -0.11415586703E+02  0.49525752680E+02  0.50845580807E+02  0.10566000000E+00 0. -1.
        994    1    1    2    0    0 -0.88241305734E+00  0.92342041259E+01  0.16148252770E+01  0.17145873218E+03  0.17120000000E+03 0.  0.
        998    1    1    2    0    0 -0.58255290245E+00  0.21813825773E+01  0.14488594183E+04  0.14488956870E+04  0.10000000000E+02 0. -1.
</event>
<event>
 5    1  0.1218060E-008  0.3774510E+03  0.7957747E-01  0.3462333E+00
         13   -1    0    0    0    0  0.00000000000E+00  0.00000000000E+00  0.14999999963E+04  0.15000000000E+04  0.10566000000E+00 0.  1.
        994   -1    0    0    0    0 -0.00000000000E+00 -0.00000000000E+00  0.11368683772E-12  0.17120000000E+03  0.17120000000E+03 0.  0.
         13    1    1    2    0    0 -0.16996982642E+02 -0.13574642869E+02  0.45018403397E+02  0.49998361537E+02  0.10566000000E+00 0.  1.
        994    1    1    2    0    0  0.33159998385E+01 -0.21423550129E+02  0.70114668822E+01  0.17270948157E+03  0.17120000000E+03 0.  0.
        998    1    1    2    0    0  0.13680982803E+02  0.34998192999E+02  0.14479701260E+04  0.14484921569E+04  0.10000000000E+02 0.  1.
</event>
<event>
 5    1  0.1218060E-008  0.3818924E+03  0.7957747E-01  0.3442960E+00
         13   -1    0    0    0    0  0.00000000000E+00  0.00000000000E+00  0.14999999963E+04  0.15000000000E+04  0.10566000000E+00 0. -1.
        994   -1    0    0    0    0 -0.00000000000E+00 -0.00000000000E+00  0.11368683772E-12  0.17120000000E+03  0.17120000000E+03 0.  0.
         13    1    1    2    0    0  0.28332991389E+02 -0.16530807235E+02  0.15042230481E+03  0.15395748419E+03  0.10566000000E+00 0. -1.
        994    1    1    2    0    0 -0.33941613537E+02  0.11840279414E+02  0.74857544943E+01  0.17509340897E+03  0.17120000000E+03 0.  0.
        998    1    1    2    0    0  0.56086221481E+01  0.46905278214E+01  0.13420919370E+04  0.13421491068E+04  0.10000000000E+02 0. -1.
</event>
<event>
 5    1  0.1218060E-008  0.3763710E+03  0.7957747E-01  0.3467114E+00
         13   -1    0    0    0    0  0.00000000000E+00  0.00000000000E+00  0.14999999963E+04  0.15000000000E+04  0.10566000000E+00 0. -1.
        994   -1    0    0    0    0 -0.00000000000E+00 -0.00000000000E+00  0.11368683772E-12  0.17120000000E+03  0.17120000000E+03 0.  0.
         13    1    1    2    0    0 -0.41137322800E+02  0.27045438793E+02  0.21063036199E+03  0.21630741005E+03  0.10566000000E+00 0. -1.
        994    1    1    2    0    0  0.27267962739E+02  0.25252306288E+01  0.85178987880E+01  0.17358546362E+03  0.17120000000E+03 0.  0.
        998    1    1    2    0    0  0.13869360061E+02 -0.29570669422E+02  0.12808517355E+04  0.12813071263E+04  0.10000000000E+02 0. -1.
</event>
<event>
 5    1  0.1218060E-008  0.3357377E+03  0.7957747E-01  0.3669874E+00
         13   -1    0    0    0    0  0.00000000000E+00  0.00000000000E+00  0.14999999963E+04  0.15000000000E+04  0.10566000000E+00 0.  1.
        994   -1    0    0    0    0 -0.00000000000E+00 -0.00000000000E+00  0.11368683772E-12  0.17120000000E+03  0.17120000000E+03 0.  0.
         13    1    1    2    0    0 -0.19939996196E+03 -0.98588660447E+02  0.11512374279E+04  0.11725304668E+04  0.10566000000E+00 0.  1.
        994    1    1    2    0    0  0.11285865657E+03  0.43912766423E+02  0.10589914880E+03  0.23492440728E+03  0.17120000000E+03 0.  0.
        998    1    1    2    0    0  0.86541305390E+02  0.54675894024E+02  0.24286341953E+03  0.26374512597E+03  0.10000000000E+02 0.  1.
</event>
<event>
 5    1  0.1218060E-008  0.3800829E+03  0.7957747E-01  0.3450798E+00
         13   -1    0    0    0    0  0.00000000000E+00  0.00000000000E+00  0.14999999963E+04  0.15000000000E+04  0.10566000000E+00 0. -1.
        994   -1    0    0    0    0 -0.00000000000E+00 -0.00000000000E+00  0.11368683772E-12  0.17120000000E+03  0.17120000000E+03 0.  0.
         13    1    1    2    0    0  0.81389927523E+01 -0.29384665956E+02  0.12223965600E+03  0.12598510412E+03  0.10566000000E+00 0. -1.
        994    1    1    2    0    0 -0.48599165778E+01  0.23207921381E+01  0.41882361142E+01  0.17133588704E+03  0.17120000000E+03 0.  0.
        998    1    1    2    0    0 -0.32790761745E+01  0.27063873818E+02  0.13735721042E+04  0.13738790088E+04  0.10000000000E+02 0. -1.
</event>
<event>
 5    1  0.1218060E-008  0.3837596E+03  0.7957747E-01  0.3434950E+00
         13   -1    0    0    0    0  0.00000000000E+00  0.00000000000E+00  0.14999999963E+04  0.15000000000E+04  0.10566000000E+00 0. -1.
        994   -1    0    0    0    0 -0.00000000000E+00 -0.00000000000E+00  0.11368683772E-12  0.17120000000E+03  0.17120000000E+03 0.  0.
         13    1    1    2    0    0  0.38541575794E+02 -0.15994006353E+02  0.39654696639E+02  0.57565331871E+02  0.10566000000E+00 0. -1.
        994    1    1    2    0    0 -0.30710691990E+02  0.23505916931E+02  0.23923191949E+02  0.17713676594E+03  0.17120000000E+03 0.  0.
        998    1    1    2    0    0 -0.78308838037E+01 -0.75119105789E+01  0.14364221077E+04  0.14364979022E+04  0.10000000000E+02 0. -1.
</event>
<event>
 5    1  0.1218060E-008  0.3819087E+03  0.7957747E-01  0.3442889E+00
         13   -1    0    0    0    0  0.00000000000E+00  0.00000000000E+00  0.14999999963E+04  0.15000000000E+04  0.10566000000E+00 0. -1.
        994   -1    0    0    0    0 -0.00000000000E+00 -0.00000000000E+00  0.11368683772E-12  0.17120000000E+03  0.17120000000E+03 0.  0.
         13    1    1    2    0    0  0.58153672627E+01  0.26533901650E+02  0.93634471752E+02  0.97495086529E+02  0.10566000000E+00 0. -1.
        994    1    1    2    0    0  0.13211712760E+02 -0.59476944514E+02  0.15603636666E+02  0.18238686839E+03  0.17120000000E+03 0.  0.
        998    1    1    2    0    0 -0.19027080022E+02  0.32943042864E+02  0.13907618879E+04  0.13913180451E+04  0.10000000000E+02 0. -1.
</event>
<event>
 5    1  0.1218060E-008  0.3850036E+03  0.7957747E-01  0.3429657E+00
         13   -1    0    0    0    0  0.00000000000E+00  0.00000000000E+00  0.14999999963E+04  0.15000000000E+04  0.10566000000E+00 0.  1.
        994   -1    0    0    0    0 -0.00000000000E+00 -0.00000000000E+00  0.11368683772E-12  0.17120000000E+03  0.17120000000E+03 0.  0.
         13    1    1    2    0    0  0.51426435872E+01 -0.21407507996E+02  0.11493906706E+03  0.11702875066E+03  0.10566000000E+00 0.  1.
        994    1    1    2    0    0  0.14040250292E+02  0.51734944062E+02  0.11136348732E+02  0.17974173508E+03  0.17120000000E+03 0.  0.
        998    1    1    2    0    0 -0.19182893879E+02 -0.30327436066E+02  0.13739245805E+04  0.13744295143E+04  0.10000000000E+02 0.  1.
</event>
<event>
 5    1  0.1218060E-008  0.3784922E+03  0.7957747E-01  0.3457750E+00
         13   -1    0    0    0    0  0.00000000000E+00  0.00000000000E+00  0.14999999963E+04  0.15000000000E+04  0.10566000000E+00 0. -1.
        994   -1    0    0    0    0 -0.00000000000E+00 -0.00000000000E+00  0.11368683772E-12  0.17120000000E+03  0.17120000000E+03 0.  0.
         13    1    1    2    0    0  0.65563961366E+01  0.27859239213E+02  0.79371801434E+02  0.84374270763E+02  0.10566000000E+00 0. -1.
        994    1    1    2    0    0  0.13240028506E+02 -0.29014710034E+02  0.83210797219E+01  0.17434400512E+03  0.17120000000E+03 0.  0.
        998    1    1    2    0    0 -0.19796424643E+02  0.11554708211E+01  0.14123071151E+04  0.14124817241E+04  0.10000000000E+02 0. -1.
</event>
<event>
 5    1  0.1218060E-008  0.3831893E+03  0.7957747E-01  0.3437388E+00
         13   -1    0    0    0    0  0.00000000000E+00  0.00000000000E+00  0.14999999963E+04  0.15000000000E+04  0.10566000000E+00 0.  1.
        994   -1    0    0    0    0 -0.00000000000E+00 -0.00000000000E+00  0.11368683772E-12  0.17120000000E+03  0.17120000000E+03 0.  0.
         13    1    1    2    0    0  0.16187427875E+02 -0.68195108058E+01  0.67159865588E+02  0.69418997822E+02  0.10566000000E+00 0.  1.
        994    1    1    2    0    0  0.84938732768E+01 -0.29613501644E+01  0.27995144760E+01  0.17145901189E+03  0.17120000000E+03 0.  0.
        998    1    1    2    0    0 -0.24681301152E+02  0.97808609702E+01  0.14300406162E+04  0.14303219903E+04  0.10000000000E+02 0.  1.
</event>
<event>
 5    1  0.1218060E-008  0.3796786E+03  0.7957747E-01  0.3452559E+00
         13   -1    0    0    0    0  0.00000000000E+00  0.00000000000E+00  0.14999999963E+04  0.15000000000E+04  0.10566000000E+00 0.  1.
        994   -1    0    0    0    0 -0.00000000000E+00 -0.00000000000E+00  0.11368683772E-12  0.17120000000E+03  0.17120000000E+03 0.  0.
         13    1    1    2    0    0 -0.23407011255E+02  0.11086037730E+01  0.63533144100E+02  0.67716975283E+02  0.10566000000E+00 0.  1.
        994    1    1    2    0    0  0.10006800205E+02 -0.82765132436E+01  0.48599858908E+01  0.17176057809E+03  0.17120000000E+03 0.  0.
        998    1    1    2    0    0  0.13400211050E+02  0.71679094705E+01  0.14316068663E+04  0.14317224466E+04  0.10000000000E+02 0.  1.
</event>
<event>
 5    1  0.1218060E-008  0.3764376E+03  0.7957747E-01  0.3466818E+00
         13   -1    0    0    0    0  0.00000000000E+00  0.00000000000E+00  0.14999999963E+04  0.15000000000E+04  0.10566000000E+00 0.  1.
        994   -1    0    0    0    0 -0.00000000000E+00 -0.00000000000E+00  0.11368683772E-12  0.17120000000E+03  0.17120000000E+03 0.  0.
         13    1    1    2    0    0  0.66136795956E+02 -0.16267276002E+02  0.39613048298E+03  0.40194287001E+03  0.10566000000E+00 0.  1.
        994    1    1    2    0    0 -0.37373344819E+02  0.22315153004E+01  0.10698875076E+02  0.17557235685E+03  0.17120000000E+03 0.  0.
        998    1    1    2    0    0 -0.28763451137E+02  0.14035760702E+02  0.10931706382E+04  0.10936847731E+04  0.10000000000E+02 0.  1.
</event>
<event>
 5    1  0.1218060E-008  0.3849168E+03  0.7957747E-01  0.3430025E+00
         13   -1    0    0    0    0  0.00000000000E+00  0.00000000000E+00  0.14999999963E+04  0.15000000000E+04  0.10566000000E+00 0.  1.
        994   -1    0    0    0    0 -0.00000000000E+00 -0.00000000000E+00  0.11368683772E-12  0.17120000000E+03  0.17120000000E+03 0.  0.
         13    1    1    2    0    0 -0.41897593471E+01 -0.15607975042E+02  0.76792496133E+02  0.78474592033E+02  0.10566000000E+00 0.  1.
        994    1    1    2    0    0  0.44546521690E+01  0.12314287505E+02  0.22357803453E+01  0.17171465959E+03  0.17120000000E+03 0.  0.
        998    1    1    2    0    0 -0.26489282185E+00  0.32936875368E+01  0.14209717198E+04  0.14210107484E+04  0.10000000000E+02 0.  1.
</event>
<event>
 5    1  0.1218060E-008  0.3838800E+03  0.7957747E-01  0.3434436E+00
         13   -1    0    0    0    0  0.00000000000E+00  0.00000000000E+00  0.14999999963E+04  0.15000000000E+04  0.10566000000E+00 0. -1.
        994   -1    0    0    0    0 -0.00000000000E+00 -0.00000000000E+00  0.11368683772E-12  0.17120000000E+03  0.17120000000E+03 0.  0.
         13    1    1    2    0    0  0.18457185119E+02 -0.81047838013E+01  0.90134038207E+02  0.92360766620E+02  0.10566000000E+00 0. -1.
        994    1    1    2    0    0 -0.15632363796E+02  0.57438095446E+01  0.31032201779E+01  0.17203613609E+03  0.17120000000E+03 0.  0.
        998    1    1    2    0    0 -0.28248213237E+01  0.23609742567E+01  0.14067627379E+04  0.14068030973E+04  0.10000000000E+02 0. -1.
</event>
<event>
 5    1  0.2213908E-008  0.3864748E+03  0.7957747E-01  0.3423441E+00
         13   -1    0    0    0    0  0.00000000000E+00  0.00000000000E+00  0.14999999963E+04  0.15000000000E+04  0.10566000000E+00 0. -1.
        994   -1    0    0    0    0 -0.00000000000E+00 -0.00000000000E+00  0.11368683772E-12  0.17120000000E+03  0.17120000000E+03 0.  0.
         13    1    1    2    0    0 -0.87580793861E+01  0.63322979986E+01  0.64491339951E+02  0.65390718341E+02  0.10566000000E+00 0. -1.
        994    1    1    2    0    0  0.98330907560E+01 -0.43347725531E+01  0.12777231908E+01  0.17154169319E+03  0.17120000000E+03 0.  0.
        998    1    1    2    0    0 -0.10750113700E+01 -0.19975254454E+01  0.14342309331E+04  0.14342675885E+04  0.10000000000E+02 0. -1.
</event>
<event>
 5    1  0.1218060E-008  0.3722322E+03  0.7957747E-01  0.3485695E+00
         13   -1    0    0    0    0  0.00000000000E+00  0.00000000000E+00  0.14999999963E+04  0.15000000000E+04  0.10566000000E+00 0. -1.
        994   -1    0    0    0    0 -0.00000000000E+00 -0.00000000000E+00  0.11368683772E-12  0.17120000000E+03  0.17120000000E+03 0.  0.
         13    1    1    2    0    0  0.82717848791E+02  0.67462171134E+02  0.32911298698E+03  0.34598953222E+03  0.10566000000E+00 0. -1.
        994    1    1    2    0    0 -0.78793720589E+02 -0.92170707088E+02  0.65907510891E+02  0.21990254578E+03  0.17120000000E+03 0.  0.
        998    1    1    2    0    0 -0.39241282021E+01  0.24708535954E+02  0.11049794984E+04  0.11053079220E+04  0.10000000000E+02 0. -1.
</event>
<event>
 5    1  0.1218060E-008  0.3795809E+03  0.7957747E-01  0.3452986E+00
         13   -1    0    0    0    0  0.00000000000E+00  0.00000000000E+00  0.14999999963E+04  0.15000000000E+04  0.10566000000E+00 0.  1.
        994   -1    0    0    0    0 -0.00000000000E+00 -0.00000000000E+00  0.11368683772E-12  0.17120000000E+03  0.17120000000E+03 0.  0.
         13    1    1    2    0    0  0.16493817924E+02 -0.93058997687E+01  0.37614645410E+01  0.19308173910E+02  0.10566000000E+00 0.  1.
        994    1    1    2    0    0 -0.19237900884E+02  0.19153371404E+02  0.18767920846E+02  0.17435200979E+03  0.17120000000E+03 0.  0.
        998    1    1    2    0    0  0.27440829602E+01 -0.98474716355E+01  0.14774706109E+04  0.14775398163E+04  0.10000000000E+02 0.  1.
</event>
<event>
 5    1  0.1218060E-008  0.3794622E+03  0.7957747E-01  0.3453504E+00
         13   -1    0    0    0    0  0.00000000000E+00  0.00000000000E+00  0.14999999963E+04  0.15000000000E+04  0.10566000000E+00 0.  1.
        994   -1    0    0    0    0 -0.00000000000E+00 -0.00000000000E+00  0.11368683772E-12  0.17120000000E+03  0.17120000000E+03 0.  0.
         13    1    1    2    0    0  0.63734494909E+01 -0.58385609218E+02  0.25420251662E+03  0.26089927336E+03  0.10566000000E+00 0.  1.
        994    1    1    2    0    0  0.19713586285E+02  0.93041252172E+02  0.35317683738E+02  0.19900271072E+03  0.17120000000E+03 0.  0.
        998    1    1    2    0    0 -0.26087035776E+02 -0.34655642954E+02  0.12104797959E+04  0.12112980159E+04  0.10000000000E+02 0.  1.
</event>
<event>
 5    1  0.1218060E-008  0.3711211E+03  0.7957747E-01  0.3490754E+00
         13   -1    0    0    0    0  0.00000000000E+00  0.00000000000E+00  0.14999999963E+04  0.15000000000E+04  0.10566000000E+00 0. -1.
        994   -1    0    0    0    0 -0.00000000000E+00 -0.00000000000E+00  0.11368683772E-12  0.17120000000E+03  0.17120000000E+03 0.  0.
         13    1    1    2    0    0 -0.11059599464E+02  0.19182950506E+02  0.23937236615E+02  0.32608323956E+02  0.10566000000E+00 0. -1.
        994    1    1    2    0    0  0.14819836672E+02 -0.21996704906E+02  0.11111066794E+02  0.17359832485E+03  0.17120000000E+03 0.  0.
        998    1    1    2    0    0 -0.37602372075E+01  0.28137544008E+01  0.14649516929E+04  0.14649933512E+04  0.10000000000E+02 0. -1.
</event>
<event>
 5    1  0.1218060E-008  0.3878665E+03  0.7957747E-01  0.3417605E+00
         13   -1    0    0    0    0  0.00000000000E+00  0.00000000000E+00  0.14999999963E+04  0.15000000000E+04  0.10566000000E+00 0.  1.
        994   -1    0    0    0    0 -0.00000000000E+00 -0.00000000000E+00  0.11368683772E-12  0.17120000000E+03  0.17120000000E+03 0.  0.
         13    1    1    2    0    0  0.45181692040E+02  0.17062734622E+02  0.55369998618E+02  0.73473601514E+02  0.10566000000E+00 0.  1.
        994    1    1    2    0    0  0.15211946071E+02  0.29708230672E+01  0.21614284950E+02  0.17325370532E+03  0.17120000000E+03 0.  0.
        998    1    1    2    0    0 -0.60393638112E+02 -0.20033557689E+02  0.14230157127E+04  0.14244726932E+04  0.10000000000E+02 0.  1.
</event>
<event>
 5    1  0.1218060E-008  0.3829515E+03  0.7957747E-01  0.3438407E+00
         13   -1    0    0    0    0  0.00000000000E+00  0.00000000000E+00  0.14999999963E+04  0.15000000000E+04  0.10566000000E+00 0.  1.
        994   -1    0    0    0    0 -0.00000000000E+00 -0.00000000000E+00  0.11368683772E-12  0.17120000000E+03  0.17120000000E+03 0.  0.
         13    1    1    2    0    0  0.21910200212E+02 -0.83761158619E+01  0.99716489874E+02  0.10243830195E+03  0.10566000000E+00 0.  1.
        994    1    1    2    0    0 -0.19571196459E+02  0.41506104009E+01  0.39768582582E+01  0.17241088915E+03  0.17120000000E+03 0.  0.
        998    1    1    2    0    0 -0.23390037526E+01  0.42255054610E+01  0.13963066481E+04  0.13963508089E+04  0.10000000000E+02 0.  1.
</event>
<event>
 5    1  0.1218060E-008  0.3829530E+03  0.7957747E-01  0.3438400E+00
         13   -1    0    0    0    0  0.00000000000E+00  0.00000000000E+00  0.14999999963E+04  0.15000000000E+04  0.10566000000E+00 0. -1.
        994   -1    0    0    0    0 -0.00000000000E+00 -0.00000000000E+00  0.11368683772E-12  0.17120000000E+03  0.17120000000E+03 0.  0.
         13    1    1    2    0    0  0.82180928228E+01  0.92975000228E+01  0.27415906603E+02  0.30093581628E+02  0.10566000000E+00 0. -1.
        994    1    1    2    0    0 -0.12475926056E+02 -0.10308559191E+02  0.35174318778E+01  0.17199920770E+03  0.17120000000E+03 0.  0.
        998    1    1    2    0    0  0.42578332337E+01  0.10110591681E+01  0.14690666578E+04  0.14691072107E+04  0.10000000000E+02 0. -1.
</event>
<event>
 5    1  0.1218060E-008  0.3741581E+03  0.7957747E-01  0.3476997E+00
         13   -1    0    0    0    0  0.00000000000E+00  0.00000000000E+00  0.14999999963E+04  0.15000000000E+04  0.10566000000E+00 0.  1.
        994   -1    0    0    0    0 -0.00000000000E+00 -0.00000000000E+00  0.11368683772E-12  0.17120000000E+03  0.17120000000E+03 0.  0.
         13    1    1    2    0    0  0.27696405928E+02 -0.21985780992E+01  0.50530014436E+02  0.57664704715E+02  0.10566000000E+00 0.  1.
        994    1    1    2    0    0 -0.24917074264E+02 -0.49099853144E+01  0.93134567069E+01  0.17332382704E+03  0.17120000000E+03 0.  0.
        998    1    1    2    0    0 -0.27793316636E+01  0.71085634136E+01  0.14401565251E+04  0.14402114682E+04  0.10000000000E+02 0.  1.
</event>
<event>
 5    1  0.1218060E-008  0.3685972E+03  0.7957747E-01  0.3502363E+00
         13   -1    0    0    0    0  0.00000000000E+00  0.00000000000E+00  0.14999999963E+04  0.15000000000E+04  0.10566000000E+00 0. -1.
        994   -1    0    0    0    0 -0.00000000000E+00 -0.00000000000E+00  0.11368683772E-12  0.17120000000E+03  0.17120000000E+03 0.  0.
         13    1    1    2    0    0 -0.72394002591E+01 -0.15423480947E+02  0.99623904571E+01  0.19737098781E+02  0.10566000000E+00 0. -1.
        994    1    1    2    0    0  0.12039523804E+02  0.12479197015E+02  0.11049544223E+02  0.17243031323E+03  0.17120000000E+03 0.  0.
        998    1    1    2    0    0 -0.48001235451E+01  0.29442839325E+01  0.14789880616E+04  0.14790325880E+04  0.10000000000E+02 0. -1.
</event>
<event>
 5    1  0.1218060E-008  0.3818659E+03  0.7957747E-01  0.3443074E+00
         13   -1    0    0    0    0  0.00000000000E+00  0.00000000000E+00  0.14999999963E+04  0.15000000000E+04  0.10566000000E+00 0.  1.
        994   -1    0    0    0    0 -0.00000000000E+00 -0.00000000000E+00  0.11368683772E-12  0.17120000000E+03  0.17120000000E+03 0.  0.
         13    1    1    2    0    0  0.82638225003E+01  0.28958512616E+02  0.14073893588E+03  0.14392479095E+03  0.10566000000E+00 0.  1.
        994    1    1    2    0    0 -0.50764660931E+01 -0.17375503320E+02  0.42836378181E+01  0.17220763101E+03  0.17120000000E+03 0.  0.
        998    1    1    2    0    0 -0.31873564072E+01 -0.11583009296E+02  0.13549774226E+04  0.13550675780E+04  0.10000000000E+02 0.  1.
</event>
<event>
 5    1  0.1218060E-008  0.3741678E+03  0.7957747E-01  0.3476953E+00
         13   -1    0    0    0    0  0.00000000000E+00  0.00000000000E+00  0.14999999963E+04  0.15000000000E+04  0.10566000000E+00 0. -1.
        994   -1    0    0    0    0 -0.00000000000E+00 -0.00000000000E+00  0.11368683772E-12  0.17120000000E+03  0.17120000000E+03 0.  0.
         13    1    1    2    0    0 -0.13349834301E+02 -0.41628116193E+02  0.15165405367E+03  0.15782927895E+03  0.10566000000E+00 0. -1.
        994    1    1    2    0    0 -0.22947339478E+02  0.67143973105E+01  0.90577972093E+01  0.17309866323E+03  0.17120000000E+03 0.  0.
        998    1    1    2    0    0  0.36297173779E+02  0.34913718883E+02  0.13392881454E+04  0.13402720578E+04  0.10000000000E+02 0.  1.
</event>
<event>
 5    1  0.1218060E-008  0.3843186E+03  0.7957747E-01  0.3432567E+00
         13   -1    0    0    0    0  0.00000000000E+00  0.00000000000E+00  0.14999999963E+04  0.15000000000E+04  0.10566000000E+00 0. -1.
        994   -1    0    0    0    0 -0.00000000000E+00 -0.00000000000E+00  0.11368683772E-12  0.17120000000E+03  0.17120000000E+03 0.  0.
         13    1    1    2    0    0 -0.82273180943E+01 -0.11651414181E+02  0.51570393369E+02  0.53506643062E+02  0.10566000000E+00 0. -1.
        994    1    1    2    0    0  0.93496355099E+01  0.38853353846E+01  0.23067511734E+01  0.17151464257E+03  0.17120000000E+03 0.  0.
        998    1    1    2    0    0 -0.11223174157E+01  0.77660787965E+01  0.14461228517E+04  0.14461787144E+04  0.10000000000E+02 0. -1.
</event>
<event>
 5    1  0.1218060E-008  0.3848523E+03  0.7957747E-01  0.3430299E+00
         13   -1    0    0    0    0  0.00000000000E+00  0.00000000000E+00  0.14999999963E+04  0.15000000000E+04  0.10566000000E+00 0.  1.
        994   -1    0    0    0    0 -0.00000000000E+00 -0.00000000000E+00  0.11368683772E-12  0.17120000000E+03  0.17120000000E+03 0.  0.
         13    1    1    2    0    0  0.17365749178E+02 -0.12771321400E+02  0.12885561408E+03  0.13064630243E+03  0.10566000000E+00 0.  1.
        994    1    1    2    0    0 -0.13786200134E+02  0.14847464776E+02  0.30553018925E+01  0.17242181241E+03  0.17120000000E+03 0.  0.
        998    1    1    2    0    0 -0.35795490441E+01 -0.20761433766E+01  0.13680890803E+04  0.13681318852E+04  0.10000000000E+02 0.  1.
</event>
<event>
 5    1  0.1218060E-008  0.3715814E+03  0.7957747E-01  0.3488654E+00
         13   -1    0    0    0    0  0.00000000000E+00  0.00000000000E+00  0.14999999963E+04  0.15000000000E+04  0.10566000000E+00 0.  1.
        994   -1    0    0    0    0 -0.00000000000E+00 -0.00000000000E+00  0.11368683772E-12  0.17120000000E+03  0.17120000000E+03 0.  0.
         13    1    1    2    0    0 -0.28708095699E+02  0.21305753082E+02  0.52647776481E+02  0.63638741388E+02  0.10566000000E+00 0.  1.
        994    1    1    2    0    0  0.47822409744E+01 -0.14171904917E+00  0.11857997569E+02  0.17167685348E+03  0.17120000000E+03 0.  0.
        998    1    1    2    0    0  0.23925854724E+02 -0.21164034033E+02  0.14354942222E+04  0.14358844051E+04  0.10000000000E+02 0.  1.
</event>
<event>
 5    1  0.1218060E-008  0.3750022E+03  0.7957747E-01  0.3473213E+00
         13   -1    0    0    0    0  0.00000000000E+00  0.00000000000E+00  0.14999999963E+04  0.15000000000E+04  0.10566000000E+00 0. -1.
        994   -1    0    0    0    0 -0.00000000000E+00 -0.00000000000E+00  0.11368683772E-12  0.17120000000E+03  0.17120000000E+03 0.  0.
         13    1    1    2    0    0 -0.11652694548E+02  0.12223026074E+02  0.18306075161E+02  0.24906047629E+02  0.10566000000E+00 0. -1.
        994    1    1    2    0    0  0.10322274540E+02 -0.11973978152E+02  0.75275929405E+01  0.17209308574E+03  0.17120000000E+03 0.  0.
        998    1    1    2    0    0  0.13304200082E+01 -0.24904792173E+00  0.14741663282E+04  0.14742008666E+04  0.10000000000E+02 0. -1.
</event>
<event>
 5    1  0.1218060E-008  0.3748937E+03  0.7957747E-01  0.3473698E+00
         13   -1    0    0    0    0  0.00000000000E+00  0.00000000000E+00  0.14999999963E+04  0.15000000000E+04  0.10566000000E+00 0.  1.
        994   -1    0    0    0    0 -0.00000000000E+00 -0.00000000000E+00  0.11368683772E-12  0.17120000000E+03  0.17120000000E+03 0.  0.
         13    1    1    2    0    0  0.10355559831E+03  0.62977279967E+02  0.62167137074E+03  0.63337603688E+03  0.10566000000E+00 0.  1.
        994    1    1    2    0    0 -0.10534848616E+03 -0.57367143102E+02  0.57354458871E+02  0.21676777112E+03  0.17120000000E+03 0.  0.
        998    1    1    2    0    0  0.17928878559E+01 -0.56101368653E+01  0.82097416667E+03  0.82105619200E+03  0.10000000000E+02 0.  0.
</event>
<event>
 5    1  0.1218060E-008  0.3825488E+03  0.7957747E-01  0.3440135E+00
         13   -1    0    0    0    0  0.00000000000E+00  0.00000000000E+00  0.14999999963E+04  0.15000000000E+04  0.10566000000E+00 0.  1.
        994   -1    0    0    0    0 -0.00000000000E+00 -0.00000000000E+00  0.11368683772E-12  0.17120000000E+03  0.17120000000E+03 0.  0.
         13    1    1    2    0    0  0.26784478189E+02  0.85552725837E+02  0.45705096999E+03  0.46575989255E+03  0.10566000000E+00 0.  1.
        994    1    1    2    0    0 -0.35545027131E+01 -0.15744281296E+03  0.89954882938E+02  0.24940367842E+03  0.17120000000E+03 0.  0.
        998    1    1    2    0    0 -0.23229975476E+02  0.71890087128E+02  0.95299414335E+03  0.95603642904E+03  0.10000000000E+02 0.  1.
</event>
<event>
 5    1  0.1218060E-008  0.3792459E+03  0.7957747E-01  0.3454448E+00
         13   -1    0    0    0    0  0.00000000000E+00  0.00000000000E+00  0.14999999963E+04  0.15000000000E+04  0.10566000000E+00 0. -1.
        994   -1    0    0    0    0 -0.00000000000E+00 -0.00000000000E+00  0.11368683772E-12  0.17120000000E+03  0.17120000000E+03 0.  0.
         13    1    1    2    0    0 -0.17238928444E+02  0.69437767320E+01  0.36866973028E+02  0.41286578370E+02  0.10566000000E+00 0. -1.
        994    1    1    2    0    0  0.82042985605E+01 -0.43080297053E+01  0.48020943419E+01  0.17151784089E+03  0.17120000000E+03 0.  0.
        998    1    1    2    0    0  0.90346298835E+01 -0.26357470266E+01  0.14583309289E+04  0.14583955807E+04  0.10000000000E+02 0. -1.
</event>
<event>
 5    1  0.1218060E-008  0.3739259E+03  0.7957747E-01  0.3478041E+00
         13   -1    0    0    0    0  0.00000000000E+00  0.00000000000E+00  0.14999999963E+04  0.15000000000E+04  0.10566000000E+00 0.  1.
        994   -1    0    0    0    0 -0.00000000000E+00 -0.00000000000E+00  0.11368683772E-12  0.17120000000E+03  0.17120000000E+03 0.  0.
         13    1    1    2    0    0 -0.55137643622E+02  0.20694379163E+02  0.23211734292E+03  0.23947210510E+03  0.10566000000E+00 0.  1.
        994    1    1    2    0    0  0.39240810868E+02 -0.28786946434E+01  0.12531257060E+02  0.17610962644E+03  0.17120000000E+03 0.  0.
        998    1    1    2    0    0  0.15896832755E+02 -0.17815684519E+02  0.12553513963E+04  0.12556182685E+04  0.10000000000E+02 0.  1.
</event>
<event>
 5    1  0.1218060E-008  0.3816653E+03  0.7957747E-01  0.3443939E+00
         13   -1    0    0    0    0  0.00000000000E+00  0.00000000000E+00  0.14999999963E+04  0.15000000000E+04  0.10566000000E+00 0. -1.
        994   -1    0    0    0    0 -0.00000000000E+00 -0.00000000000E+00  0.11368683772E-12  0.17120000000E+03  0.17120000000E+03 0.  0.
         13    1    1    2    0    0 -0.18256605944E+02  0.29895950517E+02  0.19846606127E+03  0.20153376927E+03  0.10566000000E+00 0. -1.
        994    1    1    2    0    0  0.20329418497E+01 -0.12792541418E+02  0.38528796653E+01  0.17173254395E+03  0.17120000000E+03 0.  0.
        998    1    1    2    0    0  0.16223664094E+02 -0.17103409099E+02  0.12976810553E+04  0.12979336868E+04  0.10000000000E+02 0. -1.
</event>
<event>
 5    1  0.1218060E-008  0.3808295E+03  0.7957747E-01  0.3447555E+00
         13   -1    0    0    0    0  0.00000000000E+00  0.00000000000E+00  0.14999999963E+04  0.15000000000E+04  0.10566000000E+00 0.  1.
        994   -1    0    0    0    0 -0.00000000000E+00 -0.00000000000E+00  0.11368683772E-12  0.17120000000E+03  0.17120000000E+03 0.  0.
         13    1    1    2    0    0 -0.59065238605E+01 -0.10817934644E+02  0.18891942302E+02  0.22557291107E+02  0.10566000000E+00 0.  1.
        994    1    1    2    0    0  0.48956443988E+01  0.76584707827E+01  0.39904797573E+01  0.17148756059E+03  0.17120000000E+03 0.  0.
        998    1    1    2    0    0  0.10108794617E+01  0.31594638613E+01  0.14771175742E+04  0.14771551483E+04  0.10000000000E+02 0.  1.
</event>
<event>
 5    1  0.1218060E-008  0.3830504E+03  0.7957747E-01  0.3437983E+00
         13   -1    0    0    0    0  0.00000000000E+00  0.00000000000E+00  0.14999999963E+04  0.15000000000E+04  0.10566000000E+00 0. -1.
        994   -1    0    0    0    0 -0.00000000000E+00 -0.00000000000E+00  0.11368683772E-12  0.17120000000E+03  0.17120000000E+03 0.  0.
         13    1    1    2    0    0 -0.40286192085E+00  0.10250192916E+02  0.19131030127E+02  0.21707976191E+02  0.10566000000E+00 0. -1.
        994    1    1    2    0    0 -0.28466899411E+01 -0.94665154842E+01  0.29246461293E+01  0.17151009333E+03  0.17120000000E+03 0.  0.
        998    1    1    2    0    0  0.32495518619E+01 -0.78367743149E+00  0.14779443200E+04  0.14779819305E+04  0.10000000000E+02 0. -1.
</event>
<event>
 5    1  0.1218060E-008  0.3862938E+03  0.7957747E-01  0.3424203E+00
         13   -1    0    0    0    0  0.00000000000E+00  0.00000000000E+00  0.14999999963E+04  0.15000000000E+04  0.10566000000E+00 0. -1.
        994   -1    0    0    0    0 -0.00000000000E+00 -0.00000000000E+00  0.11368683772E-12  0.17120000000E+03  0.17120000000E+03 0.  0.
         13    1    1    2    0    0  0.30492225381E+01 -0.10576617658E+02  0.62888847955E+02  0.63844975999E+02  0.10566000000E+00 0. -1.
        994    1    1    2    0    0 -0.10205410485E+02  0.36224445142E+01  0.13732804001E+01  0.17154765637E+03  0.17120000000E+03 0.  0.
        998    1    1    2    0    0  0.71561879465E+01  0.69541731439E+01  0.14357378679E+04  0.14358073676E+04  0.10000000000E+02 0. -1.
</event>
<event>
 5    1  0.1218060E-008  0.3828569E+03  0.7957747E-01  0.3438812E+00
         13   -1    0    0    0    0  0.00000000000E+00  0.00000000000E+00  0.14999999963E+04  0.15000000000E+04  0.10566000000E+00 0. -1.
        994   -1    0    0    0    0 -0.00000000000E+00 -0.00000000000E+00  0.11368683772E-12  0.17120000000E+03  0.17120000000E+03 0.  0.
         13    1    1    2    0    0 -0.82942445705E+02 -0.12548967584E+03  0.72656713222E+03  0.74197501092E+03  0.10566000000E+00 0. -1.
        994    1    1    2    0    0  0.95459616558E+02  0.17534515115E+03  0.14835111193E+03  0.30195356073E+03  0.17120000000E+03 0.  0.
        998    1    1    2    0    0 -0.12517170854E+02 -0.49855475311E+02  0.62508175212E+03  0.62727142835E+03  0.10000000000E+02 0.  1.
</event>
<event>
 5    1  0.1218060E-008  0.3735338E+03  0.7957747E-01  0.3479806E+00
         13   -1    0    0    0    0  0.00000000000E+00  0.00000000000E+00  0.14999999963E+04  0.15000000000E+04  0.10566000000E+00 0.  1.
        994   -1    0    0    0    0 -0.00000000000E+00 -0.00000000000E+00  0.11368683772E-12  0.17120000000E+03  0.17120000000E+03 0.  0.
         13    1    1    2    0    0 -0.32794849083E+01 -0.10160185823E+02  0.42348960776E+01  0.11486074440E+02  0.10566000000E+00 0.  1.
        994    1    1    2    0    0  0.11481226061E+01  0.69657108980E+01  0.76038611306E+01  0.17151413358E+03  0.17120000000E+03 0.  0.
        998    1    1    2    0    0  0.21313623022E+01  0.31944749250E+01  0.14881612391E+04  0.14881997920E+04  0.10000000000E+02 0.  1.
</event>
<event>
 5    1  0.1218060E-008  0.3804318E+03  0.7957747E-01  0.3449280E+00
         13   -1    0    0    0    0  0.00000000000E+00  0.00000000000E+00  0.14999999963E+04  0.15000000000E+04  0.10566000000E+00 0. -1.
        994   -1    0    0    0    0 -0.00000000000E+00 -0.00000000000E+00  0.11368683772E-12  0.17120000000E+03  0.17120000000E+03 0.  0.
         13    1    1    2    0    0  0.85380300630E+01  0.14910018555E+03  0.79667819187E+03  0.81055531326E+03  0.10566000000E+00 0. -1.
        994    1    1    2    0    0 -0.20804521049E+01 -0.16895142045E+03  0.10597226804E+03  0.26284686102E+03  0.17120000000E+03 0.  0.
        998    1    1    2    0    0 -0.64575779581E+01  0.19851234894E+02  0.59734953637E+03  0.59779782572E+03  0.10000000000E+02 0. -1.
</event>
<event>
 5    1  0.1218060E-008  0.3787081E+03  0.7957747E-01  0.3456803E+00
         13   -1    0    0    0    0  0.00000000000E+00  0.00000000000E+00  0.14999999963E+04  0.15000000000E+04  0.10566000000E+00 0.  1.
        994   -1    0    0    0    0 -0.00000000000E+00 -0.00000000000E+00  0.11368683772E-12  0.17120000000E+03  0.17120000000E+03 0.  0.
         13    1    1    2    0    0  0.83385685928E+01  0.36853697709E+02  0.14274803403E+03  0.14766427850E+03  0.10566000000E+00 0.  1.
        994    1    1    2    0    0  0.44597365326E+01 -0.29789881179E+02  0.78388298622E+01  0.17400636059E+03  0.17120000000E+03 0.  0.
        998    1    1    2    0    0 -0.12798305125E+02 -0.70638165294E+01  0.13494131324E+04  0.13495293609E+04  0.10000000000E+02 0.  1.
</event>
<event>
 5    1  0.1218060E-008  0.3699725E+03  0.7957747E-01  0.3496018E+00
         13   -1    0    0    0    0  0.00000000000E+00  0.00000000000E+00  0.14999999963E+04  0.15000000000E+04  0.10566000000E+00 0.  1.
        994   -1    0    0    0    0 -0.00000000000E+00 -0.00000000000E+00  0.11368683772E-12  0.17120000000E+03  0.17120000000E+03 0.  0.
         13    1    1    2    0    0  0.16594030420E+03  0.43926879040E+02  0.79898003505E+03  0.81721163894E+03  0.10566000000E+00 0.  1.
        994    1    1    2    0    0 -0.15285411124E+03 -0.40335825402E+02  0.10139978337E+03  0.25413129324E+03  0.17120000000E+03 0.  0.
        998    1    1    2    0    0 -0.13086192958E+02 -0.35910536379E+01  0.59962017786E+03  0.59985706782E+03  0.10000000000E+02 0.  1.
</event>
<event>
 5    1  0.1218060E-008  0.3764607E+03  0.7957747E-01  0.3466716E+00
         13   -1    0    0    0    0  0.00000000000E+00  0.00000000000E+00  0.14999999963E+04  0.15000000000E+04  0.10566000000E+00 0. -1.
        994   -1    0    0    0    0 -0.00000000000E+00 -0.00000000000E+00  0.11368683772E-12  0.17120000000E+03  0.17120000000E+03 0.  0.
         13    1    1    2    0    0 -0.19298968769E+01  0.14371371368E+02  0.15831873991E+02  0.21469052495E+02  0.10566000000E+00 0. -1.
        994    1    1    2    0    0  0.12569807796E+02  0.10727754891E+02  0.68547749022E+01  0.17213225361E+03  0.17120000000E+03 0.  0.
        998    1    1    2    0    0 -0.10639910919E+02 -0.25099126259E+02  0.14773133474E+04  0.14775986939E+04  0.10000000000E+02 0. -1.
</event>
<event>
 5    1  0.1218060E-008  0.3501606E+03  0.7957747E-01  0.3592352E+00
         13   -1    0    0    0    0  0.00000000000E+00  0.00000000000E+00  0.14999999963E+04  0.15000000000E+04  0.10566000000E+00 0. -1.
        994   -1    0    0    0    0 -0.00000000000E+00 -0.00000000000E+00  0.11368683772E-12  0.17120000000E+03  0.17120000000E+03 0.  0.
         13    1    1    2    0    0 -0.21911455540E+03  0.78026274955E+02  0.11200608261E+04  0.11439560976E+04  0.10566000000E+00 0. -1.
        994    1    1    2    0    0  0.20891587328E+03 -0.26693158769E+01  0.21461830976E+03  0.34499771918E+03  0.17120000000E+03 0.  0.
        998    1    1    2    0    0  0.10198682123E+02 -0.75356959078E+02  0.16532086042E+03  0.18224618319E+03  0.10000000000E+02 0.  1.
</event>
<event>
 5    1  0.1218060E-008  0.3732644E+03  0.7957747E-01  0.3481022E+00
         13   -1    0    0    0    0  0.00000000000E+00  0.00000000000E+00  0.14999999963E+04  0.15000000000E+04  0.10566000000E+00 0. -1.
        994   -1    0    0    0    0 -0.00000000000E+00 -0.00000000000E+00  0.11368683772E-12  0.17120000000E+03  0.17120000000E+03 0.  0.
         13    1    1    2    0    0 -0.56060275976E+02 -0.36102695950E+02  0.29790883258E+03  0.30527994184E+03  0.10566000000E+00 0. -1.
        994    1    1    2    0    0  0.43247766708E+02 -0.10711542032E+01  0.13998972116E+02  0.17713533785E+03  0.17120000000E+03 0.  0.
        998    1    1    2    0    0  0.12812509268E+02  0.37173850153E+02  0.11880921916E+04  0.11887847203E+04  0.10000000000E+02 0. -1.
</event>
<event>
 5    1  0.1218060E-008  0.3836839E+03  0.7957747E-01  0.3435273E+00
         13   -1    0    0    0    0  0.00000000000E+00  0.00000000000E+00  0.14999999963E+04  0.15000000000E+04  0.10566000000E+00 0. -1.
        994   -1    0    0    0    0 -0.00000000000E+00 -0.00000000000E+00  0.11368683772E-12  0.17120000000E+03  0.17120000000E+03 0.  0.
         13    1    1    2    0    0  0.15021712042E+02 -0.13141426343E+02  0.74821323556E+02  0.77437655838E+02  0.10566000000E+00 0. -1.
        994    1    1    2    0    0 -0.16087226412E+02  0.40661798735E+02  0.86261668562E+01  0.17690684409E+03  0.17120000000E+03 0.  0.
        998    1    1    2    0    0  0.10655143696E+01 -0.27520372391E+02  0.14165525059E+04  0.14168555001E+04  0.10000000000E+02 0. -1.
</event>
<event>
 5    1  0.1218060E-008  0.3727115E+03  0.7957747E-01  0.3483522E+00
         13   -1    0    0    0    0  0.00000000000E+00  0.00000000000E+00  0.14999999963E+04  0.15000000000E+04  0.10566000000E+00 0. -1.
        994   -1    0    0    0    0 -0.00000000000E+00 -0.00000000000E+00  0.11368683772E-12  0.17120000000E+03  0.17120000000E+03 0.  0.
         13    1    1    2    0    0 -0.27016278986E+02 -0.58978289522E+01  0.48993664937E+02  0.56258813394E+02  0.10566000000E+00 0. -1.
        994    1    1    2    0    0 -0.85972142392E+01  0.11375065975E+02  0.85554034417E+01  0.17200563696E+03  0.17120000000E+03 0.  0.
        998    1    1    2    0    0  0.35613493225E+02 -0.54772370226E+01  0.14424509279E+04  0.14429355496E+04  0.10000000000E+02 0. -1.
</event>
<event>
 5    1  0.1218060E-008  0.3777337E+03  0.7957747E-01  0.3461086E+00
         13   -1    0    0    0    0  0.00000000000E+00  0.00000000000E+00  0.14999999963E+04  0.15000000000E+04  0.10566000000E+00 0. -1.
        994   -1    0    0    0    0 -0.00000000000E+00 -0.00000000000E+00  0.11368683772E-12  0.17120000000E+03  0.17120000000E+03 0.  0.
         13    1    1    2    0    0 -0.29774424889E+02 -0.10960084031E+02  0.89347935735E+02  0.94814052775E+02  0.10566000000E+00 0. -1.
        994    1    1    2    0    0  0.26564457369E+02  0.13591105223E+02  0.82863320313E+01  0.17397842348E+03  0.17120000000E+03 0.  0.
        998    1    1    2    0    0  0.32099675201E+01 -0.26310211927E+01  0.14023657285E+04  0.14024075237E+04  0.10000000000E+02 0. -1.
</event>
<event>
 5    1  0.1218060E-008  0.3804958E+03  0.7957747E-01  0.3449002E+00
         13   -1    0    0    0    0  0.00000000000E+00  0.00000000000E+00  0.14999999963E+04  0.15000000000E+04  0.10566000000E+00 0. -1.
        994   -1    0    0    0    0 -0.00000000000E+00 -0.00000000000E+00  0.11368683772E-12  0.17120000000E+03  0.17120000000E+03 0.  0.
         13    1    1    2    0    0 -0.48559149502E+02 -0.10459051080E+03  0.29426086913E+03  0.31604847130E+03  0.10566000000E+00 0. -1.
        994    1    1    2    0    0  0.48833959142E+02  0.11532325177E+03  0.76006154575E+02  0.22532328663E+03  0.17120000000E+03 0.  0.
        998    1    1    2    0    0 -0.27480964003E+00 -0.10732740969E+02  0.11297329726E+04  0.11298282421E+04  0.10000000000E+02 0. -1.
</event>
<event>
 5    1  0.1218060E-008  0.3801580E+03  0.7957747E-01  0.3450471E+00
         13   -1    0    0    0    0  0.00000000000E+00  0.00000000000E+00  0.14999999963E+04  0.15000000000E+04  0.10566000000E+00 0.  1.
        994   -1    0    0    0    0 -0.00000000000E+00 -0.00000000000E+00  0.11368683772E-12  0.17120000000E+03  0.17120000000E+03 0.  0.
         13    1    1    2    0    0  0.47731699091E+01 -0.15631190921E+02  0.31359995254E+02  0.35363508691E+02  0.10566000000E+00 0.  1.
        994    1    1    2    0    0  0.57111087253E+01  0.13289872417E+02  0.47528100759E+01  0.17187573033E+03  0.17120000000E+03 0.  0.
        998    1    1    2    0    0 -0.10484278634E+02  0.23413185045E+01  0.14638871909E+04  0.14639607610E+04  0.10000000000E+02 0.  1.
</event>
<event>
 5    1  0.1218060E-008  0.3766063E+03  0.7957747E-01  0.3466070E+00
         13   -1    0    0    0    0  0.00000000000E+00  0.00000000000E+00  0.14999999963E+04  0.15000000000E+04  0.10566000000E+00 0. -1.
        994   -1    0    0    0    0 -0.00000000000E+00 -0.00000000000E+00  0.11368683772E-12  0.17120000000E+03  0.17120000000E+03 0.  0.
         13    1    1    2    0    0  0.91905748708E+01 -0.22681376112E+02  0.48599749958E+02  0.54413769846E+02  0.10566000000E+00 0. -1.
        994    1    1    2    0    0 -0.49080287710E+01  0.17102521701E+02  0.69272136733E+01  0.17226146198E+03  0.17120000000E+03 0.  0.
        998    1    1    2    0    0 -0.42825460998E+01  0.55788544114E+01  0.14444730326E+04  0.14445247682E+04  0.10000000000E+02 0. -1.
</event>
<event>
 5    1  0.1218060E-008  0.3766610E+03  0.7957747E-01  0.3465827E+00
         13   -1    0    0    0    0  0.00000000000E+00  0.00000000000E+00  0.14999999963E+04  0.15000000000E+04  0.10566000000E+00 0. -1.
        994   -1    0    0    0    0 -0.00000000000E+00 -0.00000000000E+00  0.11368683772E-12  0.17120000000E+03  0.17120000000E+03 0.  0.
         13    1    1    2    0    0 -0.13471723902E+02  0.31273988954E+02  0.90641472122E+02  0.96826842159E+02  0.10566000000E+00 0. -1.
        994    1    1    2    0    0  0.18315410053E+02 -0.33307475071E+02  0.10727786016E+02  0.17569680570E+03  0.17120000000E+03 0.  0.
        998    1    1    2    0    0 -0.48436861509E+01  0.20334861168E+01  0.13986307381E+04  0.13986763521E+04  0.10000000000E+02 0. -1.
</event>
<event>
 5    1  0.1218060E-008  0.3844016E+03  0.7957747E-01  0.3432214E+00
         13   -1    0    0    0    0  0.00000000000E+00  0.00000000000E+00  0.14999999963E+04  0.15000000000E+04  0.10566000000E+00 0. -1.
        994   -1    0    0    0    0 -0.00000000000E+00 -0.00000000000E+00  0.11368683772E-12  0.17120000000E+03  0.17120000000E+03 0.  0.
         13    1    1    2    0    0  0.39002337549E+01  0.12963593497E+02  0.51092161966E+02  0.52855338028E+02  0.10566000000E+00 0. -1.
        994    1    1    2    0    0  0.17810823851E+02  0.55735893339E+00  0.29745294714E+01  0.17215058501E+03  0.17120000000E+03 0.  0.
        998    1    1    2    0    0 -0.21711057606E+02 -0.13520952430E+02  0.14459333048E+04  0.14461940770E+04  0.10000000000E+02 0. -1.
</event>
<event>
 5    1  0.1218060E-008  0.3850364E+03  0.7957747E-01  0.3429518E+00
         13   -1    0    0    0    0  0.00000000000E+00  0.00000000000E+00  0.14999999963E+04  0.15000000000E+04  0.10566000000E+00 0. -1.
        994   -1    0    0    0    0 -0.00000000000E+00 -0.00000000000E+00  0.11368683772E-12  0.17120000000E+03  0.17120000000E+03 0.  0.
         13    1    1    2    0    0 -0.55898250654E-01  0.17597487216E+02  0.92391780445E+02  0.94052788043E+02  0.10566000000E+00 0. -1.
        994    1    1    2    0    0 -0.69897295453E+01 -0.16666544892E+02  0.26868330467E+01  0.17217226580E+03  0.17120000000E+03 0.  0.
        998    1    1    2    0    0  0.70456277960E+01 -0.93094232389E+00  0.14049213828E+04  0.14049749462E+04  0.10000000000E+02 0. -1.
</event>
<event>
 5    1  0.1218060E-008  0.3858251E+03  0.7957747E-01  0.3426180E+00
         13   -1    0    0    0    0  0.00000000000E+00  0.00000000000E+00  0.14999999963E+04  0.15000000000E+04  0.10566000000E+00 0.  1.
        994   -1    0    0    0    0 -0.00000000000E+00 -0.00000000000E+00  0.11368683772E-12  0.17120000000E+03  0.17120000000E+03 0.  0.
         13    1    1    2    0    0 -0.26187912714E+01  0.10600794285E+02  0.48619917568E+02  0.49831139416E+02  0.10566000000E+00 0.  1.
        994    1    1    2    0    0  0.89591535191E+00 -0.94781460352E+01  0.15183941190E+01  0.17147123210E+03  0.17120000000E+03 0.  0.
        998    1    1    2    0    0  0.17228759194E+01 -0.11226482494E+01  0.14498616846E+04  0.14498976285E+04  0.10000000000E+02 0.  1.
</event>
<event>
 5    1  0.1218060E-008  0.3828130E+03  0.7957747E-01  0.3439001E+00
         13   -1    0    0    0    0  0.00000000000E+00  0.00000000000E+00  0.14999999963E+04  0.15000000000E+04  0.10566000000E+00 0.  1.
        994   -1    0    0    0    0 -0.00000000000E+00 -0.00000000000E+00  0.11368683772E-12  0.17120000000E+03  0.17120000000E+03 0.  0.
         13    1    1    2    0    0 -0.96801355842E+01 -0.12736198910E+02  0.43925649427E+02  0.46748151078E+02  0.10566000000E+00 0.  1.
        994    1    1    2    0    0  0.18784890342E+02  0.14158354153E+02  0.45546891872E+01  0.17286849421E+03  0.17120000000E+03 0.  0.
        998    1    1    2    0    0 -0.91047547574E+01 -0.14221552424E+01  0.14515196577E+04  0.14515833547E+04  0.10000000000E+02 0.  1.
</event>
<event>
 5    1  0.1218060E-008  0.3825889E+03  0.7957747E-01  0.3439963E+00
         13   -1    0    0    0    0  0.00000000000E+00  0.00000000000E+00  0.14999999963E+04  0.15000000000E+04  0.10566000000E+00 0. -1.
        994   -1    0    0    0    0 -0.00000000000E+00 -0.00000000000E+00  0.11368683772E-12  0.17120000000E+03  0.17120000000E+03 0.  0.
         13    1    1    2    0    0  0.40709406213E+02  0.23493781728E+02  0.56552947975E+02  0.73535437870E+02  0.10566000000E+00 0. -1.
        994    1    1    2    0    0 -0.29633739301E+02 -0.51933957878E+01  0.21074779813E+02  0.17509630553E+03  0.17120000000E+03 0.  0.
        998    1    1    2    0    0 -0.11075666912E+02 -0.18300385940E+02  0.14223722685E+04  0.14225682566E+04  0.10000000000E+02 0. -1.
</event>
<event>
 5    1  0.1218060E-008  0.3849209E+03  0.7957747E-01  0.3430008E+00
         13   -1    0    0    0    0  0.00000000000E+00  0.00000000000E+00  0.14999999963E+04  0.15000000000E+04  0.10566000000E+00 0.  1.
        994   -1    0    0    0    0 -0.00000000000E+00 -0.00000000000E+00  0.11368683772E-12  0.17120000000E+03  0.17120000000E+03 0.  0.
         13    1    1    2    0    0 -0.14228430815E+02  0.66177924557E+01  0.76806572935E+02  0.78393266487E+02  0.10566000000E+00 0.  1.
        994    1    1    2    0    0  0.65946402177E+01  0.38500818218E+01  0.18612395017E+01  0.17138032741E+03  0.17120000000E+03 0.  0.
        998    1    1    2    0    0  0.76337905969E+01 -0.10467874278E+02  0.14213321838E+04  0.14214264061E+04  0.10000000000E+02 0.  1.
</event>
<event>
 5    1  0.1218060E-008  0.3851562E+03  0.7957747E-01  0.3429010E+00
         13   -1    0    0    0    0  0.00000000000E+00  0.00000000000E+00  0.14999999963E+04  0.15000000000E+04  0.10566000000E+00 0.  1.
        994   -1    0    0    0    0 -0.00000000000E+00 -0.00000000000E+00  0.11368683772E-12  0.17120000000E+03  0.17120000000E+03 0.  0.
         13    1    1    2    0    0  0.89030929013E+01  0.11662390001E+02  0.73613691686E+02  0.75061729073E+02  0.10566000000E+00 0.  1.
        994    1    1    2    0    0 -0.71331822603E+01  0.37293105016E+01  0.17655844209E+01  0.17139821275E+03  0.17120000000E+03 0.  0.
        998    1    1    2    0    0 -0.17699106410E+01 -0.15391700503E+02  0.14246207202E+04  0.14247400582E+04  0.10000000000E+02 0.  1.
</event>
<event>
 5    1  0.1218060E-008  0.3837592E+03  0.7957747E-01  0.3434952E+00
         13   -1    0    0    0    0  0.00000000000E+00  0.00000000000E+00  0.14999999963E+04  0.15000000000E+04  0.10566000000E+00 0. -1.
        994   -1    0    0    0    0 -0.00000000000E+00 -0.00000000000E+00  0.11368683772E-12  0.17120000000E+03  0.17120000000E+03 0.  0.
         13    1    1    2    0    0  0.25816304527E+02  0.94405000600E+00  0.12831210934E+03  0.13088690300E+03  0.10566000000E+00 0. -1.
        994    1    1    2    0    0 -0.35124456320E+02 -0.34532489653E+02  0.10300182195E+02  0.17844257907E+03  0.17120000000E+03 0.  0.
        998    1    1    2    0    0  0.93081517932E+01  0.33588439647E+02  0.13613877047E+04  0.13618705179E+04  0.10000000000E+02 0. -1.
</event>
<event>
 5    1  0.1218060E-008  0.3838349E+03  0.7957747E-01  0.3434629E+00
         13   -1    0    0    0    0  0.00000000000E+00  0.00000000000E+00  0.14999999963E+04  0.15000000000E+04  0.10566000000E+00 0.  1.
        994   -1    0    0    0    0 -0.00000000000E+00 -0.00000000000E+00  0.11368683772E-12  0.17120000000E+03  0.17120000000E+03 0.  0.
         13    1    1    2    0    0  0.12079153634E+02 -0.79867734908E+01  0.41194467120E+02  0.43665659146E+02  0.10566000000E+00 0.  1.
        994    1    1    2    0    0 -0.45363419668E+02  0.27819757303E+01  0.90584635387E+01  0.17736142476E+03  0.17120000000E+03 0.  0.
        998    1    1    2    0    0  0.33284266035E+02  0.52047977605E+01  0.14497470656E+04  0.14501729161E+04  0.10000000000E+02 0.  1.
</event>
<event>
 5    1  0.1218060E-008  0.3846030E+03  0.7957747E-01  0.3431358E+00
         13   -1    0    0    0    0  0.00000000000E+00  0.00000000000E+00  0.14999999963E+04  0.15000000000E+04  0.10566000000E+00 0. -1.
        994   -1    0    0    0    0 -0.00000000000E+00 -0.00000000000E+00  0.11368683772E-12  0.17120000000E+03  0.17120000000E+03 0.  0.
         13    1    1    2    0    0  0.16360825090E+02  0.50357863518E+01  0.80554407185E+02  0.82353259940E+02  0.10566000000E+00 0. -1.
        994    1    1    2    0    0 -0.88421050239E+01 -0.54799153952E+01  0.21837918338E+01  0.17152965120E+03  0.17120000000E+03 0.  0.
        998    1    1    2    0    0 -0.75187200665E+01  0.44412904346E+00  0.14172617973E+04  0.14173170889E+04  0.10000000000E+02 0. -1.
</event>
<event>
 5    1  0.1218060E-008  0.3838956E+03  0.7957747E-01  0.3434370E+00
         13   -1    0    0    0    0  0.00000000000E+00  0.00000000000E+00  0.14999999963E+04  0.15000000000E+04  0.10566000000E+00 0.  1.
        994   -1    0    0    0    0 -0.00000000000E+00 -0.00000000000E+00  0.11368683772E-12  0.17120000000E+03  0.17120000000E+03 0.  0.
         13    1    1    2    0    0 -0.15379000656E+02  0.17656304928E+01  0.54183834328E+02  0.56351842727E+02  0.10566000000E+00 0.  1.
        994    1    1    2    0    0  0.10898360145E+02 -0.41388538098E+01  0.26281390896E+01  0.17161658276E+03  0.17120000000E+03 0.  0.
        998    1    1    2    0    0  0.44806405104E+01  0.23732233170E+01  0.14431880229E+04  0.14432315745E+04  0.10000000000E+02 0.  1.
</event>
<event>
 5    1  0.1218060E-008  0.3718122E+03  0.7957747E-01  0.3487603E+00
         13   -1    0    0    0    0  0.00000000000E+00  0.00000000000E+00  0.14999999963E+04  0.15000000000E+04  0.10566000000E+00 0.  1.
        994   -1    0    0    0    0 -0.00000000000E+00 -0.00000000000E+00  0.11368683772E-12  0.17120000000E+03  0.17120000000E+03 0.  0.
         13    1    1    2    0    0  0.71177312559E+02  0.35325845260E+01  0.35485958182E+03  0.36194477887E+03  0.10566000000E+00 0.  1.
        994    1    1    2    0    0 -0.41736053019E+02  0.98546340640E+02  0.48770821346E+02  0.20770486848E+03  0.17120000000E+03 0.  0.
        998    1    1    2    0    0 -0.29441259540E+02 -0.10207892517E+03  0.10963695931E+04  0.11015503527E+04  0.10000000000E+02 0.  1.
</event>
<event>
 5    1  0.1218060E-008  0.3837092E+03  0.7957747E-01  0.3435165E+00
         13   -1    0    0    0    0  0.00000000000E+00  0.00000000000E+00  0.14999999963E+04  0.15000000000E+04  0.10566000000E+00 0. -1.
        994   -1    0    0    0    0 -0.00000000000E+00 -0.00000000000E+00  0.11368683772E-12  0.17120000000E+03  0.17120000000E+03 0.  0.
         13    1    1    2    0    0  0.16211469313E+02  0.18922517215E+02  0.13153325467E+03  0.13387263217E+03  0.10566000000E+00 0. -1.
        994    1    1    2    0    0 -0.50605027296E+01 -0.21620443953E+02  0.39023249797E+01  0.17267808322E+03  0.17120000000E+03 0.  0.
        998    1    1    2    0    0 -0.11150966584E+02  0.26979267380E+01  0.13645644166E+04  0.13646492846E+04  0.10000000000E+02 0. -1.
</event>
<event>
 5    1  0.1218060E-008  0.3846109E+03  0.7957747E-01  0.3431324E+00
         13   -1    0    0    0    0  0.00000000000E+00  0.00000000000E+00  0.14999999963E+04  0.15000000000E+04  0.10566000000E+00 0.  1.
        994   -1    0    0    0    0 -0.00000000000E+00 -0.00000000000E+00  0.11368683772E-12  0.17120000000E+03  0.17120000000E+03 0.  0.
         13    1    1    2    0    0 -0.19359556441E+02 -0.13164993058E+02  0.13732576549E+03  0.13930716600E+03  0.10566000000E+00 0.  1.
        994    1    1    2    0    0  0.19977469631E+02  0.14436267600E+02  0.38264025045E+01  0.17300747519E+03  0.17120000000E+03 0.  0.
        998    1    1    2    0    0 -0.61791318994E+00 -0.12712745415E+01  0.13588478283E+04  0.13588853588E+04  0.10000000000E+02 0.  0.
</event>
<event>
 5    1  0.1218060E-008  0.3765115E+03  0.7957747E-01  0.3466490E+00
         13   -1    0    0    0    0  0.00000000000E+00  0.00000000000E+00  0.14999999963E+04  0.15000000000E+04  0.10566000000E+00 0.  1.
        994   -1    0    0    0    0 -0.00000000000E+00 -0.00000000000E+00  0.11368683772E-12  0.17120000000E+03  0.17120000000E+03 0.  0.
         13    1    1    2    0    0 -0.70238245064E+02 -0.80962037298E+02  0.59890883371E+03  0.60842424739E+03  0.10566000000E+00 0.  1.
        994    1    1    2    0    0  0.13326817584E+02  0.13621256076E+02  0.15724391738E+02  0.17297352161E+03  0.17120000000E+03 0.  0.
        998    1    1    2    0    0  0.56911427480E+02  0.67340781222E+02  0.88536677083E+03  0.88980223100E+03  0.10000000000E+02 0.  1.
</event>
<event>
 5    1  0.1218060E-008  0.3691014E+03  0.7957747E-01  0.3500031E+00
         13   -1    0    0    0    0  0.00000000000E+00  0.00000000000E+00  0.14999999963E+04  0.15000000000E+04  0.10566000000E+00 0.  1.
        994   -1    0    0    0    0 -0.00000000000E+00 -0.00000000000E+00  0.11368683772E-12  0.17120000000E+03  0.17120000000E+03 0.  0.
         13    1    1    2    0    0  0.23405947283E+02 -0.31612645579E+02  0.70681322394E+02  0.80889172502E+02  0.10566000000E+00 0.  1.
        994    1    1    2    0    0 -0.28346682065E+02  0.38039868854E+02  0.17586234436E+02  0.17851969541E+03  0.17120000000E+03 0.  0.
        998    1    1    2    0    0  0.49407347820E+01 -0.64272232752E+01  0.14117324394E+04  0.14117911321E+04  0.10000000000E+02 0.  1.
</event>
<event>
 5    1  0.1218060E-008  0.3776757E+03  0.7957747E-01  0.3461342E+00
         13   -1    0    0    0    0  0.00000000000E+00  0.00000000000E+00  0.14999999963E+04  0.15000000000E+04  0.10566000000E+00 0.  1.
        994   -1    0    0    0    0 -0.00000000000E+00 -0.00000000000E+00  0.11368683772E-12  0.17120000000E+03  0.17120000000E+03 0.  0.
         13    1    1    2    0    0  0.68695622232E+01  0.94175022895E+01  0.10346994090E+02  0.15586907494E+02  0.10566000000E+00 0.  1.
        994    1    1    2    0    0 -0.91432128871E+01 -0.74392908157E+01  0.57792606540E+01  0.17170259533E+03  0.17120000000E+03 0.  0.
        998    1    1    2    0    0  0.22736506639E+01 -0.19782114738E+01  0.14838737415E+04  0.14839104972E+04  0.10000000000E+02 0.  1.
</event>
<event>
 5    1  0.1218060E-008  0.3768659E+03  0.7957747E-01  0.3464919E+00
         13   -1    0    0    0    0  0.00000000000E+00  0.00000000000E+00  0.14999999963E+04  0.15000000000E+04  0.10566000000E+00 0. -1.
        994   -1    0    0    0    0 -0.00000000000E+00 -0.00000000000E+00  0.11368683772E-12  0.17120000000E+03  0.17120000000E+03 0.  0.
         13    1    1    2    0    0 -0.26010170064E+02 -0.28087120711E+02  0.50563695108E+02  0.63420136578E+02  0.10566000000E+00 0. -1.
        994    1    1    2    0    0  0.72027728271E+01 -0.38145625310E+02  0.20034153141E+02  0.17668552844E+03  0.17120000000E+03 0.  0.
        998    1    1    2    0    0  0.18807397237E+02  0.66232746021E+02  0.14294021480E+04  0.14310943350E+04  0.10000000000E+02 0. -1.
</event>
<event>
 5    1  0.1218060E-008  0.3858874E+03  0.7957747E-01  0.3425917E+00
         13   -1    0    0    0    0  0.00000000000E+00  0.00000000000E+00  0.14999999963E+04  0.15000000000E+04  0.10566000000E+00 0.  1.
        994   -1    0    0    0    0 -0.00000000000E+00 -0.00000000000E+00  0.11368683772E-12  0.17120000000E+03  0.17120000000E+03 0.  0.
         13    1    1    2    0    0 -0.89009169425E+00  0.10754137924E+02  0.47988269303E+02  0.49186674013E+02  0.10566000000E+00 0.  1.
        994    1    1    2    0    0 -0.21755718012E+01 -0.12084138791E+02  0.16847309987E+01  0.17164800564E+03  0.17120000000E+03 0.  0.
        998    1    1    2    0    0  0.30656634954E+01  0.13300008670E+01  0.14503269960E+04  0.14503653203E+04  0.10000000000E+02 0.  1.
</event>
<event>
 5    1  0.1218060E-008  0.3689079E+03  0.7957747E-01  0.3500925E+00
         13   -1    0    0    0    0  0.00000000000E+00  0.00000000000E+00  0.14999999963E+04  0.15000000000E+04  0.10566000000E+00 0. -1.
        994   -1    0    0    0    0 -0.00000000000E+00 -0.00000000000E+00  0.11368683772E-12  0.17120000000E+03  0.17120000000E+03 0.  0.
         13    1    1    2    0    0 -0.44760006059E+02  0.38103793461E+02  0.21514064535E+03  0.22302660304E+03  0.10566000000E+00 0. -1.
        994    1    1    2    0    0 -0.15260113403E+01  0.74753733307E+01  0.10043090216E+02  0.17166395538E+03  0.17120000000E+03 0.  0.
        998    1    1    2    0    0  0.46286017399E+02 -0.45579166791E+02  0.12748162607E+04  0.12765094416E+04  0.10000000000E+02 0. -1.
</event>
<event>
 5    1  0.1218060E-008  0.3757752E+03  0.7957747E-01  0.3469763E+00
         13   -1    0    0    0    0  0.00000000000E+00  0.00000000000E+00  0.14999999963E+04  0.15000000000E+04  0.10566000000E+00 0.  1.
        994   -1    0    0    0    0 -0.00000000000E+00 -0.00000000000E+00  0.11368683772E-12  0.17120000000E+03  0.17120000000E+03 0.  0.
         13    1    1    2    0    0 -0.71539821024E+02  0.26687292120E+02  0.29955430934E+03  0.30913258152E+03  0.10566000000E+00 0.  1.
        994    1    1    2    0    0 -0.15141455797E+02  0.19057517489E+02  0.16142539503E+02  0.17367347016E+03  0.17120000000E+03 0.  0.
        998    1    1    2    0    0  0.86681276821E+02 -0.45744809609E+02  0.11843031474E+04  0.11883939483E+04  0.10000000000E+02 0.  1.
</event>
<event>
 5    1  0.1218060E-008  0.3723690E+03  0.7957747E-01  0.3485074E+00
         13   -1    0    0    0    0  0.00000000000E+00  0.00000000000E+00  0.14999999963E+04  0.15000000000E+04  0.10566000000E+00 0.  1.
        994   -1    0    0    0    0 -0.00000000000E+00 -0.00000000000E+00  0.11368683772E-12  0.17120000000E+03  0.17120000000E+03 0.  0.
         13    1    1    2    0    0  0.59201910225E+01 -0.15187760587E+02  0.52961695851E+01  0.17139933188E+02  0.10566000000E+00 0.  1.
        994    1    1    2    0    0  0.94499912140E+01  0.22226579006E+02  0.14256028667E+02  0.17348198034E+03  0.17120000000E+03 0.  0.
        998    1    1    2    0    0 -0.15370182236E+02 -0.70388184189E+01  0.14804477980E+04  0.14805780865E+04  0.10000000000E+02 0.  1.
</event>
<event>
 5    1  0.1218060E-008  0.3704059E+03  0.7957747E-01  0.3494028E+00
         13   -1    0    0    0    0  0.00000000000E+00  0.00000000000E+00  0.14999999963E+04  0.15000000000E+04  0.10566000000E+00 0. -1.
        994   -1    0    0    0    0 -0.00000000000E+00 -0.00000000000E+00  0.11368683772E-12  0.17120000000E+03  0.17120000000E+03 0.  0.
         13    1    1    2    0    0 -0.16146088428E+02 -0.12326716325E+02  0.19957424085E+02  0.28477254907E+02  0.10566000000E+00 0. -1.
        994    1    1    2    0    0 -0.12932556364E+02  0.19165646599E+01  0.96474628175E+01  0.17196929311E+03  0.17120000000E+03 0.  0.
        998    1    1    2    0    0  0.29078644792E+02  0.10410151665E+02  0.14703951094E+04  0.14707534520E+04  0.10000000000E+02 0. -1.
</event>
<event>
 5    1  0.1218060E-008  0.3718423E+03  0.7957747E-01  0.3487467E+00
         13   -1    0    0    0    0  0.00000000000E+00  0.00000000000E+00  0.14999999963E+04  0.15000000000E+04  0.10566000000E+00 0.  1.
        994   -1    0    0    0    0 -0.00000000000E+00 -0.00000000000E+00  0.11368683772E-12  0.17120000000E+03  0.17120000000E+03 0.  0.
         13    1    1    2    0    0 -0.37402552677E+02  0.90882085717E+02  0.38444848679E+03  0.39681123297E+03  0.10566000000E+00 0.  1.
        994    1    1    2    0    0  0.73980768002E+02 -0.89971950521E+02  0.56473601500E+02  0.21463180934E+03  0.17120000000E+03 0.  0.
        998    1    1    2    0    0 -0.36578215325E+02 -0.91013519538E+00  0.10590779080E+04  0.10597569577E+04  0.10000000000E+02 0. -1.
</event>
<event>
 5    1  0.1218060E-008  0.3863861E+03  0.7957747E-01  0.3423815E+00
         13   -1    0    0    0    0  0.00000000000E+00  0.00000000000E+00  0.14999999963E+04  0.15000000000E+04  0.10566000000E+00 0. -1.
        994   -1    0    0    0    0 -0.00000000000E+00 -0.00000000000E+00  0.11368683772E-12  0.17120000000E+03  0.17120000000E+03 0.  0.
         13    1    1    2    0    0 -0.95822089450E+02  0.27111097462E+02  0.20716087231E+03  0.22985326322E+03  0.10566000000E+00 0. -1.
        994    1    1    2    0    0  0.95777935829E+02 -0.33195958732E+02  0.59099220189E+02  0.20755130087E+03  0.17120000000E+03 0.  0.
        998    1    1    2    0    0  0.44153620796E-01  0.60848612696E+01  0.12337399038E+04  0.12337954359E+04  0.10000000000E+02 0. -1.
</event>
<event>
 5    1  0.1218060E-008  0.3918336E+03  0.7957747E-01  0.3401197E+00
         13   -1    0    0    0    0  0.00000000000E+00  0.00000000000E+00  0.14999999963E+04  0.15000000000E+04  0.10566000000E+00 0.  1.
        994   -1    0    0    0    0 -0.00000000000E+00 -0.00000000000E+00  0.11368683772E-12  0.17120000000E+03  0.17120000000E+03 0.  0.
         13    1    1    2    0    0 -0.72968689036E+02  0.15311321359E+02  0.13045517941E+03  0.15025788213E+03  0.10566000000E+00 0.  1.
        994    1    1    2    0    0  0.10109789428E+02  0.85610170971E+01  0.23651346040E+02  0.17333298886E+03  0.17120000000E+03 0.  0.
        998    1    1    2    0    0  0.62858899608E+02 -0.23872338456E+02  0.13458934708E+04  0.13476091290E+04  0.10000000000E+02 0.  1.
</event>
<event>
 5    1  0.1218060E-008  0.3812670E+03  0.7957747E-01  0.3445660E+00
         13   -1    0    0    0    0  0.00000000000E+00  0.00000000000E+00  0.14999999963E+04  0.15000000000E+04  0.10566000000E+00 0.  1.
        994   -1    0    0    0    0 -0.00000000000E+00 -0.00000000000E+00  0.11368683772E-12  0.17120000000E+03  0.17120000000E+03 0.  0.
         13    1    1    2    0    0 -0.39410271942E+02 -0.29014594350E+01  0.19935953306E+03  0.20323833937E+03  0.10566000000E+00 0.  1.
        994    1    1    2    0    0  0.36842610973E+02 -0.10916722122E+00  0.80268784058E+01  0.17530333904E+03  0.17120000000E+03 0.  0.
        998    1    1    2    0    0  0.25676609683E+01  0.30106266562E+01  0.12926135848E+04  0.12926583216E+04  0.10000000000E+02 0.  1.
</event>
<event>
 5    1  0.1218060E-008  0.3822944E+03  0.7957747E-01  0.3441228E+00
         13   -1    0    0    0    0  0.00000000000E+00  0.00000000000E+00  0.14999999963E+04  0.15000000000E+04  0.10566000000E+00 0. -1.
        994   -1    0    0    0    0 -0.00000000000E+00 -0.00000000000E+00  0.11368683772E-12  0.17120000000E+03  0.17120000000E+03 0.  0.
         13    1    1    2    0    0 -0.11048149853E+02  0.20785430932E+01  0.19788326110E+02  0.22758975610E+02  0.10566000000E+00 0. -1.
        994    1    1    2    0    0  0.14693568549E+02  0.11797695684E+02  0.41583640741E+01  0.17228412165E+03  0.17120000000E+03 0.  0.
        998    1    1    2    0    0 -0.36454186956E+01 -0.13876238777E+02  0.14760533061E+04  0.14761569027E+04  0.10000000000E+02 0. -1.
</event>
<event>
 5    1  0.1218060E-008  0.3780535E+03  0.7957747E-01  0.3459678E+00
         13   -1    0    0    0    0  0.00000000000E+00  0.00000000000E+00  0.14999999963E+04  0.15000000000E+04  0.10566000000E+00 0. -1.
        994   -1    0    0    0    0 -0.00000000000E+00 -0.00000000000E+00  0.11368683772E-12  0.17120000000E+03  0.17120000000E+03 0.  0.
         13    1    1    2    0    0  0.39411619000E+02 -0.13716278607E+02  0.17120834267E+03  0.17622065650E+03  0.10566000000E+00 0. -1.
        994    1    1    2    0    0 -0.21416644400E+02  0.42055384132E+01  0.67233291424E+01  0.17271653761E+03  0.17120000000E+03 0.  0.
        998    1    1    2    0    0 -0.17994974600E+02  0.95107401940E+01  0.13220683245E+04  0.13222628059E+04  0.10000000000E+02 0. -1.
</event>
<event>
 5    1  0.1218060E-008  0.3824783E+03  0.7957747E-01  0.3440438E+00
         13   -1    0    0    0    0  0.00000000000E+00  0.00000000000E+00  0.14999999963E+04  0.15000000000E+04  0.10566000000E+00 0.  1.
        994   -1    0    0    0    0 -0.00000000000E+00 -0.00000000000E+00  0.11368683772E-12  0.17120000000E+03  0.17120000000E+03 0.  0.
         13    1    1    2    0    0 -0.13748815631E+02 -0.33627533740E+00  0.31519966800E+02  0.34389860183E+02  0.10566000000E+00 0.  1.
        994    1    1    2    0    0  0.11298643159E+02 -0.10675707484E+01  0.33145011406E+01  0.17160776487E+03  0.17120000000E+03 0.  0.
        998    1    1    2    0    0  0.24501724725E+01  0.14038460858E+01  0.14651655283E+04  0.14652023750E+04  0.10000000000E+02 0.  1.
</event>
<event>
 5    1  0.1218060E-008  0.3842870E+03  0.7957747E-01  0.3432702E+00
         13   -1    0    0    0    0  0.00000000000E+00  0.00000000000E+00  0.14999999963E+04  0.15000000000E+04  0.10566000000E+00 0. -1.
        994   -1    0    0    0    0 -0.00000000000E+00 -0.00000000000E+00  0.11368683772E-12  0.17120000000E+03  0.17120000000E+03 0.  0.
         13    1    1    2    0    0  0.15798183650E+02 -0.26490851476E+01  0.63738208127E+02  0.65720397124E+02  0.10566000000E+00 0. -1.
        994    1    1    2    0    0 -0.12133575261E+02  0.75790055457E+00  0.24718978272E+01  0.17164891011E+03  0.17120000000E+03 0.  0.
        998    1    1    2    0    0 -0.36646083887E+01  0.18911845931E+01  0.14337898903E+04  0.14338306928E+04  0.10000000000E+02 0. -1.
</event>
<event>
 5    1  0.1218060E-008  0.3686404E+03  0.7957747E-01  0.3502163E+00
         13   -1    0    0    0    0  0.00000000000E+00  0.00000000000E+00  0.14999999963E+04  0.15000000000E+04  0.10566000000E+00 0. -1.
        994   -1    0    0    0    0 -0.00000000000E+00 -0.00000000000E+00  0.11368683772E-12  0.17120000000E+03  0.17120000000E+03 0.  0.
         13    1    1    2    0    0 -0.92483824172E+02 -0.32000787009E+02  0.58230989491E+03  0.59047619172E+03  0.10566000000E+00 0. -1.
        994    1    1    2    0    0  0.28933215745E+02  0.26766995028E+02  0.15646806952E+02  0.17637422024E+03  0.17120000000E+03 0.  0.
        998    1    1    2    0    0  0.63550608426E+02  0.52337919810E+01  0.90204329441E+03  0.90434958805E+03  0.10000000000E+02 0. -1.
</event>
<event>
 5    1  0.1218060E-008  0.3796423E+03  0.7957747E-01  0.3452718E+00
         13   -1    0    0    0    0  0.00000000000E+00  0.00000000000E+00  0.14999999963E+04  0.15000000000E+04  0.10566000000E+00 0. -1.
        994   -1    0    0    0    0 -0.00000000000E+00 -0.00000000000E+00  0.11368683772E-12  0.17120000000E+03  0.17120000000E+03 0.  0.
         13    1    1    2    0    0 -0.59021993108E+01 -0.12253972573E+02  0.19690088008E+02  0.23931287686E+02  0.10566000000E+00 0. -1.
        994    1    1    2    0    0  0.78118750541E+01  0.56166981689E+01  0.46237190546E+01  0.17153247934E+03  0.17120000000E+03 0.  0.
        998    1    1    2    0    0 -0.19096757433E+01  0.66372744037E+01  0.14756861892E+04  0.14757362330E+04  0.10000000000E+02 0. -1.
</event>
<event>
 5    1  0.1218060E-008  0.3788780E+03  0.7957747E-01  0.3456058E+00
         13   -1    0    0    0    0  0.00000000000E+00  0.00000000000E+00  0.14999999963E+04  0.15000000000E+04  0.10566000000E+00 0. -1.
        994   -1    0    0    0    0 -0.00000000000E+00 -0.00000000000E+00  0.11368683772E-12  0.17120000000E+03  0.17120000000E+03 0.  0.
         13    1    1    2    0    0 -0.13296829535E+03  0.12221135312E+03  0.10242766858E+04  0.10400764023E+04  0.10566000000E+00 0. -1.
        994    1    1    2    0    0  0.13165744921E+03 -0.11551563625E+03  0.11566256485E+03  0.27085940091E+03  0.17120000000E+03 0.  0.
        998    1    1    2    0    0  0.13108461352E+01 -0.66957168688E+01  0.36006074565E+03  0.36026419680E+03  0.10000000000E+02 0.  0.
</event>
<event>
 5    1  0.1218060E-008  0.3824531E+03  0.7957747E-01  0.3440546E+00
         13   -1    0    0    0    0  0.00000000000E+00  0.00000000000E+00  0.14999999963E+04  0.15000000000E+04  0.10566000000E+00 0. -1.
        994   -1    0    0    0    0 -0.00000000000E+00 -0.00000000000E+00  0.11368683772E-12  0.17120000000E+03  0.17120000000E+03 0.  0.
         13    1    1    2    0    0  0.55628928200E+02 -0.95377203927E+02  0.57593624149E+03  0.58642472160E+03  0.10566000000E+00 0. -1.
        994    1    1    2    0    0 -0.91547987772E+02  0.13101378126E+03  0.92821324213E+02  0.25193428344E+03  0.17120000000E+03 0.  0.
        998    1    1    2    0    0  0.35919059572E+02 -0.35636577335E+02  0.83124243057E+03  0.83284099495E+03  0.10000000000E+02 0. -1.
</event>
<event>
 5    1  0.1218060E-008  0.3737687E+03  0.7957747E-01  0.3478748E+00
         13   -1    0    0    0    0  0.00000000000E+00  0.00000000000E+00  0.14999999963E+04  0.15000000000E+04  0.10566000000E+00 0. -1.
        994   -1    0    0    0    0 -0.00000000000E+00 -0.00000000000E+00  0.11368683772E-12  0.17120000000E+03  0.17120000000E+03 0.  0.
         13    1    1    2    0    0 -0.26296887524E+02  0.83490049804E+01  0.24165408127E+02  0.36677108550E+02  0.10566000000E+00 0. -1.
        994    1    1    2    0    0  0.26751125981E+02  0.28860094252E+02  0.18451777451E+02  0.17663078971E+03  0.17120000000E+03 0.  0.
        998    1    1    2    0    0 -0.45423845735E+00 -0.37209099232E+02  0.14573828107E+04  0.14578921017E+04  0.10000000000E+02 0. -1.
</event>
<event>
 5    1  0.1218060E-008  0.3864596E+03  0.7957747E-01  0.3423505E+00
         13   -1    0    0    0    0  0.00000000000E+00  0.00000000000E+00  0.14999999963E+04  0.15000000000E+04  0.10566000000E+00 0. -1.
        994   -1    0    0    0    0 -0.00000000000E+00 -0.00000000000E+00  0.11368683772E-12  0.17120000000E+03  0.17120000000E+03 0.  0.
         13    1    1    2    0    0  0.19737503470E+02 -0.24271281894E+02  0.16437585716E+02  0.35339348554E+02  0.10566000000E+00 0. -1.
        994    1    1    2    0    0 -0.44594790007E+02 -0.10864038766E+02  0.27782373087E+02  0.17941020843E+03  0.17120000000E+03 0.  0.
        998    1    1    2    0    0  0.24857286537E+02  0.35135320660E+02  0.14557800375E+04  0.14564504430E+04  0.10000000000E+02 0. -1.
</event>
<event>
 5    1  0.1218060E-008  0.3861565E+03  0.7957747E-01  0.3424782E+00
         13   -1    0    0    0    0  0.00000000000E+00  0.00000000000E+00  0.14999999963E+04  0.15000000000E+04  0.10566000000E+00 0. -1.
        994   -1    0    0    0    0 -0.00000000000E+00 -0.00000000000E+00  0.11368683772E-12  0.17120000000E+03  0.17120000000E+03 0.  0.
         13    1    1    2    0    0 -0.11030399973E+02 -0.74289341563E-01  0.54665900315E+02  0.55767795938E+02  0.10566000000E+00 0. -1.
        994    1    1    2    0    0  0.17071262785E+02 -0.13147735646E+02  0.25797216658E+01  0.17256994504E+03  0.17120000000E+03 0.  0.
        998    1    1    2    0    0 -0.60408628123E+01  0.13222024987E+02  0.14427543743E+04  0.14428622590E+04  0.10000000000E+02 0. -1.
</event>
<event>
 5    1  0.1218060E-008  0.3709883E+03  0.7957747E-01  0.3491361E+00
         13   -1    0    0    0    0  0.00000000000E+00  0.00000000000E+00  0.14999999963E+04  0.15000000000E+04  0.10566000000E+00 0.  1.
        994   -1    0    0    0    0 -0.00000000000E+00 -0.00000000000E+00  0.11368683772E-12  0.17120000000E+03  0.17120000000E+03 0.  0.
         13    1    1    2    0    0 -0.10441103139E+02 -0.18788817407E+02  0.22767900719E+02  0.31311735204E+02  0.10566000000E+00 0.  1.
        994    1    1    2    0    0  0.56698253799E+01  0.12715397612E+02  0.94215676225E+01  0.17202335363E+03  0.17120000000E+03 0.  0.
        998    1    1    2    0    0  0.47712777594E+01  0.60734197955E+01  0.14678105279E+04  0.14678649112E+04  0.10000000000E+02 0.  1.
</event>
<event>
 5    1  0.1218060E-008  0.3697321E+03  0.7957747E-01  0.3497123E+00
         13   -1    0    0    0    0  0.00000000000E+00  0.00000000000E+00  0.14999999963E+04  0.15000000000E+04  0.10566000000E+00 0. -1.
        994   -1    0    0    0    0 -0.00000000000E+00 -0.00000000000E+00  0.11368683772E-12  0.17120000000E+03  0.17120000000E+03 0.  0.
         13    1    1    2    0    0 -0.40395936019E+02 -0.32831427356E+02  0.14531227023E+03  0.15435479038E+03  0.10566000000E+00 0. -1.
        994    1    1    2    0    0  0.19792163150E+02  0.14429303629E+02  0.11488199258E+02  0.17332441619E+03  0.17120000000E+03 0.  0.
        998    1    1    2    0    0  0.20603772870E+02  0.18402123727E+02  0.13431995268E+04  0.13435207934E+04  0.10000000000E+02 0. -1.
</event>
<event>
 5    1  0.1218060E-008  0.3829197E+03  0.7957747E-01  0.3438543E+00
         13   -1    0    0    0    0  0.00000000000E+00  0.00000000000E+00  0.14999999963E+04  0.15000000000E+04  0.10566000000E+00 0.  1.
        994   -1    0    0    0    0 -0.00000000000E+00 -0.00000000000E+00  0.11368683772E-12  0.17120000000E+03  0.17120000000E+03 0.  0.
         13    1    1    2    0    0  0.11778499756E+02  0.62317276087E+01  0.32615582105E+02  0.35232865985E+02  0.10566000000E+00 0.  1.
        994    1    1    2    0    0 -0.69794573213E+01 -0.24150094580E+01  0.28471352430E+01  0.17138287917E+03  0.17120000000E+03 0.  0.
        998    1    1    2    0    0 -0.47990424344E+01 -0.38167181507E+01  0.14645372789E+04  0.14645842548E+04  0.10000000000E+02 0.  1.
</event>
<event>
 5    1  0.1958567E-008  0.3860237E+03  0.7957747E-01  0.3425342E+00
         13   -1    0    0    0    0  0.00000000000E+00  0.00000000000E+00  0.14999999963E+04  0.15000000000E+04  0.10566000000E+00 0. -1.
        994   -1    0    0    0    0 -0.00000000000E+00 -0.00000000000E+00  0.11368683772E-12  0.17120000000E+03  0.17120000000E+03 0.  0.
         13    1    1    2    0    0 -0.47489750472E+01  0.10813835368E+02  0.63432329950E+02  0.64522580902E+02  0.10566000000E+00 0. -1.
        994    1    1    2    0    0  0.77623163805E+00 -0.69889894816E+01  0.12848510976E+01  0.17134917377E+03  0.17120000000E+03 0.  0.
        998    1    1    2    0    0  0.39727434091E+01 -0.38248458863E+01  0.14352828152E+04  0.14353282453E+04  0.10000000000E+02 0. -1.
</event>
<event>
 5    1  0.1218060E-008  0.3685607E+03  0.7957747E-01  0.3502532E+00
         13   -1    0    0    0    0  0.00000000000E+00  0.00000000000E+00  0.14999999963E+04  0.15000000000E+04  0.10566000000E+00 0.  1.
        994   -1    0    0    0    0 -0.00000000000E+00 -0.00000000000E+00  0.11368683772E-12  0.17120000000E+03  0.17120000000E+03 0.  0.
         13    1    1    2    0    0 -0.44087021600E+02 -0.26786828101E+02  0.21064411745E+03  0.21686898121E+03  0.10566000000E+00 0.  1.
        994    1    1    2    0    0 -0.65284270106E+02 -0.66494320912E+01  0.25312486537E+02  0.18508488011E+03  0.17120000000E+03 0.  0.
        998    1    1    2    0    0  0.10937129171E+03  0.33436260192E+02  0.12640433923E+04  0.12692461387E+04  0.10000000000E+02 0.  1.
</event>
<event>
 5    1  0.1218060E-008  0.3784142E+03  0.7957747E-01  0.3458093E+00
         13   -1    0    0    0    0  0.00000000000E+00  0.00000000000E+00  0.14999999963E+04  0.15000000000E+04  0.10566000000E+00 0.  1.
        994   -1    0    0    0    0 -0.00000000000E+00 -0.00000000000E+00  0.11368683772E-12  0.17120000000E+03  0.17120000000E+03 0.  0.
         13    1    1    2    0    0 -0.64067148663E+01 -0.12958755608E+03  0.40664176689E+03  0.42683898420E+03  0.10566000000E+00 0.  1.
        994    1    1    2    0    0  0.27057012304E+02  0.11927222601E+03  0.71532617149E+02  0.22222578862E+03  0.17120000000E+03 0.  0.
        998    1    1    2    0    0 -0.20650297437E+02  0.10315330066E+02  0.10218256122E+04  0.10221352272E+04  0.10000000000E+02 0.  1.
</event>
<event>
 5    1  0.1218060E-008  0.3776582E+03  0.7957747E-01  0.3461419E+00
         13   -1    0    0    0    0  0.00000000000E+00  0.00000000000E+00  0.14999999963E+04  0.15000000000E+04  0.10566000000E+00 0. -1.
        994   -1    0    0    0    0 -0.00000000000E+00 -0.00000000000E+00  0.11368683772E-12  0.17120000000E+03  0.17120000000E+03 0.  0.
         13    1    1    2    0    0 -0.23890394484E+02  0.10141121820E+02  0.63456315813E+02  0.68558795796E+02  0.10566000000E+00 0. -1.
        994    1    1    2    0    0  0.66235217019E+01 -0.35408411383E+01  0.55100267817E+01  0.17145322683E+03  0.17120000000E+03 0.  0.
        998    1    1    2    0    0  0.17266872782E+02 -0.66002806816E+01  0.14310336537E+04  0.14311879774E+04  0.10000000000E+02 0. -1.
</event>
<event>
 5    1  0.1218060E-008  0.3818985E+03  0.7957747E-01  0.3442933E+00
         13   -1    0    0    0    0  0.00000000000E+00  0.00000000000E+00  0.14999999963E+04  0.15000000000E+04  0.10566000000E+00 0. -1.
        994   -1    0    0    0    0 -0.00000000000E+00 -0.00000000000E+00  0.11368683772E-12  0.17120000000E+03  0.17120000000E+03 0.  0.
         13    1    1    2    0    0  0.54602047919E+02  0.60365572156E+02  0.23171982386E+03  0.24560023183E+03  0.10566000000E+00 0. -1.
        994    1    1    2    0    0 -0.98287956899E+02  0.76410546331E+02  0.76377083864E+02  0.22503775906E+03  0.17120000000E+03 0.  0.
        998    1    1    2    0    0  0.43685908979E+02 -0.13677611849E+03  0.11919030886E+04  0.12005620091E+04  0.10000000000E+02 0. -1.
</event>
<event>
 5    1  0.1710982E-008  0.3861937E+03  0.7957747E-01  0.3424625E+00
         13   -1    0    0    0    0  0.00000000000E+00  0.00000000000E+00  0.14999999963E+04  0.15000000000E+04  0.10566000000E+00 0. -1.
        994   -1    0    0    0    0 -0.00000000000E+00 -0.00000000000E+00  0.11368683772E-12  0.17120000000E+03  0.17120000000E+03 0.  0.
         13    1    1    2    0    0 -0.33701622153E+01 -0.11151550053E+02  0.66691683326E+02  0.67701601539E+02  0.10566000000E+00 0. -1.
        994    1    1    2    0    0  0.24720054792E+01  0.66241565331E+01  0.12024218175E+01  0.17135015634E+03  0.17120000000E+03 0.  0.
        998    1    1    2    0    0  0.89815673607E+00  0.45273935194E+01  0.14321058911E+04  0.14321482421E+04  0.10000000000E+02 0. -1.
</event>
<event>
 5    1  0.1218060E-008  0.3867047E+03  0.7957747E-01  0.3422475E+00
         13   -1    0    0    0    0  0.00000000000E+00  0.00000000000E+00  0.14999999963E+04  0.15000000000E+04  0.10566000000E+00 0.  1.
        994   -1    0    0    0    0 -0.00000000000E+00 -0.00000000000E+00  0.11368683772E-12  0.17120000000E+03  0.17120000000E+03 0.  0.
         13    1    1    2    0    0  0.23287380971E+02  0.43131445962E+01  0.40095254886E+01  0.24020674168E+02  0.10566000000E+00 0.  1.
        994    1    1    2    0    0 -0.61050664112E+02 -0.43946192370E+02  0.41400421700E+02  0.19152515848E+03  0.17120000000E+03 0.  0.
        998    1    1    2    0    0  0.37763283140E+02  0.39633047774E+02  0.14545900491E+04  0.14556541674E+04  0.10000000000E+02 0.  1.
</event>
<event>
 5    1  0.1218060E-008  0.3843700E+03  0.7957747E-01  0.3432348E+00
         13   -1    0    0    0    0  0.00000000000E+00  0.00000000000E+00  0.14999999963E+04  0.15000000000E+04  0.10566000000E+00 0. -1.
        994   -1    0    0    0    0 -0.00000000000E+00 -0.00000000000E+00  0.11368683772E-12  0.17120000000E+03  0.17120000000E+03 0.  0.
         13    1    1    2    0    0 -0.28208937512E+01  0.10642330616E+02  0.30096696761E+02  0.32047448611E+02  0.10566000000E+00 0. -1.
        994    1    1    2    0    0  0.34568696277E+01 -0.12099170486E+02  0.24652002127E+01  0.17167951854E+03  0.17120000000E+03 0.  0.
        998    1    1    2    0    0 -0.63597587650E+00  0.14568398701E+01  0.14674380993E+04  0.14674730328E+04  0.10000000000E+02 0. -1.
</event>
<event>
 5    1  0.1218060E-008  0.3834578E+03  0.7957747E-01  0.3436239E+00
         13   -1    0    0    0    0  0.00000000000E+00  0.00000000000E+00  0.14999999963E+04  0.15000000000E+04  0.10566000000E+00 0.  1.
        994   -1    0    0    0    0 -0.00000000000E+00 -0.00000000000E+00  0.11368683772E-12  0.17120000000E+03  0.17120000000E+03 0.  0.
         13    1    1    2    0    0 -0.23170933056E+02  0.22201083770E+02  0.17877350652E+03  0.18163082904E+03  0.10566000000E+00 0.  1.
        994    1    1    2    0    0  0.36458871476E+02 -0.19729294539E+02  0.80984978268E+01  0.17633354769E+03  0.17120000000E+03 0.  0.
        998    1    1    2    0    0 -0.13287938419E+02 -0.24717892315E+01  0.13131279919E+04  0.13132356233E+04  0.10000000000E+02 0.  1.
</event>
<event>
 5    1  0.1218060E-008  0.3849719E+03  0.7957747E-01  0.3429791E+00
         13   -1    0    0    0    0  0.00000000000E+00  0.00000000000E+00  0.14999999963E+04  0.15000000000E+04  0.10566000000E+00 0.  1.
        994   -1    0    0    0    0 -0.00000000000E+00 -0.00000000000E+00  0.11368683772E-12  0.17120000000E+03  0.17120000000E+03 0.  0.
         13    1    1    2    0    0  0.34459848443E+01 -0.10971032840E+02  0.43705551148E+02  0.45193193495E+02  0.10566000000E+00 0.  1.
        994    1    1    2    0    0 -0.55930604158E+01 -0.10732202907E+02  0.21259388706E+01  0.17164038604E+03  0.17120000000E+03 0.  0.
        998    1    1    2    0    0  0.21470755715E+01  0.21703235747E+02  0.14541685063E+04  0.14543664205E+04  0.10000000000E+02 0.  1.
</event>
<event>
 5    1  0.1218060E-008  0.3843251E+03  0.7957747E-01  0.3432540E+00
         13   -1    0    0    0    0  0.00000000000E+00  0.00000000000E+00  0.14999999963E+04  0.15000000000E+04  0.10566000000E+00 0. -1.
        994   -1    0    0    0    0 -0.00000000000E+00 -0.00000000000E+00  0.11368683772E-12  0.17120000000E+03  0.17120000000E+03 0.  0.
         13    1    1    2    0    0 -0.16074973085E+02  0.29354592385E+01  0.58480582933E+02  0.60720766010E+02  0.10566000000E+00 0. -1.
        994    1    1    2    0    0  0.34926005217E+02 -0.18432553896E+02  0.71227531494E+01  0.17584015041E+03  0.17120000000E+03 0.  0.
        998    1    1    2    0    0 -0.18851032132E+02  0.15497094658E+02  0.14343966602E+04  0.14346390836E+04  0.10000000000E+02 0. -1.
</event>
<event>
 5    1  0.1218060E-008  0.3789376E+03  0.7957747E-01  0.3455797E+00
         13   -1    0    0    0    0  0.00000000000E+00  0.00000000000E+00  0.14999999963E+04  0.15000000000E+04  0.10566000000E+00 0. -1.
        994   -1    0    0    0    0 -0.00000000000E+00 -0.00000000000E+00  0.11368683772E-12  0.17120000000E+03  0.17120000000E+03 0.  0.
         13    1    1    2    0    0  0.92673336202E+01 -0.25355821809E+02  0.79652413694E+02  0.84103028147E+02  0.10566000000E+00 0. -1.
        994    1    1    2    0    0 -0.10592744558E+02  0.38265476491E+01  0.50960367618E+01  0.17164573486E+03  0.17120000000E+03 0.  0.
        998    1    1    2    0    0  0.13254109381E+01  0.21529274159E+02  0.14152515458E+04  0.14154512370E+04  0.10000000000E+02 0. -1.
</event>
<event>
 5    1  0.1218060E-008  0.3837200E+03  0.7957747E-01  0.3435119E+00
         13   -1    0    0    0    0  0.00000000000E+00  0.00000000000E+00  0.14999999963E+04  0.15000000000E+04  0.10566000000E+00 0. -1.
        994   -1    0    0    0    0 -0.00000000000E+00 -0.00000000000E+00  0.11368683772E-12  0.17120000000E+03  0.17120000000E+03 0.  0.
         13    1    1    2    0    0  0.32716582236E+01 -0.18543813864E+02  0.74029175581E+02  0.76386561523E+02  0.10566000000E+00 0. -1.
        994    1    1    2    0    0 -0.52200631699E+01  0.19837761408E+02  0.36578038658E+01  0.17246334499E+03  0.17120000000E+03 0.  0.
        998    1    1    2    0    0  0.19484049464E+01 -0.12939475443E+01  0.14223130168E+04  0.14223500935E+04  0.10000000000E+02 0.  0.
</event>
<event>
 5    1  0.1218060E-008  0.3778250E+03  0.7957747E-01  0.3460684E+00
         13   -1    0    0    0    0  0.00000000000E+00  0.00000000000E+00  0.14999999963E+04  0.15000000000E+04  0.10566000000E+00 0.  1.
        994   -1    0    0    0    0 -0.00000000000E+00 -0.00000000000E+00  0.11368683772E-12  0.17120000000E+03  0.17120000000E+03 0.  0.
         13    1    1    2    0    0 -0.12294844072E+02  0.23487622384E+02  0.71851772727E+02  0.76586682942E+02  0.10566000000E+00 0.  1.
        994    1    1    2    0    0  0.29424001957E+01  0.98610840878E+01  0.55917532146E+01  0.17160013520E+03  0.17120000000E+03 0.  0.
        998    1    1    2    0    0  0.93524438761E+01 -0.33348706472E+02  0.14225564703E+04  0.14230131819E+04  0.10000000000E+02 0.  1.
</event>
<event>
 5    1  0.1218060E-008  0.3810833E+03  0.7957747E-01  0.3446455E+00
         13   -1    0    0    0    0  0.00000000000E+00  0.00000000000E+00  0.14999999963E+04  0.15000000000E+04  0.10566000000E+00 0.  1.
        994   -1    0    0    0    0 -0.00000000000E+00 -0.00000000000E+00  0.11368683772E-12  0.17120000000E+03  0.17120000000E+03 0.  0.
         13    1    1    2    0    0 -0.47329096359E+01  0.89260073173E+01  0.12607820446E+02  0.16156804779E+02  0.10566000000E+00 0.  1.
        994    1    1    2    0    0  0.31146140154E+01 -0.94731647645E+01  0.39186130186E+01  0.17153494454E+03  0.17120000000E+03 0.  0.
        998    1    1    2    0    0  0.16182956206E+01  0.54715744719E+00  0.14834735628E+04  0.14835082507E+04  0.10000000000E+02 0.  1.
</event>
<event>
 5    1  0.2340983E-008  0.3860220E+03  0.7957747E-01  0.3425349E+00
         13   -1    0    0    0    0  0.00000000000E+00  0.00000000000E+00  0.14999999963E+04  0.15000000000E+04  0.10566000000E+00 0. -1.
        994   -1    0    0    0    0 -0.00000000000E+00 -0.00000000000E+00  0.11368683772E-12  0.17120000000E+03  0.17120000000E+03 0.  0.
         13    1    1    2    0    0 -0.11684664481E+01 -0.10033172087E+02  0.45896784570E+02  0.46995274804E+02  0.10566000000E+00 0. -1.
        994    1    1    2    0    0  0.29507187690E+01  0.66903922632E+01  0.12988492123E+01  0.17136100811E+03  0.17120000000E+03 0.  0.
        998    1    1    2    0    0 -0.17822523209E+01  0.33427798235E+01  0.14528043625E+04  0.14528437171E+04  0.10000000000E+02 0. -1.
</event>
<event>
 5    1  0.1218060E-008  0.3784701E+03  0.7957747E-01  0.3457847E+00
         13   -1    0    0    0    0  0.00000000000E+00  0.00000000000E+00  0.14999999963E+04  0.15000000000E+04  0.10566000000E+00 0.  1.
        994   -1    0    0    0    0 -0.00000000000E+00 -0.00000000000E+00  0.11368683772E-12  0.17120000000E+03  0.17120000000E+03 0.  0.
         13    1    1    2    0    0  0.13953931280E+03 -0.42027316339E+02  0.80173848949E+03  0.81487553150E+03  0.10566000000E+00 0.  1.
        994    1    1    2    0    0 -0.14797568992E+03  0.36897611711E+02  0.87506732192E+02  0.24540804131E+03  0.17120000000E+03 0.  0.
        998    1    1    2    0    0  0.84363771218E+01  0.51297046283E+01  0.61075477460E+03  0.61091642720E+03  0.10000000000E+02 0.  0.
</event>
<event>
 5    1  0.1218060E-008  0.3856696E+03  0.7957747E-01  0.3426837E+00
         13   -1    0    0    0    0  0.00000000000E+00  0.00000000000E+00  0.14999999963E+04  0.15000000000E+04  0.10566000000E+00 0. -1.
        994   -1    0    0    0    0 -0.00000000000E+00 -0.00000000000E+00  0.11368683772E-12  0.17120000000E+03  0.17120000000E+03 0.  0.
         13    1    1    2    0    0  0.11554397804E+02 -0.48479309512E+01  0.58223719213E+02  0.59556856751E+02  0.10566000000E+00 0. -1.
        994    1    1    2    0    0 -0.14586300940E+02  0.43794707683E+01  0.20595297139E+01  0.17188839868E+03  0.17120000000E+03 0.  0.
        998    1    1    2    0    0  0.30319031358E+01  0.46846018292E+00  0.14397167474E+04  0.14397547446E+04  0.10000000000E+02 0. -1.
</event>
<event>
 5    1  0.1218060E-008  0.3701755E+03  0.7957747E-01  0.3495085E+00
         13   -1    0    0    0    0  0.00000000000E+00  0.00000000000E+00  0.14999999963E+04  0.15000000000E+04  0.10566000000E+00 0. -1.
        994   -1    0    0    0    0 -0.00000000000E+00 -0.00000000000E+00  0.11368683772E-12  0.17120000000E+03  0.17120000000E+03 0.  0.
         13    1    1    2    0    0  0.27834930133E+02  0.22814831069E+02  0.58903479252E+02  0.69028478791E+02  0.10566000000E+00 0. -1.
        994    1    1    2    0    0 -0.47789923856E+02 -0.45124546579E+02  0.24257391378E+02  0.18498097892E+03  0.17120000000E+03 0.  0.
        998    1    1    2    0    0  0.19954993723E+02  0.22309715510E+02  0.14168391256E+04  0.14171905423E+04  0.10000000000E+02 0. -1.
</event>
<event>
 5    1  0.1218060E-008  0.3796876E+03  0.7957747E-01  0.3452520E+00
         13   -1    0    0    0    0  0.00000000000E+00  0.00000000000E+00  0.14999999963E+04  0.15000000000E+04  0.10566000000E+00 0.  1.
        994   -1    0    0    0    0 -0.00000000000E+00 -0.00000000000E+00  0.11368683772E-12  0.17120000000E+03  0.17120000000E+03 0.  0.
         13    1    1    2    0    0  0.45889629310E+01 -0.14488314595E+02  0.25101470762E+02  0.29343906336E+02  0.10566000000E+00 0.  1.
        994    1    1    2    0    0 -0.76146020852E+01  0.95027987284E+01  0.47872914833E+01  0.17169928220E+03  0.17120000000E+03 0.  0.
        998    1    1    2    0    0  0.30256391542E+01  0.49855158669E+01  0.14701112340E+04  0.14701568115E+04  0.10000000000E+02 0.  1.
</event>
<event>
 5    1  0.1218060E-008  0.3734660E+03  0.7957747E-01  0.3480112E+00
         13   -1    0    0    0    0  0.00000000000E+00  0.00000000000E+00  0.14999999963E+04  0.15000000000E+04  0.10566000000E+00 0.  1.
        994   -1    0    0    0    0 -0.00000000000E+00 -0.00000000000E+00  0.11368683772E-12  0.17120000000E+03  0.17120000000E+03 0.  0.
         13    1    1    2    0    0 -0.63597785907E+02 -0.21163487625E+02  0.15890203799E+03  0.17245996759E+03  0.10566000000E+00 0.  1.
        994    1    1    2    0    0  0.56415025013E+02  0.19938660359E+02  0.25564044605E+02  0.18314793365E+03  0.17120000000E+03 0.  0.
        998    1    1    2    0    0  0.71827608946E+01  0.12248272652E+01  0.13155339137E+04  0.13155920988E+04  0.10000000000E+02 0.  1.
</event>
<event>
 5    1  0.2062613E-008  0.3863305E+03  0.7957747E-01  0.3424049E+00
         13   -1    0    0    0    0  0.00000000000E+00  0.00000000000E+00  0.14999999963E+04  0.15000000000E+04  0.10566000000E+00 0.  1.
        994   -1    0    0    0    0 -0.00000000000E+00 -0.00000000000E+00  0.11368683772E-12  0.17120000000E+03  0.17120000000E+03 0.  0.
         13    1    1    2    0    0  0.11462722523E+02 -0.19463857997E+01  0.65911567542E+02  0.66929278535E+02  0.10566000000E+00 0.  1.
        994    1    1    2    0    0 -0.16771802586E+02  0.81917365737E+00  0.18948608587E+01  0.17203195896E+03  0.17120000000E+03 0.  0.
        998    1    1    2    0    0  0.53090800622E+01  0.11272121423E+01  0.14321935679E+04  0.14322387625E+04  0.10000000000E+02 0.  1.
</event>
<event>
 5    1  0.1218060E-008  0.3786595E+03  0.7957747E-01  0.3457016E+00
         13   -1    0    0    0    0  0.00000000000E+00  0.00000000000E+00  0.14999999963E+04  0.15000000000E+04  0.10566000000E+00 0. -1.
        994   -1    0    0    0    0 -0.00000000000E+00 -0.00000000000E+00  0.11368683772E-12  0.17120000000E+03  0.17120000000E+03 0.  0.
         13    1    1    2    0    0  0.67722249496E+01 -0.11080251349E+02  0.15203816408E+02  0.19995054342E+02  0.10566000000E+00 0. -1.
        994    1    1    2    0    0 -0.10352238335E+02  0.11930959888E+02  0.56495971351E+01  0.17201998311E+03  0.17120000000E+03 0.  0.
        998    1    1    2    0    0  0.35800133855E+01 -0.85070853870E+00  0.14791465827E+04  0.14791849625E+04  0.10000000000E+02 0. -1.
</event>
<event>
 5    1  0.1218060E-008  0.3709826E+03  0.7957747E-01  0.3491387E+00
         13   -1    0    0    0    0  0.00000000000E+00  0.00000000000E+00  0.14999999963E+04  0.15000000000E+04  0.10566000000E+00 0. -1.
        994   -1    0    0    0    0 -0.00000000000E+00 -0.00000000000E+00  0.11368683772E-12  0.17120000000E+03  0.17120000000E+03 0.  0.
         13    1    1    2    0    0  0.40460408983E+01 -0.64573116552E+02  0.20379015247E+03  0.21381416051E+03  0.10566000000E+00 0. -1.
        994    1    1    2    0    0 -0.48740802484E+01  0.65350384453E+02  0.23703536435E+02  0.18483973341E+03  0.17120000000E+03 0.  0.
        998    1    1    2    0    0  0.82803935006E+00 -0.77726790146E+00  0.12725063074E+04  0.12725461061E+04  0.10000000000E+02 0.  0.
</event>
<event>
 5    1  0.1218060E-008  0.3828348E+03  0.7957747E-01  0.3438907E+00
         13   -1    0    0    0    0  0.00000000000E+00  0.00000000000E+00  0.14999999963E+04  0.15000000000E+04  0.10566000000E+00 0. -1.
        994   -1    0    0    0    0 -0.00000000000E+00 -0.00000000000E+00  0.11368683772E-12  0.17120000000E+03  0.17120000000E+03 0.  0.
         13    1    1    2    0    0 -0.17724077975E+02 -0.25606157986E+02  0.20154072052E+02  0.37094690336E+02  0.10566000000E+00 0. -1.
        994    1    1    2    0    0 -0.33786793823E+02  0.38196159706E+02  0.27477137571E+02  0.18073441051E+03  0.17120000000E+03 0.  0.
        998    1    1    2    0    0  0.51510871798E+02 -0.12590001721E+02  0.14523687867E+04  0.14533708992E+04  0.10000000000E+02 0. -1.
</event>
<event>
 5    1  0.1218060E-008  0.3842910E+03  0.7957747E-01  0.3432685E+00
         13   -1    0    0    0    0  0.00000000000E+00  0.00000000000E+00  0.14999999963E+04  0.15000000000E+04  0.10566000000E+00 0. -1.
        994   -1    0    0    0    0 -0.00000000000E+00 -0.00000000000E+00  0.11368683772E-12  0.17120000000E+03  0.17120000000E+03 0.  0.
         13    1    1    2    0    0 -0.18620595346E+02 -0.56971167267E+01  0.91732160977E+02  0.93776245561E+02  0.10566000000E+00 0. -1.
        994    1    1    2    0    0  0.16380036120E+02  0.79890753965E+01  0.30781080099E+01  0.17219478987E+03  0.17120000000E+03 0.  0.
        998    1    1    2    0    0  0.22405592260E+01 -0.22919586698E+01  0.14051897273E+04  0.14052289646E+04  0.10000000000E+02 0. -1.
</event>
<event>
 5    1  0.1218060E-008  0.2984874E+03  0.7957747E-01  0.3906877E+00
         13   -1    0    0    0    0  0.00000000000E+00  0.00000000000E+00  0.14999999963E+04  0.15000000000E+04  0.10566000000E+00 0. -1.
        994   -1    0    0    0    0 -0.00000000000E+00 -0.00000000000E+00  0.11368683772E-12  0.17120000000E+03  0.17120000000E+03 0.  0.
         13    1    1    2    0    0 -0.18509570503E+03  0.10523695851E+03  0.56634647135E+03  0.60504840652E+03  0.10566000000E+00 0. -1.
        994    1    1    2    0    0  0.17828325175E+03 -0.10968974938E+03  0.20999973871E+03  0.34238295698E+03  0.17120000000E+03 0.  0.
        998    1    1    2    0    0  0.68124532800E+01  0.44527908748E+01  0.72365378622E+03  0.72376863650E+03  0.10000000000E+02 0.  0.
</event>
<event>
 5    1  0.1492967E-008  0.3855452E+03  0.7957747E-01  0.3427363E+00
         13   -1    0    0    0    0  0.00000000000E+00  0.00000000000E+00  0.14999999963E+04  0.15000000000E+04  0.10566000000E+00 0.  1.
        994   -1    0    0    0    0 -0.00000000000E+00 -0.00000000000E+00  0.11368683772E-12  0.17120000000E+03  0.17120000000E+03 0.  0.
         13    1    1    2    0    0 -0.13475102534E+02 -0.42950086059E+01  0.75355533476E+02  0.76671331518E+02  0.10566000000E+00 0.  1.
        994    1    1    2    0    0  0.69457323376E+01  0.62435163378E+00  0.15193525950E+01  0.17134871299E+03  0.17120000000E+03 0.  0.
        998    1    1    2    0    0  0.65293701961E+01  0.36706569722E+01  0.14231251102E+04  0.14231799555E+04  0.10000000000E+02 0.  1.
</event>
<event>
 5    1  0.1218060E-008  0.3797273E+03  0.7957747E-01  0.3452347E+00
         13   -1    0    0    0    0  0.00000000000E+00  0.00000000000E+00  0.14999999963E+04  0.15000000000E+04  0.10566000000E+00 0. -1.
        994   -1    0    0    0    0 -0.00000000000E+00 -0.00000000000E+00  0.11368683772E-12  0.17120000000E+03  0.17120000000E+03 0.  0.
         13    1    1    2    0    0  0.18434500282E+02  0.93247939070E+02  0.25643993505E+03  0.27348941551E+03  0.10566000000E+00 0. -1.
        994    1    1    2    0    0  0.16111136307E+02 -0.76294282751E+02  0.38532848066E+02  0.19202761956E+03  0.17120000000E+03 0.  0.
        998    1    1    2    0    0 -0.34545636589E+02 -0.16953656320E+02  0.12050272132E+04  0.12056829649E+04  0.10000000000E+02 0. -1.
</event>
<event>
 5    1  0.1218060E-008  0.3847594E+03  0.7957747E-01  0.3430693E+00
         13   -1    0    0    0    0  0.00000000000E+00  0.00000000000E+00  0.14999999963E+04  0.15000000000E+04  0.10566000000E+00 0. -1.
        994   -1    0    0    0    0 -0.00000000000E+00 -0.00000000000E+00  0.11368683772E-12  0.17120000000E+03  0.17120000000E+03 0.  0.
         13    1    1    2    0    0  0.10887804041E+01 -0.12654700876E+02  0.45559371650E+02  0.47296875227E+02  0.10566000000E+00 0. -1.
        994    1    1    2    0    0  0.90367868560E+01  0.10895057842E+02  0.24093831147E+01  0.17180107953E+03  0.17120000000E+03 0.  0.
        998    1    1    2    0    0 -0.10125567260E+02  0.17596430341E+01  0.14520312415E+04  0.14521020452E+04  0.10000000000E+02 0. -1.
</event>
<event>
 5    1  0.1218060E-008  0.3765607E+03  0.7957747E-01  0.3466272E+00
         13   -1    0    0    0    0  0.00000000000E+00  0.00000000000E+00  0.14999999963E+04  0.15000000000E+04  0.10566000000E+00 0.  1.
        994   -1    0    0    0    0 -0.00000000000E+00 -0.00000000000E+00  0.11368683772E-12  0.17120000000E+03  0.17120000000E+03 0.  0.
         13    1    1    2    0    0  0.27400914130E+02 -0.29855565173E+02  0.14690413264E+03  0.15239094532E+03  0.10566000000E+00 0.  1.
        994    1    1    2    0    0 -0.91169271845E+01  0.78085748275E+01  0.63668463157E+01  0.17173837350E+03  0.17120000000E+03 0.  0.
        998    1    1    2    0    0 -0.18283986946E+02  0.22046990345E+02  0.13467290173E+04  0.13470706812E+04  0.10000000000E+02 0.  1.
</event>
<event>
 5    1  0.1218060E-008  0.3850083E+03  0.7957747E-01  0.3429637E+00
         13   -1    0    0    0    0  0.00000000000E+00  0.00000000000E+00  0.14999999963E+04  0.15000000000E+04  0.10566000000E+00 0.  1.
        994   -1    0    0    0    0 -0.00000000000E+00 -0.00000000000E+00  0.11368683772E-12  0.17120000000E+03  0.17120000000E+03 0.  0.
         13    1    1    2    0    0  0.69548578061E+01 -0.12311030782E+02  0.68682035230E+02  0.70122497484E+02  0.10566000000E+00 0.  1.
        994    1    1    2    0    0  0.92544716601E+00 -0.78559591981E+01  0.18318387431E+01  0.17139243910E+03  0.17120000000E+03 0.  0.
        998    1    1    2    0    0 -0.78803049722E+01  0.20166989980E+02  0.14294861223E+04  0.14296850634E+04  0.10000000000E+02 0.  1.
</event>
<event>
 5    1  0.1218060E-008  0.3836425E+03  0.7957747E-01  0.3435450E+00
         13   -1    0    0    0    0  0.00000000000E+00  0.00000000000E+00  0.14999999963E+04  0.15000000000E+04  0.10566000000E+00 0.  1.
        994   -1    0    0    0    0 -0.00000000000E+00 -0.00000000000E+00  0.11368683772E-12  0.17120000000E+03  0.17120000000E+03 0.  0.
         13    1    1    2    0    0 -0.11795630130E+02 -0.70054222619E+01  0.40355574692E+02  0.42623894754E+02  0.10566000000E+00 0.  1.
        994    1    1    2    0    0  0.12984095227E+02 -0.56280211797E+01  0.29674142505E+01  0.17180950759E+03  0.17120000000E+03 0.  0.
        998    1    1    2    0    0 -0.11884650971E+01  0.12633443442E+02  0.14566770073E+04  0.14567665977E+04  0.10000000000E+02 0.  1.
</event>
<event>
 5    1  0.1218060E-008  0.3689385E+03  0.7957747E-01  0.3500784E+00
         13   -1    0    0    0    0  0.00000000000E+00  0.00000000000E+00  0.14999999963E+04  0.15000000000E+04  0.10566000000E+00 0. -1.
        994   -1    0    0    0    0 -0.00000000000E+00 -0.00000000000E+00  0.11368683772E-12  0.17120000000E+03  0.17120000000E+03 0.  0.
         13    1    1    2    0    0  0.25942257777E+02 -0.26885305672E+02  0.68489539460E+02  0.78016976224E+02  0.10566000000E+00 0. -1.
        994    1    1    2    0    0 -0.24312441856E+02  0.33991953583E+01  0.11919198754E+02  0.17336134707E+03  0.17120000000E+03 0.  0.
        998    1    1    2    0    0 -0.16298159205E+01  0.23486110314E+02  0.14195912581E+04  0.14198216767E+04  0.10000000000E+02 0. -1.
</event>
<event>
 5    1  0.1218060E-008  0.2886436E+03  0.7957747E-01  0.3980585E+00
         13   -1    0    0    0    0  0.00000000000E+00  0.00000000000E+00  0.14999999963E+04  0.15000000000E+04  0.10566000000E+00 0.  1.
        994   -1    0    0    0    0 -0.00000000000E+00 -0.00000000000E+00  0.11368683772E-12  0.17120000000E+03  0.17120000000E+03 0.  0.
         13    1    1    2    0    0 -0.53653189366E+02  0.18253374406E+03  0.56270073773E+03  0.59399441399E+03  0.10566000000E+00 0.  1.
        994    1    1    2    0    0  0.21540298857E+02 -0.17816360177E+03  0.15141416176E+03  0.29058895687E+03  0.17120000000E+03 0.  0.
        998    1    1    2    0    0  0.32112890509E+02 -0.43701422870E+01  0.78588509680E+03  0.78661662914E+03  0.10000000000E+02 0.  1.
</event>
<event>
 5    1  0.1218060E-008  0.3804854E+03  0.7957747E-01  0.3449048E+00
         13   -1    0    0    0    0  0.00000000000E+00  0.00000000000E+00  0.14999999963E+04  0.15000000000E+04  0.10566000000E+00 0.  1.
        994   -1    0    0    0    0 -0.00000000000E+00 -0.00000000000E+00  0.11368683772E-12  0.17120000000E+03  0.17120000000E+03 0.  0.
         13    1    1    2    0    0  0.10489726074E+02 -0.35313156629E+02  0.13871450132E+03  0.14352274184E+03  0.10566000000E+00 0.  1.
        994    1    1    2    0    0 -0.13782353218E+02  0.56798209553E+02  0.15374767819E+02  0.18155388554E+03  0.17120000000E+03 0.  0.
        998    1    1    2    0    0  0.32926271443E+01 -0.21485052923E+02  0.13459107271E+04  0.13461233726E+04  0.10000000000E+02 0.  1.
</event>
<event>
 5    1  0.1218060E-008  0.3804821E+03  0.7957747E-01  0.3449062E+00
         13   -1    0    0    0    0  0.00000000000E+00  0.00000000000E+00  0.14999999963E+04  0.15000000000E+04  0.10566000000E+00 0. -1.
        994   -1    0    0    0    0 -0.00000000000E+00 -0.00000000000E+00  0.11368683772E-12  0.17120000000E+03  0.17120000000E+03 0.  0.
         13    1    1    2    0    0  0.21051063638E+02 -0.14931814507E+02  0.79898810899E+02  0.83963906007E+02  0.10566000000E+00 0. -1.
        994    1    1    2    0    0 -0.24000898489E+02  0.13381805147E+02  0.64143271256E+01  0.17350994043E+03  0.17120000000E+03 0.  0.
        998    1    1    2    0    0  0.29498348505E+01  0.15500093603E+01  0.14136868583E+04  0.14137261536E+04  0.10000000000E+02 0. -1.
</event>
<event>
 5    1  0.1218060E-008  0.3743131E+03  0.7957747E-01  0.3476300E+00
         13   -1    0    0    0    0  0.00000000000E+00  0.00000000000E+00  0.14999999963E+04  0.15000000000E+04  0.10566000000E+00 0.  1.
        994   -1    0    0    0    0 -0.00000000000E+00 -0.00000000000E+00  0.11368683772E-12  0.17120000000E+03  0.17120000000E+03 0.  0.
         13    1    1    2    0    0 -0.25602802245E+02  0.36327029194E+02  0.67160358931E+02  0.80533729012E+02  0.10566000000E+00 0.  1.
        994    1    1    2    0    0  0.25362263496E+02 -0.35005038881E+02  0.19900301038E+02  0.17769090899E+03  0.17120000000E+03 0.  0.
        998    1    1    2    0    0  0.24053874880E+00 -0.13219903128E+01  0.14129393363E+04  0.14129753620E+04  0.10000000000E+02 0.  1.
</event>
<event>
 5    1  0.1218060E-008  0.3751092E+03  0.7957747E-01  0.3472734E+00
         13   -1    0    0    0    0  0.00000000000E+00  0.00000000000E+00  0.14999999963E+04  0.15000000000E+04  0.10566000000E+00 0. -1.
        994   -1    0    0    0    0 -0.00000000000E+00 -0.00000000000E+00  0.11368683772E-12  0.17120000000E+03  0.17120000000E+03 0.  0.
         13    1    1    2    0    0  0.13212845736E+02 -0.20032277859E+02  0.44381206950E+02  0.50453683147E+02  0.10566000000E+00 0. -1.
        994    1    1    2    0    0 -0.74648299882E+01 -0.18655549257E+02  0.79957802947E+01  0.17256049869E+03  0.17120000000E+03 0.  0.
        998    1    1    2    0    0 -0.57480157481E+01  0.38687827116E+02  0.14476230090E+04  0.14481858182E+04  0.10000000000E+02 0. -1.
</event>
<event>
 5    1  0.1218060E-008  0.3857688E+03  0.7957747E-01  0.3426418E+00
         13   -1    0    0    0    0  0.00000000000E+00  0.00000000000E+00  0.14999999963E+04  0.15000000000E+04  0.10566000000E+00 0. -1.
        994   -1    0    0    0    0 -0.00000000000E+00 -0.00000000000E+00  0.11368683772E-12  0.17120000000E+03  0.17120000000E+03 0.  0.
         13    1    1    2    0    0  0.11560173455E+02 -0.44785865640E+01  0.59756001115E+02  0.61028568566E+02  0.10566000000E+00 0. -1.
        994    1    1    2    0    0 -0.92596987002E+01  0.14563638107E+02  0.22266077530E+01  0.17208207157E+03  0.17120000000E+03 0.  0.
        998    1    1    2    0    0 -0.23004747547E+01 -0.10085051543E+02  0.14380173874E+04  0.14380893599E+04  0.10000000000E+02 0. -1.
</event>
<event>
 5    1  0.1218060E-008  0.3708904E+03  0.7957747E-01  0.3491809E+00
         13   -1    0    0    0    0  0.00000000000E+00  0.00000000000E+00  0.14999999963E+04  0.15000000000E+04  0.10566000000E+00 0. -1.
        994   -1    0    0    0    0 -0.00000000000E+00 -0.00000000000E+00  0.11368683772E-12  0.17120000000E+03  0.17120000000E+03 0.  0.
         13    1    1    2    0    0 -0.52703260011E+02 -0.18235623913E+02  0.18664372407E+03  0.19479749098E+03  0.10566000000E+00 0. -1.
        994    1    1    2    0    0 -0.39195533811E+02 -0.82156798357E+00  0.16819746128E+02  0.17643499852E+03  0.17120000000E+03 0.  0.
        998    1    1    2    0    0  0.91898793822E+02  0.19057191897E+02  0.12965365261E+04  0.12999675105E+04  0.10000000000E+02 0. -1.
</event>
<event>
 5    1  0.1218060E-008  0.3779051E+03  0.7957747E-01  0.3460331E+00
         13   -1    0    0    0    0  0.00000000000E+00  0.00000000000E+00  0.14999999963E+04  0.15000000000E+04  0.10566000000E+00 0.  1.
        994   -1    0    0    0    0 -0.00000000000E+00 -0.00000000000E+00  0.11368683772E-12  0.17120000000E+03  0.17120000000E+03 0.  0.
         13    1    1    2    0    0  0.27918834212E+02  0.21032817609E+02  0.11186514216E+03  0.11719924025E+03  0.10566000000E+00 0.  1.
        994    1    1    2    0    0 -0.26282512934E+02 -0.11786693015E+02  0.79924096977E+01  0.17379014711E+03  0.17120000000E+03 0.  0.
        998    1    1    2    0    0 -0.16363212776E+01 -0.92461245937E+01  0.13801424444E+04  0.13802106126E+04  0.10000000000E+02 0.  1.
</event>
<event>
 5    1  0.1218060E-008  0.3861647E+03  0.7957747E-01  0.3424747E+00
         13   -1    0    0    0    0  0.00000000000E+00  0.00000000000E+00  0.14999999963E+04  0.15000000000E+04  0.10566000000E+00 0. -1.
        994   -1    0    0    0    0 -0.00000000000E+00 -0.00000000000E+00  0.11368683772E-12  0.17120000000E+03  0.17120000000E+03 0.  0.
         13    1    1    2    0    0 -0.89842145981E+01 -0.72052998053E+01  0.66036309349E+02  0.67033109534E+02  0.10566000000E+00 0. -1.
        994    1    1    2    0    0  0.97206889098E+01 -0.61513132035E+01  0.14866404426E+01  0.17159248395E+03  0.17120000000E+03 0.  0.
        998    1    1    2    0    0 -0.73647431178E+00  0.13356613009E+02  0.14324770465E+04  0.14325744065E+04  0.10000000000E+02 0. -1.
</event>
<event>
 5    1  0.1218060E-008  0.3696068E+03  0.7957747E-01  0.3497700E+00
         13   -1    0    0    0    0  0.00000000000E+00  0.00000000000E+00  0.14999999963E+04  0.15000000000E+04  0.10566000000E+00 0. -1.
        994   -1    0    0    0    0 -0.00000000000E+00 -0.00000000000E+00  0.11368683772E-12  0.17120000000E+03  0.17120000000E+03 0.  0.
         13    1    1    2    0    0  0.16455736343E+02  0.29721483289E+02  0.51357064629E+02  0.61576920017E+02  0.10566000000E+00 0. -1.
        994    1    1    2    0    0  0.22701037510E+02 -0.24670140553E+02  0.14665128016E+02  0.17506701265E+03  0.17120000000E+03 0.  0.
        998    1    1    2    0    0 -0.39156773853E+02 -0.50513427363E+01  0.14339778036E+04  0.14345560673E+04  0.10000000000E+02 0. -1.
</event>
<event>
 5    1  0.1218060E-008  0.3848700E+03  0.7957747E-01  0.3430224E+00
         13   -1    0    0    0    0  0.00000000000E+00  0.00000000000E+00  0.14999999963E+04  0.15000000000E+04  0.10566000000E+00 0. -1.
        994   -1    0    0    0    0 -0.00000000000E+00 -0.00000000000E+00  0.11368683772E-12  0.17120000000E+03  0.17120000000E+03 0.  0.
         13    1    1    2    0    0 -0.12050952387E+02 -0.66372921269E+00  0.46093258930E+02  0.47647304989E+02  0.10566000000E+00 0. -1.
        994    1    1    2    0    0 -0.51494799534E+01 -0.90351585781E+01  0.20505846495E+01  0.17152782903E+03  0.17120000000E+03 0.  0.
        998    1    1    2    0    0  0.17200432340E+02  0.96988877908E+01  0.14518561527E+04  0.14520248660E+04  0.10000000000E+02 0. -1.
</event>
<event>
 5    1  0.1218060E-008  0.3715963E+03  0.7957747E-01  0.3488587E+00
         13   -1    0    0    0    0  0.00000000000E+00  0.00000000000E+00  0.14999999963E+04  0.15000000000E+04  0.10566000000E+00 0.  1.
        994   -1    0    0    0    0 -0.00000000000E+00 -0.00000000000E+00  0.11368683772E-12  0.17120000000E+03  0.17120000000E+03 0.  0.
         13    1    1    2    0    0  0.17301048780E+02 -0.38785398699E+02  0.61029666462E+02  0.74352301871E+02  0.10566000000E+00 0.  1.
        994    1    1    2    0    0 -0.42564313295E+01  0.89802663376E+02  0.40771447178E+02  0.19762182689E+03  0.17120000000E+03 0.  0.
        998    1    1    2    0    0 -0.13044617450E+02 -0.51017264677E+02  0.13981988826E+04  0.13992258712E+04  0.10000000000E+02 0.  1.
</event>
<event>
 5    1  0.1218060E-008  0.3837421E+03  0.7957747E-01  0.3435025E+00
         13   -1    0    0    0    0  0.00000000000E+00  0.00000000000E+00  0.14999999963E+04  0.15000000000E+04  0.10566000000E+00 0. -1.
        994   -1    0    0    0    0 -0.00000000000E+00 -0.00000000000E+00  0.11368683772E-12  0.17120000000E+03  0.17120000000E+03 0.  0.
         13    1    1    2    0    0  0.70223610727E+00 -0.18644034489E+02  0.75537879516E+02  0.77807940234E+02  0.10566000000E+00 0. -1.
        994    1    1    2    0    0  0.17634841192E+01  0.14508898862E+02  0.29616579602E+01  0.17184827448E+03  0.17120000000E+03 0.  0.
        998    1    1    2    0    0 -0.24657202265E+01  0.41351356268E+01  0.14215004588E+04  0.14215437853E+04  0.10000000000E+02 0. -1.
</event>
<event>
 5    1  0.1218060E-008  0.3810878E+03  0.7957747E-01  0.3446436E+00
         13   -1    0    0    0    0  0.00000000000E+00  0.00000000000E+00  0.14999999963E+04  0.15000000000E+04  0.10566000000E+00 0. -1.
        994   -1    0    0    0    0 -0.00000000000E+00 -0.00000000000E+00  0.11368683772E-12  0.17120000000E+03  0.17120000000E+03 0.  0.
         13    1    1    2    0    0 -0.27078564389E+02  0.17691156010E+02  0.14506058126E+03  0.14862304347E+03  0.10566000000E+00 0. -1.
        994    1    1    2    0    0  0.20005315092E+02 -0.38285680114E+01  0.49681612827E+01  0.17247896449E+03  0.17120000000E+03 0.  0.
        998    1    1    2    0    0  0.70732492974E+01 -0.13862587999E+02  0.13499712537E+04  0.13500979920E+04  0.10000000000E+02 0. -1.
</event>
<event>
 5    1  0.1218060E-008  0.3756543E+03  0.7957747E-01  0.3470302E+00
         13   -1    0    0    0    0  0.00000000000E+00  0.00000000000E+00  0.14999999963E+04  0.15000000000E+04  0.10566000000E+00 0.  1.
        994   -1    0    0    0    0 -0.00000000000E+00 -0.00000000000E+00  0.11368683772E-12  0.17120000000E+03  0.17120000000E+03 0.  0.
         13    1    1    2    0    0  0.60151780460E+02  0.88605417368E+02  0.57116260030E+03  0.58111606743E+03  0.10566000000E+00 0.  1.
        994    1    1    2    0    0 -0.58569064925E+02 -0.84974106409E+02  0.43370412783E+02  0.20455162388E+03  0.17120000000E+03 0.  0.
        998    1    1    2    0    0 -0.15827155354E+01 -0.36313109592E+01  0.88546698319E+03  0.88553230869E+03  0.10000000000E+02 0.  0.
</event>
<event>
 5    1  0.1218060E-008  0.3762850E+03  0.7957747E-01  0.3467496E+00
         13   -1    0    0    0    0  0.00000000000E+00  0.00000000000E+00  0.14999999963E+04  0.15000000000E+04  0.10566000000E+00 0. -1.
        994   -1    0    0    0    0 -0.00000000000E+00 -0.00000000000E+00  0.11368683772E-12  0.17120000000E+03  0.17120000000E+03 0.  0.
         13    1    1    2    0    0  0.42527495714E+02  0.43473898446E+02  0.27674535470E+03  0.28334884903E+03  0.10566000000E+00 0. -1.
        994    1    1    2    0    0 -0.15549965673E+02 -0.53152727238E+02  0.16472204122E+02  0.18068698723E+03  0.17120000000E+03 0.  0.
        998    1    1    2    0    0 -0.26977530041E+02  0.96788287914E+01  0.12067824375E+04  0.12071641637E+04  0.10000000000E+02 0. -1.
</event>
<event>
 5    1  0.1218060E-008  0.3851751E+03  0.7957747E-01  0.3428930E+00
         13   -1    0    0    0    0  0.00000000000E+00  0.00000000000E+00  0.14999999963E+04  0.15000000000E+04  0.10566000000E+00 0.  1.
        994   -1    0    0    0    0 -0.00000000000E+00 -0.00000000000E+00  0.11368683772E-12  0.17120000000E+03  0.17120000000E+03 0.  0.
         13    1    1    2    0    0 -0.11255229855E+02 -0.63237778176E+01  0.53504329200E+02  0.55039937973E+02  0.10566000000E+00 0.  1.
        994    1    1    2    0    0  0.69215295258E+01  0.88802020748E+01  0.19600025411E+01  0.17158102217E+03  0.17120000000E+03 0.  0.
        998    1    1    2    0    0  0.43337003290E+01 -0.25564242572E+01  0.14445356645E+04  0.14445790399E+04  0.10000000000E+02 0.  1.
</event>
<event>
 5    1  0.1218060E-008  0.3824849E+03  0.7957747E-01  0.3440410E+00
         13   -1    0    0    0    0  0.00000000000E+00  0.00000000000E+00  0.14999999963E+04  0.15000000000E+04  0.10566000000E+00 0. -1.
        994   -1    0    0    0    0 -0.00000000000E+00 -0.00000000000E+00  0.11368683772E-12  0.17120000000E+03  0.17120000000E+03 0.  0.
         13    1    1    2    0    0 -0.52642392556E+01  0.26790961677E+02  0.12658066368E+03  0.12949186624E+03  0.10566000000E+00 0. -1.
        994    1    1    2    0    0  0.41867371837E+01 -0.18027623010E+02  0.40205607160E+01  0.17224438704E+03  0.17120000000E+03 0.  0.
        998    1    1    2    0    0  0.10775020718E+01 -0.87633386669E+01  0.13693987719E+04  0.13694637467E+04  0.10000000000E+02 0. -1.
</event>
<event>
 5    1  0.1218060E-008  0.3857327E+03  0.7957747E-01  0.3426571E+00
         13   -1    0    0    0    0  0.00000000000E+00  0.00000000000E+00  0.14999999963E+04  0.15000000000E+04  0.10566000000E+00 0.  1.
        994   -1    0    0    0    0 -0.00000000000E+00 -0.00000000000E+00  0.11368683772E-12  0.17120000000E+03  0.17120000000E+03 0.  0.
         13    1    1    2    0    0 -0.72637128373E+01  0.11236389601E+02  0.67769891325E+02  0.69078124682E+02  0.10566000000E+00 0.  1.
        994    1    1    2    0    0  0.87846549300E+01 -0.13026630275E+02  0.20771345965E+01  0.17193201490E+03  0.17120000000E+03 0.  0.
        998    1    1    2    0    0 -0.15209420927E+01  0.17902406741E+01  0.14301529704E+04  0.14301898604E+04  0.10000000000E+02 0.  1.
</event>
<event>
 5    1  0.1218060E-008  0.3880203E+03  0.7957747E-01  0.3416963E+00
         13   -1    0    0    0    0  0.00000000000E+00  0.00000000000E+00  0.14999999963E+04  0.15000000000E+04  0.10566000000E+00 0.  1.
        994   -1    0    0    0    0 -0.00000000000E+00 -0.00000000000E+00  0.11368683772E-12  0.17120000000E+03  0.17120000000E+03 0.  0.
         13    1    1    2    0    0 -0.19063738747E+02 -0.40038792956E+02  0.37063613004E+02  0.57794927540E+02  0.10566000000E+00 0.  1.
        994    1    1    2    0    0 -0.38506762618E+01  0.64502958078E+02  0.36566767929E+02  0.18660661249E+03  0.17120000000E+03 0.  0.
        998    1    1    2    0    0  0.22914415008E+02 -0.24464165122E+02  0.14263696153E+04  0.14267984600E+04  0.10000000000E+02 0.  1.
</event>
<event>
 5    1  0.1218060E-008  0.3834962E+03  0.7957747E-01  0.3436075E+00
         13   -1    0    0    0    0  0.00000000000E+00  0.00000000000E+00  0.14999999963E+04  0.15000000000E+04  0.10566000000E+00 0. -1.
        994   -1    0    0    0    0 -0.00000000000E+00 -0.00000000000E+00  0.11368683772E-12  0.17120000000E+03  0.17120000000E+03 0.  0.
         13    1    1    2    0    0 -0.18935720524E+02 -0.69126071640E+01  0.79927346921E+02  0.82430198346E+02  0.10566000000E+00 0. -1.
        994    1    1    2    0    0  0.23814890916E+02  0.18865650565E+01  0.42668974534E+01  0.17291140671E+03  0.17120000000E+03 0.  0.
        998    1    1    2    0    0 -0.48791703925E+01  0.50260421076E+01  0.14158057519E+04  0.14158583949E+04  0.10000000000E+02 0. -1.
</event>
<event>
 5    1  0.1457551E-008  0.3861222E+03  0.7957747E-01  0.3424927E+00
         13   -1    0    0    0    0  0.00000000000E+00  0.00000000000E+00  0.14999999963E+04  0.15000000000E+04  0.10566000000E+00 0.  1.
        994   -1    0    0    0    0 -0.00000000000E+00 -0.00000000000E+00  0.11368683772E-12  0.17120000000E+03  0.17120000000E+03 0.  0.
         13    1    1    2    0    0  0.68222870441E+01  0.74197585416E+01  0.46479375699E+02  0.47559856463E+02  0.10566000000E+00 0.  1.
        994    1    1    2    0    0 -0.87784141870E+01 -0.76723324503E+01  0.15194976676E+01  0.17160324622E+03  0.17120000000E+03 0.  0.
        998    1    1    2    0    0  0.19561271429E+01  0.25257390875E+00  0.14520011229E+04  0.14520368973E+04  0.10000000000E+02 0.  1.
</event>
<event>
 5    1  0.1218060E-008  0.3802268E+03  0.7957747E-01  0.3450171E+00
         13   -1    0    0    0    0  0.00000000000E+00  0.00000000000E+00  0.14999999963E+04  0.15000000000E+04  0.10566000000E+00 0. -1.
        994   -1    0    0    0    0 -0.00000000000E+00 -0.00000000000E+00  0.11368683772E-12  0.17120000000E+03  0.17120000000E+03 0.  0.
         13    1    1    2    0    0 -0.18884001633E+02  0.64467863105E+00  0.45960257410E+02  0.49692832013E+02  0.10566000000E+00 0. -1.
        994    1    1    2    0    0 -0.61572036789E+01  0.24169053032E+01  0.41648632417E+01  0.17137834949E+03  0.17120000000E+03 0.  0.
        998    1    1    2    0    0  0.25041205312E+02 -0.30615839342E+01  0.14498748756E+04  0.14501288185E+04  0.10000000000E+02 0. -1.
</event>
<event>
 5    1  0.1218060E-008  0.3804633E+03  0.7957747E-01  0.3449144E+00
         13   -1    0    0    0    0  0.00000000000E+00  0.00000000000E+00  0.14999999963E+04  0.15000000000E+04  0.10566000000E+00 0.  1.
        994   -1    0    0    0    0 -0.00000000000E+00 -0.00000000000E+00  0.11368683772E-12  0.17120000000E+03  0.17120000000E+03 0.  0.
         13    1    1    2    0    0 -0.66712340481E+01 -0.19916296599E+02  0.54762310957E+02  0.58652247180E+02  0.10566000000E+00 0.  1.
        994    1    1    2    0    0  0.44568198724E+01  0.14699956351E+02  0.46874194397E+01  0.17195163233E+03  0.17120000000E+03 0.  0.
        998    1    1    2    0    0  0.22144141757E+01  0.52163402480E+01  0.14405502659E+04  0.14405961205E+04  0.10000000000E+02 0.  1.
</event>
<event>
 5    1  0.1218060E-008  0.3824122E+03  0.7957747E-01  0.3440722E+00
         13   -1    0    0    0    0  0.00000000000E+00  0.00000000000E+00  0.14999999963E+04  0.15000000000E+04  0.10566000000E+00 0.  1.
        994   -1    0    0    0    0 -0.00000000000E+00 -0.00000000000E+00  0.11368683772E-12  0.17120000000E+03  0.17120000000E+03 0.  0.
         13    1    1    2    0    0  0.21713101513E+02  0.75164203525E+01  0.87463345515E+02  0.90431207694E+02  0.10566000000E+00 0.  1.
        994    1    1    2    0    0 -0.20101934994E+02  0.15982698871E+01  0.42701934217E+01  0.17243641381E+03  0.17120000000E+03 0.  0.
        998    1    1    2    0    0 -0.16111665183E+01 -0.91146902396E+01  0.14082664573E+04  0.14083323785E+04  0.10000000000E+02 0.  1.
</event>
<event>
 5    1  0.1218060E-008  0.3810254E+03  0.7957747E-01  0.3446706E+00
         13   -1    0    0    0    0  0.00000000000E+00  0.00000000000E+00  0.14999999963E+04  0.15000000000E+04  0.10566000000E+00 0.  1.
        994   -1    0    0    0    0 -0.00000000000E+00 -0.00000000000E+00  0.11368683772E-12  0.17120000000E+03  0.17120000000E+03 0.  0.
         13    1    1    2    0    0  0.23382748417E+02 -0.12675825348E+02  0.10096605913E+03  0.10441065909E+03  0.10566000000E+00 0.  1.
        994    1    1    2    0    0 -0.54512062899E+01  0.72347083278E+01  0.38898792433E+01  0.17148360801E+03  0.17120000000E+03 0.  0.
        998    1    1    2    0    0 -0.17931542127E+02  0.54411170201E+01  0.13951440579E+04  0.13953057329E+04  0.10000000000E+02 0.  1.
</event>
<event>
 5    1  0.1218060E-008  0.3856526E+03  0.7957747E-01  0.3426909E+00
         13   -1    0    0    0    0  0.00000000000E+00  0.00000000000E+00  0.14999999963E+04  0.15000000000E+04  0.10566000000E+00 0.  1.
        994   -1    0    0    0    0 -0.00000000000E+00 -0.00000000000E+00  0.11368683772E-12  0.17120000000E+03  0.17120000000E+03 0.  0.
         13    1    1    2    0    0 -0.26946772926E+01 -0.15014322413E+02  0.84709997160E+02  0.86072562098E+02  0.10566000000E+00 0.  1.
        994    1    1    2    0    0  0.48823725184E+00  0.17225909775E+02  0.22816608969E+01  0.17208026127E+03  0.17120000000E+03 0.  0.
        998    1    1    2    0    0  0.22064400407E+01 -0.22115873620E+01  0.14130083382E+04  0.14130471766E+04  0.10000000000E+02 0.  1.
</event>
<event>
 5    1  0.1218060E-008  0.3848359E+03  0.7957747E-01  0.3430368E+00
         13   -1    0    0    0    0  0.00000000000E+00  0.00000000000E+00  0.14999999963E+04  0.15000000000E+04  0.10566000000E+00 0. -1.
        994   -1    0    0    0    0 -0.00000000000E+00 -0.00000000000E+00  0.11368683772E-12  0.17120000000E+03  0.17120000000E+03 0.  0.
         13    1    1    2    0    0 -0.21018945943E+01 -0.11213778437E+02  0.36976864630E+02  0.38697111903E+02  0.10566000000E+00 0. -1.
        994    1    1    2    0    0 -0.20771648708E+01  0.13004829848E+02  0.22825139448E+01  0.17172096576E+03  0.17120000000E+03 0.  0.
        998    1    1    2    0    0  0.41790594652E+01 -0.17910514104E+01  0.14607406177E+04  0.14607819223E+04  0.10000000000E+02 0. -1.
</event>
<event>
 5    1  0.1218060E-008  0.3698694E+03  0.7957747E-01  0.3496491E+00
         13   -1    0    0    0    0  0.00000000000E+00  0.00000000000E+00  0.14999999963E+04  0.15000000000E+04  0.10566000000E+00 0.  1.
        994   -1    0    0    0    0 -0.00000000000E+00 -0.00000000000E+00  0.11368683772E-12  0.17120000000E+03  0.17120000000E+03 0.  0.
         13    1    1    2    0    0 -0.10938732468E+03 -0.28832279487E+02  0.42865563988E+03  0.44333120340E+03  0.10566000000E+00 0.  1.
        994    1    1    2    0    0  0.12060264927E+03  0.30949756725E+02  0.65047706368E+02  0.22145773989E+03  0.17120000000E+03 0.  0.
        998    1    1    2    0    0 -0.11215324587E+02 -0.21174772383E+01  0.10062966500E+04  0.10064110567E+04  0.10000000000E+02 0.  1.
</event>
<event>
 5    1  0.1218060E-008  0.3819475E+03  0.7957747E-01  0.3442722E+00
         13   -1    0    0    0    0  0.00000000000E+00  0.00000000000E+00  0.14999999963E+04  0.15000000000E+04  0.10566000000E+00 0.  1.
        994   -1    0    0    0    0 -0.00000000000E+00 -0.00000000000E+00  0.11368683772E-12  0.17120000000E+03  0.17120000000E+03 0.  0.
         13    1    1    2    0    0  0.13658210153E+02  0.19462734895E+02  0.85781712505E+02  0.89016055398E+02  0.10566000000E+00 0.  1.
        994    1    1    2    0    0 -0.10913255174E+02 -0.17856833867E+02  0.46093399957E+01  0.17253594312E+03  0.17120000000E+03 0.  0.
        998    1    1    2    0    0 -0.27449549794E+01 -0.16059010289E+01  0.14096089438E+04  0.14096480015E+04  0.10000000000E+02 0.  1.
</event>
<event>
 5    1  0.1218060E-008  0.3822908E+03  0.7957747E-01  0.3441244E+00
         13   -1    0    0    0    0  0.00000000000E+00  0.00000000000E+00  0.14999999963E+04  0.15000000000E+04  0.10566000000E+00 0. -1.
        994   -1    0    0    0    0 -0.00000000000E+00 -0.00000000000E+00  0.11368683772E-12  0.17120000000E+03  0.17120000000E+03 0.  0.
         13    1    1    2    0    0 -0.16717623825E+02  0.11099718639E+02  0.62677238766E+02  0.65811322154E+02  0.10566000000E+00 0. -1.
        994    1    1    2    0    0  0.23911694376E+02 -0.10474060735E+02  0.52454751140E+01  0.17325827566E+03  0.17120000000E+03 0.  0.
        998    1    1    2    0    0 -0.71940705510E+01 -0.62565790463E+00  0.14320772824E+04  0.14321304022E+04  0.10000000000E+02 0. -1.
</event>
<event>
 5    1  0.1218060E-008  0.3765290E+03  0.7957747E-01  0.3466413E+00
         13   -1    0    0    0    0  0.00000000000E+00  0.00000000000E+00  0.14999999963E+04  0.15000000000E+04  0.10566000000E+00 0.  1.
        994   -1    0    0    0    0 -0.00000000000E+00 -0.00000000000E+00  0.11368683772E-12  0.17120000000E+03  0.17120000000E+03 0.  0.
         13    1    1    2    0    0  0.12852803058E+02  0.38435139054E+02  0.15982393692E+03  0.16488225022E+03  0.10566000000E+00 0.  1.
        994    1    1    2    0    0 -0.16520592091E+01  0.34226560525E+01  0.59445058467E+01  0.17134532682E+03  0.17120000000E+03 0.  0.
        998    1    1    2    0    0 -0.11200743849E+02 -0.41857795107E+02  0.13342315535E+04  0.13349724230E+04  0.10000000000E+02 0.  1.
</event>
<event>
 5    1  0.1218060E-008  0.3740210E+03  0.7957747E-01  0.3477613E+00
         13   -1    0    0    0    0  0.00000000000E+00  0.00000000000E+00  0.14999999963E+04  0.15000000000E+04  0.10566000000E+00 0.  1.
        994   -1    0    0    0    0 -0.00000000000E+00 -0.00000000000E+00  0.11368683772E-12  0.17120000000E+03  0.17120000000E+03 0.  0.
         13    1    1    2    0    0 -0.17274618964E+01 -0.21837133176E+02  0.30359269742E+02  0.37437159792E+02  0.10566000000E+00 0.  1.
        994    1    1    2    0    0  0.13922119545E+01  0.16123162477E+02  0.80760165459E+01  0.17215271321E+03  0.17120000000E+03 0.  0.
        998    1    1    2    0    0  0.33524994182E+00  0.57139706995E+01  0.14615647100E+04  0.14616101270E+04  0.10000000000E+02 0.  1.
</event>
<event>
 5    1  0.1218060E-008  0.3836861E+03  0.7957747E-01  0.3435264E+00
         13   -1    0    0    0    0  0.00000000000E+00  0.00000000000E+00  0.14999999963E+04  0.15000000000E+04  0.10566000000E+00 0.  1.
        994   -1    0    0    0    0 -0.00000000000E+00 -0.00000000000E+00  0.11368683772E-12  0.17120000000E+03  0.17120000000E+03 0.  0.
         13    1    1    2    0    0 -0.15991713690E+02 -0.18816584611E+02  0.12621791547E+03  0.12861093310E+03  0.10566000000E+00 0.  1.
        994    1    1    2    0    0  0.16621974074E+02  0.14733519085E+02  0.39150239795E+01  0.17267928081E+03  0.17120000000E+03 0.  0.
        998    1    1    2    0    0 -0.63026038414E+00  0.40830655262E+01  0.13698670568E+04  0.13699097861E+04  0.10000000000E+02 0.  1.
</event>
<event>
 5    1  0.1218060E-008  0.3770159E+03  0.7957747E-01  0.3464256E+00
         13   -1    0    0    0    0  0.00000000000E+00  0.00000000000E+00  0.14999999963E+04  0.15000000000E+04  0.10566000000E+00 0.  1.
        994   -1    0    0    0    0 -0.00000000000E+00 -0.00000000000E+00  0.11368683772E-12  0.17120000000E+03  0.17120000000E+03 0.  0.
         13    1    1    2    0    0  0.90773007716E+01  0.81799022041E+01  0.10688922430E+02  0.16234913493E+02  0.10566000000E+00 0.  1.
        994    1    1    2    0    0 -0.98894227796E+01 -0.26381842949E+01  0.60009090094E+01  0.17161063955E+03  0.17120000000E+03 0.  0.
        998    1    1    2    0    0  0.81212200806E+00 -0.55417179092E+01  0.14833101648E+04  0.14833544470E+04  0.10000000000E+02 0.  1.
</event>
<event>
 5    1  0.1218060E-008  0.3707499E+03  0.7957747E-01  0.3492451E+00
         13   -1    0    0    0    0  0.00000000000E+00  0.00000000000E+00  0.14999999963E+04  0.15000000000E+04  0.10566000000E+00 0. -1.
        994   -1    0    0    0    0 -0.00000000000E+00 -0.00000000000E+00  0.11368683772E-12  0.17120000000E+03  0.17120000000E+03 0.  0.
         13    1    1    2    0    0 -0.20692374280E+02  0.16212493973E-01  0.19858800717E+02  0.28680267540E+02  0.10566000000E+00 0. -1.
        994    1    1    2    0    0  0.24527142654E+02 -0.20218357324E+01  0.10969202791E+02  0.17330733382E+03  0.17120000000E+03 0.  0.
        998    1    1    2    0    0 -0.38347683742E+01  0.20056232384E+01  0.14691719928E+04  0.14692123986E+04  0.10000000000E+02 0. -1.
</event>
<event>
 5    1  0.1218060E-008  0.3855190E+03  0.7957747E-01  0.3427474E+00
         13   -1    0    0    0    0  0.00000000000E+00  0.00000000000E+00  0.14999999963E+04  0.15000000000E+04  0.10566000000E+00 0. -1.
        994   -1    0    0    0    0 -0.00000000000E+00 -0.00000000000E+00  0.11368683772E-12  0.17120000000E+03  0.17120000000E+03 0.  0.
         13    1    1    2    0    0  0.63190272868E+02  0.25749255492E+02  0.13865698484E+03  0.15453739144E+03  0.10566000000E+00 0. -1.
        994    1    1    2    0    0 -0.11217940536E+02  0.61315919750E+02  0.33908217825E+02  0.18532320805E+03  0.17120000000E+03 0.  0.
        998    1    1    2    0    0 -0.51972332332E+02 -0.87065175242E+02  0.13274347936E+04  0.13313394005E+04  0.10000000000E+02 0. -1.
</event>
<event>
 5    1  0.1218060E-008  0.3783117E+03  0.7957747E-01  0.3458543E+00
         13   -1    0    0    0    0  0.00000000000E+00  0.00000000000E+00  0.14999999963E+04  0.15000000000E+04  0.10566000000E+00 0. -1.
        994   -1    0    0    0    0 -0.00000000000E+00 -0.00000000000E+00  0.11368683772E-12  0.17120000000E+03  0.17120000000E+03 0.  0.
         13    1    1    2    0    0  0.85213241602E+01 -0.12854773572E+02  0.21649684479E+02  0.26581538163E+02  0.10566000000E+00 0. -1.
        994    1    1    2    0    0 -0.60777932495E+01  0.10932239190E+02  0.55139393974E+01  0.17174486005E+03  0.17120000000E+03 0.  0.
        998    1    1    2    0    0 -0.24435309107E+01  0.19225343820E+01  0.14728363724E+04  0.14728736018E+04  0.10000000000E+02 0. -1.
</event>
<event>
 5    1  0.1480683E-008  0.3841053E+03  0.7957747E-01  0.3433476E+00
         13   -1    0    0    0    0  0.00000000000E+00  0.00000000000E+00  0.14999999963E+04  0.15000000000E+04  0.10566000000E+00 0. -1.
        994   -1    0    0    0    0 -0.00000000000E+00 -0.00000000000E+00  0.11368683772E-12  0.17120000000E+03  0.17120000000E+03 0.  0.
         13    1    1    2    0    0  0.99127290229E+01 -0.55403010625E+01  0.30743708222E+02  0.32774134493E+02  0.10566000000E+00 0. -1.
        994    1    1    2    0    0 -0.39402051437E+01  0.51726958298E+01  0.22144612239E+01  0.17133775368E+03  0.17120000000E+03 0.  0.
        998    1    1    2    0    0 -0.59725238792E+01  0.36760523268E+00  0.14670418268E+04  0.14670881118E+04  0.10000000000E+02 0. -1.
</event>
<event>
 5    1  0.1218060E-008  0.3704644E+03  0.7957747E-01  0.3493759E+00
         13   -1    0    0    0    0  0.00000000000E+00  0.00000000000E+00  0.14999999963E+04  0.15000000000E+04  0.10566000000E+00 0. -1.
        994   -1    0    0    0    0 -0.00000000000E+00 -0.00000000000E+00  0.11368683772E-12  0.17120000000E+03  0.17120000000E+03 0.  0.
         13    1    1    2    0    0  0.54022556395E+02 -0.10828654422E+01  0.14142264935E+03  0.15139348107E+03  0.10566000000E+00 0. -1.
        994    1    1    2    0    0 -0.58663943561E+02  0.14303504632E+01  0.21009448837E+02  0.18219314234E+03  0.17120000000E+03 0.  0.
        998    1    1    2    0    0  0.46413871664E+01 -0.34748502098E+00  0.13375678981E+04  0.13376133766E+04  0.10000000000E+02 0.  1.
</event>
<event>
 5    1  0.1218060E-008  0.3839306E+03  0.7957747E-01  0.3434220E+00
         13   -1    0    0    0    0  0.00000000000E+00  0.00000000000E+00  0.14999999963E+04  0.15000000000E+04  0.10566000000E+00 0.  1.
        994   -1    0    0    0    0 -0.00000000000E+00 -0.00000000000E+00  0.11368683772E-12  0.17120000000E+03  0.17120000000E+03 0.  0.
         13    1    1    2    0    0  0.81493086168E+01 -0.14671474332E+02  0.65372763577E+02  0.67492760884E+02  0.10566000000E+00 0.  1.
        994    1    1    2    0    0 -0.12562699640E+02  0.34442557534E+01  0.27221621873E+01  0.17171643627E+03  0.17120000000E+03 0.  0.
        998    1    1    2    0    0  0.44133910234E+01  0.11227218578E+02  0.14319050705E+04  0.14319908028E+04  0.10000000000E+02 0.  1.
</event>
<event>
 5    1  0.1218060E-008  0.3709128E+03  0.7957747E-01  0.3491706E+00
         13   -1    0    0    0    0  0.00000000000E+00  0.00000000000E+00  0.14999999963E+04  0.15000000000E+04  0.10566000000E+00 0.  1.
        994   -1    0    0    0    0 -0.00000000000E+00 -0.00000000000E+00  0.11368683772E-12  0.17120000000E+03  0.17120000000E+03 0.  0.
         13    1    1    2    0    0  0.24544757561E+02 -0.47111571396E+02  0.21085865220E+03  0.21744729857E+03  0.10566000000E+00 0.  1.
        994    1    1    2    0    0 -0.23612472705E+02 -0.33189752020E+02  0.14533060836E+02  0.17657791018E+03  0.17120000000E+03 0.  0.
        998    1    1    2    0    0 -0.93228485567E+00  0.80301323416E+02  0.12746082832E+04  0.12771747912E+04  0.10000000000E+02 0.  1.
</event>
<event>
 5    1  0.1218060E-008  0.3827711E+03  0.7957747E-01  0.3439181E+00
         13   -1    0    0    0    0  0.00000000000E+00  0.00000000000E+00  0.14999999963E+04  0.15000000000E+04  0.10566000000E+00 0.  1.
        994   -1    0    0    0    0 -0.00000000000E+00 -0.00000000000E+00  0.11368683772E-12  0.17120000000E+03  0.17120000000E+03 0.  0.
         13    1    1    2    0    0 -0.71113462996E+01 -0.26556987315E+02  0.15499132070E+03  0.15741081754E+03  0.10566000000E+00 0.  1.
        994    1    1    2    0    0  0.71209157162E+01 -0.83928529591E+00  0.29111444985E+01  0.17137481321E+03  0.17120000000E+03 0.  0.
        998    1    1    2    0    0 -0.95694166428E-02  0.27396272611E+02  0.13420975311E+04  0.13424143693E+04  0.10000000000E+02 0.  1.
</event>
<event>
 5    1  0.1218060E-008  0.3780495E+03  0.7957747E-01  0.3459696E+00
         13   -1    0    0    0    0  0.00000000000E+00  0.00000000000E+00  0.14999999963E+04  0.15000000000E+04  0.10566000000E+00 0. -1.
        994   -1    0    0    0    0 -0.00000000000E+00 -0.00000000000E+00  0.11368683772E-12  0.17120000000E+03  0.17120000000E+03 0.  0.
         13    1    1    2    0    0 -0.28574601324E+02  0.80938442547E+01  0.78219449069E+02  0.83667864395E+02  0.10566000000E+00 0. -1.
        994    1    1    2    0    0  0.32277832608E+02 -0.19247136728E+02  0.98876111843E+01  0.17555487918E+03  0.17120000000E+03 0.  0.
        998    1    1    2    0    0 -0.37032312835E+01  0.11153292474E+02  0.14118929360E+04  0.14119772564E+04  0.10000000000E+02 0.  1.
</event>
<event>
 5    1  0.1218060E-008  0.3781282E+03  0.7957747E-01  0.3459349E+00
         13   -1    0    0    0    0  0.00000000000E+00  0.00000000000E+00  0.14999999963E+04  0.15000000000E+04  0.10566000000E+00 0. -1.
        994   -1    0    0    0    0 -0.00000000000E+00 -0.00000000000E+00  0.11368683772E-12  0.17120000000E+03  0.17120000000E+03 0.  0.
         13    1    1    2    0    0  0.13993562171E+02 -0.71731990864E+01  0.22548670717E+02  0.27490512591E+02  0.10566000000E+00 0. -1.
        994    1    1    2    0    0 -0.93117654987E+01 -0.71924250336E+01  0.55468215083E+01  0.17169346867E+03  0.17120000000E+03 0.  0.
        998    1    1    2    0    0 -0.46817966724E+01  0.14365624120E+02  0.14719045041E+04  0.14720160187E+04  0.10000000000E+02 0. -1.
</event>
<event>
 5    1  0.1218060E-008  0.3709384E+03  0.7957747E-01  0.3491589E+00
         13   -1    0    0    0    0  0.00000000000E+00  0.00000000000E+00  0.14999999963E+04  0.15000000000E+04  0.10566000000E+00 0. -1.
        994   -1    0    0    0    0 -0.00000000000E+00 -0.00000000000E+00  0.11368683772E-12  0.17120000000E+03  0.17120000000E+03 0.  0.
         13    1    1    2    0    0 -0.16442533340E+03  0.21863299276E+02  0.58935634795E+03  0.61225371388E+03  0.10566000000E+00 0. -1.
        994    1    1    2    0    0  0.17171531062E+03 -0.40076299968E+02  0.13007459446E+03  0.27806671474E+03  0.17120000000E+03 0.  0.
        998    1    1    2    0    0 -0.72899772157E+01  0.18213000692E+02  0.78056905386E+03  0.78087957139E+03  0.10000000000E+02 0.  1.
</event>
<event>
 5    1  0.1218060E-008  0.3782623E+03  0.7957747E-01  0.3458760E+00
         13   -1    0    0    0    0  0.00000000000E+00  0.00000000000E+00  0.14999999963E+04  0.15000000000E+04  0.10566000000E+00 0. -1.
        994   -1    0    0    0    0 -0.00000000000E+00 -0.00000000000E+00  0.11368683772E-12  0.17120000000E+03  0.17120000000E+03 0.  0.
         13    1    1    2    0    0  0.54647811648E+02  0.10541087295E+02  0.88457260370E+02  0.10450931019E+03  0.10566000000E+00 0. -1.
        994    1    1    2    0    0 -0.42445733088E+02 -0.92782802965E+02  0.53886851830E+02  0.20645464776E+03  0.17120000000E+03 0.  0.
        998    1    1    2    0    0 -0.12202078560E+02  0.82241715670E+02  0.13576558841E+04  0.13602360420E+04  0.10000000000E+02 0. -1.
</event>
<event>
 5    1  0.1218060E-008  0.4045152E+03  0.7957747E-01  0.3350900E+00
         13   -1    0    0    0    0  0.00000000000E+00  0.00000000000E+00  0.14999999963E+04  0.15000000000E+04  0.10566000000E+00 0.  1.
        994   -1    0    0    0    0 -0.00000000000E+00 -0.00000000000E+00  0.11368683772E-12  0.17120000000E+03  0.17120000000E+03 0.  0.
         13    1    1    2    0    0  0.43669783396E+02  0.12071808224E+03  0.24130797804E+03  0.27333030712E+03  0.10566000000E+00 0.  1.
        994    1    1    2    0    0  0.32715817513E+02 -0.12106875316E+03  0.96505089199E+02  0.23313223704E+03  0.17120000000E+03 0.  0.
        998    1    1    2    0    0 -0.76385600909E+02  0.35067091908E+00  0.11621869290E+04  0.11647374558E+04  0.10000000000E+02 0.  1.
</event>
<event>
 5    1  0.1218060E-008  0.3825014E+03  0.7957747E-01  0.3440339E+00
         13   -1    0    0    0    0  0.00000000000E+00  0.00000000000E+00  0.14999999963E+04  0.15000000000E+04  0.10566000000E+00 0.  1.
        994   -1    0    0    0    0 -0.00000000000E+00 -0.00000000000E+00  0.11368683772E-12  0.17120000000E+03  0.17120000000E+03 0.  0.
         13    1    1    2    0    0  0.16109388016E+02 -0.32439150753E+02  0.18345228696E+03  0.18699348555E+03  0.10566000000E+00 0.  1.
        994    1    1    2    0    0 -0.33167211401E+02  0.37192833235E+02  0.11153477678E+02  0.17865388555E+03  0.17120000000E+03 0.  0.
        998    1    1    2    0    0  0.17057823386E+02 -0.47536824820E+01  0.13053942316E+04  0.13055526289E+04  0.10000000000E+02 0.  1.
</event>
<event>
 5    1  0.1218060E-008  0.2588932E+03  0.7957747E-01  0.4241636E+00
         13   -1    0    0    0    0  0.00000000000E+00  0.00000000000E+00  0.14999999963E+04  0.15000000000E+04  0.10566000000E+00 0.  1.
        994   -1    0    0    0    0 -0.00000000000E+00 -0.00000000000E+00  0.11368683772E-12  0.17120000000E+03  0.17120000000E+03 0.  0.
         13    1    1    2    0    0  0.67446683030E+02 -0.16569482388E+03  0.34226257033E+03  0.38619620393E+03  0.10566000000E+00 0.  1.
        994    1    1    2    0    0 -0.55314772866E+02  0.16643432670E+03  0.17266237221E+03  0.29980300862E+03  0.17120000000E+03 0.  0.
        998    1    1    2    0    0 -0.12131910164E+02 -0.73950281813E+00  0.98507505374E+03  0.98520078745E+03  0.10000000000E+02 0.  0.
</event>
<event>
 5    1  0.1218060E-008  0.3841284E+03  0.7957747E-01  0.3433377E+00
         13   -1    0    0    0    0  0.00000000000E+00  0.00000000000E+00  0.14999999963E+04  0.15000000000E+04  0.10566000000E+00 0.  1.
        994   -1    0    0    0    0 -0.00000000000E+00 -0.00000000000E+00  0.11368683772E-12  0.17120000000E+03  0.17120000000E+03 0.  0.
         13    1    1    2    0    0 -0.18467731939E+02 -0.48711514450E+01  0.83292904652E+02  0.85454691906E+02  0.10566000000E+00 0.  1.
        994    1    1    2    0    0  0.18871496262E+02  0.10396272851E+02  0.35959345014E+01  0.17258790979E+03  0.17120000000E+03 0.  0.
        998    1    1    2    0    0 -0.40376432290E+00 -0.55251214057E+01  0.14131111571E+04  0.14131573983E+04  0.10000000000E+02 0.  1.
</event>
<event>
 5    1  0.1218060E-008  0.3787992E+03  0.7957747E-01  0.3456404E+00
         13   -1    0    0    0    0  0.00000000000E+00  0.00000000000E+00  0.14999999963E+04  0.15000000000E+04  0.10566000000E+00 0. -1.
        994   -1    0    0    0    0 -0.00000000000E+00 -0.00000000000E+00  0.11368683772E-12  0.17120000000E+03  0.17120000000E+03 0.  0.
         13    1    1    2    0    0  0.57468816105E+02 -0.32564268330E+02  0.39267665425E+03  0.39819349863E+03  0.10566000000E+00 0. -1.
        994    1    1    2    0    0 -0.50276259975E+02  0.18844328963E+02  0.14477509839E+02  0.18000513699E+03  0.17120000000E+03 0.  0.
        998    1    1    2    0    0 -0.71925561303E+01  0.13719939367E+02  0.10928458322E+04  0.10930013644E+04  0.10000000000E+02 0. -1.
</event>
<event>
 5    1  0.1218060E-008  0.3808759E+03  0.7957747E-01  0.3447353E+00
         13   -1    0    0    0    0  0.00000000000E+00  0.00000000000E+00  0.14999999963E+04  0.15000000000E+04  0.10566000000E+00 0. -1.
        994   -1    0    0    0    0 -0.00000000000E+00 -0.00000000000E+00  0.11368683772E-12  0.17120000000E+03  0.17120000000E+03 0.  0.
         13    1    1    2    0    0 -0.10996011499E+02  0.79812033527E+01  0.23193741694E+02  0.26880712298E+02  0.10566000000E+00 0. -1.
        994    1    1    2    0    0  0.91063254718E+01 -0.11679938234E+02  0.44231186017E+01  0.17189633533E+03  0.17120000000E+03 0.  0.
        998    1    1    2    0    0  0.18896860272E+01  0.36987348809E+01  0.14723831360E+04  0.14724229524E+04  0.10000000000E+02 0. -1.
</event>
<event>
 5    1  0.1218060E-008  0.3843030E+03  0.7957747E-01  0.3432634E+00
         13   -1    0    0    0    0  0.00000000000E+00  0.00000000000E+00  0.14999999963E+04  0.15000000000E+04  0.10566000000E+00 0. -1.
        994   -1    0    0    0    0 -0.00000000000E+00 -0.00000000000E+00  0.11368683772E-12  0.17120000000E+03  0.17120000000E+03 0.  0.
         13    1    1    2    0    0 -0.16814430085E+02  0.16018152634E+02  0.11197028493E+03  0.11435323408E+03  0.10566000000E+00 0. -1.
        994    1    1    2    0    0  0.39770508617E+02 -0.18029420774E+02  0.82868852556E+01  0.17687528328E+03  0.17120000000E+03 0.  0.
        998    1    1    2    0    0 -0.22956078532E+02  0.20112681399E+01  0.13797428261E+04  0.13799714826E+04  0.10000000000E+02 0. -1.
</event>
<event>
 5    1  0.1218060E-008  0.3778098E+03  0.7957747E-01  0.3460751E+00
         13   -1    0    0    0    0  0.00000000000E+00  0.00000000000E+00  0.14999999963E+04  0.15000000000E+04  0.10566000000E+00 0.  1.
        994   -1    0    0    0    0 -0.00000000000E+00 -0.00000000000E+00  0.11368683772E-12  0.17120000000E+03  0.17120000000E+03 0.  0.
         13    1    1    2    0    0  0.66763609455E+01 -0.77702973715E+02  0.42559749426E+03  0.43268413907E+03  0.10566000000E+00 0.  1.
        994    1    1    2    0    0 -0.13442690071E+02  0.74426847771E+02  0.24752594289E+02  0.18879139946E+03  0.17120000000E+03 0.  0.
        998    1    1    2    0    0  0.67663291254E+01  0.32761259436E+01  0.10496499077E+04  0.10497244615E+04  0.10000000000E+02 0.  1.
</event>
<event>
 5    1  0.1218060E-008  0.3693456E+03  0.7957747E-01  0.3498904E+00
         13   -1    0    0    0    0  0.00000000000E+00  0.00000000000E+00  0.14999999963E+04  0.15000000000E+04  0.10566000000E+00 0.  1.
        994   -1    0    0    0    0 -0.00000000000E+00 -0.00000000000E+00  0.11368683772E-12  0.17120000000E+03  0.17120000000E+03 0.  0.
         13    1    1    2    0    0 -0.10585616124E+02 -0.72340921024E+01  0.40954699096E+01  0.13459992388E+02  0.10566000000E+00 0.  1.
        994    1    1    2    0    0  0.12637508255E+02  0.37482887667E+01  0.10213911914E+02  0.17201023307E+03  0.17120000000E+03 0.  0.
        998    1    1    2    0    0 -0.20518921306E+01  0.34858033358E+01  0.14856906145E+04  0.14857297745E+04  0.10000000000E+02 0.  1.
</event>
<event>
 5    1  0.1218060E-008  0.3786345E+03  0.7957747E-01  0.3457126E+00
         13   -1    0    0    0    0  0.00000000000E+00  0.00000000000E+00  0.14999999963E+04  0.15000000000E+04  0.10566000000E+00 0.  1.
        994   -1    0    0    0    0 -0.00000000000E+00 -0.00000000000E+00  0.11368683772E-12  0.17120000000E+03  0.17120000000E+03 0.  0.
         13    1    1    2    0    0 -0.26766681762E+01 -0.36313195443E+02  0.15012073622E+03  0.15447349068E+03  0.10566000000E+00 0.  1.
        994    1    1    2    0    0 -0.57043680733E+01  0.51742697129E+01  0.50232172334E+01  0.17144674273E+03  0.17120000000E+03 0.  0.
        998    1    1    2    0    0  0.83810362495E+01  0.31138925730E+02  0.13448560428E+04  0.13452797666E+04  0.10000000000E+02 0.  1.
</event>
<event>
 5    1  0.1218060E-008  0.2772478E+03  0.7957747E-01  0.4073153E+00
         13   -1    0    0    0    0  0.00000000000E+00  0.00000000000E+00  0.14999999963E+04  0.15000000000E+04  0.10566000000E+00 0. -1.
        994   -1    0    0    0    0 -0.00000000000E+00 -0.00000000000E+00  0.11368683772E-12  0.17120000000E+03  0.17120000000E+03 0.  0.
         13    1    1    2    0    0  0.98507656948E+02 -0.91014804540E+02  0.68218836821E+03  0.69524703092E+03  0.10566000000E+00 0. -1.
        994    1    1    2    0    0 -0.60983613349E+02 -0.22535420777E+02  0.38087766101E+02  0.18704802649E+03  0.17120000000E+03 0.  0.
        998    1    1    2    0    0 -0.37524043598E+02  0.11355022532E+03  0.77972386197E+03  0.78890494259E+03  0.10000000000E+02 0. -1.
</event>
<event>
 5    1  0.1218060E-008  0.3745255E+03  0.7957747E-01  0.3475348E+00
         13   -1    0    0    0    0  0.00000000000E+00  0.00000000000E+00  0.14999999963E+04  0.15000000000E+04  0.10566000000E+00 0.  1.
        994   -1    0    0    0    0 -0.00000000000E+00 -0.00000000000E+00  0.11368683772E-12  0.17120000000E+03  0.17120000000E+03 0.  0.
         13    1    1    2    0    0  0.14947024734E+02 -0.14540925244E+02  0.29310702852E+02  0.35971940746E+02  0.10566000000E+00 0.  1.
        994    1    1    2    0    0  0.31619954919E+01  0.93440232246E+01  0.72539819629E+01  0.17163731890E+03  0.17120000000E+03 0.  0.
        998    1    1    2    0    0 -0.18109020226E+02  0.51969020194E+01  0.14634353115E+04  0.14635907404E+04  0.10000000000E+02 0.  1.
</event>
<event>
 5    1  0.1218060E-008  0.2938749E+03  0.7957747E-01  0.3940741E+00
         13   -1    0    0    0    0  0.00000000000E+00  0.00000000000E+00  0.14999999963E+04  0.15000000000E+04  0.10566000000E+00 0.  1.
        994   -1    0    0    0    0 -0.00000000000E+00 -0.00000000000E+00  0.11368683772E-12  0.17120000000E+03  0.17120000000E+03 0.  0.
         13    1    1    2    0    0  0.10879773289E+03  0.83368914495E+02  0.75780182032E+03  0.77009800197E+03  0.10566000000E+00 0.  1.
        994    1    1    2    0    0 -0.52064253597E+02 -0.27698716704E+02  0.28954238513E+02  0.18337309873E+03  0.17120000000E+03 0.  0.
        998    1    1    2    0    0 -0.56733479294E+02 -0.55670197791E+02  0.71324393744E+03  0.71772889930E+03  0.10000000000E+02 0.  1.
</event>
<event>
 5    1  0.1218060E-008  0.3802456E+03  0.7957747E-01  0.3450090E+00
         13   -1    0    0    0    0  0.00000000000E+00  0.00000000000E+00  0.14999999963E+04  0.15000000000E+04  0.10566000000E+00 0.  1.
        994   -1    0    0    0    0 -0.00000000000E+00 -0.00000000000E+00  0.11368683772E-12  0.17120000000E+03  0.17120000000E+03 0.  0.
         13    1    1    2    0    0 -0.12488754821E+02 -0.12135925366E+02  0.36518522253E+02  0.40458167445E+02  0.10566000000E+00 0.  1.
        994    1    1    2    0    0  0.79637894252E+01  0.57033456479E+01  0.43297539617E+01  0.17153465208E+03  0.17120000000E+03 0.  0.
        998    1    1    2    0    0  0.45249653959E+01  0.64325797178E+01  0.14591517201E+04  0.14592071805E+04  0.10000000000E+02 0.  1.
</event>
<event>
 5    1  0.1218060E-008  0.3807542E+03  0.7957747E-01  0.3447881E+00
         13   -1    0    0    0    0  0.00000000000E+00  0.00000000000E+00  0.14999999963E+04  0.15000000000E+04  0.10566000000E+00 0. -1.
        994   -1    0    0    0    0 -0.00000000000E+00 -0.00000000000E+00  0.11368683772E-12  0.17120000000E+03  0.17120000000E+03 0.  0.
         13    1    1    2    0    0  0.22558466777E+02  0.17707238066E+02  0.11350206659E+03  0.11706904368E+03  0.10566000000E+00 0. -1.
        994    1    1    2    0    0 -0.96174377777E+01 -0.26435266766E+01  0.40847152299E+01  0.17153894089E+03  0.17120000000E+03 0.  0.
        998    1    1    2    0    0 -0.12941028999E+02 -0.15063711390E+02  0.13824132145E+04  0.13825920154E+04  0.10000000000E+02 0.  0.
</event>
<event>
 5    1  0.1218060E-008  0.3993468E+03  0.7957747E-01  0.3371015E+00
         13   -1    0    0    0    0  0.00000000000E+00  0.00000000000E+00  0.14999999963E+04  0.15000000000E+04  0.10566000000E+00 0. -1.
        994   -1    0    0    0    0 -0.00000000000E+00 -0.00000000000E+00  0.11368683772E-12  0.17120000000E+03  0.17120000000E+03 0.  0.
         13    1    1    2    0    0 -0.84214413653E+02 -0.34255311283E+02  0.14240887944E+03  0.16895500562E+03  0.10566000000E+00 0. -1.
        994    1    1    2    0    0  0.51734499653E+02  0.41897460922E+02  0.44905541625E+02  0.18909733831E+03  0.17120000000E+03 0.  0.
        998    1    1    2    0    0  0.32479914000E+02 -0.76421496393E+01  0.13126855752E+04  0.13131476561E+04  0.10000000000E+02 0. -1.
</event>
<event>
 5    1  0.1218060E-008  0.3848973E+03  0.7957747E-01  0.3430108E+00
         13   -1    0    0    0    0  0.00000000000E+00  0.00000000000E+00  0.14999999963E+04  0.15000000000E+04  0.10566000000E+00 0. -1.
        994   -1    0    0    0    0 -0.00000000000E+00 -0.00000000000E+00  0.11368683772E-12  0.17120000000E+03  0.17120000000E+03 0.  0.
         13    1    1    2    0    0  0.83073591921E+01 -0.11028878842E+02  0.71634465881E+02  0.72953109950E+02  0.10566000000E+00 0. -1.
        994    1    1    2    0    0 -0.18925070461E+02 -0.42858024307E+02  0.89356214299E+01  0.17771959338E+03  0.17120000000E+03 0.  0.
        998    1    1    2    0    0  0.10617711269E+02  0.53886903149E+02  0.14194299090E+04  0.14205272967E+04  0.10000000000E+02 0. -1.
</event>
<event>
 5    1  0.1218060E-008  0.3829242E+03  0.7957747E-01  0.3438524E+00
         13   -1    0    0    0    0  0.00000000000E+00  0.00000000000E+00  0.14999999963E+04  0.15000000000E+04  0.10566000000E+00 0. -1.
        994   -1    0    0    0    0 -0.00000000000E+00 -0.00000000000E+00  0.11368683772E-12  0.17120000000E+03  0.17120000000E+03 0.  0.
         13    1    1    2    0    0 -0.18065001190E+02 -0.33921711061E+00  0.63503298504E+02  0.66023779210E+02  0.10566000000E+00 0. -1.
        994    1    1    2    0    0  0.22353818890E+01 -0.77878655062E+01  0.28816196434E+01  0.17141584382E+03  0.17120000000E+03 0.  0.
        998    1    1    2    0    0  0.15829619301E+02  0.81270826168E+01  0.14336150781E+04  0.14337603770E+04  0.10000000000E+02 0. -1.
</event>
<event>
 5    1  0.1218060E-008  0.3744808E+03  0.7957747E-01  0.3475548E+00
         13   -1    0    0    0    0  0.00000000000E+00  0.00000000000E+00  0.14999999963E+04  0.15000000000E+04  0.10566000000E+00 0. -1.
        994   -1    0    0    0    0 -0.00000000000E+00 -0.00000000000E+00  0.11368683772E-12  0.17120000000E+03  0.17120000000E+03 0.  0.
         13    1    1    2    0    0  0.14481657187E+02  0.90112004107E+00  0.11951161087E+02  0.18798186816E+02  0.10566000000E+00 0. -1.
        994    1    1    2    0    0 -0.14925069356E+02  0.23519823214E+01  0.77233276778E+01  0.17203888894E+03  0.17120000000E+03 0.  0.
        998    1    1    2    0    0  0.44341216949E+00 -0.32531023624E+01  0.14803255075E+04  0.14803629242E+04  0.10000000000E+02 0. -1.
</event>
<event>
 5    1  0.1218060E-008  0.3726149E+03  0.7957747E-01  0.3483959E+00
         13   -1    0    0    0    0  0.00000000000E+00  0.00000000000E+00  0.14999999963E+04  0.15000000000E+04  0.10566000000E+00 0. -1.
        994   -1    0    0    0    0 -0.00000000000E+00 -0.00000000000E+00  0.11368683772E-12  0.17120000000E+03  0.17120000000E+03 0.  0.
         13    1    1    2    0    0  0.68092708916E+02  0.16075866812E+02  0.30723086245E+03  0.31509659552E+03  0.10566000000E+00 0. -1.
        994    1    1    2    0    0 -0.33218301278E+02 -0.38469775565E+02  0.16813701178E+02  0.17937535984E+03  0.17120000000E+03 0.  0.
        998    1    1    2    0    0 -0.34874407638E+02  0.22393908753E+02  0.11759554326E+04  0.11767280446E+04  0.10000000000E+02 0. -1.
</event>
<event>
 5    1  0.1218060E-008  0.3737140E+03  0.7957747E-01  0.3478994E+00
         13   -1    0    0    0    0  0.00000000000E+00  0.00000000000E+00  0.14999999963E+04  0.15000000000E+04  0.10566000000E+00 0. -1.
        994   -1    0    0    0    0 -0.00000000000E+00 -0.00000000000E+00  0.11368683772E-12  0.17120000000E+03  0.17120000000E+03 0.  0.
         13    1    1    2    0    0 -0.54044346053E+01 -0.24161888016E+02  0.38049694104E+02  0.45395981445E+02  0.10566000000E+00 0. -1.
        994    1    1    2    0    0  0.48048476920E+00  0.24234169863E+02  0.93490055244E+01  0.17315995426E+03  0.17120000000E+03 0.  0.
        998    1    1    2    0    0  0.49239498361E+01 -0.72281847384E-01  0.14526012967E+04  0.14526440643E+04  0.10000000000E+02 0. -1.
</event>
<event>
 5    1  0.1218060E-008  0.3848765E+03  0.7957747E-01  0.3430196E+00
         13   -1    0    0    0    0  0.00000000000E+00  0.00000000000E+00  0.14999999963E+04  0.15000000000E+04  0.10566000000E+00 0.  1.
        994   -1    0    0    0    0 -0.00000000000E+00 -0.00000000000E+00  0.11368683772E-12  0.17120000000E+03  0.17120000000E+03 0.  0.
         13    1    1    2    0    0 -0.11318591553E+03 -0.84347888209E+02  0.56595884435E+03  0.58329670184E+03  0.10566000000E+00 0.  1.
        994    1    1    2    0    0  0.33707633083E+02  0.81159587737E+02  0.48121570997E+02  0.19836382938E+03  0.17120000000E+03 0.  0.
        998    1    1    2    0    0  0.79478282443E+02  0.31883004713E+01  0.88591958093E+03  0.88953946878E+03  0.10000000000E+02 0. -1.
</event>
<event>
 5    1  0.1218060E-008  0.3813418E+03  0.7957747E-01  0.3445337E+00
         13   -1    0    0    0    0  0.00000000000E+00  0.00000000000E+00  0.14999999963E+04  0.15000000000E+04  0.10566000000E+00 0.  1.
        994   -1    0    0    0    0 -0.00000000000E+00 -0.00000000000E+00  0.11368683772E-12  0.17120000000E+03  0.17120000000E+03 0.  0.
         13    1    1    2    0    0 -0.51067769726E+01  0.22105015308E+02  0.72175708280E+02  0.75657484115E+02  0.10566000000E+00 0.  1.
        994    1    1    2    0    0  0.17344622682E+02 -0.14041070528E+02  0.51164735917E+01  0.17272407446E+03  0.17120000000E+03 0.  0.
        998    1    1    2    0    0 -0.12237845710E+02 -0.80639447792E+01  0.14227078144E+04  0.14228184414E+04  0.10000000000E+02 0.  1.
</event>
<event>
 5    1  0.1218060E-008  0.3855441E+03  0.7957747E-01  0.3427368E+00
         13   -1    0    0    0    0  0.00000000000E+00  0.00000000000E+00  0.14999999963E+04  0.15000000000E+04  0.10566000000E+00 0. -1.
        994   -1    0    0    0    0 -0.00000000000E+00 -0.00000000000E+00  0.11368683772E-12  0.17120000000E+03  0.17120000000E+03 0.  0.
         13    1    1    2    0    0  0.43836485185E+01  0.13203445168E+02  0.68146235740E+02  0.69551908300E+02  0.10566000000E+00 0. -1.
        994    1    1    2    0    0 -0.82424180171E+01 -0.14272807251E+02  0.22525426141E+01  0.17200629183E+03  0.17120000000E+03 0.  0.
        998    1    1    2    0    0  0.38587694986E+01  0.10693620823E+01  0.14296012179E+04  0.14296417999E+04  0.10000000000E+02 0. -1.
</event>
<event>
 5    1  0.1218060E-008  0.3809262E+03  0.7957747E-01  0.3447135E+00
         13   -1    0    0    0    0  0.00000000000E+00  0.00000000000E+00  0.14999999963E+04  0.15000000000E+04  0.10566000000E+00 0. -1.
        994   -1    0    0    0    0 -0.00000000000E+00 -0.00000000000E+00  0.11368683772E-12  0.17120000000E+03  0.17120000000E+03 0.  0.
         13    1    1    2    0    0  0.76554141347E+01 -0.27915495394E+02  0.12173744647E+03  0.12513151995E+03  0.10566000000E+00 0. -1.
        994    1    1    2    0    0 -0.34534865370E+02 -0.27919542019E+01  0.76774233693E+01  0.17483945425E+03  0.17120000000E+03 0.  0.
        998    1    1    2    0    0  0.26879451235E+02  0.30707449596E+02  0.13705851264E+04  0.13712290258E+04  0.10000000000E+02 0. -1.
</event>
<event>
 5    1  0.1218060E-008  0.3811210E+03  0.7957747E-01  0.3446292E+00
         13   -1    0    0    0    0  0.00000000000E+00  0.00000000000E+00  0.14999999963E+04  0.15000000000E+04  0.10566000000E+00 0. -1.
        994   -1    0    0    0    0 -0.00000000000E+00 -0.00000000000E+00  0.11368683772E-12  0.17120000000E+03  0.17120000000E+03 0.  0.
         13    1    1    2    0    0 -0.10556024540E+02  0.64764301416E+01  0.20074750821E+02  0.23587721086E+02  0.10566000000E+00 0. -1.
        994    1    1    2    0    0  0.61987665860E+01 -0.52720819276E+01  0.37889245072E+01  0.17143516414E+03  0.17120000000E+03 0.  0.
        998    1    1    2    0    0  0.43572579539E+01 -0.12043482140E+01  0.14761363210E+04  0.14761771148E+04  0.10000000000E+02 0. -1.
</event>
<event>
 5    1  0.1218060E-008  0.3805300E+03  0.7957747E-01  0.3448854E+00
         13   -1    0    0    0    0  0.00000000000E+00  0.00000000000E+00  0.14999999963E+04  0.15000000000E+04  0.10566000000E+00 0.  1.
        994   -1    0    0    0    0 -0.00000000000E+00 -0.00000000000E+00  0.11368683772E-12  0.17120000000E+03  0.17120000000E+03 0.  0.
         13    1    1    2    0    0  0.18119787204E+02  0.24426525448E+02  0.11445809777E+03  0.11842993347E+03  0.10566000000E+00 0.  1.
        994    1    1    2    0    0 -0.10722573521E+02 -0.22165638150E+02  0.58917132279E+01  0.17306195822E+03  0.17120000000E+03 0.  0.
        998    1    1    2    0    0 -0.73972136830E+01 -0.22608872976E+01  0.13796501853E+04  0.13797081083E+04  0.10000000000E+02 0.  1.
</event>
<event>
 5    1  0.1218060E-008  0.3729601E+03  0.7957747E-01  0.3482397E+00
         13   -1    0    0    0    0  0.00000000000E+00  0.00000000000E+00  0.14999999963E+04  0.15000000000E+04  0.10566000000E+00 0. -1.
        994   -1    0    0    0    0 -0.00000000000E+00 -0.00000000000E+00  0.11368683772E-12  0.17120000000E+03  0.17120000000E+03 0.  0.
         13    1    1    2    0    0  0.24691275979E+02 -0.27019445180E+01  0.38288190408E+02  0.45639416105E+02  0.10566000000E+00 0. -1.
        994    1    1    2    0    0 -0.71010549466E+01 -0.51379193277E+02  0.16994714575E+02  0.17969002979E+03  0.17120000000E+03 0.  0.
        998    1    1    2    0    0 -0.17590221032E+02  0.54081137795E+02  0.14447170913E+04  0.14458705541E+04  0.10000000000E+02 0. -1.
</event>
<event>
 5    1  0.1218060E-008  0.3711420E+03  0.7957747E-01  0.3490659E+00
         13   -1    0    0    0    0  0.00000000000E+00  0.00000000000E+00  0.14999999963E+04  0.15000000000E+04  0.10566000000E+00 0.  1.
        994   -1    0    0    0    0 -0.00000000000E+00 -0.00000000000E+00  0.11368683772E-12  0.17120000000E+03  0.17120000000E+03 0.  0.
         13    1    1    2    0    0  0.29688388160E+02  0.15343188481E+02  0.59197429142E+02  0.67979118893E+02  0.10566000000E+00 0.  1.
        994    1    1    2    0    0 -0.28413623371E+02 -0.14853996874E+02  0.12222013745E+02  0.17460467587E+03  0.17120000000E+03 0.  0.
        998    1    1    2    0    0 -0.12747647890E+01 -0.48919160773E+00  0.14285805534E+04  0.14286162052E+04  0.10000000000E+02 0.  1.
</event>
<event>
 5    1  0.1218060E-008  0.3833176E+03  0.7957747E-01  0.3436839E+00
         13   -1    0    0    0    0  0.00000000000E+00  0.00000000000E+00  0.14999999963E+04  0.15000000000E+04  0.10566000000E+00 0.  1.
        994   -1    0    0    0    0 -0.00000000000E+00 -0.00000000000E+00  0.11368683772E-12  0.17120000000E+03  0.17120000000E+03 0.  0.
         13    1    1    2    0    0  0.85140161751E+00 -0.18542404678E+02  0.74545641840E+02  0.76821933959E+02  0.10566000000E+00 0.  1.
        994    1    1    2    0    0 -0.30135588940E+02 -0.18136780730E+01  0.54874243982E+01  0.17392813164E+03  0.17120000000E+03 0.  0.
        998    1    1    2    0    0  0.29284187322E+02  0.20356082751E+02  0.14199669300E+04  0.14204499344E+04  0.10000000000E+02 0.  1.
</event>
<event>
 5    1  0.1218060E-008  0.4261286E+03  0.7957747E-01  0.3272009E+00
         13   -1    0    0    0    0  0.00000000000E+00  0.00000000000E+00  0.14999999963E+04  0.15000000000E+04  0.10566000000E+00 0. -1.
        994   -1    0    0    0    0 -0.00000000000E+00 -0.00000000000E+00  0.11368683772E-12  0.17120000000E+03  0.17120000000E+03 0.  0.
         13    1    1    2    0    0  0.22933432122E+02 -0.78029079684E+02  0.62114439809E+02  0.10233618315E+03  0.10566000000E+00 0. -1.
        994    1    1    2    0    0 -0.81715356084E+02  0.31741804000E+02  0.79077342619E+02  0.20796059160E+03  0.17120000000E+03 0.  0.
        998    1    1    2    0    0  0.58781923962E+02  0.46287275684E+02  0.13588082139E+04  0.13609032253E+04  0.10000000000E+02 0. -1.
</event>
<event>
 5    1  0.1218060E-008  0.3756798E+03  0.7957747E-01  0.3470188E+00
         13   -1    0    0    0    0  0.00000000000E+00  0.00000000000E+00  0.14999999963E+04  0.15000000000E+04  0.10566000000E+00 0.  1.
        994   -1    0    0    0    0 -0.00000000000E+00 -0.00000000000E+00  0.11368683772E-12  0.17120000000E+03  0.17120000000E+03 0.  0.
         13    1    1    2    0    0  0.28056417971E+02  0.38474393515E+02  0.17841194561E+03  0.18465718249E+03  0.10566000000E+00 0.  1.
        994    1    1    2    0    0 -0.16160191872E+02 -0.20860652811E+02  0.86951493776E+01  0.17343980010E+03  0.17120000000E+03 0.  0.
        998    1    1    2    0    0 -0.11896226098E+02 -0.17613740704E+02  0.13128929013E+04  0.13131030174E+04  0.10000000000E+02 0.  1.
</event>
<event>
 5    1  0.1218060E-008  0.3753771E+03  0.7957747E-01  0.3471538E+00
         13   -1    0    0    0    0  0.00000000000E+00  0.00000000000E+00  0.14999999963E+04  0.15000000000E+04  0.10566000000E+00 0.  1.
        994   -1    0    0    0    0 -0.00000000000E+00 -0.00000000000E+00  0.11368683772E-12  0.17120000000E+03  0.17120000000E+03 0.  0.
         13    1    1    2    0    0  0.29633165910E+03 -0.12402497739E+03  0.96336287855E+03  0.10155110507E+04  0.10566000000E+00 0.  1.
        994    1    1    2    0    0 -0.27248129762E+03  0.13100300993E+03  0.47523463196E+03  0.58869792048E+03  0.17120000000E+03 0.  0.
        998    1    1    2    0    0 -0.23850361480E+02 -0.69780325446E+01  0.61402485778E+02  0.66991028807E+02  0.10000000000E+02 0.  0.
</event>
<event>
 5    1  0.1218060E-008  0.3770383E+03  0.7957747E-01  0.3464157E+00
         13   -1    0    0    0    0  0.00000000000E+00  0.00000000000E+00  0.14999999963E+04  0.15000000000E+04  0.10566000000E+00 0.  1.
        994   -1    0    0    0    0 -0.00000000000E+00 -0.00000000000E+00  0.11368683772E-12  0.17120000000E+03  0.17120000000E+03 0.  0.
         13    1    1    2    0    0  0.27052954122E+02 -0.19537767267E+02  0.10201523162E+03  0.10733454860E+03  0.10566000000E+00 0.  1.
        994    1    1    2    0    0 -0.16752124733E+00  0.15108715388E+02  0.64068240934E+01  0.17198485032E+03  0.17120000000E+03 0.  0.
        998    1    1    2    0    0 -0.26885432874E+02  0.44290518785E+01  0.13915779406E+04  0.13918806011E+04  0.10000000000E+02 0.  1.
</event>
<event>
 5    1  0.1218060E-008  0.3732417E+03  0.7957747E-01  0.3481124E+00
         13   -1    0    0    0    0  0.00000000000E+00  0.00000000000E+00  0.14999999963E+04  0.15000000000E+04  0.10566000000E+00 0. -1.
        994   -1    0    0    0    0 -0.00000000000E+00 -0.00000000000E+00  0.11368683772E-12  0.17120000000E+03  0.17120000000E+03 0.  0.
         13    1    1    2    0    0  0.87399816526E+01  0.79460429550E+01  0.56946255508E+01  0.13113611331E+02  0.10566000000E+00 0. -1.
        994    1    1    2    0    0 -0.63808659110E+01 -0.82334279456E+01  0.79555262418E+01  0.17170100519E+03  0.17120000000E+03 0.  0.
        998    1    1    2    0    0 -0.23591157416E+01  0.28738499052E+00  0.14863498445E+04  0.14863853835E+04  0.10000000000E+02 0. -1.
</event>
<event>
 5    1  0.1218060E-008  0.3705526E+03  0.7957747E-01  0.3493355E+00
         13   -1    0    0    0    0  0.00000000000E+00  0.00000000000E+00  0.14999999963E+04  0.15000000000E+04  0.10566000000E+00 0. -1.
        994   -1    0    0    0    0 -0.00000000000E+00 -0.00000000000E+00  0.11368683772E-12  0.17120000000E+03  0.17120000000E+03 0.  0.
         13    1    1    2    0    0 -0.63812070915E+02 -0.64062399614E+02  0.39746075850E+03  0.40761628666E+03  0.10566000000E+00 0. -1.
        994    1    1    2    0    0  0.11900882177E+03 -0.48910703540E+01  0.59660420083E+02  0.21692355325E+03  0.17120000000E+03 0.  0.
        998    1    1    2    0    0 -0.55196750859E+02  0.68953469968E+02  0.10428788177E+04  0.10466601601E+04  0.10000000000E+02 0. -1.
</event>
<event>
 5    1  0.1218060E-008  0.3818456E+03  0.7957747E-01  0.3443162E+00
         13   -1    0    0    0    0  0.00000000000E+00  0.00000000000E+00  0.14999999963E+04  0.15000000000E+04  0.10566000000E+00 0. -1.
        994   -1    0    0    0    0 -0.00000000000E+00 -0.00000000000E+00  0.11368683772E-12  0.17120000000E+03  0.17120000000E+03 0.  0.
         13    1    1    2    0    0  0.86702126367E+01  0.12394948601E+02  0.33982221108E+02  0.37196906504E+02  0.10566000000E+00 0. -1.
        994    1    1    2    0    0 -0.11887599058E+02 -0.97382358260E+01  0.39894256729E+01  0.17193459153E+03  0.17120000000E+03 0.  0.
        998    1    1    2    0    0  0.32173864216E+01 -0.26567127747E+01  0.14620283495E+04  0.14620685020E+04  0.10000000000E+02 0. -1.
</event>
<event>
 5    1  0.1218060E-008  0.3825029E+03  0.7957747E-01  0.3440332E+00
         13   -1    0    0    0    0  0.00000000000E+00  0.00000000000E+00  0.14999999963E+04  0.15000000000E+04  0.10566000000E+00 0.  1.
        994   -1    0    0    0    0 -0.00000000000E+00 -0.00000000000E+00  0.11368683772E-12  0.17120000000E+03  0.17120000000E+03 0.  0.
         13    1    1    2    0    0  0.45617251342E+01 -0.25614916180E+02  0.12225594164E+03  0.12499383864E+03  0.10566000000E+00 0.  1.
        994    1    1    2    0    0 -0.52110514543E+01  0.82987205219E+01  0.31934334567E+01  0.17150994676E+03  0.17120000000E+03 0.  0.
        998    1    1    2    0    0  0.64932632010E+00  0.17316195658E+02  0.13745506212E+04  0.13746962146E+04  0.10000000000E+02 0.  1.
</event>
<event>
 5    1  0.1218060E-008  0.3766056E+03  0.7957747E-01  0.3466073E+00
         13   -1    0    0    0    0  0.00000000000E+00  0.00000000000E+00  0.14999999963E+04  0.15000000000E+04  0.10566000000E+00 0.  1.
        994   -1    0    0    0    0 -0.00000000000E+00 -0.00000000000E+00  0.11368683772E-12  0.17120000000E+03  0.17120000000E+03 0.  0.
         13    1    1    2    0    0 -0.96739493461E+01  0.16678635165E+02  0.28639492143E+02  0.34525263810E+02  0.10566000000E+00 0.  1.
        994    1    1    2    0    0  0.80996258401E+01 -0.20578095638E+02  0.75117518022E+01  0.17278578753E+03  0.17120000000E+03 0.  0.
        998    1    1    2    0    0  0.15743235061E+01  0.38994604727E+01  0.14638487523E+04  0.14638889487E+04  0.10000000000E+02 0.  1.
</event>
<event>
 5    1  0.1218060E-008  0.3756625E+03  0.7957747E-01  0.3470265E+00
         13   -1    0    0    0    0  0.00000000000E+00  0.00000000000E+00  0.14999999963E+04  0.15000000000E+04  0.10566000000E+00 0. -1.
        994   -1    0    0    0    0 -0.00000000000E+00 -0.00000000000E+00  0.11368683772E-12  0.17120000000E+03  0.17120000000E+03 0.  0.
         13    1    1    2    0    0 -0.85269234394E+02  0.64889691320E+02  0.60675531129E+03  0.61614408487E+03  0.10566000000E+00 0. -1.
        994    1    1    2    0    0  0.70097595108E+02 -0.67533253020E+02  0.39182320901E+02  0.20079618367E+03  0.17120000000E+03 0.  0.
        998    1    1    2    0    0  0.15171639286E+02  0.26435617004E+01  0.85406236408E+03  0.85425973146E+03  0.10000000000E+02 0. -1.
</event>
<event>
 5    1  0.1218060E-008  0.3726296E+03  0.7957747E-01  0.3483892E+00
         13   -1    0    0    0    0  0.00000000000E+00  0.00000000000E+00  0.14999999963E+04  0.15000000000E+04  0.10566000000E+00 0. -1.
        994   -1    0    0    0    0 -0.00000000000E+00 -0.00000000000E+00  0.11368683772E-12  0.17120000000E+03  0.17120000000E+03 0.  0.
         13    1    1    2    0    0  0.23895417552E+02 -0.68325495545E+01  0.34697246857E+02  0.42680028314E+02  0.10566000000E+00 0. -1.
        994    1    1    2    0    0 -0.31174761361E+02 -0.19796677283E+01  0.11251970511E+02  0.17438988408E+03  0.17120000000E+03 0.  0.
        998    1    1    2    0    0  0.72793438091E+01  0.88122172828E+01  0.14540507789E+04  0.14541300876E+04  0.10000000000E+02 0. -1.
</event>
<event>
 5    1  0.1218060E-008  0.3686409E+03  0.7957747E-01  0.3502160E+00
         13   -1    0    0    0    0  0.00000000000E+00  0.00000000000E+00  0.14999999963E+04  0.15000000000E+04  0.10566000000E+00 0. -1.
        994   -1    0    0    0    0 -0.00000000000E+00 -0.00000000000E+00  0.11368683772E-12  0.17120000000E+03  0.17120000000E+03 0.  0.
         13    1    1    2    0    0 -0.65763248685E+02  0.11983968730E+02  0.20762021220E+03  0.21811598763E+03  0.10566000000E+00 0. -1.
        994    1    1    2    0    0  0.46128691746E+02 -0.68914335024E+01  0.17829446619E+02  0.17833305141E+03  0.17120000000E+03 0.  0.
        998    1    1    2    0    0  0.19634556939E+02 -0.50925352271E+01  0.12745503375E+04  0.12747509610E+04  0.10000000000E+02 0. -1.
</event>
<event>
 5    1  0.1218060E-008  0.3762109E+03  0.7957747E-01  0.3467825E+00
         13   -1    0    0    0    0  0.00000000000E+00  0.00000000000E+00  0.14999999963E+04  0.15000000000E+04  0.10566000000E+00 0.  1.
        994   -1    0    0    0    0 -0.00000000000E+00 -0.00000000000E+00  0.11368683772E-12  0.17120000000E+03  0.17120000000E+03 0.  0.
         13    1    1    2    0    0  0.21817692798E+02 -0.90843846451E+01  0.43133521705E+02  0.49183834968E+02  0.10566000000E+00 0.  1.
        994    1    1    2    0    0 -0.18440283113E+02  0.76553445232E+01  0.74089528362E+01  0.17251950882E+03  0.17120000000E+03 0.  0.
        998    1    1    2    0    0 -0.33774096851E+01  0.14290401219E+01  0.14494575217E+04  0.14494966562E+04  0.10000000000E+02 0.  1.
</event>
<event>
 5    1  0.1685510E-008  0.3859637E+03  0.7957747E-01  0.3425595E+00
         13   -1    0    0    0    0  0.00000000000E+00  0.00000000000E+00  0.14999999963E+04  0.15000000000E+04  0.10566000000E+00 0. -1.
        994   -1    0    0    0    0 -0.00000000000E+00 -0.00000000000E+00  0.11368683772E-12  0.17120000000E+03  0.17120000000E+03 0.  0.
         13    1    1    2    0    0  0.95542109353E+01 -0.46927110616E+01  0.48317816515E+02  0.49476530198E+02  0.10566000000E+00 0. -1.
        994    1    1    2    0    0 -0.11260851303E+02  0.33113936320E+01  0.16042513245E+01  0.17160939870E+03  0.17120000000E+03 0.  0.
        998    1    1    2    0    0  0.17066403678E+01  0.13813174296E+01  0.14500779284E+04  0.14501140711E+04  0.10000000000E+02 0. -1.
</event>
<event>
 5    1  0.1218060E-008  0.3688327E+03  0.7957747E-01  0.3501273E+00
         13   -1    0    0    0    0  0.00000000000E+00  0.00000000000E+00  0.14999999963E+04  0.15000000000E+04  0.10566000000E+00 0. -1.
        994   -1    0    0    0    0 -0.00000000000E+00 -0.00000000000E+00  0.11368683772E-12  0.17120000000E+03  0.17120000000E+03 0.  0.
         13    1    1    2    0    0  0.86757862543E+02 -0.14770662922E+02  0.31789871207E+03  0.32985557673E+03  0.10566000000E+00 0. -1.
        994    1    1    2    0    0 -0.81186980227E+02  0.10888091406E+02  0.33550770025E+02  0.19273030499E+03  0.17120000000E+03 0.  0.
        998    1    1    2    0    0 -0.55708823157E+01  0.38825715154E+01  0.11485505142E+04  0.11486141183E+04  0.10000000000E+02 0.  0.
</event>
<event>
 5    1  0.1218060E-008  0.3814176E+03  0.7957747E-01  0.3445009E+00
         13   -1    0    0    0    0  0.00000000000E+00  0.00000000000E+00  0.14999999963E+04  0.15000000000E+04  0.10566000000E+00 0. -1.
        994   -1    0    0    0    0 -0.00000000000E+00 -0.00000000000E+00  0.11368683772E-12  0.17120000000E+03  0.17120000000E+03 0.  0.
         13    1    1    2    0    0 -0.31558400401E+01 -0.11101018533E+02  0.18181076603E+02  0.21534963416E+02  0.10566000000E+00 0. -1.
        994    1    1    2    0    0 -0.20694137379E+01  0.69140236044E+01  0.35925818903E+01  0.17138971043E+03  0.17120000000E+03 0.  0.
        998    1    1    2    0    0  0.52252537780E+01  0.41869949287E+01  0.14782263378E+04  0.14782753262E+04  0.10000000000E+02 0. -1.
</event>
<event>
 5    1  0.1218060E-008  0.3818840E+03  0.7957747E-01  0.3442996E+00
         13   -1    0    0    0    0  0.00000000000E+00  0.00000000000E+00  0.14999999963E+04  0.15000000000E+04  0.10566000000E+00 0. -1.
        994   -1    0    0    0    0 -0.00000000000E+00 -0.00000000000E+00  0.11368683772E-12  0.17120000000E+03  0.17120000000E+03 0.  0.
         13    1    1    2    0    0  0.28896089179E+02 -0.65941478875E+00  0.12396453740E+03  0.12728957732E+03  0.10566000000E+00 0. -1.
        994    1    1    2    0    0 -0.25122536317E+02 -0.59824584135E+01  0.54039742810E+01  0.17322117243E+03  0.17120000000E+03 0.  0.
        998    1    1    2    0    0 -0.37735528618E+01  0.66418732022E+01  0.13706314846E+04  0.13706892503E+04  0.10000000000E+02 0. -1.
</event>
<event>
 5    1  0.1218060E-008  0.4147607E+03  0.7957747E-01  0.3312494E+00
         13   -1    0    0    0    0  0.00000000000E+00  0.00000000000E+00  0.14999999963E+04  0.15000000000E+04  0.10566000000E+00 0.  1.
        994   -1    0    0    0    0 -0.00000000000E+00 -0.00000000000E+00  0.11368683772E-12  0.17120000000E+03  0.17120000000E+03 0.  0.
         13    1    1    2    0    0 -0.88962330443E+02 -0.94317022027E+02  0.18346345944E+03  0.22465272977E+03  0.10566000000E+00 0.  1.
        994    1    1    2    0    0  0.93584434264E+02  0.96776058660E+02  0.11751568349E+03  0.24747328691E+03  0.17120000000E+03 0.  0.
        998    1    1    2    0    0 -0.46221038206E+01 -0.24590366325E+01  0.11990208533E+04  0.11990739833E+04  0.10000000000E+02 0.  1.
</event>
<event>
 5    1  0.1218060E-008  0.3836420E+03  0.7957747E-01  0.3435452E+00
         13   -1    0    0    0    0  0.00000000000E+00  0.00000000000E+00  0.14999999963E+04  0.15000000000E+04  0.10566000000E+00 0. -1.
        994   -1    0    0    0    0 -0.00000000000E+00 -0.00000000000E+00  0.11368683772E-12  0.17120000000E+03  0.17120000000E+03 0.  0.
         13    1    1    2    0    0 -0.46173388949E+01 -0.10407178944E+02  0.27027878026E+02  0.29328255091E+02  0.10566000000E+00 0. -1.
        994    1    1    2    0    0  0.13033370598E+01  0.11902728938E+02  0.27796067721E+01  0.17164072902E+03  0.17120000000E+03 0.  0.
        998    1    1    2    0    0  0.33140018351E+01 -0.14955499940E+01  0.14701925115E+04  0.14702310159E+04  0.10000000000E+02 0. -1.
</event>
<event>
 5    1  0.1218060E-008  0.3846235E+03  0.7957747E-01  0.3431271E+00
         13   -1    0    0    0    0  0.00000000000E+00  0.00000000000E+00  0.14999999963E+04  0.15000000000E+04  0.10566000000E+00 0.  1.
        994   -1    0    0    0    0 -0.00000000000E+00 -0.00000000000E+00  0.11368683772E-12  0.17120000000E+03  0.17120000000E+03 0.  0.
         13    1    1    2    0    0 -0.94142795039E+01 -0.13894887587E+02  0.73869562755E+02  0.75752359866E+02  0.10566000000E+00 0.  1.
        994    1    1    2    0    0  0.13590854256E+02  0.12722391921E+02  0.29591655051E+01  0.17223462845E+03  0.17120000000E+03 0.  0.
        998    1    1    2    0    0 -0.41765747525E+01  0.11724956657E+01  0.14231712680E+04  0.14232130117E+04  0.10000000000E+02 0.  1.
</event>
<event>
 5    1  0.1218060E-008  0.3778908E+03  0.7957747E-01  0.3460394E+00
         13   -1    0    0    0    0  0.00000000000E+00  0.00000000000E+00  0.14999999963E+04  0.15000000000E+04  0.10566000000E+00 0.  1.
        994   -1    0    0    0    0 -0.00000000000E+00 -0.00000000000E+00  0.11368683772E-12  0.17120000000E+03  0.17120000000E+03 0.  0.
         13    1    1    2    0    0 -0.14825702157E+02 -0.57091705589E+02  0.28236165380E+03  0.28845689278E+03  0.10566000000E+00 0.  1.
        994    1    1    2    0    0  0.18418733934E+02  0.51352557231E+02  0.15287473050E+02  0.18033158826E+03  0.17120000000E+03 0.  0.
        998    1    1    2    0    0 -0.35930317770E+01  0.57391483577E+01  0.12023508694E+04  0.12024115190E+04  0.10000000000E+02 0.  1.
</event>
<event>
 5    1  0.1218060E-008  0.3829254E+03  0.7957747E-01  0.3438519E+00
         13   -1    0    0    0    0  0.00000000000E+00  0.00000000000E+00  0.14999999963E+04  0.15000000000E+04  0.10566000000E+00 0.  1.
        994   -1    0    0    0    0 -0.00000000000E+00 -0.00000000000E+00  0.11368683772E-12  0.17120000000E+03  0.17120000000E+03 0.  0.
         13    1    1    2    0    0  0.23582170515E+02 -0.14100967611E+02  0.13400821935E+03  0.13679608939E+03  0.10566000000E+00 0.  1.
        994    1    1    2    0    0 -0.21319558274E+02  0.10146277129E+02  0.45115493344E+01  0.17287933532E+03  0.17120000000E+03 0.  0.
        998    1    1    2    0    0 -0.22626122403E+01  0.39546904823E+01  0.13614802276E+04  0.13615245753E+04  0.10000000000E+02 0.  1.
</event>
<event>
 5    1  0.1218060E-008  0.3830126E+03  0.7957747E-01  0.3438145E+00
         13   -1    0    0    0    0  0.00000000000E+00  0.00000000000E+00  0.14999999963E+04  0.15000000000E+04  0.10566000000E+00 0. -1.
        994   -1    0    0    0    0 -0.00000000000E+00 -0.00000000000E+00  0.11368683772E-12  0.17120000000E+03  0.17120000000E+03 0.  0.
         13    1    1    2    0    0 -0.10532702221E+02  0.13151265296E+01  0.20932743152E+02  0.23470370124E+02  0.10566000000E+00 0. -1.
        994    1    1    2    0    0 -0.21698138844E-01 -0.10904198320E+02  0.30137553463E+01  0.17157338002E+03  0.17120000000E+03 0.  0.
        998    1    1    2    0    0  0.10554400360E+02  0.95890717901E+01  0.14760534978E+04  0.14761562499E+04  0.10000000000E+02 0. -1.
</event>
<event>
 5    1  0.1218060E-008  0.3835351E+03  0.7957747E-01  0.3435909E+00
         13   -1    0    0    0    0  0.00000000000E+00  0.00000000000E+00  0.14999999963E+04  0.15000000000E+04  0.10566000000E+00 0.  1.
        994   -1    0    0    0    0 -0.00000000000E+00 -0.00000000000E+00  0.11368683772E-12  0.17120000000E+03  0.17120000000E+03 0.  0.
         13    1    1    2    0    0 -0.15072452963E+02  0.17856512659E+02  0.10788934068E+03  0.11039091846E+03  0.10566000000E+00 0.  1.
        994    1    1    2    0    0  0.13625376487E+02 -0.19882421627E+02  0.42812421430E+01  0.17294140802E+03  0.17120000000E+03 0.  0.
        998    1    1    2    0    0  0.14470764754E+01  0.20259089675E+01  0.13878294135E+04  0.13878676735E+04  0.10000000000E+02 0.  0.
</event>
<event>
 5    1  0.1218060E-008  0.3785900E+03  0.7957747E-01  0.3457321E+00
         13   -1    0    0    0    0  0.00000000000E+00  0.00000000000E+00  0.14999999963E+04  0.15000000000E+04  0.10566000000E+00 0.  1.
        994   -1    0    0    0    0 -0.00000000000E+00 -0.00000000000E+00  0.11368683772E-12  0.17120000000E+03  0.17120000000E+03 0.  0.
         13    1    1    2    0    0 -0.12727871620E+02 -0.37800410253E+02  0.14163379330E+03  0.14714282959E+03  0.10566000000E+00 0.  1.
        994    1    1    2    0    0  0.36737757361E+02  0.38591304439E+02  0.14441275145E+02  0.17988035474E+03  0.17120000000E+03 0.  0.
        998    1    1    2    0    0 -0.24009885741E+02 -0.79089418528E+00  0.13439249278E+04  0.13441768157E+04  0.10000000000E+02 0.  1.
</event>
<event>
 5    1  0.1218060E-008  0.3854820E+03  0.7957747E-01  0.3427631E+00
         13   -1    0    0    0    0  0.00000000000E+00  0.00000000000E+00  0.14999999963E+04  0.15000000000E+04  0.10566000000E+00 0.  1.
        994   -1    0    0    0    0 -0.00000000000E+00 -0.00000000000E+00  0.11368683772E-12  0.17120000000E+03  0.17120000000E+03 0.  0.
         13    1    1    2    0    0 -0.55314060144E+01 -0.17057259647E+02  0.10797461836E+03  0.10945353322E+03  0.10566000000E+00 0.  1.
        994    1    1    2    0    0  0.24193782328E+01  0.19953747799E+02  0.27187273059E+01  0.17239732283E+03  0.17120000000E+03 0.  0.
        998    1    1    2    0    0  0.31120277816E+01 -0.28964881526E+01  0.13893066506E+04  0.13893491439E+04  0.10000000000E+02 0.  1.
</event>
<event>
 5    1  0.1218060E-008  0.3720966E+03  0.7957747E-01  0.3486311E+00
         13   -1    0    0    0    0  0.00000000000E+00  0.00000000000E+00  0.14999999963E+04  0.15000000000E+04  0.10566000000E+00 0.  1.
        994   -1    0    0    0    0 -0.00000000000E+00 -0.00000000000E+00  0.11368683772E-12  0.17120000000E+03  0.17120000000E+03 0.  0.
         13    1    1    2    0    0 -0.29873026917E+02 -0.42808477240E+02  0.18036843103E+03  0.18777045970E+03  0.10566000000E+00 0.  1.
        994    1    1    2    0    0  0.94807745681E+01  0.87614789935E+01  0.87495928117E+01  0.17190882460E+03  0.17120000000E+03 0.  0.
        998    1    1    2    0    0  0.20392252349E+02  0.34046998246E+02  0.13108819724E+04  0.13115207157E+04  0.10000000000E+02 0.  1.
</event>
<event>
 5    1  0.1218060E-008  0.3852476E+03  0.7957747E-01  0.3428623E+00
         13   -1    0    0    0    0  0.00000000000E+00  0.00000000000E+00  0.14999999963E+04  0.15000000000E+04  0.10566000000E+00 0. -1.
        994   -1    0    0    0    0 -0.00000000000E+00 -0.00000000000E+00  0.11368683772E-12  0.17120000000E+03  0.17120000000E+03 0.  0.
         13    1    1    2    0    0 -0.22836963229E+01 -0.15491158672E+02  0.75078286286E+02  0.76693881774E+02  0.10566000000E+00 0. -1.
        994    1    1    2    0    0  0.13058775810E+01  0.22165541389E+02  0.31289941557E+01  0.17266223428E+03  0.17120000000E+03 0.  0.
        998    1    1    2    0    0  0.97781874192E+00 -0.66743827176E+01  0.14217927158E+04  0.14218438839E+04  0.10000000000E+02 0. -1.
</event>
<event>
 5    1  0.1267213E-008  0.3853845E+03  0.7957747E-01  0.3428043E+00
         13   -1    0    0    0    0  0.00000000000E+00  0.00000000000E+00  0.14999999963E+04  0.15000000000E+04  0.10566000000E+00 0.  1.
        994   -1    0    0    0    0 -0.00000000000E+00 -0.00000000000E+00  0.11368683772E-12  0.17120000000E+03  0.17120000000E+03 0.  0.
         13    1    1    2    0    0  0.11003701740E+02 -0.38856507827E+01  0.47951990042E+02  0.49351638747E+02  0.10566000000E+00 0.  1.
        994    1    1    2    0    0 -0.43933083933E+01  0.55301329641E+01  0.16032382706E+01  0.17135312633E+03  0.17120000000E+03 0.  0.
        998    1    1    2    0    0 -0.66103933464E+01 -0.16444821814E+01  0.14504447680E+04  0.14504952349E+04  0.10000000000E+02 0.  1.
</event>
<event>
 5    1  0.1218060E-008  0.3775760E+03  0.7957747E-01  0.3461781E+00
         13   -1    0    0    0    0  0.00000000000E+00  0.00000000000E+00  0.14999999963E+04  0.15000000000E+04  0.10566000000E+00 0. -1.
        994   -1    0    0    0    0 -0.00000000000E+00 -0.00000000000E+00  0.11368683772E-12  0.17120000000E+03  0.17120000000E+03 0.  0.
         13    1    1    2    0    0  0.76073086045E+02  0.13545525690E+02  0.39383114172E+03  0.40133972522E+03  0.10566000000E+00 0. -1.
        994    1    1    2    0    0 -0.87534187518E+02  0.18328150886E+02  0.32807628251E+02  0.19591818591E+03  0.17120000000E+03 0.  0.
        998    1    1    2    0    0  0.11461101473E+02 -0.31873676575E+02  0.10733612263E+04  0.10739420889E+04  0.10000000000E+02 0. -1.
</event>
<event>
 5    1  0.1218060E-008  0.3843853E+03  0.7957747E-01  0.3432284E+00
         13   -1    0    0    0    0  0.00000000000E+00  0.00000000000E+00  0.14999999963E+04  0.15000000000E+04  0.10566000000E+00 0. -1.
        994   -1    0    0    0    0 -0.00000000000E+00 -0.00000000000E+00  0.11368683772E-12  0.17120000000E+03  0.17120000000E+03 0.  0.
         13    1    1    2    0    0  0.80171768200E+01  0.14998896223E+02  0.77127795059E+02  0.78980693506E+02  0.10566000000E+00 0. -1.
        994    1    1    2    0    0 -0.16613262258E+02  0.23220270156E+01  0.28634435454E+01  0.17204369097E+03  0.17120000000E+03 0.  0.
        998    1    1    2    0    0  0.85960854377E+01 -0.17320923239E+02  0.14200087577E+04  0.14201756155E+04  0.10000000000E+02 0. -1.
</event>
<event>
 5    1  0.1218060E-008  0.3792420E+03  0.7957747E-01  0.3454466E+00
         13   -1    0    0    0    0  0.00000000000E+00  0.00000000000E+00  0.14999999963E+04  0.15000000000E+04  0.10566000000E+00 0. -1.
        994   -1    0    0    0    0 -0.00000000000E+00 -0.00000000000E+00  0.11368683772E-12  0.17120000000E+03  0.17120000000E+03 0.  0.
         13    1    1    2    0    0 -0.96713008727E+01  0.26952351781E+01  0.91774707981E+01  0.13602774993E+02  0.10566000000E+00 0. -1.
        994    1    1    2    0    0  0.67823913761E+01  0.46638892919E+01  0.47433586618E+01  0.17146338428E+03  0.17120000000E+03 0.  0.
        998    1    1    2    0    0  0.28889094966E+01 -0.73591244700E+01  0.14860791668E+04  0.14861338407E+04  0.10000000000E+02 0. -1.
</event>
<event>
 5    1  0.1218060E-008  0.3790503E+03  0.7957747E-01  0.3455304E+00
         13   -1    0    0    0    0  0.00000000000E+00  0.00000000000E+00  0.14999999963E+04  0.15000000000E+04  0.10566000000E+00 0. -1.
        994   -1    0    0    0    0 -0.00000000000E+00 -0.00000000000E+00  0.11368683772E-12  0.17120000000E+03  0.17120000000E+03 0.  0.
         13    1    1    2    0    0  0.78925704251E+01 -0.90756204657E+01  0.13098646264E+02  0.17783285769E+02  0.10566000000E+00 0. -1.
        994    1    1    2    0    0 -0.25173280157E+02  0.12542859222E+02  0.72705015488E+01  0.17364710635E+03  0.17120000000E+03 0.  0.
        998    1    1    2    0    0  0.17280709732E+02 -0.34672387567E+01  0.14796308485E+04  0.14797696079E+04  0.10000000000E+02 0. -1.
</event>
<event>
 5    1  0.1218060E-008  0.3684413E+03  0.7957747E-01  0.3503085E+00
         13   -1    0    0    0    0  0.00000000000E+00  0.00000000000E+00  0.14999999963E+04  0.15000000000E+04  0.10566000000E+00 0.  1.
        994   -1    0    0    0    0 -0.00000000000E+00 -0.00000000000E+00  0.11368683772E-12  0.17120000000E+03  0.17120000000E+03 0.  0.
         13    1    1    2    0    0 -0.42831255368E+02 -0.17350793574E+02  0.10836188178E+03  0.11780439322E+03  0.10566000000E+00 0.  1.
        994    1    1    2    0    0  0.67570539926E+01  0.20370535592E+02  0.11688974924E+02  0.17293550426E+03  0.17120000000E+03 0.  0.
        998    1    1    2    0    0  0.36074201375E+02 -0.30197420183E+01  0.13799491396E+04  0.13804601025E+04  0.10000000000E+02 0.  1.
</event>
<event>
 5    1  0.1218060E-008  0.3820838E+03  0.7957747E-01  0.3442135E+00
         13   -1    0    0    0    0  0.00000000000E+00  0.00000000000E+00  0.14999999963E+04  0.15000000000E+04  0.10566000000E+00 0. -1.
        994   -1    0    0    0    0 -0.00000000000E+00 -0.00000000000E+00  0.11368683772E-12  0.17120000000E+03  0.17120000000E+03 0.  0.
         13    1    1    2    0    0 -0.14587644995E+02 -0.20756138408E+01  0.33452482223E+02  0.36553895692E+02  0.10566000000E+00 0. -1.
        994    1    1    2    0    0  0.15331373258E+02  0.85048247503E-01  0.38657326761E+01  0.17192859602E+03  0.17120000000E+03 0.  0.
        998    1    1    2    0    0 -0.74372826252E+00  0.19905655933E+01  0.14626817814E+04  0.14627175083E+04  0.10000000000E+02 0. -1.
</event>
<event>
 5    1  0.1218060E-008  0.3809271E+03  0.7957747E-01  0.3447132E+00
         13   -1    0    0    0    0  0.00000000000E+00  0.00000000000E+00  0.14999999963E+04  0.15000000000E+04  0.10566000000E+00 0.  1.
        994   -1    0    0    0    0 -0.00000000000E+00 -0.00000000000E+00  0.11368683772E-12  0.17120000000E+03  0.17120000000E+03 0.  0.
         13    1    1    2    0    0  0.18624733162E+02  0.19843226962E+02  0.92061490670E+02  0.95999810261E+02  0.10566000000E+00 0.  1.
        994    1    1    2    0    0 -0.20133089040E+02 -0.25380126383E+02  0.71714339262E+01  0.17438566900E+03  0.17120000000E+03 0.  0.
        998    1    1    2    0    0  0.15083558781E+01  0.55368994211E+01  0.14007670717E+04  0.14008145207E+04  0.10000000000E+02 0.  1.
</event>
<event>
 5    1  0.1218060E-008  0.3792530E+03  0.7957747E-01  0.3454417E+00
         13   -1    0    0    0    0  0.00000000000E+00  0.00000000000E+00  0.14999999963E+04  0.15000000000E+04  0.10566000000E+00 0.  1.
        994   -1    0    0    0    0 -0.00000000000E+00 -0.00000000000E+00  0.11368683772E-12  0.17120000000E+03  0.17120000000E+03 0.  0.
         13    1    1    2    0    0  0.31829071691E+02  0.36022365328E+02  0.20979906469E+03  0.21523559026E+03  0.10566000000E+00 0.  1.
        994    1    1    2    0    0 -0.28302942439E+02 -0.48513541671E+02  0.15155961716E+02  0.18081416828E+03  0.17120000000E+03 0.  0.
        998    1    1    2    0    0 -0.35261292515E+01  0.12491176342E+02  0.12750449699E+04  0.12751502415E+04  0.10000000000E+02 0. -1.
</event>
<event>
 5    1  0.1218060E-008  0.3817688E+03  0.7957747E-01  0.3443493E+00
         13   -1    0    0    0    0  0.00000000000E+00  0.00000000000E+00  0.14999999963E+04  0.15000000000E+04  0.10566000000E+00 0. -1.
        994   -1    0    0    0    0 -0.00000000000E+00 -0.00000000000E+00  0.11368683772E-12  0.17120000000E+03  0.17120000000E+03 0.  0.
         13    1    1    2    0    0 -0.24849280621E+02  0.11056299832E+02  0.14686829172E+03  0.14936544042E+03  0.10566000000E+00 0. -1.
        994    1    1    2    0    0 -0.16693141659E+02  0.10350312295E+02  0.45261559768E+01  0.17238247020E+03  0.17120000000E+03 0.  0.
        998    1    1    2    0    0  0.41542422280E+02 -0.21406612127E+02  0.13486055486E+04  0.13494520894E+04  0.10000000000E+02 0. -1.
</event>
<event>
 5    1  0.1218060E-008  0.3695566E+03  0.7957747E-01  0.3497931E+00
         13   -1    0    0    0    0  0.00000000000E+00  0.00000000000E+00  0.14999999963E+04  0.15000000000E+04  0.10566000000E+00 0. -1.
        994   -1    0    0    0    0 -0.00000000000E+00 -0.00000000000E+00  0.11368683772E-12  0.17120000000E+03  0.17120000000E+03 0.  0.
         13    1    1    2    0    0 -0.16164390721E+02 -0.71099977357E+01  0.12091647039E+02  0.21402305655E+02  0.10566000000E+00 0. -1.
        994    1    1    2    0    0  0.17114178440E+02  0.41686809768E+01  0.10576177227E+02  0.17242844466E+03  0.17120000000E+03 0.  0.
        998    1    1    2    0    0 -0.94978771968E+00  0.29413167589E+01  0.14773321720E+04  0.14773692497E+04  0.10000000000E+02 0. -1.
</event>
<event>
 5    1  0.1218060E-008  0.3816124E+03  0.7957747E-01  0.3444168E+00
         13   -1    0    0    0    0  0.00000000000E+00  0.00000000000E+00  0.14999999963E+04  0.15000000000E+04  0.10566000000E+00 0.  1.
        994   -1    0    0    0    0 -0.00000000000E+00 -0.00000000000E+00  0.11368683772E-12  0.17120000000E+03  0.17120000000E+03 0.  0.
         13    1    1    2    0    0  0.10118088370E+02 -0.84894628260E+01  0.25130582356E+02  0.28390210019E+02  0.10566000000E+00 0.  1.
        994    1    1    2    0    0 -0.41226827727E+01  0.61121892596E+01  0.35021999977E+01  0.17139445958E+03  0.17120000000E+03 0.  0.
        998    1    1    2    0    0 -0.59954055975E+01  0.23772735663E+01  0.14713672139E+04  0.14714153304E+04  0.10000000000E+02 0.  1.
</event>
<event>
 5    1  0.1218060E-008  0.3845932E+03  0.7957747E-01  0.3431399E+00
         13   -1    0    0    0    0  0.00000000000E+00  0.00000000000E+00  0.14999999963E+04  0.15000000000E+04  0.10566000000E+00 0.  1.
        994   -1    0    0    0    0 -0.00000000000E+00 -0.00000000000E+00  0.11368683772E-12  0.17120000000E+03  0.17120000000E+03 0.  0.
         13    1    1    2    0    0  0.89007674200E+01  0.16210407422E+02  0.95866412867E+02  0.97633914443E+02  0.10566000000E+00 0.  1.
        994    1    1    2    0    0 -0.58161097914E+01 -0.58015295870E+01  0.20544805368E+01  0.17140929312E+03  0.17120000000E+03 0.  0.
        998    1    1    2    0    0 -0.30846576286E+01 -0.10408877835E+02  0.14020791029E+04  0.14021567924E+04  0.10000000000E+02 0.  1.
</event>
<event>
 5    1  0.1218060E-008  0.3794991E+03  0.7957747E-01  0.3453343E+00
         13   -1    0    0    0    0  0.00000000000E+00  0.00000000000E+00  0.14999999963E+04  0.15000000000E+04  0.10566000000E+00 0. -1.
        994   -1    0    0    0    0 -0.00000000000E+00 -0.00000000000E+00  0.11368683772E-12  0.17120000000E+03  0.17120000000E+03 0.  0.
         13    1    1    2    0    0 -0.24148486299E+02 -0.52295918695E+01  0.68180591937E+02  0.72519668384E+02  0.10566000000E+00 0. -1.
        994    1    1    2    0    0  0.17821604077E+02 -0.11030089107E+02  0.58584852836E+01  0.17257761815E+03  0.17120000000E+03 0.  0.
        998    1    1    2    0    0  0.63268822222E+01  0.16259680977E+02  0.14259609191E+04  0.14261027135E+04  0.10000000000E+02 0. -1.
</event>
<event>
 5    1  0.1218060E-008  0.3850287E+03  0.7957747E-01  0.3429551E+00
         13   -1    0    0    0    0  0.00000000000E+00  0.00000000000E+00  0.14999999963E+04  0.15000000000E+04  0.10566000000E+00 0.  1.
        994   -1    0    0    0    0 -0.00000000000E+00 -0.00000000000E+00  0.11368683772E-12  0.17120000000E+03  0.17120000000E+03 0.  0.
         13    1    1    2    0    0  0.12617393150E+02 -0.38309357932E+01  0.46640064135E+02  0.48468354888E+02  0.10566000000E+00 0.  1.
        994    1    1    2    0    0 -0.25125106678E+02  0.43094661666E+02  0.98419058616E+01  0.17859094031E+03  0.17120000000E+03 0.  0.
        998    1    1    2    0    0  0.12507713528E+02 -0.39263725873E+02  0.14435180263E+04  0.14441407048E+04  0.10000000000E+02 0.  1.
</event>
<event>
 5    1  0.1218060E-008  0.3757467E+03  0.7957747E-01  0.3469890E+00
         13   -1    0    0    0    0  0.00000000000E+00  0.00000000000E+00  0.14999999963E+04  0.15000000000E+04  0.10566000000E+00 0.  1.
        994   -1    0    0    0    0 -0.00000000000E+00 -0.00000000000E+00  0.11368683772E-12  0.17120000000E+03  0.17120000000E+03 0.  0.
         13    1    1    2    0    0  0.13964274746E+02  0.23828007948E+02  0.61980242072E+02  0.67855261426E+02  0.10566000000E+00 0.  1.
        994    1    1    2    0    0  0.95564987557E+01 -0.53932684283E+01  0.67041438380E+01  0.17168226337E+03  0.17120000000E+03 0.  0.
        998    1    1    2    0    0 -0.23520773501E+02 -0.18434739520E+02  0.14313156104E+04  0.14316624752E+04  0.10000000000E+02 0.  1.
</event>
<event>
 5    1  0.1218060E-008  0.3832672E+03  0.7957747E-01  0.3437054E+00
         13   -1    0    0    0    0  0.00000000000E+00  0.00000000000E+00  0.14999999963E+04  0.15000000000E+04  0.10566000000E+00 0. -1.
        994   -1    0    0    0    0 -0.00000000000E+00 -0.00000000000E+00  0.11368683772E-12  0.17120000000E+03  0.17120000000E+03 0.  0.
         13    1    1    2    0    0 -0.11714026187E+02 -0.84001273060E+01  0.40471003812E+02  0.42961539333E+02  0.10566000000E+00 0. -1.
        994    1    1    2    0    0  0.53307822057E+01  0.13792056144E+02  0.32162914086E+01  0.17186745644E+03  0.17120000000E+03 0.  0.
        998    1    1    2    0    0  0.63832439812E+01 -0.53919288375E+01  0.14563127011E+04  0.14563710042E+04  0.10000000000E+02 0. -1.
</event>
<event>
 5    1  0.1218060E-008  0.3853827E+03  0.7957747E-01  0.3428051E+00
         13   -1    0    0    0    0  0.00000000000E+00  0.00000000000E+00  0.14999999963E+04  0.15000000000E+04  0.10566000000E+00 0. -1.
        994   -1    0    0    0    0 -0.00000000000E+00 -0.00000000000E+00  0.11368683772E-12  0.17120000000E+03  0.17120000000E+03 0.  0.
         13    1    1    2    0    0 -0.85928869236E+01 -0.60998407982E+01  0.37918340541E+02  0.39355526637E+02  0.10566000000E+00 0. -1.
        994    1    1    2    0    0  0.12591766388E+02  0.49719565078E+00  0.19620201772E+01  0.17167436998E+03  0.17120000000E+03 0.  0.
        998    1    1    2    0    0 -0.39988794641E+01  0.56026451474E+01  0.14601196356E+04  0.14601701034E+04  0.10000000000E+02 0. -1.
</event>
<event>
 5    1  0.1218060E-008  0.3839075E+03  0.7957747E-01  0.3434319E+00
         13   -1    0    0    0    0  0.00000000000E+00  0.00000000000E+00  0.14999999963E+04  0.15000000000E+04  0.10566000000E+00 0.  1.
        994   -1    0    0    0    0 -0.00000000000E+00 -0.00000000000E+00  0.11368683772E-12  0.17120000000E+03  0.17120000000E+03 0.  0.
         13    1    1    2    0    0 -0.49567997874E+01 -0.14123042882E+02  0.56166413794E+02  0.58126649713E+02  0.10566000000E+00 0.  1.
        994    1    1    2    0    0 -0.10308275342E+02 -0.51536588371E+01  0.26120139325E+01  0.17160735228E+03  0.17120000000E+03 0.  0.
        998    1    1    2    0    0  0.15265075129E+02  0.19276701719E+02  0.14412215686E+04  0.14414659980E+04  0.10000000000E+02 0.  1.
</event>
<event>
 5    1  0.1218060E-008  0.3814387E+03  0.7957747E-01  0.3444918E+00
         13   -1    0    0    0    0  0.00000000000E+00  0.00000000000E+00  0.14999999963E+04  0.15000000000E+04  0.10566000000E+00 0.  1.
        994   -1    0    0    0    0 -0.00000000000E+00 -0.00000000000E+00  0.11368683772E-12  0.17120000000E+03  0.17120000000E+03 0.  0.
         13    1    1    2    0    0  0.14949910676E+01 -0.18343803654E+02  0.51768112931E+02  0.54942504596E+02  0.10566000000E+00 0.  1.
        994    1    1    2    0    0 -0.81192949420E+01 -0.44452391803E+01  0.36937770683E+01  0.17148984545E+03  0.17120000000E+03 0.  0.
        998    1    1    2    0    0  0.66243038743E+01  0.22789042835E+02  0.14445381063E+04  0.14447676500E+04  0.10000000000E+02 0.  1.
</event>
<event>
 5    1  0.1218060E-008  0.3858316E+03  0.7957747E-01  0.3426153E+00
         13   -1    0    0    0    0  0.00000000000E+00  0.00000000000E+00  0.14999999963E+04  0.15000000000E+04  0.10566000000E+00 0.  1.
        994   -1    0    0    0    0 -0.00000000000E+00 -0.00000000000E+00  0.11368683772E-12  0.17120000000E+03  0.17120000000E+03 0.  0.
         13    1    1    2    0    0  0.10085769176E+02 -0.98297984760E+01  0.76874132594E+02  0.78153637818E+02  0.10566000000E+00 0.  1.
        994    1    1    2    0    0 -0.13777576695E+02  0.11298833248E+02  0.22598176767E+01  0.17213957136E+03  0.17120000000E+03 0.  0.
        998    1    1    2    0    0  0.36918075194E+01 -0.14690347716E+01  0.14208660460E+04  0.14209067908E+04  0.10000000000E+02 0.  1.
</event>
<event>
 5    1  0.1218060E-008  0.3733372E+03  0.7957747E-01  0.3480693E+00
         13   -1    0    0    0    0  0.00000000000E+00  0.00000000000E+00  0.14999999963E+04  0.15000000000E+04  0.10566000000E+00 0.  1.
        994   -1    0    0    0    0 -0.00000000000E+00 -0.00000000000E+00  0.11368683772E-12  0.17120000000E+03  0.17120000000E+03 0.  0.
         13    1    1    2    0    0  0.61614958631E+02  0.42027627857E+02  0.30968645093E+03  0.31854110203E+03  0.10566000000E+00 0.  1.
        994    1    1    2    0    0 -0.52304950542E+02 -0.41107537045E+02  0.22818014914E+02  0.18508306043E+03  0.17120000000E+03 0.  0.
        998    1    1    2    0    0 -0.93100080891E+01 -0.92009081246E+00  0.11674955304E+04  0.11675758375E+04  0.10000000000E+02 0.  1.
</event>
<event>
 5    1  0.1218060E-008  0.3819474E+03  0.7957747E-01  0.3442723E+00
         13   -1    0    0    0    0  0.00000000000E+00  0.00000000000E+00  0.14999999963E+04  0.15000000000E+04  0.10566000000E+00 0. -1.
        994   -1    0    0    0    0 -0.00000000000E+00 -0.00000000000E+00  0.11368683772E-12  0.17120000000E+03  0.17120000000E+03 0.  0.
         13    1    1    2    0    0 -0.13634218333E+02 -0.16788018275E+01  0.25428909971E+02  0.28902437812E+02  0.10566000000E+00 0. -1.
        994    1    1    2    0    0  0.48414904378E+02 -0.35448865598E+01  0.11020602140E+02  0.17829038914E+03  0.17120000000E+03 0.  0.
        998    1    1    2    0    0 -0.34780686045E+02  0.52236883872E+01  0.14635504842E+04  0.14640071731E+04  0.10000000000E+02 0. -1.
</event>
<event>
 5    1  0.1218060E-008  0.3816739E+03  0.7957747E-01  0.3443902E+00
         13   -1    0    0    0    0  0.00000000000E+00  0.00000000000E+00  0.14999999963E+04  0.15000000000E+04  0.10566000000E+00 0.  1.
        994   -1    0    0    0    0 -0.00000000000E+00 -0.00000000000E+00  0.11368683772E-12  0.17120000000E+03  0.17120000000E+03 0.  0.
         13    1    1    2    0    0 -0.22562801857E+02 -0.63444051692E+01  0.80525248305E+02  0.83866908154E+02  0.10566000000E+00 0.  1.
        994    1    1    2    0    0  0.17350640701E+02  0.89860146785E+01  0.45608508191E+01  0.17237179164E+03  0.17120000000E+03 0.  0.
        998    1    1    2    0    0  0.52121611560E+01 -0.26416095094E+01  0.14149138972E+04  0.14149613002E+04  0.10000000000E+02 0.  1.
</event>
<event>
 5    1  0.1218060E-008  0.3853892E+03  0.7957747E-01  0.3428023E+00
         13   -1    0    0    0    0  0.00000000000E+00  0.00000000000E+00  0.14999999963E+04  0.15000000000E+04  0.10566000000E+00 0. -1.
        994   -1    0    0    0    0 -0.00000000000E+00 -0.00000000000E+00  0.11368683772E-12  0.17120000000E+03  0.17120000000E+03 0.  0.
         13    1    1    2    0    0  0.22981641313E+01  0.14579306917E+02  0.76448802732E+02  0.77860569942E+02  0.10566000000E+00 0. -1.
        994    1    1    2    0    0 -0.63052965593E+00 -0.90458154507E+01  0.17071462277E+01  0.17144847241E+03  0.17120000000E+03 0.  0.
        998    1    1    2    0    0 -0.16676344754E+01 -0.55334914665E+01  0.14218440473E+04  0.14218909576E+04  0.10000000000E+02 0. -1.
</event>
<event>
 5    1  0.1218060E-008  0.3840858E+03  0.7957747E-01  0.3433559E+00
         13   -1    0    0    0    0  0.00000000000E+00  0.00000000000E+00  0.14999999963E+04  0.15000000000E+04  0.10566000000E+00 0. -1.
        994   -1    0    0    0    0 -0.00000000000E+00 -0.00000000000E+00  0.11368683772E-12  0.17120000000E+03  0.17120000000E+03 0.  0.
         13    1    1    2    0    0 -0.10750263554E+02 -0.37782970442E+01  0.33108560837E+02  0.35014734895E+02  0.10566000000E+00 0. -1.
        994    1    1    2    0    0 -0.84871319274E+01 -0.95037655222E+01  0.26204134269E+01  0.17169350464E+03  0.17120000000E+03 0.  0.
        998    1    1    2    0    0  0.19237395482E+02  0.13282062566E+02  0.14642710220E+04  0.14644917605E+04  0.10000000000E+02 0. -1.
</event>
<event>
 5    1  0.1218060E-008  0.3819871E+03  0.7957747E-01  0.3442552E+00
         13   -1    0    0    0    0  0.00000000000E+00  0.00000000000E+00  0.14999999963E+04  0.15000000000E+04  0.10566000000E+00 0. -1.
        994   -1    0    0    0    0 -0.00000000000E+00 -0.00000000000E+00  0.11368683772E-12  0.17120000000E+03  0.17120000000E+03 0.  0.
         13    1    1    2    0    0  0.20075013443E+02 -0.15861845473E+02  0.98676393843E+02  0.10193942403E+03  0.10566000000E+00 0. -1.
        994    1    1    2    0    0 -0.19280076652E+02  0.14197195318E+02  0.50396973021E+01  0.17293964340E+03  0.17120000000E+03 0.  0.
        998    1    1    2    0    0 -0.79493679145E+00  0.16646501543E+01  0.13962839051E+04  0.13963209326E+04  0.10000000000E+02 0. -1.
</event>
<event>
 5    1  0.1218060E-008  0.3821020E+03  0.7957747E-01  0.3442057E+00
         13   -1    0    0    0    0  0.00000000000E+00  0.00000000000E+00  0.14999999963E+04  0.15000000000E+04  0.10566000000E+00 0. -1.
        994   -1    0    0    0    0 -0.00000000000E+00 -0.00000000000E+00  0.11368683772E-12  0.17120000000E+03  0.17120000000E+03 0.  0.
         13    1    1    2    0    0 -0.13452263484E+03 -0.69353305962E+02  0.89759920094E+03  0.91026949692E+03  0.10566000000E+00 0. -1.
        994    1    1    2    0    0  0.13886414623E+03  0.10086029756E+03  0.10796394254E+03  0.26537087938E+03  0.17120000000E+03 0.  0.
        998    1    1    2    0    0 -0.43415113911E+01 -0.31506991597E+02  0.49443685280E+03  0.49555962371E+03  0.10000000000E+02 0. -1.
</event>
<event>
 5    1  0.1218060E-008  0.3685077E+03  0.7957747E-01  0.3502777E+00
         13   -1    0    0    0    0  0.00000000000E+00  0.00000000000E+00  0.14999999963E+04  0.15000000000E+04  0.10566000000E+00 0. -1.
        994   -1    0    0    0    0 -0.00000000000E+00 -0.00000000000E+00  0.11368683772E-12  0.17120000000E+03  0.17120000000E+03 0.  0.
         13    1    1    2    0    0  0.69473348026E+02 -0.14150058451E+02  0.19660921120E+03  0.20900230461E+03  0.10566000000E+00 0. -1.
        994    1    1    2    0    0 -0.87109664693E+02  0.27020724536E+01  0.37054407597E+02  0.19564729490E+03  0.17120000000E+03 0.  0.
        998    1    1    2    0    0  0.17636316667E+02  0.11447985998E+02  0.12663363775E+04  0.12665504005E+04  0.10000000000E+02 0. -1.
</event>
<event>
 5    1  0.1218060E-008  0.3854409E+03  0.7957747E-01  0.3427805E+00
         13   -1    0    0    0    0  0.00000000000E+00  0.00000000000E+00  0.14999999963E+04  0.15000000000E+04  0.10566000000E+00 0.  1.
        994   -1    0    0    0    0 -0.00000000000E+00 -0.00000000000E+00  0.11368683772E-12  0.17120000000E+03  0.17120000000E+03 0.  0.
         13    1    1    2    0    0 -0.15203556691E+02  0.12509613609E+02  0.11391531508E+03  0.11560427649E+03  0.10566000000E+00 0.  1.
        994    1    1    2    0    0  0.33627848646E+02 -0.13492082346E+02  0.57347324185E+01  0.17508625202E+03  0.17120000000E+03 0.  0.
        998    1    1    2    0    0 -0.18424291955E+02  0.98246873683E+00  0.13803499488E+04  0.13805094715E+04  0.10000000000E+02 0.  1.
</event>
<event>
 5    1  0.1218060E-008  0.3757315E+03  0.7957747E-01  0.3469958E+00
         13   -1    0    0    0    0  0.00000000000E+00  0.00000000000E+00  0.14999999963E+04  0.15000000000E+04  0.10566000000E+00 0.  1.
        994   -1    0    0    0    0 -0.00000000000E+00 -0.00000000000E+00  0.11368683772E-12  0.17120000000E+03  0.17120000000E+03 0.  0.
         13    1    1    2    0    0  0.48939140261E+01  0.32366571230E+02  0.78332311333E+02  0.84897040528E+02  0.10566000000E+00 0.  1.
        994    1    1    2    0    0  0.94191523648E+00 -0.35006409711E+02  0.10473146514E+02  0.17505845516E+03  0.17120000000E+03 0.  0.
        998    1    1    2    0    0 -0.58358292626E+01  0.26398384819E+01  0.14111945384E+04  0.14112445043E+04  0.10000000000E+02 0.  1.
</event>
<event>
 5    1  0.1218060E-008  0.3693892E+03  0.7957747E-01  0.3498703E+00
         13   -1    0    0    0    0  0.00000000000E+00  0.00000000000E+00  0.14999999963E+04  0.15000000000E+04  0.10566000000E+00 0. -1.
        994   -1    0    0    0    0 -0.00000000000E+00 -0.00000000000E+00  0.11368683772E-12  0.17120000000E+03  0.17120000000E+03 0.  0.
         13    1    1    2    0    0 -0.13125187140E+02 -0.24674238633E+02  0.36002916723E+02  0.45577513822E+02  0.10566000000E+00 0. -1.
        994    1    1    2    0    0  0.16912643706E+02  0.23269295462E+02  0.12461265431E+02  0.17404660515E+03  0.17120000000E+03 0.  0.
        998    1    1    2    0    0 -0.37874565661E+01  0.14049431709E+01  0.14515358141E+04  0.14515758810E+04  0.10000000000E+02 0. -1.
</event>
<event>
 5    1  0.1218060E-008  0.3859670E+03  0.7957747E-01  0.3425582E+00
         13   -1    0    0    0    0  0.00000000000E+00  0.00000000000E+00  0.14999999963E+04  0.15000000000E+04  0.10566000000E+00 0. -1.
        994   -1    0    0    0    0 -0.00000000000E+00 -0.00000000000E+00  0.11368683772E-12  0.17120000000E+03  0.17120000000E+03 0.  0.
         13    1    1    2    0    0  0.10860062430E+02  0.56976083245E+01  0.60832614817E+02  0.62056602276E+02  0.10566000000E+00 0. -1.
        994    1    1    2    0    0 -0.19651129282E+02 -0.51800812828E+01  0.25059595281E+01  0.17242018431E+03  0.17120000000E+03 0.  0.
        998    1    1    2    0    0  0.87910668518E+01 -0.51752704167E+00  0.14366614219E+04  0.14367232134E+04  0.10000000000E+02 0. -1.
</event>
<event>
 5    1  0.1218060E-008  0.3780636E+03  0.7957747E-01  0.3459634E+00
         13   -1    0    0    0    0  0.00000000000E+00  0.00000000000E+00  0.14999999963E+04  0.15000000000E+04  0.10566000000E+00 0.  1.
        994   -1    0    0    0    0 -0.00000000000E+00 -0.00000000000E+00  0.11368683772E-12  0.17120000000E+03  0.17120000000E+03 0.  0.
         13    1    1    2    0    0  0.19597796288E+02 -0.73040066899E+01  0.40943599508E+02  0.45976207301E+02  0.10566000000E+00 0.  1.
        994    1    1    2    0    0 -0.16251841926E+02 -0.78368357862E+01  0.62098587185E+01  0.17226009609E+03  0.17120000000E+03 0.  0.
        998    1    1    2    0    0 -0.33459543619E+01  0.15140842476E+02  0.14528465381E+04  0.14529636966E+04  0.10000000000E+02 0.  1.
</event>
<event>
 5    1  0.1218060E-008  0.3817852E+03  0.7957747E-01  0.3443422E+00
         13   -1    0    0    0    0  0.00000000000E+00  0.00000000000E+00  0.14999999963E+04  0.15000000000E+04  0.10566000000E+00 0.  1.
        994   -1    0    0    0    0 -0.00000000000E+00 -0.00000000000E+00  0.11368683772E-12  0.17120000000E+03  0.17120000000E+03 0.  0.
         13    1    1    2    0    0 -0.16075536156E+02  0.10376993089E+01  0.39241782794E+02  0.42419669535E+02  0.10566000000E+00 0.  1.
        994    1    1    2    0    0  0.89988717664E+01  0.27270261513E+01  0.35285754636E+01  0.17149433579E+03  0.17120000000E+03 0.  0.
        998    1    1    2    0    0  0.70766643900E+01 -0.37647254602E+01  0.14572296380E+04  0.14572859947E+04  0.10000000000E+02 0.  1.
</event>
<event>
 5    1  0.1218060E-008  0.3762202E+03  0.7957747E-01  0.3467784E+00
         13   -1    0    0    0    0  0.00000000000E+00  0.00000000000E+00  0.14999999963E+04  0.15000000000E+04  0.10566000000E+00 0.  1.
        994   -1    0    0    0    0 -0.00000000000E+00 -0.00000000000E+00  0.11368683772E-12  0.17120000000E+03  0.17120000000E+03 0.  0.
         13    1    1    2    0    0  0.41571215950E+02  0.42658933713E+02  0.27263310779E+03  0.27906410240E+03  0.10566000000E+00 0.  1.
        994    1    1    2    0    0  0.10209022649E+02 -0.77455071465E+02  0.27003524953E+02  0.19011086923E+03  0.17120000000E+03 0.  0.
        998    1    1    2    0    0 -0.51780238599E+02  0.34796137752E+02  0.12003633635E+04  0.12020250284E+04  0.10000000000E+02 0.  1.
</event>
<event>
 5    1  0.1218060E-008  0.2363760E+03  0.7957747E-01  0.4490123E+00
         13   -1    0    0    0    0  0.00000000000E+00  0.00000000000E+00  0.14999999963E+04  0.15000000000E+04  0.10566000000E+00 0. -1.
        994   -1    0    0    0    0 -0.00000000000E+00 -0.00000000000E+00  0.11368683772E-12  0.17120000000E+03  0.17120000000E+03 0.  0.
         13    1    1    2    0    0  0.11643733690E+03  0.12028229395E+03  0.17645188050E+03  0.24322985212E+03  0.10566000000E+00 0. -1.
        994    1    1    2    0    0 -0.10363878553E+03 -0.11628141262E+03  0.20467483114E+03  0.30897182928E+03  0.17120000000E+03 0.  0.
        998    1    1    2    0    0 -0.12798551371E+02 -0.40008813303E+01  0.11188732846E+04  0.11189983186E+04  0.10000000000E+02 0. -1.
</event>
<event>
 5    1  0.1218060E-008  0.3741699E+03  0.7957747E-01  0.3476944E+00
         13   -1    0    0    0    0  0.00000000000E+00  0.00000000000E+00  0.14999999963E+04  0.15000000000E+04  0.10566000000E+00 0. -1.
        994   -1    0    0    0    0 -0.00000000000E+00 -0.00000000000E+00  0.11368683772E-12  0.17120000000E+03  0.17120000000E+03 0.  0.
         13    1    1    2    0    0 -0.90680019747E+01 -0.75084954255E+01  0.62944655824E+01  0.13350566444E+02  0.10566000000E+00 0. -1.
        994    1    1    2    0    0  0.16565799022E+02  0.14036877750E+02  0.87143629448E+01  0.17279131852E+03  0.17120000000E+03 0.  0.
        998    1    1    2    0    0 -0.74977970470E+01 -0.65283823249E+01  0.14849911678E+04  0.14850581150E+04  0.10000000000E+02 0. -1.
</event>
<event>
 5    1  0.1218060E-008  0.3806729E+03  0.7957747E-01  0.3448234E+00
         13   -1    0    0    0    0  0.00000000000E+00  0.00000000000E+00  0.14999999963E+04  0.15000000000E+04  0.10566000000E+00 0.  1.
        994   -1    0    0    0    0 -0.00000000000E+00 -0.00000000000E+00  0.11368683772E-12  0.17120000000E+03  0.17120000000E+03 0.  0.
         13    1    1    2    0    0  0.18399775526E+02 -0.19726178367E+01  0.43947269662E+02  0.47684553425E+02  0.10566000000E+00 0.  1.
        994    1    1    2    0    0 -0.11704028045E+02 -0.73694623148E+01  0.44321767032E+01  0.17181495115E+03  0.17120000000E+03 0.  0.
        998    1    1    2    0    0 -0.66957474808E+01  0.93420801516E+01  0.14516205499E+04  0.14517004954E+04  0.10000000000E+02 0.  1.
</event>
<event>
 5    1  0.1218060E-008  0.3923066E+03  0.7957747E-01  0.3399263E+00
         13   -1    0    0    0    0  0.00000000000E+00  0.00000000000E+00  0.14999999963E+04  0.15000000000E+04  0.10566000000E+00 0. -1.
        994   -1    0    0    0    0 -0.00000000000E+00 -0.00000000000E+00  0.11368683772E-12  0.17120000000E+03  0.17120000000E+03 0.  0.
         13    1    1    2    0    0  0.11362947124E+02  0.14584060253E+02 -0.31387253784E+01  0.18752976879E+02  0.10566000000E+00 0. -1.
        994    1    1    2    0    0 -0.10664343606E+02 -0.24034946331E+02  0.25887320447E+02  0.17513137991E+03  0.17120000000E+03 0.  0.
        998    1    1    2    0    0 -0.69860351744E+00  0.94508860783E+01  0.14772514012E+04  0.14773156432E+04  0.10000000000E+02 0. -1.
</event>
<event>
 5    1  0.1218060E-008  0.3739021E+03  0.7957747E-01  0.3478148E+00
         13   -1    0    0    0    0  0.00000000000E+00  0.00000000000E+00  0.14999999963E+04  0.15000000000E+04  0.10566000000E+00 0. -1.
        994   -1    0    0    0    0 -0.00000000000E+00 -0.00000000000E+00  0.11368683772E-12  0.17120000000E+03  0.17120000000E+03 0.  0.
         13    1    1    2    0    0  0.47875012346E+02 -0.24292151775E+02  0.23201034267E+03  0.23814057973E+03  0.10566000000E+00 0. -1.
        994    1    1    2    0    0  0.42190642843E+00  0.12776917359E+02  0.78014072546E+01  0.17185380292E+03  0.17120000000E+03 0.  0.
        998    1    1    2    0    0 -0.48296918775E+02  0.11515234416E+02  0.12601882464E+04  0.12612056174E+04  0.10000000000E+02 0. -1.
</event>
<event>
 5    1  0.1218060E-008  0.3797716E+03  0.7957747E-01  0.3452153E+00
         13   -1    0    0    0    0  0.00000000000E+00  0.00000000000E+00  0.14999999963E+04  0.15000000000E+04  0.10566000000E+00 0.  1.
        994   -1    0    0    0    0 -0.00000000000E+00 -0.00000000000E+00  0.11368683772E-12  0.17120000000E+03  0.17120000000E+03 0.  0.
         13    1    1    2    0    0  0.32617111738E+01  0.10954517922E+02 -0.35692693641E+01  0.11974601059E+02  0.10566000000E+00 0.  1.
        994    1    1    2    0    0  0.20822997886E+02 -0.25959372995E+02  0.20221884256E+02  0.17557292186E+03  0.17120000000E+03 0.  0.
        998    1    1    2    0    0 -0.24084709060E+02  0.15004855074E+02  0.14833473814E+04  0.14836524771E+04  0.10000000000E+02 0.  1.
</event>
<event>
 5    1  0.1218060E-008  0.3762582E+03  0.7957747E-01  0.3467615E+00
         13   -1    0    0    0    0  0.00000000000E+00  0.00000000000E+00  0.14999999963E+04  0.15000000000E+04  0.10566000000E+00 0. -1.
        994   -1    0    0    0    0 -0.00000000000E+00 -0.00000000000E+00  0.11368683772E-12  0.17120000000E+03  0.17120000000E+03 0.  0.
         13    1    1    2    0    0  0.32322971858E+02  0.15858300507E+02  0.10059670540E+03  0.10684553574E+03  0.10566000000E+00 0. -1.
        994    1    1    2    0    0 -0.23013145042E+02 -0.26566059217E+02  0.10226952808E+02  0.17506967445E+03  0.17120000000E+03 0.  0.
        998    1    1    2    0    0 -0.93098268159E+01  0.10707758711E+02  0.13891763381E+04  0.13892847898E+04  0.10000000000E+02 0. -1.
</event>
<event>
 5    1  0.1218060E-008  0.3852707E+03  0.7957747E-01  0.3428525E+00
         13   -1    0    0    0    0  0.00000000000E+00  0.00000000000E+00  0.14999999963E+04  0.15000000000E+04  0.10566000000E+00 0. -1.
        994   -1    0    0    0    0 -0.00000000000E+00 -0.00000000000E+00  0.11368683772E-12  0.17120000000E+03  0.17120000000E+03 0.  0.
         13    1    1    2    0    0 -0.47095820005E+01 -0.11452188047E+02  0.51031079831E+02  0.52512046679E+02  0.10566000000E+00 0. -1.
        994    1    1    2    0    0  0.48279379771E+01  0.81235138606E+01  0.17892905354E+01  0.17146994496E+03  0.17120000000E+03 0.  0.
        998    1    1    2    0    0 -0.11835597668E+00  0.33286741867E+01  0.14471796259E+04  0.14472180084E+04  0.10000000000E+02 0. -1.
</event>
<event>
 5    1  0.1218060E-008  0.3841952E+03  0.7957747E-01  0.3433093E+00
         13   -1    0    0    0    0  0.00000000000E+00  0.00000000000E+00  0.14999999963E+04  0.15000000000E+04  0.10566000000E+00 0.  1.
        994   -1    0    0    0    0 -0.00000000000E+00 -0.00000000000E+00  0.11368683772E-12  0.17120000000E+03  0.17120000000E+03 0.  0.
         13    1    1    2    0    0  0.48992263033E+01 -0.20900971063E+02  0.11560136708E+03  0.11757780506E+03  0.10566000000E+00 0.  1.
        994    1    1    2    0    0 -0.17747421783E+02  0.70754799065E+01  0.32347540672E+01  0.17229317174E+03  0.17120000000E+03 0.  0.
        998    1    1    2    0    0  0.12848195480E+02  0.13825491157E+02  0.13811638751E+04  0.13813290232E+04  0.10000000000E+02 0.  1.
</event>
<event>
 5    1  0.1218060E-008  0.3802444E+03  0.7957747E-01  0.3450095E+00
         13   -1    0    0    0    0  0.00000000000E+00  0.00000000000E+00  0.14999999963E+04  0.15000000000E+04  0.10566000000E+00 0. -1.
        994   -1    0    0    0    0 -0.00000000000E+00 -0.00000000000E+00  0.11368683772E-12  0.17120000000E+03  0.17120000000E+03 0.  0.
         13    1    1    2    0    0 -0.11580942814E+02  0.48416106003E+01  0.17705030745E+02  0.21703426167E+02  0.10566000000E+00 0. -1.
        994    1    1    2    0    0  0.13093840805E+02 -0.58688394357E+01  0.46978480976E+01  0.17186448650E+03  0.17120000000E+03 0.  0.
        998    1    1    2    0    0 -0.15128979914E+01  0.10272288354E+01  0.14775971174E+04  0.14776320873E+04  0.10000000000E+02 0. -1.
</event>
<event>
 5    1  0.1218060E-008  0.3694990E+03  0.7957747E-01  0.3498197E+00
         13   -1    0    0    0    0  0.00000000000E+00  0.00000000000E+00  0.14999999963E+04  0.15000000000E+04  0.10566000000E+00 0.  1.
        994   -1    0    0    0    0 -0.00000000000E+00 -0.00000000000E+00  0.11368683772E-12  0.17120000000E+03  0.17120000000E+03 0.  0.
         13    1    1    2    0    0  0.46284840361E+02  0.10666699136E+03  0.55431648925E+03  0.56638053896E+03  0.10566000000E+00 0.  1.
        994    1    1    2    0    0 -0.37749535678E+02 -0.85219947827E+02  0.40254464126E+02  0.19904102299E+03  0.17120000000E+03 0.  0.
        998    1    1    2    0    0 -0.85353046830E+01 -0.21447043534E+02  0.90542904290E+03  0.90577843805E+03  0.10000000000E+02 0. -1.
</event>
<event>
 5    1  0.1218060E-008  0.3843566E+03  0.7957747E-01  0.3432406E+00
         13   -1    0    0    0    0  0.00000000000E+00  0.00000000000E+00  0.14999999963E+04  0.15000000000E+04  0.10566000000E+00 0.  1.
        994   -1    0    0    0    0 -0.00000000000E+00 -0.00000000000E+00  0.11368683772E-12  0.17120000000E+03  0.17120000000E+03 0.  0.
         13    1    1    2    0    0  0.10854207718E+02 -0.18527939686E+02  0.11002644038E+03  0.11210230650E+03  0.10566000000E+00 0.  1.
        994    1    1    2    0    0 -0.14991490524E+02  0.17516086579E+02  0.37036430537E+01  0.17278517022E+03  0.17120000000E+03 0.  0.
        998    1    1    2    0    0  0.41372828060E+01  0.10118531070E+01  0.13862699128E+04  0.13863125233E+04  0.10000000000E+02 0.  1.
</event>
<event>
 5    1  0.1218060E-008  0.3705590E+03  0.7957747E-01  0.3493326E+00
         13   -1    0    0    0    0  0.00000000000E+00  0.00000000000E+00  0.14999999963E+04  0.15000000000E+04  0.10566000000E+00 0. -1.
        994   -1    0    0    0    0 -0.00000000000E+00 -0.00000000000E+00  0.11368683772E-12  0.17120000000E+03  0.17120000000E+03 0.  0.
         13    1    1    2    0    0 -0.23765735098E+02  0.73286269020E+02  0.28866415637E+03  0.29876862909E+03  0.10566000000E+00 0. -1.
        994    1    1    2    0    0 -0.14667753963E+02 -0.73817919977E+02  0.28786234884E+02  0.18921499844E+03  0.17120000000E+03 0.  0.
        998    1    1    2    0    0  0.38433489061E+02  0.53165095728E+00  0.11825496050E+04  0.11832163725E+04  0.10000000000E+02 0. -1.
</event>
<event>
 5    1  0.1218060E-008  0.3833542E+03  0.7957747E-01  0.3436682E+00
         13   -1    0    0    0    0  0.00000000000E+00  0.00000000000E+00  0.14999999963E+04  0.15000000000E+04  0.10566000000E+00 0.  1.
        994   -1    0    0    0    0 -0.00000000000E+00 -0.00000000000E+00  0.11368683772E-12  0.17120000000E+03  0.17120000000E+03 0.  0.
         13    1    1    2    0    0 -0.37653295719E+01 -0.21270148273E+02  0.11571128212E+03  0.11771027520E+03  0.10566000000E+00 0.  1.
        994    1    1    2    0    0  0.35872527126E+01 -0.15070941197E+02  0.32433577563E+01  0.17193010504E+03  0.17120000000E+03 0.  0.
        998    1    1    2    0    0  0.17807685923E+00  0.36341089470E+02  0.13810453564E+04  0.13815596198E+04  0.10000000000E+02 0.  1.
</event>
<event>
 5    1  0.1218060E-008  0.3839222E+03  0.7957747E-01  0.3434256E+00
         13   -1    0    0    0    0  0.00000000000E+00  0.00000000000E+00  0.14999999963E+04  0.15000000000E+04  0.10566000000E+00 0.  1.
        994   -1    0    0    0    0 -0.00000000000E+00 -0.00000000000E+00  0.11368683772E-12  0.17120000000E+03  0.17120000000E+03 0.  0.
         13    1    1    2    0    0 -0.21351703331E+02  0.18299126575E+02  0.14579102656E+03  0.14847824035E+03  0.10566000000E+00 0.  1.
        994    1    1    2    0    0  0.21491010379E+02 -0.44258340690E+02  0.10196118996E+02  0.17842103321E+03  0.17120000000E+03 0.  0.
        998    1    1    2    0    0 -0.13930704781E+00  0.25959214115E+02  0.13440128507E+04  0.13443007264E+04  0.10000000000E+02 0.  1.
</event>
<event>
 5    1  0.1218060E-008  0.3693348E+03  0.7957747E-01  0.3498954E+00
         13   -1    0    0    0    0  0.00000000000E+00  0.00000000000E+00  0.14999999963E+04  0.15000000000E+04  0.10566000000E+00 0. -1.
        994   -1    0    0    0    0 -0.00000000000E+00 -0.00000000000E+00  0.11368683772E-12  0.17120000000E+03  0.17120000000E+03 0.  0.
         13    1    1    2    0    0  0.33475412956E+02  0.51997331456E+01  0.57431865393E+02  0.66678863397E+02  0.10566000000E+00 0. -1.
        994    1    1    2    0    0 -0.14171089140E+02 -0.77447135469E+00  0.10315511153E+02  0.17209668603E+03  0.17120000000E+03 0.  0.
        998    1    1    2    0    0 -0.19304323816E+02 -0.44252617909E+01  0.14322526197E+04  0.14324244506E+04  0.10000000000E+02 0. -1.
</event>
<event>
 5    1  0.1218060E-008  0.3831283E+03  0.7957747E-01  0.3437649E+00
         13   -1    0    0    0    0  0.00000000000E+00  0.00000000000E+00  0.14999999963E+04  0.15000000000E+04  0.10566000000E+00 0.  1.
        994   -1    0    0    0    0 -0.00000000000E+00 -0.00000000000E+00  0.11368683772E-12  0.17120000000E+03  0.17120000000E+03 0.  0.
         13    1    1    2    0    0  0.14506821706E+02 -0.14785446359E+02  0.95221132463E+02  0.97448101734E+02  0.10566000000E+00 0.  1.
        994    1    1    2    0    0  0.17124067031E+01 -0.10225091916E+02  0.29179692476E+01  0.17153844871E+03  0.17120000000E+03 0.  0.
        998    1    1    2    0    0 -0.16219228409E+02  0.25010538275E+02  0.14018608946E+04  0.14022134496E+04  0.10000000000E+02 0.  1.
</event>
<event>
 5    1  0.1218060E-008  0.3829783E+03  0.7957747E-01  0.3438292E+00
         13   -1    0    0    0    0  0.00000000000E+00  0.00000000000E+00  0.14999999963E+04  0.15000000000E+04  0.10566000000E+00 0.  1.
        994   -1    0    0    0    0 -0.00000000000E+00 -0.00000000000E+00  0.11368683772E-12  0.17120000000E+03  0.17120000000E+03 0.  0.
         13    1    1    2    0    0  0.99541675618E+01  0.14947810090E+02  0.51977618021E+02  0.54992785141E+02  0.10566000000E+00 0.  1.
        994    1    1    2    0    0 -0.12705420252E+02 -0.45474538568E+02  0.10052499311E+02  0.17787595145E+03  0.17120000000E+03 0.  0.
        998    1    1    2    0    0  0.27512526905E+01  0.30526728478E+02  0.14379698789E+04  0.14383312634E+04  0.10000000000E+02 0.  1.
</event>
<event>
 5    1  0.1218060E-008  0.3784716E+03  0.7957747E-01  0.3457841E+00
         13   -1    0    0    0    0  0.00000000000E+00  0.00000000000E+00  0.14999999963E+04  0.15000000000E+04  0.10566000000E+00 0.  1.
        994   -1    0    0    0    0 -0.00000000000E+00 -0.00000000000E+00  0.11368683772E-12  0.17120000000E+03  0.17120000000E+03 0.  0.
         13    1    1    2    0    0 -0.29316733027E+02 -0.19886301751E+02  0.11568670561E+03  0.12098909394E+03  0.10566000000E+00 0.  1.
        994    1    1    2    0    0  0.32803380406E+02  0.19791792873E+02  0.98540860286E+01  0.17571089847E+03  0.17120000000E+03 0.  0.
        998    1    1    2    0    0 -0.34866473798E+01  0.94508878755E-01  0.13744592046E+04  0.13745000076E+04  0.10000000000E+02 0.  1.
</event>
<event>
 5    1  0.1218060E-008  0.3840679E+03  0.7957747E-01  0.3433635E+00
         13   -1    0    0    0    0  0.00000000000E+00  0.00000000000E+00  0.14999999963E+04  0.15000000000E+04  0.10566000000E+00 0.  1.
        994   -1    0    0    0    0 -0.00000000000E+00 -0.00000000000E+00  0.11368683772E-12  0.17120000000E+03  0.17120000000E+03 0.  0.
         13    1    1    2    0    0 -0.10481147558E+02 -0.25458896747E+02  0.15966308017E+03  0.16201950565E+03  0.10566000000E+00 0.  1.
        994    1    1    2    0    0  0.17756936867E+02  0.25844743726E+02  0.53437517096E+01  0.17412999531E+03  0.17120000000E+03 0.  0.
        998    1    1    2    0    0 -0.72757893084E+01 -0.38584697948E+00  0.13349931644E+04  0.13350504990E+04  0.10000000000E+02 0.  1.
</event>
<event>
 5    1  0.1218060E-008  0.3814725E+03  0.7957747E-01  0.3444772E+00
         13   -1    0    0    0    0  0.00000000000E+00  0.00000000000E+00  0.14999999963E+04  0.15000000000E+04  0.10566000000E+00 0. -1.
        994   -1    0    0    0    0 -0.00000000000E+00 -0.00000000000E+00  0.11368683772E-12  0.17120000000E+03  0.17120000000E+03 0.  0.
         13    1    1    2    0    0 -0.75516299784E+01  0.11990901004E+02  0.28910229397E+02  0.32196604636E+02  0.10566000000E+00 0. -1.
        994    1    1    2    0    0  0.12768697847E+02  0.42745388526E+01  0.39950669528E+01  0.17177517832E+03  0.17120000000E+03 0.  0.
        998    1    1    2    0    0 -0.52170678686E+01 -0.16265439857E+02  0.14670946999E+04  0.14672282170E+04  0.10000000000E+02 0. -1.
</event>
<event>
 5    1  0.1218060E-008  0.3853245E+03  0.7957747E-01  0.3428297E+00
         13   -1    0    0    0    0  0.00000000000E+00  0.00000000000E+00  0.14999999963E+04  0.15000000000E+04  0.10566000000E+00 0.  1.
        994   -1    0    0    0    0 -0.00000000000E+00 -0.00000000000E+00  0.11368683772E-12  0.17120000000E+03  0.17120000000E+03 0.  0.
         13    1    1    2    0    0  0.67793862153E+01  0.12860554911E+02  0.76336669707E+02  0.77708765632E+02  0.10566000000E+00 0.  1.
        994    1    1    2    0    0 -0.84856928502E+01  0.22685389112E+01  0.17225966431E+01  0.17143383736E+03  0.17120000000E+03 0.  0.
        998    1    1    2    0    0  0.17063066349E+01 -0.15129093822E+02  0.14219407299E+04  0.14220573970E+04  0.10000000000E+02 0.  1.
</event>
<event>
 5    1  0.1218060E-008  0.3849642E+03  0.7957747E-01  0.3429824E+00
         13   -1    0    0    0    0  0.00000000000E+00  0.00000000000E+00  0.14999999963E+04  0.15000000000E+04  0.10566000000E+00 0. -1.
        994   -1    0    0    0    0 -0.00000000000E+00 -0.00000000000E+00  0.11368683772E-12  0.17120000000E+03  0.17120000000E+03 0.  0.
         13    1    1    2    0    0  0.63274648939E+01  0.18477818724E+02  0.11157311240E+03  0.11326975400E+03  0.10566000000E+00 0. -1.
        994    1    1    2    0    0 -0.64279826694E+01 -0.15578157971E+02  0.25825717777E+01  0.17204681817E+03  0.17120000000E+03 0.  0.
        998    1    1    2    0    0  0.10051777549E+00 -0.28996607532E+01  0.13858443121E+04  0.13858834278E+04  0.10000000000E+02 0. -1.
</event>
<event>
 5    1  0.1218060E-008  0.3020444E+03  0.7957747E-01  0.3881531E+00
         13   -1    0    0    0    0  0.00000000000E+00  0.00000000000E+00  0.14999999963E+04  0.15000000000E+04  0.10566000000E+00 0. -1.
        994   -1    0    0    0    0 -0.00000000000E+00 -0.00000000000E+00  0.11368683772E-12  0.17120000000E+03  0.17120000000E+03 0.  0.
         13    1    1    2    0    0 -0.17186620870E+03 -0.61187702985E+02  0.68299511868E+03  0.70694007666E+03  0.10566000000E+00 0. -1.
        994    1    1    2    0    0  0.14812355408E+03  0.83511144286E+02  0.12562474059E+03  0.27203991241E+03  0.17120000000E+03 0.  0.
        998    1    1    2    0    0  0.23742654610E+02 -0.22323441301E+02  0.69138013701E+03  0.69222001093E+03  0.10000000000E+02 0.  1.
</event>
<event>
 5    1  0.1218060E-008  0.3829105E+03  0.7957747E-01  0.3438583E+00
         13   -1    0    0    0    0  0.00000000000E+00  0.00000000000E+00  0.14999999963E+04  0.15000000000E+04  0.10566000000E+00 0. -1.
        994   -1    0    0    0    0 -0.00000000000E+00 -0.00000000000E+00  0.11368683772E-12  0.17120000000E+03  0.17120000000E+03 0.  0.
         13    1    1    2    0    0  0.10512137493E+02  0.17121137658E+01  0.20326377156E+02  0.22947965935E+02  0.10566000000E+00 0. -1.
        994    1    1    2    0    0 -0.56978033556E+01 -0.25774651299E+01  0.28006106649E+01  0.17133707045E+03  0.17120000000E+03 0.  0.
        998    1    1    2    0    0 -0.48143341372E+01  0.86535136412E+00  0.14768730085E+04  0.14769149636E+04  0.10000000000E+02 0. -1.
</event>
<event>
 5    1  0.1218060E-008  0.3834617E+03  0.7957747E-01  0.3436223E+00
         13   -1    0    0    0    0  0.00000000000E+00  0.00000000000E+00  0.14999999963E+04  0.15000000000E+04  0.10566000000E+00 0.  1.
        994   -1    0    0    0    0 -0.00000000000E+00 -0.00000000000E+00  0.11368683772E-12  0.17120000000E+03  0.17120000000E+03 0.  0.
         13    1    1    2    0    0  0.20125934626E+01 -0.10052853002E+02  0.21221095117E+02  0.23568123131E+02  0.10566000000E+00 0.  1.
        994    1    1    2    0    0  0.63256915046E+01  0.67637279674E+01  0.26793371844E+01  0.17147122568E+03  0.17120000000E+03 0.  0.
        998    1    1    2    0    0 -0.83382849673E+01  0.32891250344E+01  0.14760995640E+04  0.14761606512E+04  0.10000000000E+02 0.  1.
</event>
<event>
 5    1  0.1218060E-008  0.3915330E+03  0.7957747E-01  0.3402429E+00
         13   -1    0    0    0    0  0.00000000000E+00  0.00000000000E+00  0.14999999963E+04  0.15000000000E+04  0.10566000000E+00 0. -1.
        994   -1    0    0    0    0 -0.00000000000E+00 -0.00000000000E+00  0.11368683772E-12  0.17120000000E+03  0.17120000000E+03 0.  0.
         13    1    1    2    0    0  0.33265571935E+02 -0.13960418192E+02  0.18952253691E+02  0.40751572194E+02  0.10566000000E+00 0. -1.
        994    1    1    2    0    0 -0.33109063698E+02  0.16839004127E+02  0.28051623991E+02  0.17741503817E+03  0.17120000000E+03 0.  0.
        998    1    1    2    0    0 -0.15650823733E+00 -0.28785859341E+01  0.14529961186E+04  0.14530333896E+04  0.10000000000E+02 0. -1.
</event>
<event>
 5    1  0.1218060E-008  0.3763714E+03  0.7957747E-01  0.3467112E+00
         13   -1    0    0    0    0  0.00000000000E+00  0.00000000000E+00  0.14999999963E+04  0.15000000000E+04  0.10566000000E+00 0.  1.
        994   -1    0    0    0    0 -0.00000000000E+00 -0.00000000000E+00  0.11368683772E-12  0.17120000000E+03  0.17120000000E+03 0.  0.
         13    1    1    2    0    0  0.11019703473E+02 -0.13546600650E+02  0.17905348537E+02  0.25011136001E+02  0.10566000000E+00 0.  1.
        994    1    1    2    0    0 -0.51695362469E+02  0.93899428908E+02  0.45898240940E+02  0.20713667413E+03  0.17120000000E+03 0.  0.
        998    1    1    2    0    0  0.40675658996E+02 -0.80352828257E+02  0.14361964068E+04  0.14390521899E+04  0.10000000000E+02 0.  1.
</event>
<event>
 5    1  0.1218060E-008  0.3845687E+03  0.7957747E-01  0.3431503E+00
         13   -1    0    0    0    0  0.00000000000E+00  0.00000000000E+00  0.14999999963E+04  0.15000000000E+04  0.10566000000E+00 0. -1.
        994   -1    0    0    0    0 -0.00000000000E+00 -0.00000000000E+00  0.11368683772E-12  0.17120000000E+03  0.17120000000E+03 0.  0.
         13    1    1    2    0    0 -0.66036219985E+01  0.20243900490E+02  0.10934608587E+03  0.11140018398E+03  0.10566000000E+00 0. -1.
        994    1    1    2    0    0 -0.73458762682E+01 -0.32860167884E+02  0.55870960062E+01  0.17456920740E+03  0.17120000000E+03 0.  0.
        998    1    1    2    0    0  0.13949498267E+02  0.12616267394E+02  0.13850668144E+04  0.13852306086E+04  0.10000000000E+02 0. -1.
</event>
<event>
 5    1  0.1218060E-008  0.3855589E+03  0.7957747E-01  0.3427305E+00
         13   -1    0    0    0    0  0.00000000000E+00  0.00000000000E+00  0.14999999963E+04  0.15000000000E+04  0.10566000000E+00 0.  1.
        994   -1    0    0    0    0 -0.00000000000E+00 -0.00000000000E+00  0.11368683772E-12  0.17120000000E+03  0.17120000000E+03 0.  0.
         13    1    1    2    0    0  0.22667265296E+00  0.53369032080E+02  0.68974864866E+02  0.87211513649E+02  0.10566000000E+00 0.  1.
        994    1    1    2    0    0 -0.26229798265E+01 -0.25051970849E+02  0.21765168137E+02  0.17440654750E+03  0.17120000000E+03 0.  0.
        998    1    1    2    0    0  0.23963071736E+01 -0.28317061231E+02  0.14092599633E+04  0.14095819389E+04  0.10000000000E+02 0.  1.
</event>
<event>
 5    1  0.1218060E-008  0.3854822E+03  0.7957747E-01  0.3427630E+00
         13   -1    0    0    0    0  0.00000000000E+00  0.00000000000E+00  0.14999999963E+04  0.15000000000E+04  0.10566000000E+00 0.  1.
        994   -1    0    0    0    0 -0.00000000000E+00 -0.00000000000E+00  0.11368683772E-12  0.17120000000E+03  0.17120000000E+03 0.  0.
         13    1    1    2    0    0 -0.15414389295E+02 -0.41205809232E+01  0.96092813740E+02  0.97408534539E+02  0.10566000000E+00 0.  1.
        994    1    1    2    0    0  0.25395344955E+01  0.10678403710E+02  0.17866241647E+01  0.17156080429E+03  0.17120000000E+03 0.  0.
        998    1    1    2    0    0  0.12874854800E+02 -0.65578227865E+01  0.14021205584E+04  0.14022306612E+04  0.10000000000E+02 0.  1.
</event>
<event>
 5    1  0.1218060E-008  0.3855942E+03  0.7957747E-01  0.3427156E+00
         13   -1    0    0    0    0  0.00000000000E+00  0.00000000000E+00  0.14999999963E+04  0.15000000000E+04  0.10566000000E+00 0. -1.
        994   -1    0    0    0    0 -0.00000000000E+00 -0.00000000000E+00  0.11368683772E-12  0.17120000000E+03  0.17120000000E+03 0.  0.
         13    1    1    2    0    0  0.73471114705E+01  0.89121012165E+01  0.50017187284E+02  0.51333573642E+02  0.10566000000E+00 0. -1.
        994    1    1    2    0    0 -0.70127221593E+01 -0.51735734594E+01  0.15847475372E+01  0.17142898109E+03  0.17120000000E+03 0.  0.
        998    1    1    2    0    0 -0.33438931120E+00 -0.37385277571E+01  0.14483980615E+04  0.14484374453E+04  0.10000000000E+02 0. -1.
</event>
<event>
 5    1  0.1218060E-008  0.3815618E+03  0.7957747E-01  0.3444386E+00
         13   -1    0    0    0    0  0.00000000000E+00  0.00000000000E+00  0.14999999963E+04  0.15000000000E+04  0.10566000000E+00 0. -1.
        994   -1    0    0    0    0 -0.00000000000E+00 -0.00000000000E+00  0.11368683772E-12  0.17120000000E+03  0.17120000000E+03 0.  0.
         13    1    1    2    0    0  0.11022299229E+02 -0.49689340565E+00  0.18103744028E+02  0.21201289942E+02  0.10566000000E+00 0. -1.
        994    1    1    2    0    0  0.19792320893E+02  0.14005232910E+02  0.53044327129E+01  0.17298976710E+03  0.17120000000E+03 0.  0.
        998    1    1    2    0    0 -0.30814620122E+02 -0.13508339505E+02  0.14765918195E+04  0.14770089430E+04  0.10000000000E+02 0. -1.
</event>
<event>
 5    1  0.1218060E-008  0.3763500E+03  0.7957747E-01  0.3467207E+00
         13   -1    0    0    0    0  0.00000000000E+00  0.00000000000E+00  0.14999999963E+04  0.15000000000E+04  0.10566000000E+00 0. -1.
        994   -1    0    0    0    0 -0.00000000000E+00 -0.00000000000E+00  0.11368683772E-12  0.17120000000E+03  0.17120000000E+03 0.  0.
         13    1    1    2    0    0 -0.45827366618E+02  0.44383070168E+01  0.20863532615E+03  0.21365522831E+03  0.10566000000E+00 0. -1.
        994    1    1    2    0    0  0.24299045078E+01  0.19786330327E+02  0.73329846091E+01  0.17251265451E+03  0.17120000000E+03 0.  0.
        998    1    1    2    0    0  0.43397462111E+02 -0.24224637344E+02  0.12840316855E+04  0.12850321172E+04  0.10000000000E+02 0. -1.
</event>
<event>
 5    1  0.1218060E-008  0.3777222E+03  0.7957747E-01  0.3461137E+00
         13   -1    0    0    0    0  0.00000000000E+00  0.00000000000E+00  0.14999999963E+04  0.15000000000E+04  0.10566000000E+00 0.  1.
        994   -1    0    0    0    0 -0.00000000000E+00 -0.00000000000E+00  0.11368683772E-12  0.17120000000E+03  0.17120000000E+03 0.  0.
         13    1    1    2    0    0 -0.25328128831E+02  0.23609047702E+02  0.13027901110E+03  0.13480182914E+03  0.10566000000E+00 0.  1.
        994    1    1    2    0    0 -0.10904299868E+02  0.11725863320E+00  0.56880741955E+01  0.17164122958E+03  0.17120000000E+03 0.  0.
        998    1    1    2    0    0  0.36232428700E+02 -0.23726306335E+02  0.13640329110E+04  0.13647569413E+04  0.10000000000E+02 0.  1.
</event>
<event>
 5    1  0.1286388E-008  0.3860356E+03  0.7957747E-01  0.3425292E+00
         13   -1    0    0    0    0  0.00000000000E+00  0.00000000000E+00  0.14999999963E+04  0.15000000000E+04  0.10566000000E+00 0. -1.
        994   -1    0    0    0    0 -0.00000000000E+00 -0.00000000000E+00  0.11368683772E-12  0.17120000000E+03  0.17120000000E+03 0.  0.
         13    1    1    2    0    0 -0.27711976173E+00 -0.10730506581E+02  0.51881900592E+02  0.52980782742E+02  0.10566000000E+00 0. -1.
        994    1    1    2    0    0 -0.27846845389E+01  0.82672211267E+01  0.13663348589E+01  0.17142755987E+03  0.17120000000E+03 0.  0.
        998    1    1    2    0    0  0.30618043006E+01  0.24632854546E+01  0.14467517608E+04  0.14467916574E+04  0.10000000000E+02 0. -1.
</event>
<event>
 5    1  0.1917800E-008  0.3864536E+03  0.7957747E-01  0.3423531E+00
         13   -1    0    0    0    0  0.00000000000E+00  0.00000000000E+00  0.14999999963E+04  0.15000000000E+04  0.10566000000E+00 0. -1.
        994   -1    0    0    0    0 -0.00000000000E+00 -0.00000000000E+00  0.11368683772E-12  0.17120000000E+03  0.17120000000E+03 0.  0.
         13    1    1    2    0    0  0.56117274867E+00 -0.11330936064E+02  0.68460626992E+02  0.69394334345E+02  0.10566000000E+00 0. -1.
        994    1    1    2    0    0 -0.82541052250E+01  0.13404172673E+02  0.17216888335E+01  0.17193081839E+03  0.17120000000E+03 0.  0.
        998    1    1    2    0    0  0.76929324763E+01 -0.20732366087E+01  0.14298176805E+04  0.14298748473E+04  0.10000000000E+02 0. -1.
</event>
<event>
 5    1  0.1218060E-008  0.3854852E+03  0.7957747E-01  0.3427617E+00
         13   -1    0    0    0    0  0.00000000000E+00  0.00000000000E+00  0.14999999963E+04  0.15000000000E+04  0.10566000000E+00 0. -1.
        994   -1    0    0    0    0 -0.00000000000E+00 -0.00000000000E+00  0.11368683772E-12  0.17120000000E+03  0.17120000000E+03 0.  0.
         13    1    1    2    0    0  0.53981185329E+01  0.10948207177E+02  0.51007786032E+02  0.52448148909E+02  0.10566000000E+00 0. -1.
        994    1    1    2    0    0 -0.74179834825E+01 -0.15545367881E+02  0.23641822672E+01  0.17208054596E+03  0.17120000000E+03 0.  0.
        998    1    1    2    0    0  0.20198649496E+01  0.45971607042E+01  0.14466280280E+04  0.14466713051E+04  0.10000000000E+02 0. -1.
</event>
<event>
 5    1  0.1218060E-008  0.3790613E+03  0.7957747E-01  0.3455256E+00
         13   -1    0    0    0    0  0.00000000000E+00  0.00000000000E+00  0.14999999963E+04  0.15000000000E+04  0.10566000000E+00 0.  1.
        994   -1    0    0    0    0 -0.00000000000E+00 -0.00000000000E+00  0.11368683772E-12  0.17120000000E+03  0.17120000000E+03 0.  0.
         13    1    1    2    0    0  0.21031669543E+02  0.30899152020E+02  0.16685282856E+03  0.17098820509E+03  0.10566000000E+00 0.  1.
        994    1    1    2    0    0  0.95101516417E+01 -0.13444242924E+02  0.55176754011E+01  0.17207868954E+03  0.17120000000E+03 0.  0.
        998    1    1    2    0    0 -0.30541821184E+02 -0.17454909096E+02  0.13276294923E+04  0.13281331054E+04  0.10000000000E+02 0.  1.
</event>
<event>
 5    1  0.1218060E-008  0.3837066E+03  0.7957747E-01  0.3435176E+00
         13   -1    0    0    0    0  0.00000000000E+00  0.00000000000E+00  0.14999999963E+04  0.15000000000E+04  0.10566000000E+00 0.  1.
        994   -1    0    0    0    0 -0.00000000000E+00 -0.00000000000E+00  0.11368683772E-12  0.17120000000E+03  0.17120000000E+03 0.  0.
         13    1    1    2    0    0 -0.41120097192E+01  0.21883052922E+02  0.12070042699E+03  0.12273703952E+03  0.10566000000E+00 0.  1.
        994    1    1    2    0    0 -0.28153490609E+02 -0.62605376524E+01  0.50255517717E+01  0.17368508726E+03  0.17120000000E+03 0.  0.
        998    1    1    2    0    0  0.32265500328E+02 -0.15622515270E+02  0.13742740175E+04  0.13747778732E+04  0.10000000000E+02 0.  1.
</event>
<event>
 5    1  0.1218060E-008  0.3778796E+03  0.7957747E-01  0.3460443E+00
         13   -1    0    0    0    0  0.00000000000E+00  0.00000000000E+00  0.14999999963E+04  0.15000000000E+04  0.10566000000E+00 0. -1.
        994   -1    0    0    0    0 -0.00000000000E+00 -0.00000000000E+00  0.11368683772E-12  0.17120000000E+03  0.17120000000E+03 0.  0.
         13    1    1    2    0    0  0.21348344717E+02 -0.13827698725E+02  0.14392172397E+02  0.29225038315E+02  0.10566000000E+00 0. -1.
        994    1    1    2    0    0 -0.31071868533E+02  0.11370529900E+02  0.19113686539E+02  0.17541243678E+03  0.17120000000E+03 0.  0.
        998    1    1    2    0    0  0.97235238161E+01  0.24571688243E+01  0.14664941373E+04  0.14665625249E+04  0.10000000000E+02 0. -1.
</event>
<event>
 5    1  0.1218060E-008  0.3701650E+03  0.7957747E-01  0.3495133E+00
         13   -1    0    0    0    0  0.00000000000E+00  0.00000000000E+00  0.14999999963E+04  0.15000000000E+04  0.10566000000E+00 0. -1.
        994   -1    0    0    0    0 -0.00000000000E+00 -0.00000000000E+00  0.11368683772E-12  0.17120000000E+03  0.17120000000E+03 0.  0.
         13    1    1    2    0    0 -0.14101466909E+02 -0.52216921453E-01  0.68221530340E+01  0.15665472596E+02  0.10566000000E+00 0. -1.
        994    1    1    2    0    0  0.68776631244E+00 -0.74961710721E+01  0.93787080683E+01  0.17162186856E+03  0.17120000000E+03 0.  0.
        998    1    1    2    0    0  0.13413700597E+02  0.75483879936E+01  0.14837991352E+04  0.14839126588E+04  0.10000000000E+02 0. -1.
</event>
<event>
 5    1  0.1218060E-008  0.3941178E+03  0.7957747E-01  0.3391900E+00
         13   -1    0    0    0    0  0.00000000000E+00  0.00000000000E+00  0.14999999963E+04  0.15000000000E+04  0.10566000000E+00 0.  1.
        994   -1    0    0    0    0 -0.00000000000E+00 -0.00000000000E+00  0.11368683772E-12  0.17120000000E+03  0.17120000000E+03 0.  0.
         13    1    1    2    0    0  0.36788508545E+01 -0.10353470879E+03  0.38859812851E+03  0.40217096677E+03  0.10566000000E+00 0.  1.
        994    1    1    2    0    0 -0.22804134317E+02 -0.41312444408E+02  0.32870733585E+02  0.18060086304E+03  0.17120000000E+03 0.  0.
        998    1    1    2    0    0  0.19125283462E+02  0.14484715320E+03  0.10785311342E+04  0.10884281702E+04  0.10000000000E+02 0.  1.
</event>
<event>
 5    1  0.1218060E-008  0.3782638E+03  0.7957747E-01  0.3458753E+00
         13   -1    0    0    0    0  0.00000000000E+00  0.00000000000E+00  0.14999999963E+04  0.15000000000E+04  0.10566000000E+00 0. -1.
        994   -1    0    0    0    0 -0.00000000000E+00 -0.00000000000E+00  0.11368683772E-12  0.17120000000E+03  0.17120000000E+03 0.  0.
         13    1    1    2    0    0 -0.89523731367E+02 -0.16373735159E+02  0.22756112755E+03  0.24508503753E+03  0.10566000000E+00 0. -1.
        994    1    1    2    0    0  0.85606944735E+02  0.18445192167E+02  0.43536595874E+02  0.19716401619E+03  0.17120000000E+03 0.  0.
        998    1    1    2    0    0  0.39167866317E+01 -0.20714570082E+01  0.12289022729E+04  0.12289509463E+04  0.10000000000E+02 0. -1.
</event>
<event>
 5    1  0.1218060E-008  0.3716068E+03  0.7957747E-01  0.3488539E+00
         13   -1    0    0    0    0  0.00000000000E+00  0.00000000000E+00  0.14999999963E+04  0.15000000000E+04  0.10566000000E+00 0.  1.
        994   -1    0    0    0    0 -0.00000000000E+00 -0.00000000000E+00  0.11368683772E-12  0.17120000000E+03  0.17120000000E+03 0.  0.
         13    1    1    2    0    0 -0.73238303117E+02 -0.44086698332E+02  0.22612361994E+03  0.24174240148E+03  0.10566000000E+00 0.  1.
        994    1    1    2    0    0  0.11226555504E+03  0.28622994354E+02  0.60604628810E+02  0.21541864285E+03  0.17120000000E+03 0.  0.
        998    1    1    2    0    0 -0.39027251927E+02  0.15463703978E+02  0.12132717475E+04  0.12140389557E+04  0.10000000000E+02 0.  1.
</event>
<event>
 5    1  0.1218060E-008  0.3749681E+03  0.7957747E-01  0.3473366E+00
         13   -1    0    0    0    0  0.00000000000E+00  0.00000000000E+00  0.14999999963E+04  0.15000000000E+04  0.10566000000E+00 0. -1.
        994   -1    0    0    0    0 -0.00000000000E+00 -0.00000000000E+00  0.11368683772E-12  0.17120000000E+03  0.17120000000E+03 0.  0.
         13    1    1    2    0    0 -0.54509274219E+02  0.16327431846E+02  0.25787946616E+03  0.26408270719E+03  0.10566000000E+00 0. -1.
        994    1    1    2    0    0  0.25925039341E+02  0.84256554470E+01  0.92254633477E+01  0.17360198302E+03  0.17120000000E+03 0.  0.
        998    1    1    2    0    0  0.28584234878E+02 -0.24753087293E+02  0.12328950668E+04  0.12335153098E+04  0.10000000000E+02 0. -1.
</event>
<event>
 5    1  0.1218060E-008  0.3772049E+03  0.7957747E-01  0.3463420E+00
         13   -1    0    0    0    0  0.00000000000E+00  0.00000000000E+00  0.14999999963E+04  0.15000000000E+04  0.10566000000E+00 0. -1.
        994   -1    0    0    0    0 -0.00000000000E+00 -0.00000000000E+00  0.11368683772E-12  0.17120000000E+03  0.17120000000E+03 0.  0.
         13    1    1    2    0    0  0.87037626861E+01 -0.32509219569E+02  0.10058050475E+03  0.10606155732E+03  0.10566000000E+00 0. -1.
        994    1    1    2    0    0 -0.37946500512E+02  0.10534197127E+02  0.10801650558E+02  0.17600290300E+03  0.17120000000E+03 0.  0.
        998    1    1    2    0    0  0.29242737826E+02  0.21975022442E+02  0.13886178410E+04  0.13891355397E+04  0.10000000000E+02 0. -1.
</event>
<event>
 5    1  0.1218060E-008  0.3799597E+03  0.7957747E-01  0.3451334E+00
         13   -1    0    0    0    0  0.00000000000E+00  0.00000000000E+00  0.14999999963E+04  0.15000000000E+04  0.10566000000E+00 0. -1.
        994   -1    0    0    0    0 -0.00000000000E+00 -0.00000000000E+00  0.11368683772E-12  0.17120000000E+03  0.17120000000E+03 0.  0.
         13    1    1    2    0    0 -0.83225058093E+01 -0.11903825266E+02  0.24663986813E+02  0.28623217297E+02  0.10566000000E+00 0. -1.
        994    1    1    2    0    0  0.37977001980E+01 -0.74008669681E+01  0.43848944167E+01  0.17145804926E+03  0.17120000000E+03 0.  0.
        998    1    1    2    0    0  0.45248056113E+01  0.19304692234E+02  0.14709511150E+04  0.14711187334E+04  0.10000000000E+02 0. -1.
</event>
<event>
 5    1  0.1218060E-008  0.3797425E+03  0.7957747E-01  0.3452280E+00
         13   -1    0    0    0    0  0.00000000000E+00  0.00000000000E+00  0.14999999963E+04  0.15000000000E+04  0.10566000000E+00 0. -1.
        994   -1    0    0    0    0 -0.00000000000E+00 -0.00000000000E+00  0.11368683772E-12  0.17120000000E+03  0.17120000000E+03 0.  0.
         13    1    1    2    0    0  0.29610491475E+02 -0.31817969717E+02  0.23583544076E+03  0.23980727822E+03  0.10566000000E+00 0. -1.
        994    1    1    2    0    0 -0.10462009061E+02  0.12671508591E+02  0.51671149417E+01  0.17206440608E+03  0.17120000000E+03 0.  0.
        998    1    1    2    0    0 -0.19148482414E+02  0.19146461126E+02  0.12589974406E+04  0.12593283157E+04  0.10000000000E+02 0. -1.
</event>
<event>
 5    1  0.1218060E-008  0.3764031E+03  0.7957747E-01  0.3466971E+00
         13   -1    0    0    0    0  0.00000000000E+00  0.00000000000E+00  0.14999999963E+04  0.15000000000E+04  0.10566000000E+00 0. -1.
        994   -1    0    0    0    0 -0.00000000000E+00 -0.00000000000E+00  0.11368683772E-12  0.17120000000E+03  0.17120000000E+03 0.  0.
         13    1    1    2    0    0  0.27393533971E+02 -0.42544928140E+02  0.18826102875E+03  0.19494281912E+03  0.10566000000E+00 0. -1.
        994    1    1    2    0    0 -0.14467755035E+02  0.50179921276E+02  0.15243397379E+02  0.17963613667E+03  0.17120000000E+03 0.  0.
        998    1    1    2    0    0 -0.12925778936E+02 -0.76349931362E+01  0.12964955701E+04  0.12966210442E+04  0.10000000000E+02 0. -1.
</event>
<event>
 5    1  0.1218060E-008  0.3812739E+03  0.7957747E-01  0.3445630E+00
         13   -1    0    0    0    0  0.00000000000E+00  0.00000000000E+00  0.14999999963E+04  0.15000000000E+04  0.10566000000E+00 0. -1.
        994   -1    0    0    0    0 -0.00000000000E+00 -0.00000000000E+00  0.11368683772E-12  0.17120000000E+03  0.17120000000E+03 0.  0.
         13    1    1    2    0    0  0.26856492953E+02  0.10494300923E+03  0.46748152395E+03  0.47986799518E+03  0.10566000000E+00 0. -1.
        994    1    1    2    0    0  0.14804687145E+02 -0.24395716064E+02  0.19998859900E+02  0.17471040072E+03  0.17120000000E+03 0.  0.
        998    1    1    2    0    0 -0.41661180098E+02 -0.80547293161E+02  0.10125196124E+04  0.10166216041E+04  0.10000000000E+02 0. -1.
</event>
<event>
 5    1  0.1218060E-008  0.3834560E+03  0.7957747E-01  0.3436247E+00
         13   -1    0    0    0    0  0.00000000000E+00  0.00000000000E+00  0.14999999963E+04  0.15000000000E+04  0.10566000000E+00 0. -1.
        994   -1    0    0    0    0 -0.00000000000E+00 -0.00000000000E+00  0.11368683772E-12  0.17120000000E+03  0.17120000000E+03 0.  0.
         13    1    1    2    0    0  0.13535739476E+02  0.54710311371E+01  0.42688592876E+02  0.45116244864E+02  0.10566000000E+00 0. -1.
        994    1    1    2    0    0 -0.16435802852E+02 -0.49128892698E+00  0.32928126555E+01  0.17201935820E+03  0.17120000000E+03 0.  0.
        998    1    1    2    0    0  0.29000633763E+01 -0.49797422101E+01  0.14540185907E+04  0.14540643969E+04  0.10000000000E+02 0. -1.
</event>
<event>
 5    1  0.1218060E-008  0.3689973E+03  0.7957747E-01  0.3500512E+00
         13   -1    0    0    0    0  0.00000000000E+00  0.00000000000E+00  0.14999999963E+04  0.15000000000E+04  0.10566000000E+00 0.  1.
        994   -1    0    0    0    0 -0.00000000000E+00 -0.00000000000E+00  0.11368683772E-12  0.17120000000E+03  0.17120000000E+03 0.  0.
         13    1    1    2    0    0 -0.18118907976E+03  0.10110334003E+03  0.11973091355E+04  0.12151545355E+04  0.10566000000E+00 0.  1.
        994    1    1    2    0    0  0.16617619092E+03 -0.96714244136E+02  0.14145961879E+03  0.29374893225E+03  0.17120000000E+03 0.  0.
        998    1    1    2    0    0  0.15012888832E+02 -0.43890958892E+01  0.16123124197E+03  0.16229653225E+03  0.10000000000E+02 0.  1.
</event>
<event>
 5    1  0.1218060E-008  0.3840977E+03  0.7957747E-01  0.3433508E+00
         13   -1    0    0    0    0  0.00000000000E+00  0.00000000000E+00  0.14999999963E+04  0.15000000000E+04  0.10566000000E+00 0. -1.
        994   -1    0    0    0    0 -0.00000000000E+00 -0.00000000000E+00  0.11368683772E-12  0.17120000000E+03  0.17120000000E+03 0.  0.
         13    1    1    2    0    0  0.23035206875E+02 -0.94502063678E+01  0.14182572099E+03  0.14399469940E+03  0.10566000000E+00 0. -1.
        994    1    1    2    0    0 -0.20279352004E+02  0.53427574048E+01  0.35307198875E+01  0.17251580553E+03  0.17120000000E+03 0.  0.
        998    1    1    2    0    0 -0.27558548717E+01  0.41074489629E+01  0.13546435554E+04  0.13546894951E+04  0.10000000000E+02 0. -1.
</event>
<event>
 5    1  0.1218060E-008  0.3820736E+03  0.7957747E-01  0.3442179E+00
         13   -1    0    0    0    0  0.00000000000E+00  0.00000000000E+00  0.14999999963E+04  0.15000000000E+04  0.10566000000E+00 0.  1.
        994   -1    0    0    0    0 -0.00000000000E+00 -0.00000000000E+00  0.11368683772E-12  0.17120000000E+03  0.17120000000E+03 0.  0.
         13    1    1    2    0    0  0.36447961971E+01 -0.19133051384E+02  0.58369900438E+02  0.61533849512E+02  0.10566000000E+00 0.  1.
        994    1    1    2    0    0 -0.40081441941E+01  0.19633084127E+02  0.44243234974E+01  0.17242545592E+03  0.17120000000E+03 0.  0.
        998    1    1    2    0    0  0.36334799697E+00 -0.50003274303E+00  0.14372057723E+04  0.14372406946E+04  0.10000000000E+02 0.  1.
</event>
<event>
 5    1  0.1218060E-008  0.3740783E+03  0.7957747E-01  0.3477355E+00
         13   -1    0    0    0    0  0.00000000000E+00  0.00000000000E+00  0.14999999963E+04  0.15000000000E+04  0.10566000000E+00 0. -1.
        994   -1    0    0    0    0 -0.00000000000E+00 -0.00000000000E+00  0.11368683772E-12  0.17120000000E+03  0.17120000000E+03 0.  0.
         13    1    1    2    0    0  0.28606043164E+02  0.19488855183E+02  0.45011742404E+02  0.56781945195E+02  0.10566000000E+00 0. -1.
        994    1    1    2    0    0 -0.86341755854E+01  0.43713352706E+02  0.20186744745E+02  0.17805153989E+03  0.17120000000E+03 0.  0.
        998    1    1    2    0    0 -0.19971867579E+02 -0.63202207888E+02  0.14348015091E+04  0.14363665149E+04  0.10000000000E+02 0. -1.
</event>
<event>
 5    1  0.1218060E-008  0.3769705E+03  0.7957747E-01  0.3464457E+00
         13   -1    0    0    0    0  0.00000000000E+00  0.00000000000E+00  0.14999999963E+04  0.15000000000E+04  0.10566000000E+00 0.  1.
        994   -1    0    0    0    0 -0.00000000000E+00 -0.00000000000E+00  0.11368683772E-12  0.17120000000E+03  0.17120000000E+03 0.  0.
         13    1    1    2    0    0  0.31162346272E+02  0.71091505867E+01  0.84255553026E+02  0.90114600520E+02  0.10566000000E+00 0.  1.
        994    1    1    2    0    0 -0.29246007728E+02 -0.82162119167E+01  0.87928141867E+01  0.17409649246E+03  0.17120000000E+03 0.  0.
        998    1    1    2    0    0 -0.19163385436E+01  0.11070613300E+01  0.14069516291E+04  0.14069889070E+04  0.10000000000E+02 0.  1.
</event>
<event>
 5    1  0.1218060E-008  0.3816835E+03  0.7957747E-01  0.3443861E+00
         13   -1    0    0    0    0  0.00000000000E+00  0.00000000000E+00  0.14999999963E+04  0.15000000000E+04  0.10566000000E+00 0. -1.
        994   -1    0    0    0    0 -0.00000000000E+00 -0.00000000000E+00  0.11368683772E-12  0.17120000000E+03  0.17120000000E+03 0.  0.
         13    1    1    2    0    0 -0.20448553069E+02  0.35798006782E+01  0.62073987170E+02  0.65453413530E+02  0.10566000000E+00 0. -1.
        994    1    1    2    0    0  0.22126548315E+02  0.53327048912E+00  0.49159439953E+01  0.17269474521E+03  0.17120000000E+03 0.  0.
        998    1    1    2    0    0 -0.16779952459E+01 -0.41130711674E+01  0.14330100651E+04  0.14330518413E+04  0.10000000000E+02 0. -1.
</event>
<event>
 5    1  0.1218060E-008  0.3849306E+03  0.7957747E-01  0.3429966E+00
         13   -1    0    0    0    0  0.00000000000E+00  0.00000000000E+00  0.14999999963E+04  0.15000000000E+04  0.10566000000E+00 0.  1.
        994   -1    0    0    0    0 -0.00000000000E+00 -0.00000000000E+00  0.11368683772E-12  0.17120000000E+03  0.17120000000E+03 0.  0.
         13    1    1    2    0    0  0.71538479595E+00 -0.20177904911E+02  0.11050582074E+03  0.11233524471E+03  0.10566000000E+00 0.  1.
        994    1    1    2    0    0  0.83606390008E+01  0.25943828562E+02  0.41123529762E+01  0.17340511518E+03  0.17120000000E+03 0.  0.
        998    1    1    2    0    0 -0.90760237967E+01 -0.57659236516E+01  0.13853818226E+04  0.13854596401E+04  0.10000000000E+02 0.  1.
</event>
<event>
 5    1  0.1218060E-008  0.3847811E+03  0.7957747E-01  0.3430601E+00
         13   -1    0    0    0    0  0.00000000000E+00  0.00000000000E+00  0.14999999963E+04  0.15000000000E+04  0.10566000000E+00 0. -1.
        994   -1    0    0    0    0 -0.00000000000E+00 -0.00000000000E+00  0.11368683772E-12  0.17120000000E+03  0.17120000000E+03 0.  0.
         13    1    1    2    0    0  0.17543776504E+02 -0.82743840093E+00  0.84861573323E+02  0.86660063115E+02  0.10566000000E+00 0. -1.
        994    1    1    2    0    0 -0.17394777103E+02  0.39245028296E+01  0.27860111675E+01  0.17214872016E+03  0.17120000000E+03 0.  0.
        998    1    1    2    0    0 -0.14899940125E+00 -0.30970644286E+01  0.14123524118E+04  0.14123912167E+04  0.10000000000E+02 0. -1.
</event>
<event>
 5    1  0.1218060E-008  0.3822183E+03  0.7957747E-01  0.3441556E+00
         13   -1    0    0    0    0  0.00000000000E+00  0.00000000000E+00  0.14999999963E+04  0.15000000000E+04  0.10566000000E+00 0. -1.
        994   -1    0    0    0    0 -0.00000000000E+00 -0.00000000000E+00  0.11368683772E-12  0.17120000000E+03  0.17120000000E+03 0.  0.
         13    1    1    2    0    0  0.41491371178E+01 -0.31400695154E+02  0.17895156746E+03  0.18173302852E+03  0.10566000000E+00 0. -1.
        994    1    1    2    0    0  0.48688602669E+01  0.96114062677E+01  0.34028458148E+01  0.17157244619E+03  0.17120000000E+03 0.  0.
        998    1    1    2    0    0 -0.90179973847E+01  0.21789288886E+02  0.13176455830E+04  0.13178945253E+04  0.10000000000E+02 0. -1.
</event>
<event>
 5    1  0.1218060E-008  0.3861986E+03  0.7957747E-01  0.3424605E+00
         13   -1    0    0    0    0  0.00000000000E+00  0.00000000000E+00  0.14999999963E+04  0.15000000000E+04  0.10566000000E+00 0.  1.
        994   -1    0    0    0    0 -0.00000000000E+00 -0.00000000000E+00  0.11368683772E-12  0.17120000000E+03  0.17120000000E+03 0.  0.
         13    1    1    2    0    0  0.96815972787E+01  0.40495906091E+01  0.55076797995E+02  0.56067792460E+02  0.10566000000E+00 0.  1.
        994    1    1    2    0    0 -0.28970147187E+00 -0.10677616448E+02  0.14100906497E+01  0.17153869469E+03  0.17120000000E+03 0.  0.
        998    1    1    2    0    0 -0.93918958069E+01  0.66280258389E+01  0.14435131076E+04  0.14435935129E+04  0.10000000000E+02 0.  1.
</event>
