<LesHouchesEvents version="3.0">
<header>
<!--
#*********************************************************************
#                                                                    *
#                        MadGraph5_aMC@NLO                           *
#                                                                    *
#                           Going Beyond                             *
#                                                                    *
#                   http://madgraph.hep.uiuc.edu                     *
#                   http://madgraph.phys.ucl.ac.be                   *
#                   http://amcatnlo.cern.ch                          *
#                                                                    *
#                     The MadGraph5_aMC@NLO team                     *
#                                                                    *
#....................................................................*
#                                                                    *
# This file contains all the information necessary to reproduce      *
# the events generated:                                              *
#                                                                    *
# 1. software version                                                *
# 2. proc_card          : code generation info including model       *
# 3. param_card         : model primary parameters in the LH format  *
# 4. run_card           : running parameters (collider and cuts)     *
# 5. pythia_card        : present only if pythia has been run        *
# 6. pgs_card           : present only if pgs has been run           *
# 7. delphes_cards      : present only if delphes has been run       *
#                                                                    *
#                                                                    *
#*********************************************************************
-->
<MGVersion>
#3.5.0
</MGVersion>
<MG5ProcCard>
<![CDATA[
#************************************************************
#*                     MadGraph5_aMC@NLO                    *
#*                                                          *
#*                *                       *                 *
#*                  *        * *        *                   *
#*                    * * * * 5 * * * *                     *
#*                  *        * *        *                   *
#*                *                       *                 *
#*                                                          *
#*                                                          *
#*         VERSION 3.5.0                 2023-05-12         *
#*                                                          *
#*    The MadGraph5_aMC@NLO Development Team - Find us at   *
#*    https://server06.fynu.ucl.ac.be/projects/madgraph     *
#*                                                          *
#************************************************************
#*                                                          *
#*               Command File for MadGraph5_aMC@NLO         *
#*                                                          *
#*     run as ./bin/mg5_aMC  filename                       *
#*                                                          *
#************************************************************
set group_subprocesses Auto
set ignore_six_quark_processes False
set low_mem_multicore_nlo_generation False
set complex_mass_scheme False
set include_lepton_initiated_processes False
set gauge unitary
set loop_optimized_output True
set loop_color_flows False
set max_npoint_for_channel 0
set default_unset_couplings 99
set max_t_for_channel 99
set zerowidth_tchannel True
set nlo_mixed_expansion True
import model combined_beamdump
define l+ = e+ mu+
define l- = e- mu-
generate mu- ns > mu- ns phi
output /Users/sam/Documents/Research/BeamDumpBSM/calculations/madgraph\
/processes/test_madgraph_generation
]]>
</MG5ProcCard>
<MGProcCard>
#*********************************************************************
#                        MadGraph/MadEvent                           *
#                   http://madgraph.hep.uiuc.edu                     *
#                                                                    *
#                          proc_card.dat                             *
#*********************************************************************
#                                                                    *
#            This Files is generated by MADGRAPH 5                   *
#                                                                    *
# WARNING: This Files is generated for MADEVENT (compatibility issue)*
#          This files is NOT a valid MG4 proc_card.dat               *
#          Running this in MG4 will NEVER reproduce the result of MG5*
#                                                                    *
#*********************************************************************
#*********************************************************************
# Process(es) requested : mg2 input                                  *
#*********************************************************************
# Begin PROCESS # This is TAG. Do not modify this line
mu- ns > mu- ns phi           #Process
# Be carefull the coupling are here in MG5 convention
          
end_coup           # End the couplings input

done               # this tells MG there are no more procs
# End PROCESS  # This is TAG. Do not modify this line
#*********************************************************************
# Model information                                                  *
#*********************************************************************
# Begin MODEL  # This is TAG. Do not modify this line
combined_beamdump
# End   MODEL  # This is TAG. Do not modify this line
#*********************************************************************
# Start multiparticle definitions                                    *
#*********************************************************************
# Begin MULTIPARTICLES # This is TAG. Do not modify this line

# End  MULTIPARTICLES # This is TAG. Do not modify this line
</MGProcCard>
<MGRunCard>
<![CDATA[
#*********************************************************************
#                       MadGraph5_aMC@NLO                            *
#                                                                    *
#                     run_card.dat MadEvent                          *
#                                                                    *
#  This file is used to set the parameters of the run.               *
#                                                                    *
#  Some notation/conventions:                                        *
#                                                                    *
#   Lines starting with a '# ' are info or comments                  *
#                                                                    *
#   mind the format:   value    = variable     ! comment             *
#                                                                    *
#   To display more options, you can type the command:               *
#      update to_full                                                *
#*********************************************************************
#                                                                    
#*********************************************************************
# Tag name for the run (one word)                                    *
#*********************************************************************
  tag_1	= run_tag ! name of the run 
#*********************************************************************
# Number of events and rnd seed                                      *
# Warning: Do not generate more than 1M events in a single run       *
#*********************************************************************
  1000	= nevents ! Number of unweighted events requested 
 45 = iseed ! rnd seed (0=assigned automatically=default))
#*********************************************************************
# Collider type and energy                                           *
# lpp: 0=No PDF, 1=proton, -1=antiproton,                            *
#                2=elastic photon of proton/ion beam                 *
#             +/-3=PDF of electron/positron beam                     *
#             +/-4=PDF of muon/antimuon beam                         *
#*********************************************************************
  0	= lpp1 ! beam 1 type 
  0	= lpp2 ! beam 2 type
  500.0	= ebeam1 ! beam 1 total energy in GeV
  0.0	= ebeam2 ! beam 2 total energy in GeV
#*********************************************************************
# Beam polarization from -100 (left-handed) to 100 (right-handed)    *
#*********************************************************************
  0.0	= polbeam1 ! beam polarization for beam 1
  0.0	= polbeam2 ! beam polarization for beam 2


#*********************************************************************
# PDF CHOICE: this automatically fixes alpha_s and its evol.         *
# pdlabel: lhapdf=LHAPDF (installation needed) [1412.7420]           *
#          iww=Improved Weizsaecker-Williams Approx.[hep-ph/9310350] *
#          eva=Effective W/Z/A Approx.       [2111.02442]            *
#          edff=EDFF in gamma-UPC            [eq.(11) in 2207.03012] *
#          chff=ChFF in gamma-UPC            [eq.(13) in 2207.03012] *
#          none=No PDF, same as lhapdf with lppx=0                   *
#*********************************************************************
  none	= pdlabel1 ! PDF type for beam #1
  none	= pdlabel2 ! PDF type for beam #2
  230000	= lhaid ! if pdlabel=lhapdf, this is the lhapdf number
# To see heavy ion options: type "update ion_pdf"
#*********************************************************************
# Renormalization and factorization scales                           *
#*********************************************************************
  False	= fixed_ren_scale ! if .true. use fixed ren scale
  False	= fixed_fac_scale1 ! if .true. use fixed fac scale for beam 1
  False	= fixed_fac_scale2 ! if .true. use fixed fac scale for beam 2
  91.188	= scale ! fixed ren scale
  91.188	= dsqrt_q2fact1 ! fixed fact scale for pdf1
  91.188	= dsqrt_q2fact2 ! fixed fact scale for pdf2
  -1	= dynamical_scale_choice ! Choose one of the preselected dynamical choices
  1.0	= scalefact ! scale factor for event-by-event scales

 
#*********************************************************************
# Type and output format
#*********************************************************************
  False	= gridpack !True = setting up the grid pack
  -1.0	= time_of_flight ! threshold (in mm) below which the invariant livetime is not written (-1 means not written)
  average	= event_norm ! average/sum. Normalization of the weight in the LHEF
# To see MLM/CKKW  merging options: type "update MLM" or "update CKKW"

#*********************************************************************
#
#*********************************************************************
# Phase-Space Optimization strategy (basic options)
#*********************************************************************
  0	= nhel ! using helicities importance sampling or not.
                             ! 0: sum over helicity, 1: importance sampling
  2	= sde_strategy ! default integration strategy (hep-ph/2021.00773)
                             ! 1 is old strategy (using amp square)
			     ! 2 is new strategy (using only the denominator)
# To see advanced option for Phase-Space optimization: type "update psoptim"			     
#*********************************************************************
# Customization (custom cuts/scale/bias/...)                         *
# list of files containing fortran function that overwrite default   *
#*********************************************************************
  	= custom_fcts ! List of files containing user hook function
#*******************************                                                 
# Parton level cuts definition *
#*******************************
  0.0	= dsqrt_shat ! minimal shat for full process
#                                                                    
#
#*********************************************************************
# BW cutoff (M+/-bwcutoff*Gamma) ! Define on/off-shell for "$" and decay  
#*********************************************************************
  15.0	= bwcutoff ! (M+/-bwcutoff*Gamma)
#*********************************************************************
# Standard Cuts                                                      *
#*********************************************************************
# Minimum and maximum pt's (for max, -1 means no cut)                *
#*********************************************************************
  10.0	= ptl ! minimum pt for the charged leptons 
  -1.0	= ptlmax ! maximum pt for the charged leptons
  {}	= pt_min_pdg ! pt cut for other particles (use pdg code). Applied on particle and anti-particle
  {}	= pt_max_pdg ! pt cut for other particles (syntax e.g. {6: 100, 25: 50}) 
#
# For display option for energy cut in the partonic center of mass frame type 'update ecut'
#
#*********************************************************************
# Maximum and minimum absolute rapidity (for max, -1 means no cut)   *
#*********************************************************************
  2.5	= etal ! max rap for the charged leptons 
  0.0	= etalmin ! main rap for the charged leptons
  {}	= eta_min_pdg ! rap cut for other particles (use pdg code). Applied on particle and anti-particle
  {}	= eta_max_pdg ! rap cut for other particles (syntax e.g. {6: 2.5, 23: 5})
#*********************************************************************
# Minimum and maximum DeltaR distance                                *
#*********************************************************************
#*********************************************************************
# Minimum and maximum invariant mass for pairs                       *
#*********************************************************************
  {}	= mxx_min_pdg ! min invariant mass of a pair of particles X/X~ (e.g. {6:250})
  {'default': False}	= mxx_only_part_antipart ! if True the invariant mass is applied only 
                       ! to pairs of particle/antiparticle and not to pairs of the same pdg codes.  
#*********************************************************************
# Inclusive cuts                                                     *
#*********************************************************************
  0.0	= ptheavy ! minimum pt for at least one heavy final state
#*********************************************************************
# maximal pdg code for quark to be considered as a light jet         *
# (otherwise b cuts are applied)                                     *
#*********************************************************************
  4	= maxjetflavor ! Maximum jet pdg code
#*********************************************************************
#
#*********************************************************************
# Store info for systematics studies                                 *
# WARNING: Do not use for interference type of computation           *
#*********************************************************************
  False	= use_syst ! Enable systematics studies
#
  systematics	= systematics_program ! none, systematics [python], SysCalc [depreceted, C++]
  ['--mur=0.5,1,2', '--muf=0.5,1,2', '--pdf=errorset']	= systematics_arguments ! see: https://cp3.irmp.ucl.ac.be/projects/madgraph/wiki/Systematics#Systematicspythonmodule
]]>
</MGRunCard>
<slha>
######################################################################
## PARAM_CARD AUTOMATICALY GENERATED BY MG5                       ####
######################################################################
###################################
## INFORMATION FOR FRBLOCK
###################################
BLOCK FRBLOCK # 
      1 1.000000e+00 # alphaem
      2 1.000000e+00 # yse
      3 1.000000e+00 # ysmu
      4 1.000000e+00 # yphie
      5 1.000000e+00 # yphimu
      6 1.000000e+00 # gprimakoff
      7 1.000000e+00 # gvel
      8 1.000000e+00 # gvmu
      9 1.000000e+00 # guel
      10 1.000000e+00 # gumu
###################################
## INFORMATION FOR MASS
###################################
BLOCK MASS # 
      11 5.110000e-04 # mel
      13 1.056600e-01 # mmu
      994 1.310000e+02 # mns
      995 1.270000e+02 # mnf
      996 1.033000e+03 # ms
      997 100 # mphi
      998 1.181000e+03 # mv
      999 1.103000e+03 # mu
      22 0.000000e+00 # a : 0.0
###################################
## INFORMATION FOR DECAY
###################################
DECAY 11 0.000000e+00 # e- : 0.0
DECAY 13 0.000000e+00 # mu- : 0.0
DECAY 22 0.000000e+00 # a : 0.0
DECAY 994 0.000000e+00 # ns : 0.0
DECAY 995 0.000000e+00 # nf : 0.0
DECAY 996 0.000000e+00 # s : 0.0
DECAY 997 0.000000e+00 # phi : 0.0
DECAY 998 0.000000e+00 # v : 0.0
DECAY 999 0.000000e+00 # u : 0.0
###################################
## INFORMATION FOR QNUMBERS 994
###################################
BLOCK QNUMBERS 994 #    ns
      1 3 # 3 times electric charge
      2 1 # number of spin states (2s+1)
      3 1 # colour rep (1: singlet, 3: triplet, 8: octet)
      4 1 # particle/antiparticle distinction (0=own anti)
###################################
## INFORMATION FOR QNUMBERS 995
###################################
BLOCK QNUMBERS 995 #    nf
      1 3 # 3 times electric charge
      2 2 # number of spin states (2s+1)
      3 1 # colour rep (1: singlet, 3: triplet, 8: octet)
      4 1 # particle/antiparticle distinction (0=own anti)
###################################
## INFORMATION FOR QNUMBERS 996
###################################
BLOCK QNUMBERS 996 #    s
      1 0 # 3 times electric charge
      2 1 # number of spin states (2s+1)
      3 1 # colour rep (1: singlet, 3: triplet, 8: octet)
      4 0 # particle/antiparticle distinction (0=own anti)
###################################
## INFORMATION FOR QNUMBERS 997
###################################
BLOCK QNUMBERS 997 #    phi
      1 0 # 3 times electric charge
      2 1 # number of spin states (2s+1)
      3 1 # colour rep (1: singlet, 3: triplet, 8: octet)
      4 0 # particle/antiparticle distinction (0=own anti)
###################################
## INFORMATION FOR QNUMBERS 998
###################################
BLOCK QNUMBERS 998 #    v
      1 0 # 3 times electric charge
      2 3 # number of spin states (2s+1)
      3 1 # colour rep (1: singlet, 3: triplet, 8: octet)
      4 0 # particle/antiparticle distinction (0=own anti)
###################################
## INFORMATION FOR QNUMBERS 999
###################################
BLOCK QNUMBERS 999 #    u
      1 0 # 3 times electric charge
      2 3 # number of spin states (2s+1)
      3 1 # colour rep (1: singlet, 3: triplet, 8: octet)
      4 0 # particle/antiparticle distinction (0=own anti)
</slha>
<MGGenerationInfo>
#  Number of Events        :       1000
#  Integrated weight (pb)  :       8.565099999999999e-08
</MGGenerationInfo>
</header>
<init>
13 994 5.000000e+02 0.000000e+00 0 0 0 0 -4 1
8.565100e-08 1.545830e-09 8.565100e-08 1
<generator name='MadGraph5_aMC@NLO' version='3.5.0'>please cite 1405.0301 </generator>
</init>
<event>
 5      1 +8.5651000e-08 1.35259700e+02 7.95774700e-02 7.18040300e-01
       13 -1    0    0    0    0 +0.0000000000e+00 +0.0000000000e+00 +4.9999998884e+02 5.0000000000e+02 1.0566000000e-01 0.0000e+00 -1.0000e+00
      994 -1    0    0    0    0 -0.0000000000e+00 -0.0000000000e+00 +0.0000000000e+00 1.3100000000e+02 1.3100000000e+02 0.0000e+00 0.0000e+00
       13  1    1    2    0    0 -7.1788589981e+01 +3.3477120650e+01 +1.0569986214e+02 1.3208630239e+02 1.0566000000e-01 0.0000e+00 1.0000e+00
      994  1    1    2    0    0 -1.0222662361e+01 +3.6577389223e+01 +9.7472902572e+01 1.6764359506e+02 1.3100000000e+02 0.0000e+00 0.0000e+00
      997  1    1    2    0    0 +8.2011252342e+01 -7.0054509873e+01 +2.9682722412e+02 3.3127010255e+02 1.0000000000e+02 0.0000e+00 0.0000e+00
</event>
<event>
 5      1 +8.5651000e-08 2.04165200e+02 7.95774700e-02 4.96398900e-01
       13 -1    0    0    0    0 +0.0000000000e+00 +0.0000000000e+00 +4.9999998884e+02 5.0000000000e+02 1.0566000000e-01 0.0000e+00 -1.0000e+00
      994 -1    0    0    0    0 -0.0000000000e+00 -0.0000000000e+00 +0.0000000000e+00 1.3100000000e+02 1.3100000000e+02 0.0000e+00 0.0000e+00
       13  1    1    2    0    0 -5.4585465160e+01 -5.2820009393e+00 +1.4037036921e+02 1.5070276791e+02 1.0566000000e-01 0.0000e+00 1.0000e+00
      994  1    1    2    0    0 +1.6996687633e+01 +4.3287617954e+01 +4.5401083480e+01 1.4623598613e+02 1.3100000000e+02 0.0000e+00 0.0000e+00
      997  1    1    2    0    0 +3.7588777527e+01 -3.8005617015e+01 +3.1422853614e+02 3.3406124595e+02 1.0000000000e+02 0.0000e+00 0.0000e+00
</event>
<event>
 5      1 +8.5651000e-08 1.58868900e+02 7.95774700e-02 6.09376800e-01
       13 -1    0    0    0    0 +0.0000000000e+00 +0.0000000000e+00 +4.9999998884e+02 5.0000000000e+02 1.0566000000e-01 0.0000e+00 -1.0000e+00
      994 -1    0    0    0    0 -0.0000000000e+00 -0.0000000000e+00 +0.0000000000e+00 1.3100000000e+02 1.3100000000e+02 0.0000e+00 0.0000e+00
       13  1    1    2    0    0 +9.6480700174e+01 +8.6794813059e+00 +3.9266476864e+01 1.0452619897e+02 1.0566000000e-01 0.0000e+00 1.0000e+00
      994  1    1    2    0    0 -4.4599256923e+01 -2.1458513673e+00 +2.0985256342e+02 2.5138177494e+02 1.3100000000e+02 0.0000e+00 0.0000e+00
      997  1    1    2    0    0 -5.1881443251e+01 -6.5336299386e+00 +2.5088094855e+02 2.7509202609e+02 1.0000000000e+02 0.0000e+00 0.0000e+00
</event>
<event>
 5      1 +8.5651000e-08 2.02699000e+02 7.95774700e-02 4.99012500e-01
       13 -1    0    0    0    0 +0.0000000000e+00 +0.0000000000e+00 +4.9999998884e+02 5.0000000000e+02 1.0566000000e-01 0.0000e+00 -1.0000e+00
      994 -1    0    0    0    0 -0.0000000000e+00 -0.0000000000e+00 +0.0000000000e+00 1.3100000000e+02 1.3100000000e+02 0.0000e+00 0.0000e+00
       13  1    1    2    0    0 -3.3083773874e+01 -8.8991901624e+00 +2.4460083142e+01 4.2095587781e+01 1.0566000000e-01 0.0000e+00 1.0000e+00
      994  1    1    2    0    0 +3.6086973109e+01 +4.9985968739e+01 +5.5321785774e+01 1.5499150519e+02 1.3100000000e+02 0.0000e+00 0.0000e+00
      997  1    1    2    0    0 -3.0031992353e+00 -4.1086778576e+01 +4.2021811992e+02 4.3391290703e+02 1.0000000000e+02 0.0000e+00 0.0000e+00
</event>
<event>
 5      1 +8.5651000e-08 1.93782400e+02 7.95774700e-02 5.16025900e-01
       13 -1    0    0    0    0 +0.0000000000e+00 +0.0000000000e+00 +4.9999998884e+02 5.0000000000e+02 1.0566000000e-01 0.0000e+00 1.0000e+00
      994 -1    0    0    0    0 -0.0000000000e+00 -0.0000000000e+00 +0.0000000000e+00 1.3100000000e+02 1.3100000000e+02 0.0000e+00 0.0000e+00
       13  1    1    2    0    0 -1.2908743588e+01 -1.9881171812e+01 +2.8896381163e+01 3.7375241297e+01 1.0566000000e-01 0.0000e+00 -1.0000e+00
      994  1    1    2    0    0 +1.6746910682e+01 +2.2818863704e+01 +2.4886373181e+01 1.3631394326e+02 1.3100000000e+02 0.0000e+00 0.0000e+00
      997  1    1    2    0    0 -3.8381670938e+00 -2.9376918923e+00 +4.4621723449e+02 4.5731081544e+02 1.0000000000e+02 0.0000e+00 0.0000e+00
</event>
<event>
 5      1 +8.5651000e-08 2.08487500e+02 7.95774700e-02 4.88967400e-01
       13 -1    0    0    0    0 +0.0000000000e+00 +0.0000000000e+00 +4.9999998884e+02 5.0000000000e+02 1.0566000000e-01 0.0000e+00 -1.0000e+00
      994 -1    0    0    0    0 -0.0000000000e+00 -0.0000000000e+00 +0.0000000000e+00 1.3100000000e+02 1.3100000000e+02 0.0000e+00 0.0000e+00
       13  1    1    2    0    0 +4.1142856827e+01 -3.3212235238e+01 +9.6213422594e+01 1.0978534096e+02 1.0566000000e-01 0.0000e+00 1.0000e+00
      994  1    1    2    0    0 -3.1133455818e+01 -3.6136980732e+01 +5.1926587847e+01 1.4877010443e+02 1.3100000000e+02 0.0000e+00 0.0000e+00
      997  1    1    2    0    0 -1.0009401009e+01 +6.9349215969e+01 +3.5185997839e+02 3.7244455461e+02 1.0000000000e+02 0.0000e+00 0.0000e+00
</event>
<event>
 5      1 +8.5651000e-08 1.96546100e+02 7.95774700e-02 5.10535800e-01
       13 -1    0    0    0    0 +0.0000000000e+00 +0.0000000000e+00 +4.9999998884e+02 5.0000000000e+02 1.0566000000e-01 0.0000e+00 1.0000e+00
      994 -1    0    0    0    0 -0.0000000000e+00 -0.0000000000e+00 +0.0000000000e+00 1.3100000000e+02 1.3100000000e+02 0.0000e+00 0.0000e+00
       13  1    1    2    0    0 -1.0162760200e+00 +1.3467486660e+01 +2.0196243370e+01 2.4296201847e+01 1.0566000000e-01 0.0000e+00 -1.0000e+00
      994  1    1    2    0    0 +4.2373696017e+00 -2.4196409238e+01 +1.8509889546e+01 1.3456239271e+02 1.3100000000e+02 0.0000e+00 0.0000e+00
      997  1    1    2    0    0 -3.2210935818e+00 +1.0728922578e+01 +4.6129385592e+02 4.7214140544e+02 1.0000000000e+02 0.0000e+00 0.0000e+00
</event>
<event>
 5      1 +8.5651000e-08 1.96285900e+02 7.95774700e-02 5.11044000e-01
       13 -1    0    0    0    0 +0.0000000000e+00 +0.0000000000e+00 +4.9999998884e+02 5.0000000000e+02 1.0566000000e-01 0.0000e+00 1.0000e+00
      994 -1    0    0    0    0 -0.0000000000e+00 -0.0000000000e+00 +0.0000000000e+00 1.3100000000e+02 1.3100000000e+02 0.0000e+00 0.0000e+00
       13  1    1    2    0    0 -1.3559521899e+01 -1.8375936623e+01 +1.0282721513e+02 1.0533272528e+02 1.0566000000e-01 0.0000e+00 -1.0000e+00
      994  1    1    2    0    0 +1.6076845250e+01 +2.8922730753e+01 +2.1565536433e+01 1.3682493073e+02 1.3100000000e+02 0.0000e+00 0.0000e+00
      997  1    1    2    0    0 -2.5173233514e+00 -1.0546794130e+01 +3.7560723728e+02 3.8884234399e+02 1.0000000000e+02 0.0000e+00 0.0000e+00
</event>
<event>
 5      1 +8.5651000e-08 2.01853500e+02 7.95774700e-02 5.00541900e-01
       13 -1    0    0    0    0 +0.0000000000e+00 +0.0000000000e+00 +4.9999998884e+02 5.0000000000e+02 1.0566000000e-01 0.0000e+00 -1.0000e+00
      994 -1    0    0    0    0 -0.0000000000e+00 -0.0000000000e+00 +0.0000000000e+00 1.3100000000e+02 1.3100000000e+02 0.0000e+00 0.0000e+00
       13  1    1    2    0    0 +3.5734437416e+00 -1.1206753357e+01 -3.3842054025e+00 1.2240295390e+01 1.0566000000e-01 0.0000e+00 1.0000e+00
      994  1    1    2    0    0 -1.1686017629e+01 +3.1035654435e+01 +3.5346081988e+01 1.3967863246e+02 1.3100000000e+02 0.0000e+00 0.0000e+00
      997  1    1    2    0    0 +8.1125738876e+00 -1.9828901078e+01 +4.6803811225e+02 4.7908107215e+02 1.0000000000e+02 0.0000e+00 0.0000e+00
</event>
<event>
 5      1 +8.5651000e-08 1.93536600e+02 7.95774700e-02 5.16524100e-01
       13 -1    0    0    0    0 +0.0000000000e+00 +0.0000000000e+00 +4.9999998884e+02 5.0000000000e+02 1.0566000000e-01 0.0000e+00 -1.0000e+00
      994 -1    0    0    0    0 -0.0000000000e+00 -0.0000000000e+00 +0.0000000000e+00 1.3100000000e+02 1.3100000000e+02 0.0000e+00 0.0000e+00
       13  1    1    2    0    0 -1.0409321974e+01 -1.2213964699e+01 +1.1203049952e+01 1.9571775849e+01 1.0566000000e-01 0.0000e+00 1.0000e+00
      994  1    1    2    0    0 +1.8623781932e+01 +1.4275347937e+01 +2.3142847990e+01 1.3508227946e+02 1.3100000000e+02 0.0000e+00 0.0000e+00
      997  1    1    2    0    0 -8.2144599584e+00 -2.0613832375e+00 +4.6565409089e+02 4.7634594469e+02 1.0000000000e+02 0.0000e+00 0.0000e+00
</event>
<event>
 5      1 +8.5651000e-08 2.10429500e+02 7.95774700e-02 4.85754800e-01
       13 -1    0    0    0    0 +0.0000000000e+00 +0.0000000000e+00 +4.9999998884e+02 5.0000000000e+02 1.0566000000e-01 0.0000e+00 -1.0000e+00
      994 -1    0    0    0    0 -0.0000000000e+00 -0.0000000000e+00 +0.0000000000e+00 1.3100000000e+02 1.3100000000e+02 0.0000e+00 0.0000e+00
       13  1    1    2    0    0 +2.8055515103e+01 +3.9622894838e+01 +6.8666983950e+01 8.4096679910e+01 1.0566000000e-01 0.0000e+00 1.0000e+00
      994  1    1    2    0    0 -7.4661782182e-01 +1.6605461560e+01 +3.9683821593e+01 1.3788438812e+02 1.3100000000e+02 0.0000e+00 0.0000e+00
      997  1    1    2    0    0 -2.7308897281e+01 -5.6228356397e+01 +3.9164918329e+02 4.0901893197e+02 1.0000000000e+02 0.0000e+00 0.0000e+00
</event>
<event>
 5      1 +8.5651000e-08 1.95177500e+02 7.95774700e-02 5.13228900e-01
       13 -1    0    0    0    0 +0.0000000000e+00 +0.0000000000e+00 +4.9999998884e+02 5.0000000000e+02 1.0566000000e-01 0.0000e+00 -1.0000e+00
      994 -1    0    0    0    0 -0.0000000000e+00 -0.0000000000e+00 +0.0000000000e+00 1.3100000000e+02 1.3100000000e+02 0.0000e+00 0.0000e+00
       13  1    1    2    0    0 -1.0073751114e+01 +2.7768747192e+01 +3.9275856491e+01 4.9144560729e+01 1.0566000000e-01 0.0000e+00 1.0000e+00
      994  1    1    2    0    0 -1.5289868576e+00 -3.8990331066e+01 +3.0741016631e+01 1.4010208357e+02 1.3100000000e+02 0.0000e+00 0.0000e+00
      997  1    1    2    0    0 +1.1602737971e+01 +1.1221583874e+01 +4.2998311571e+02 4.4175335570e+02 1.0000000000e+02 0.0000e+00 0.0000e+00
</event>
<event>
 5      1 +8.5651000e-08 2.05771600e+02 7.95774700e-02 4.93590300e-01
       13 -1    0    0    0    0 +0.0000000000e+00 +0.0000000000e+00 +4.9999998884e+02 5.0000000000e+02 1.0566000000e-01 0.0000e+00 -1.0000e+00
      994 -1    0    0    0    0 -0.0000000000e+00 -0.0000000000e+00 +0.0000000000e+00 1.3100000000e+02 1.3100000000e+02 0.0000e+00 0.0000e+00
       13  1    1    2    0    0 +3.1244675547e+01 +3.5992826669e+01 +6.6324118702e+01 8.1673822044e+01 1.0566000000e-01 0.0000e+00 1.0000e+00
      994  1    1    2    0    0 -6.1032505659e+01 +2.9371519115e+01 +6.5976101962e+01 1.6155958316e+02 1.3100000000e+02 0.0000e+00 0.0000e+00
      997  1    1    2    0    0 +2.9787830113e+01 -6.5364345784e+01 +3.6769976817e+02 3.8776659479e+02 1.0000000000e+02 0.0000e+00 0.0000e+00
</event>
<event>
 5      1 +8.5651000e-08 1.96252500e+02 7.95774700e-02 5.11109400e-01
       13 -1    0    0    0    0 +0.0000000000e+00 +0.0000000000e+00 +4.9999998884e+02 5.0000000000e+02 1.0566000000e-01 0.0000e+00 -1.0000e+00
      994 -1    0    0    0    0 -0.0000000000e+00 -0.0000000000e+00 +0.0000000000e+00 1.3100000000e+02 1.3100000000e+02 0.0000e+00 0.0000e+00
       13  1    1    2    0    0 +6.2404660931e+00 -1.0790109264e+01 +1.8638063136e+01 2.2422275453e+01 1.0566000000e-01 0.0000e+00 1.0000e+00
      994  1    1    2    0    0 -6.0384554563e+00 +8.2238595483e-02 +1.5579594505e+01 1.3206132467e+02 1.3100000000e+02 0.0000e+00 0.0000e+00
      997  1    1    2    0    0 -2.0201063678e-01 +1.0707870669e+01 +4.6578233119e+02 4.7651639988e+02 1.0000000000e+02 0.0000e+00 0.0000e+00
</event>
<event>
 5      1 +8.5651000e-08 1.98087700e+02 7.95774700e-02 5.07560800e-01
       13 -1    0    0    0    0 +0.0000000000e+00 +0.0000000000e+00 +4.9999998884e+02 5.0000000000e+02 1.0566000000e-01 0.0000e+00 -1.0000e+00
      994 -1    0    0    0    0 -0.0000000000e+00 -0.0000000000e+00 +0.0000000000e+00 1.3100000000e+02 1.3100000000e+02 0.0000e+00 0.0000e+00
       13  1    1    2    0    0 -5.6321575558e+00 +1.6949926800e+01 +1.0066429928e+01 2.0502814266e+01 1.0566000000e-01 0.0000e+00 1.0000e+00
      994  1    1    2    0    0 +2.4734287077e+01 +3.1363302143e+01 +3.4367596901e+01 1.4120047236e+02 1.3100000000e+02 0.0000e+00 0.0000e+00
      997  1    1    2    0    0 -1.9102129521e+01 -4.8313228944e+01 +4.5556596201e+02 4.6929671337e+02 1.0000000000e+02 0.0000e+00 0.0000e+00
</event>
<event>
 5      1 +8.5651000e-08 1.95254600e+02 7.95774700e-02 5.13075900e-01
       13 -1    0    0    0    0 +0.0000000000e+00 +0.0000000000e+00 +4.9999998884e+02 5.0000000000e+02 1.0566000000e-01 0.0000e+00 -1.0000e+00
      994 -1    0    0    0    0 -0.0000000000e+00 -0.0000000000e+00 +0.0000000000e+00 1.3100000000e+02 1.3100000000e+02 0.0000e+00 0.0000e+00
       13  1    1    2    0    0 -1.8129547847e+01 +1.4169270290e+01 +9.7595228222e+01 1.0027107490e+02 1.0566000000e-01 0.0000e+00 1.0000e+00
      994  1    1    2    0    0 +1.5009321823e+01 -5.3313409845e+00 +1.7720825551e+01 1.3314927937e+02 1.3100000000e+02 0.0000e+00 0.0000e+00
      997  1    1    2    0    0 +3.1202260238e+00 -8.8379293057e+00 +3.8468393506e+02 3.9757964573e+02 1.0000000000e+02 0.0000e+00 0.0000e+00
</event>
<event>
 5      1 +8.5651000e-08 1.93879600e+02 7.95774700e-02 5.15829200e-01
       13 -1    0    0    0    0 +0.0000000000e+00 +0.0000000000e+00 +4.9999998884e+02 5.0000000000e+02 1.0566000000e-01 0.0000e+00 1.0000e+00
      994 -1    0    0    0    0 -0.0000000000e+00 -0.0000000000e+00 +0.0000000000e+00 1.3100000000e+02 1.3100000000e+02 0.0000e+00 0.0000e+00
       13  1    1    2    0    0 -1.3282008673e+01 -9.8538769974e+00 +1.0583471345e+01 1.9634960555e+01 1.0566000000e-01 0.0000e+00 -1.0000e+00
      994  1    1    2    0    0 +2.3494275863e+01 +2.3959858038e+01 +2.6948549833e+01 1.3788865121e+02 1.3100000000e+02 0.0000e+00 0.0000e+00
      997  1    1    2    0    0 -1.0212267190e+01 -1.4105981041e+01 +4.6246796766e+02 4.7347638823e+02 1.0000000000e+02 0.0000e+00 0.0000e+00
</event>
<event>
 5      1 +8.5651000e-08 1.92688700e+02 7.95774700e-02 5.18256100e-01
       13 -1    0    0    0    0 +0.0000000000e+00 +0.0000000000e+00 +4.9999998884e+02 5.0000000000e+02 1.0566000000e-01 0.0000e+00 1.0000e+00
      994 -1    0    0    0    0 -0.0000000000e+00 -0.0000000000e+00 +0.0000000000e+00 1.3100000000e+02 1.3100000000e+02 0.0000e+00 0.0000e+00
       13  1    1    2    0    0 +1.5633561641e+01 +4.9223248102e+01 +1.0275946166e+02 1.1500806288e+02 1.0566000000e-01 0.0000e+00 -1.0000e+00
      994  1    1    2    0    0 -7.7969510243e+01 -8.5020689047e+01 +1.1770890071e+02 2.1053300786e+02 1.3100000000e+02 0.0000e+00 0.0000e+00
      997  1    1    2    0    0 +6.2335948602e+01 +3.5797440944e+01 +2.7953162647e+02 3.0545892926e+02 1.0000000000e+02 0.0000e+00 0.0000e+00
</event>
<event>
 5      1 +8.5651000e-08 2.00417700e+02 7.95774700e-02 5.03177600e-01
       13 -1    0    0    0    0 +0.0000000000e+00 +0.0000000000e+00 +4.9999998884e+02 5.0000000000e+02 1.0566000000e-01 0.0000e+00 -1.0000e+00
      994 -1    0    0    0    0 -0.0000000000e+00 -0.0000000000e+00 +0.0000000000e+00 1.3100000000e+02 1.3100000000e+02 0.0000e+00 0.0000e+00
       13  1    1    2    0    0 +1.9634086679e+01 +8.4474150293e+00 +1.1379137698e+01 2.4214708736e+01 1.0566000000e-01 0.0000e+00 1.0000e+00
      994  1    1    2    0    0 +5.6496988502e+00 -1.3338736166e+01 +2.8010914501e+01 1.3474216976e+02 1.3100000000e+02 0.0000e+00 0.0000e+00
      997  1    1    2    0    0 -2.5283785529e+01 +4.8913211365e+00 +4.6060993664e+02 4.7204312151e+02 1.0000000000e+02 0.0000e+00 0.0000e+00
</event>
<event>
 5      1 +8.5651000e-08 2.03691200e+02 7.95774700e-02 4.97238600e-01
       13 -1    0    0    0    0 +0.0000000000e+00 +0.0000000000e+00 +4.9999998884e+02 5.0000000000e+02 1.0566000000e-01 0.0000e+00 -1.0000e+00
      994 -1    0    0    0    0 -0.0000000000e+00 -0.0000000000e+00 +0.0000000000e+00 1.3100000000e+02 1.3100000000e+02 0.0000e+00 0.0000e+00
       13  1    1    2    0    0 -2.0874079472e+01 +5.2899316365e+01 +7.4885751676e+01 9.4031653361e+01 1.0566000000e-01 0.0000e+00 1.0000e+00
      994  1    1    2    0    0 +8.5083792575e+00 -6.4970069892e+01 +6.0468118854e+01 1.5846417859e+02 1.3100000000e+02 0.0000e+00 0.0000e+00
      997  1    1    2    0    0 +1.2365700215e+01 +1.2070753527e+01 +3.6464611831e+02 3.7850416805e+02 1.0000000000e+02 0.0000e+00 0.0000e+00
</event>
<event>
 5      1 +8.5651000e-08 2.12067600e+02 7.95774700e-02 4.83102800e-01
       13 -1    0    0    0    0 +0.0000000000e+00 +0.0000000000e+00 +4.9999998884e+02 5.0000000000e+02 1.0566000000e-01 0.0000e+00 1.0000e+00
      994 -1    0    0    0    0 -0.0000000000e+00 -0.0000000000e+00 +0.0000000000e+00 1.3100000000e+02 1.3100000000e+02 0.0000e+00 0.0000e+00
       13  1    1    2    0    0 -1.6660975410e+01 +4.2239439012e+00 -6.1057102365e+00 1.8240632259e+01 1.0566000000e-01 0.0000e+00 -1.0000e+00
      994  1    1    2    0    0 +2.0716369788e+01 -3.1392937524e+01 +5.0257240551e+01 1.4526346661e+02 1.3100000000e+02 0.0000e+00 0.0000e+00
      997  1    1    2    0    0 -4.0553943777e+00 +2.7168993622e+01 +4.5584845852e+02 4.6749590113e+02 1.0000000000e+02 0.0000e+00 0.0000e+00
</event>
<event>
 5      1 +8.5651000e-08 2.12878300e+02 7.95774700e-02 4.81809200e-01
       13 -1    0    0    0    0 +0.0000000000e+00 +0.0000000000e+00 +4.9999998884e+02 5.0000000000e+02 1.0566000000e-01 0.0000e+00 -1.0000e+00
      994 -1    0    0    0    0 -0.0000000000e+00 -0.0000000000e+00 +0.0000000000e+00 1.3100000000e+02 1.3100000000e+02 0.0000e+00 0.0000e+00
       13  1    1    2    0    0 -1.9718187916e+01 +1.2905588421e+01 +3.2761620096e-01 2.3568615648e+01 1.0566000000e-01 0.0000e+00 1.0000e+00
      994  1    1    2    0    0 +1.3327709471e+01 +2.5366823385e+01 +4.6799953226e+01 1.4202936031e+02 1.3100000000e+02 0.0000e+00 0.0000e+00
      997  1    1    2    0    0 +6.3904784447e+00 -3.8272411805e+01 +4.5287241941e+02 4.6540202404e+02 1.0000000000e+02 0.0000e+00 0.0000e+00
</event>
<event>
 5      1 +8.5651000e-08 1.95461600e+02 7.95774700e-02 5.12665800e-01
       13 -1    0    0    0    0 +0.0000000000e+00 +0.0000000000e+00 +4.9999998884e+02 5.0000000000e+02 1.0566000000e-01 0.0000e+00 -1.0000e+00
      994 -1    0    0    0    0 -0.0000000000e+00 -0.0000000000e+00 +0.0000000000e+00 1.3100000000e+02 1.3100000000e+02 0.0000e+00 0.0000e+00
       13  1    1    2    0    0 +4.0992614523e+00 +1.8818921719e+01 +1.1321858621e+02 1.1484517921e+02 1.0566000000e-01 0.0000e+00 1.0000e+00
      994  1    1    2    0    0 -3.8855636473e+01 -7.3523714760e+00 +2.5098122330e+01 1.3912129095e+02 1.3100000000e+02 0.0000e+00 0.0000e+00
      997  1    1    2    0    0 +3.4756375021e+01 -1.1466550243e+01 +3.6168328029e+02 3.7703352984e+02 1.0000000000e+02 0.0000e+00 0.0000e+00
</event>
<event>
 5      1 +8.5651000e-08 1.94417100e+02 7.95774700e-02 5.14746800e-01
       13 -1    0    0    0    0 +0.0000000000e+00 +0.0000000000e+00 +4.9999998884e+02 5.0000000000e+02 1.0566000000e-01 0.0000e+00 1.0000e+00
      994 -1    0    0    0    0 -0.0000000000e+00 -0.0000000000e+00 +0.0000000000e+00 1.3100000000e+02 1.3100000000e+02 0.0000e+00 0.0000e+00
       13  1    1    2    0    0 -2.1124077224e+01 -2.0816434673e+01 +1.1959160583e+02 1.2321409797e+02 1.0566000000e-01 0.0000e+00 -1.0000e+00
      994  1    1    2    0    0 +1.3527662220e+01 +3.9735530810e+01 +2.7324239419e+01 1.4024808061e+02 1.3100000000e+02 0.0000e+00 0.0000e+00
      997  1    1    2    0    0 +7.5964150039e+00 -1.8919096137e+01 +3.5308414359e+02 3.6753782142e+02 1.0000000000e+02 0.0000e+00 0.0000e+00
</event>
<event>
 5      1 +8.5651000e-08 1.95207900e+02 7.95774700e-02 5.13168600e-01
       13 -1    0    0    0    0 +0.0000000000e+00 +0.0000000000e+00 +4.9999998884e+02 5.0000000000e+02 1.0566000000e-01 0.0000e+00 -1.0000e+00
      994 -1    0    0    0    0 -0.0000000000e+00 -0.0000000000e+00 +0.0000000000e+00 1.3100000000e+02 1.3100000000e+02 0.0000e+00 0.0000e+00
       13  1    1    2    0    0 -1.3534947700e+01 +7.5325576139e-01 +4.7155493915e+00 1.4353040570e+01 1.0566000000e-01 0.0000e+00 1.0000e+00
      994  1    1    2    0    0 +1.8058499684e+01 +1.9276099607e+00 +2.3465502152e+01 1.3431848303e+02 1.3100000000e+02 0.0000e+00 0.0000e+00
      997  1    1    2    0    0 -4.5235519838e+00 -2.6808657221e+00 +4.7181893729e+02 4.8232847641e+02 1.0000000000e+02 0.0000e+00 0.0000e+00
</event>
<event>
 5      1 +8.5651000e-08 1.97254700e+02 7.95774700e-02 5.09160900e-01
       13 -1    0    0    0    0 +0.0000000000e+00 +0.0000000000e+00 +4.9999998884e+02 5.0000000000e+02 1.0566000000e-01 0.0000e+00 1.0000e+00
      994 -1    0    0    0    0 -0.0000000000e+00 -0.0000000000e+00 +0.0000000000e+00 1.3100000000e+02 1.3100000000e+02 0.0000e+00 0.0000e+00
       13  1    1    2    0    0 +7.5024663110e+00 +2.4210957508e+01 +2.6173719565e+01 3.6435315617e+01 1.0566000000e-01 0.0000e+00 -1.0000e+00
      994  1    1    2    0    0 -9.9241286534e+00 -6.8556657804e+00 +2.4379354805e+01 1.3379402611e+02 1.3100000000e+02 0.0000e+00 0.0000e+00
      997  1    1    2    0    0 +2.4216623424e+00 -1.7355291728e+01 +4.4944691447e+02 4.6077065827e+02 1.0000000000e+02 0.0000e+00 0.0000e+00
</event>
<event>
 5      1 +8.5651000e-08 2.35920400e+02 7.95774700e-02 4.49573100e-01
       13 -1    0    0    0    0 +0.0000000000e+00 +0.0000000000e+00 +4.9999998884e+02 5.0000000000e+02 1.0566000000e-01 0.0000e+00 1.0000e+00
      994 -1    0    0    0    0 -0.0000000000e+00 -0.0000000000e+00 +0.0000000000e+00 1.3100000000e+02 1.3100000000e+02 0.0000e+00 0.0000e+00
       13  1    1    2    0    0 -8.6375190209e-01 -4.3887765364e+01 +2.3238787791e+00 4.3957861556e+01 1.0566000000e-01 0.0000e+00 -1.0000e+00
      994  1    1    2    0    0 +3.8810528370e+01 -4.4367951207e+01 +1.2870945003e+02 1.9287792703e+02 1.3100000000e+02 0.0000e+00 0.0000e+00
      997  1    1    2    0    0 -3.7946776468e+01 +8.8255716571e+01 +3.6896666003e+02 3.9416421142e+02 1.0000000000e+02 0.0000e+00 0.0000e+00
</event>
<event>
 5      1 +8.5651000e-08 1.93006400e+02 7.95774700e-02 5.17604800e-01
       13 -1    0    0    0    0 +0.0000000000e+00 +0.0000000000e+00 +4.9999998884e+02 5.0000000000e+02 1.0566000000e-01 0.0000e+00 -1.0000e+00
      994 -1    0    0    0    0 -0.0000000000e+00 -0.0000000000e+00 +0.0000000000e+00 1.3100000000e+02 1.3100000000e+02 0.0000e+00 0.0000e+00
       13  1    1    2    0    0 -8.7894953901e+00 -5.4833559725e+00 +4.4496205157e+00 1.1275314129e+01 1.0566000000e-01 0.0000e+00 1.0000e+00
      994  1    1    2    0    0 +1.1235311901e+01 +1.5318099623e+00 +1.9098632550e+01 1.3286962196e+02 1.3100000000e+02 0.0000e+00 0.0000e+00
      997  1    1    2    0    0 -2.4458165106e+00 +3.9515460102e+00 +4.7645173577e+02 4.8685506391e+02 1.0000000000e+02 0.0000e+00 0.0000e+00
</event>
<event>
 5      1 +8.5651000e-08 2.05916700e+02 7.95774700e-02 4.93339400e-01
       13 -1    0    0    0    0 +0.0000000000e+00 +0.0000000000e+00 +4.9999998884e+02 5.0000000000e+02 1.0566000000e-01 0.0000e+00 1.0000e+00
      994 -1    0    0    0    0 -0.0000000000e+00 -0.0000000000e+00 +0.0000000000e+00 1.3100000000e+02 1.3100000000e+02 0.0000e+00 0.0000e+00
       13  1    1    2    0    0 +2.4739995868e+00 +2.3503606013e+01 +4.5814106404e+00 2.4073650680e+01 1.0566000000e-01 0.0000e+00 -1.0000e+00
      994  1    1    2    0    0 +1.8723262630e+01 -3.8360387587e+01 +4.5190908391e+01 1.4500102793e+02 1.3100000000e+02 0.0000e+00 0.0000e+00
      997  1    1    2    0    0 -2.1197262217e+01 +1.4856781574e+01 +4.5022766980e+02 4.6192532139e+02 1.0000000000e+02 0.0000e+00 0.0000e+00
</event>
<event>
 5      1 +8.5651000e-08 1.94742400e+02 7.95774700e-02 5.14095600e-01
       13 -1    0    0    0    0 +0.0000000000e+00 +0.0000000000e+00 +4.9999998884e+02 5.0000000000e+02 1.0566000000e-01 0.0000e+00 -1.0000e+00
      994 -1    0    0    0    0 -0.0000000000e+00 -0.0000000000e+00 +0.0000000000e+00 1.3100000000e+02 1.3100000000e+02 0.0000e+00 0.0000e+00
       13  1    1    2    0    0 +1.9123412641e+01 +2.9213352036e+01 +1.0361054287e+02 1.0933563283e+02 1.0566000000e-01 0.0000e+00 1.0000e+00
      994  1    1    2    0    0 -1.7690553196e+01 -3.2027428233e+00 +2.2967372859e+01 1.3420772500e+02 1.3100000000e+02 0.0000e+00 0.0000e+00
      997  1    1    2    0    0 -1.4328594448e+00 -2.6010609213e+01 +3.7342207311e+02 3.8745664217e+02 1.0000000000e+02 0.0000e+00 0.0000e+00
</event>
<event>
 5      1 +8.5651000e-08 1.94407300e+02 7.95774700e-02 5.14766500e-01
       13 -1    0    0    0    0 +0.0000000000e+00 +0.0000000000e+00 +4.9999998884e+02 5.0000000000e+02 1.0566000000e-01 0.0000e+00 -1.0000e+00
      994 -1    0    0    0    0 -0.0000000000e+00 -0.0000000000e+00 +0.0000000000e+00 1.3100000000e+02 1.3100000000e+02 0.0000e+00 0.0000e+00
       13  1    1    2    0    0 -6.6574087134e+00 -1.3217462745e+01 +1.6523916590e+01 2.2182727418e+01 1.0566000000e-01 0.0000e+00 1.0000e+00
      994  1    1    2    0    0 +3.4674207177e+01 +1.3736039112e+00 +2.4030740644e+01 1.3763235058e+02 1.3100000000e+02 0.0000e+00 0.0000e+00
      997  1    1    2    0    0 -2.8016798464e+01 +1.1843858834e+01 +4.5944533160e+02 4.7118492200e+02 1.0000000000e+02 0.0000e+00 0.0000e+00
</event>
<event>
 5      1 +8.5651000e-08 1.92775600e+02 7.95774700e-02 5.18077600e-01
       13 -1    0    0    0    0 +0.0000000000e+00 +0.0000000000e+00 +4.9999998884e+02 5.0000000000e+02 1.0566000000e-01 0.0000e+00 -1.0000e+00
      994 -1    0    0    0    0 -0.0000000000e+00 -0.0000000000e+00 +0.0000000000e+00 1.3100000000e+02 1.3100000000e+02 0.0000e+00 0.0000e+00
       13  1    1    2    0    0 -1.1489140747e+00 -3.0117385193e+01 +5.3259862967e+01 6.1196413798e+01 1.0566000000e-01 0.0000e+00 1.0000e+00
      994  1    1    2    0    0 +4.6210293039e+01 +4.9862954259e+01 +4.7112230510e+01 1.5492665250e+02 1.3100000000e+02 0.0000e+00 0.0000e+00
      997  1    1    2    0    0 -4.5061378965e+01 -1.9745569067e+01 +3.9962789536e+02 4.1487693371e+02 1.0000000000e+02 0.0000e+00 0.0000e+00
</event>
<event>
 5      1 +8.5651000e-08 2.15669100e+02 7.95774700e-02 4.77449600e-01
       13 -1    0    0    0    0 +0.0000000000e+00 +0.0000000000e+00 +4.9999998884e+02 5.0000000000e+02 1.0566000000e-01 0.0000e+00 -1.0000e+00
      994 -1    0    0    0    0 -0.0000000000e+00 -0.0000000000e+00 +0.0000000000e+00 1.3100000000e+02 1.3100000000e+02 0.0000e+00 0.0000e+00
       13  1    1    2    0    0 +4.6235136678e+01 +2.8261064178e+01 +7.7006147922e+01 9.4161210665e+01 1.0566000000e-01 0.0000e+00 1.0000e+00
      994  1    1    2    0    0 +2.4665939716e+01 +2.3337261084e+00 +4.8936285668e+01 1.4201976945e+02 1.3100000000e+02 0.0000e+00 0.0000e+00
      997  1    1    2    0    0 -7.0901076394e+01 -3.0594790286e+01 +3.7405755525e+02 3.9481901988e+02 1.0000000000e+02 0.0000e+00 0.0000e+00
</event>
<event>
 5      1 +8.5651000e-08 1.96717900e+02 7.95774700e-02 5.10201200e-01
       13 -1    0    0    0    0 +0.0000000000e+00 +0.0000000000e+00 +4.9999998884e+02 5.0000000000e+02 1.0566000000e-01 0.0000e+00 -1.0000e+00
      994 -1    0    0    0    0 -0.0000000000e+00 -0.0000000000e+00 +0.0000000000e+00 1.3100000000e+02 1.3100000000e+02 0.0000e+00 0.0000e+00
       13  1    1    2    0    0 -1.1773276472e+01 -1.2025667870e+01 +4.9236145526e+01 5.2033027174e+01 1.0566000000e-01 0.0000e+00 1.0000e+00
      994  1    1    2    0    0 +2.7406249809e+01 -1.1108020746e+01 +1.9890638074e+01 1.3576129101e+02 1.3100000000e+02 0.0000e+00 0.0000e+00
      997  1    1    2    0    0 -1.5632973337e+01 +2.3133688617e+01 +4.3087320524e+02 4.4320568182e+02 1.0000000000e+02 0.0000e+00 0.0000e+00
</event>
<event>
 5      1 +8.5651000e-08 2.02709600e+02 7.95774700e-02 4.98993400e-01
       13 -1    0    0    0    0 +0.0000000000e+00 +0.0000000000e+00 +4.9999998884e+02 5.0000000000e+02 1.0566000000e-01 0.0000e+00 1.0000e+00
      994 -1    0    0    0    0 -0.0000000000e+00 -0.0000000000e+00 +0.0000000000e+00 1.3100000000e+02 1.3100000000e+02 0.0000e+00 0.0000e+00
       13  1    1    2    0    0 +3.1607875029e+00 +1.7601346741e+01 +9.0255072883e-01 1.7905969580e+01 1.0566000000e-01 0.0000e+00 -1.0000e+00
      994  1    1    2    0    0 +1.3036740791e+01 -4.4921569497e+01 +4.3755399642e+01 1.4581988552e+02 1.3100000000e+02 0.0000e+00 0.0000e+00
      997  1    1    2    0    0 -1.6197528293e+01 +2.7320222756e+01 +4.5534203847e+02 4.6727414490e+02 1.0000000000e+02 0.0000e+00 0.0000e+00
</event>
<event>
 5      1 +8.5651000e-08 1.99021900e+02 7.95774700e-02 5.05787300e-01
       13 -1    0    0    0    0 +0.0000000000e+00 +0.0000000000e+00 +4.9999998884e+02 5.0000000000e+02 1.0566000000e-01 0.0000e+00 1.0000e+00
      994 -1    0    0    0    0 -0.0000000000e+00 -0.0000000000e+00 +0.0000000000e+00 1.3100000000e+02 1.3100000000e+02 0.0000e+00 0.0000e+00
       13  1    1    2    0    0 -1.5604677795e+01 -5.0205239978e+00 +4.2298336628e+00 1.6929686564e+01 1.0566000000e-01 0.0000e+00 -1.0000e+00
      994  1    1    2    0    0 +2.0507323979e+01 -7.6811805702e+00 +2.8259934986e+01 1.3579092310e+02 1.3100000000e+02 0.0000e+00 0.0000e+00
      997  1    1    2    0    0 -4.9026461844e+00 +1.2701704568e+01 +4.6751022019e+02 4.7827939033e+02 1.0000000000e+02 0.0000e+00 0.0000e+00
</event>
<event>
 5      1 +8.5651000e-08 1.95941600e+02 7.95774700e-02 5.11719200e-01
       13 -1    0    0    0    0 +0.0000000000e+00 +0.0000000000e+00 +4.9999998884e+02 5.0000000000e+02 1.0566000000e-01 0.0000e+00 1.0000e+00
      994 -1    0    0    0    0 -0.0000000000e+00 -0.0000000000e+00 +0.0000000000e+00 1.3100000000e+02 1.3100000000e+02 0.0000e+00 0.0000e+00
       13  1    1    2    0    0 +1.8565702391e+01 -1.0288016587e+01 +2.0500880077e+01 2.9509758361e+01 1.0566000000e-01 0.0000e+00 -1.0000e+00
      994  1    1    2    0    0 -9.2233999962e-02 -1.8057323866e+00 +2.2219125942e+01 1.3288325227e+02 1.3100000000e+02 0.0000e+00 0.0000e+00
      997  1    1    2    0    0 -1.8473468391e+01 +1.2093748974e+01 +4.5727998282e+02 4.6860698937e+02 1.0000000000e+02 0.0000e+00 0.0000e+00
</event>
<event>
 5      1 +8.5651000e-08 1.94896800e+02 7.95774700e-02 5.13787300e-01
       13 -1    0    0    0    0 +0.0000000000e+00 +0.0000000000e+00 +4.9999998884e+02 5.0000000000e+02 1.0566000000e-01 0.0000e+00 1.0000e+00
      994 -1    0    0    0    0 -0.0000000000e+00 -0.0000000000e+00 +0.0000000000e+00 1.3100000000e+02 1.3100000000e+02 0.0000e+00 0.0000e+00
       13  1    1    2    0    0 -1.2834407516e+01 -2.4779047641e+01 +1.4470944053e+02 1.4737556297e+02 1.0566000000e-01 0.0000e+00 -1.0000e+00
      994  1    1    2    0    0 +1.0137266787e+01 -1.7470577364e+01 +2.3628921208e+01 1.3463770337e+02 1.3100000000e+02 0.0000e+00 0.0000e+00
      997  1    1    2    0    0 +2.6971407290e+00 +4.2249625005e+01 +3.3166162709e+02 3.4898673366e+02 1.0000000000e+02 0.0000e+00 0.0000e+00
</event>
<event>
 5      1 +8.5651000e-08 2.06572600e+02 7.95774700e-02 4.92210700e-01
       13 -1    0    0    0    0 +0.0000000000e+00 +0.0000000000e+00 +4.9999998884e+02 5.0000000000e+02 1.0566000000e-01 0.0000e+00 -1.0000e+00
      994 -1    0    0    0    0 -0.0000000000e+00 -0.0000000000e+00 +0.0000000000e+00 1.3100000000e+02 1.3100000000e+02 0.0000e+00 0.0000e+00
       13  1    1    2    0    0 -1.4078178610e+01 +4.5786210201e+00 -4.5997321280e+00 1.5502502479e+01 1.0566000000e-01 0.0000e+00 1.0000e+00
      994  1    1    2    0    0 +4.2971534625e+01 +6.6179309689e-01 +4.6208160356e+01 1.4540696284e+02 1.3100000000e+02 0.0000e+00 0.0000e+00
      997  1    1    2    0    0 -2.8893356015e+01 -5.2404141170e+00 +4.5839156061e+02 4.7009053468e+02 1.0000000000e+02 0.0000e+00 0.0000e+00
</event>
<event>
 5      1 +8.5651000e-08 2.03153200e+02 7.95774700e-02 4.98197700e-01
       13 -1    0    0    0    0 +0.0000000000e+00 +0.0000000000e+00 +4.9999998884e+02 5.0000000000e+02 1.0566000000e-01 0.0000e+00 1.0000e+00
      994 -1    0    0    0    0 -0.0000000000e+00 -0.0000000000e+00 +0.0000000000e+00 1.3100000000e+02 1.3100000000e+02 0.0000e+00 0.0000e+00
       13  1    1    2    0    0 -1.2405578942e+01 +5.8089071563e+00 -1.3863797206e+00 1.3768623896e+01 1.0566000000e-01 0.0000e+00 -1.0000e+00
      994  1    1    2    0    0 -8.7826119167e+00 +3.5404118568e+01 +3.8392044609e+01 1.4129945142e+02 1.3100000000e+02 0.0000e+00 0.0000e+00
      997  1    1    2    0    0 +2.1188190859e+01 -4.1213025724e+01 +4.6299432395e+02 4.7593192468e+02 1.0000000000e+02 0.0000e+00 0.0000e+00
</event>
<event>
 5      1 +8.5651000e-08 2.22239900e+02 7.95774700e-02 4.67720700e-01
       13 -1    0    0    0    0 +0.0000000000e+00 +0.0000000000e+00 +4.9999998884e+02 5.0000000000e+02 1.0566000000e-01 0.0000e+00 1.0000e+00
      994 -1    0    0    0    0 -0.0000000000e+00 -0.0000000000e+00 +0.0000000000e+00 1.3100000000e+02 1.3100000000e+02 0.0000e+00 0.0000e+00
       13  1    1    2    0    0 -2.2220710747e+01 -4.2095584489e+01 +8.2620429632e+00 4.8312221410e+01 1.0566000000e-01 0.0000e+00 -1.0000e+00
      994  1    1    2    0    0 +7.0473969615e+01 +3.3301778849e+01 +1.1818729312e+02 1.9288552336e+02 1.3100000000e+02 0.0000e+00 0.0000e+00
      997  1    1    2    0    0 -4.8253258868e+01 +8.7938056402e+00 +3.7355065275e+02 3.8980225523e+02 1.0000000000e+02 0.0000e+00 0.0000e+00
</event>
<event>
 5      1 +8.5651000e-08 2.03163200e+02 7.95774700e-02 4.98179700e-01
       13 -1    0    0    0    0 +0.0000000000e+00 +0.0000000000e+00 +4.9999998884e+02 5.0000000000e+02 1.0566000000e-01 0.0000e+00 -1.0000e+00
      994 -1    0    0    0    0 -0.0000000000e+00 -0.0000000000e+00 +0.0000000000e+00 1.3100000000e+02 1.3100000000e+02 0.0000e+00 0.0000e+00
       13  1    1    2    0    0 -4.2760788502e+01 +3.1191388714e+01 +8.4350599544e+01 9.9581236037e+01 1.0566000000e-01 0.0000e+00 1.0000e+00
      994  1    1    2    0    0 +1.0421115155e+01 -5.6328149628e+01 +5.2140956912e+01 1.5218784271e+02 1.3100000000e+02 0.0000e+00 0.0000e+00
      997  1    1    2    0    0 +3.2339673347e+01 +2.5136760914e+01 +3.6350843238e+02 3.7923092125e+02 1.0000000000e+02 0.0000e+00 0.0000e+00
</event>
<event>
 5      1 +8.5651000e-08 1.99033100e+02 7.95774700e-02 5.05766300e-01
       13 -1    0    0    0    0 +0.0000000000e+00 +0.0000000000e+00 +4.9999998884e+02 5.0000000000e+02 1.0566000000e-01 0.0000e+00 -1.0000e+00
      994 -1    0    0    0    0 -0.0000000000e+00 -0.0000000000e+00 +0.0000000000e+00 1.3100000000e+02 1.3100000000e+02 0.0000e+00 0.0000e+00
       13  1    1    2    0    0 -1.2934272604e+00 -1.3153842498e+01 +4.1753415400e+01 4.3795609234e+01 1.0566000000e-01 0.0000e+00 1.0000e+00
      994  1    1    2    0    0 -1.2575248891e+01 +4.4244711801e+01 +2.4758652326e+01 1.4103092665e+02 1.3100000000e+02 0.0000e+00 0.0000e+00
      997  1    1    2    0    0 +1.3868676151e+01 -3.1090869303e+01 +4.3348792111e+02 4.4617346412e+02 1.0000000000e+02 0.0000e+00 0.0000e+00
</event>
<event>
 5      1 +8.5651000e-08 1.97382700e+02 7.95774700e-02 5.08913800e-01
       13 -1    0    0    0    0 +0.0000000000e+00 +0.0000000000e+00 +4.9999998884e+02 5.0000000000e+02 1.0566000000e-01 0.0000e+00 -1.0000e+00
      994 -1    0    0    0    0 -0.0000000000e+00 -0.0000000000e+00 +0.0000000000e+00 1.3100000000e+02 1.3100000000e+02 0.0000e+00 0.0000e+00
       13  1    1    2    0    0 +2.9855820244e+00 -9.8191971318e+00 -7.2775167098e-01 1.0289369216e+01 1.0566000000e-01 0.0000e+00 1.0000e+00
      994  1    1    2    0    0 -2.2667734701e+00 -1.3689147314e+00 +2.3659832253e+01 1.3314578421e+02 1.3100000000e+02 0.0000e+00 0.0000e+00
      997  1    1    2    0    0 -7.1880855435e-01 +1.1188111863e+01 +4.7706790825e+02 4.8756484658e+02 1.0000000000e+02 0.0000e+00 0.0000e+00
</event>
<event>
 5      1 +8.5651000e-08 1.94438800e+02 7.95774700e-02 5.14703100e-01
       13 -1    0    0    0    0 +0.0000000000e+00 +0.0000000000e+00 +4.9999998884e+02 5.0000000000e+02 1.0566000000e-01 0.0000e+00 -1.0000e+00
      994 -1    0    0    0    0 -0.0000000000e+00 -0.0000000000e+00 +0.0000000000e+00 1.3100000000e+02 1.3100000000e+02 0.0000e+00 0.0000e+00
       13  1    1    2    0    0 -1.5980333841e+01 +2.8834939998e+00 +1.8747810407e+01 2.4802765298e+01 1.0566000000e-01 0.0000e+00 1.0000e+00
      994  1    1    2    0    0 +2.9055647897e+01 -1.1022588271e+01 +2.2602047771e+01 1.3651952494e+02 1.3100000000e+02 0.0000e+00 0.0000e+00
      997  1    1    2    0    0 -1.3075314056e+01 +8.1390942708e+00 +4.5865013066e+02 4.6967770976e+02 1.0000000000e+02 0.0000e+00 0.0000e+00
</event>
<event>
 5      1 +8.5651000e-08 1.95978400e+02 7.95774700e-02 5.11646900e-01
       13 -1    0    0    0    0 +0.0000000000e+00 +0.0000000000e+00 +4.9999998884e+02 5.0000000000e+02 1.0566000000e-01 0.0000e+00 1.0000e+00
      994 -1    0    0    0    0 -0.0000000000e+00 -0.0000000000e+00 +0.0000000000e+00 1.3100000000e+02 1.3100000000e+02 0.0000e+00 0.0000e+00
       13  1    1    2    0    0 +1.1054989831e+01 +3.1754276625e+01 +5.5665947796e+01 6.5032728623e+01 1.0566000000e-01 0.0000e+00 -1.0000e+00
      994  1    1    2    0    0 +4.1719338634e+01 -4.4835493876e+01 +4.6090578029e+01 1.5177636875e+02 1.3100000000e+02 0.0000e+00 0.0000e+00
      997  1    1    2    0    0 -5.2774328464e+01 +1.3081217251e+01 +3.9824346301e+02 4.1419090263e+02 1.0000000000e+02 0.0000e+00 0.0000e+00
</event>
<event>
 5      1 +8.5651000e-08 1.95453400e+02 7.95774700e-02 5.12682100e-01
       13 -1    0    0    0    0 +0.0000000000e+00 +0.0000000000e+00 +4.9999998884e+02 5.0000000000e+02 1.0566000000e-01 0.0000e+00 -1.0000e+00
      994 -1    0    0    0    0 -0.0000000000e+00 -0.0000000000e+00 +0.0000000000e+00 1.3100000000e+02 1.3100000000e+02 0.0000e+00 0.0000e+00
       13  1    1    2    0    0 +1.5308254531e+01 +3.0167942482e+00 +2.3289851366e+01 2.8033409443e+01 1.0566000000e-01 0.0000e+00 1.0000e+00
      994  1    1    2    0    0 -1.5527574765e+01 -1.9020214243e+01 +1.9530545672e+01 1.3470455205e+02 1.3100000000e+02 0.0000e+00 0.0000e+00
      997  1    1    2    0    0 +2.1932023462e-01 +1.6003419995e+01 +4.5717959180e+02 4.6826203851e+02 1.0000000000e+02 0.0000e+00 0.0000e+00
</event>
<event>
 5      1 +8.5651000e-08 2.02971000e+02 7.95774700e-02 4.98523900e-01
       13 -1    0    0    0    0 +0.0000000000e+00 +0.0000000000e+00 +4.9999998884e+02 5.0000000000e+02 1.0566000000e-01 0.0000e+00 -1.0000e+00
      994 -1    0    0    0    0 -0.0000000000e+00 -0.0000000000e+00 +0.0000000000e+00 1.3100000000e+02 1.3100000000e+02 0.0000e+00 0.0000e+00
       13  1    1    2    0    0 +5.1105191363e-01 +1.4657399745e+01 -3.8927047896e-01 1.4671851856e+01 1.0566000000e-01 0.0000e+00 1.0000e+00
      994  1    1    2    0    0 -1.5298533050e+00 +1.1363122846e+01 +3.0208478652e+01 1.3492595449e+02 1.3100000000e+02 0.0000e+00 0.0000e+00
      997  1    1    2    0    0 +1.0188013914e+00 -2.6020522591e+01 +4.7018078066e+02 4.8140219366e+02 1.0000000000e+02 0.0000e+00 0.0000e+00
</event>
<event>
 5      1 +8.5651000e-08 2.03507400e+02 7.95774700e-02 4.97565500e-01
       13 -1    0    0    0    0 +0.0000000000e+00 +0.0000000000e+00 +4.9999998884e+02 5.0000000000e+02 1.0566000000e-01 0.0000e+00 1.0000e+00
      994 -1    0    0    0    0 -0.0000000000e+00 -0.0000000000e+00 +0.0000000000e+00 1.3100000000e+02 1.3100000000e+02 0.0000e+00 0.0000e+00
       13  1    1    2    0    0 -6.3932618225e+01 +9.1615239735e+00 +9.8185295131e+01 1.1752308939e+02 1.0566000000e-01 0.0000e+00 -1.0000e+00
      994  1    1    2    0    0 +7.1557025559e+01 +1.2862870078e+00 +6.6660163094e+01 1.6348284248e+02 1.3100000000e+02 0.0000e+00 0.0000e+00
      997  1    1    2    0    0 -7.6244073340e+00 -1.0447810981e+01 +3.3515453061e+02 3.4999406814e+02 1.0000000000e+02 0.0000e+00 0.0000e+00
</event>
<event>
 5      1 +8.5651000e-08 1.93298500e+02 7.95774700e-02 5.17008600e-01
       13 -1    0    0    0    0 +0.0000000000e+00 +0.0000000000e+00 +4.9999998884e+02 5.0000000000e+02 1.0566000000e-01 0.0000e+00 1.0000e+00
      994 -1    0    0    0    0 -0.0000000000e+00 -0.0000000000e+00 +0.0000000000e+00 1.3100000000e+02 1.3100000000e+02 0.0000e+00 0.0000e+00
       13  1    1    2    0    0 +1.8815572267e+01 +1.3758219154e+01 +3.4880551685e+01 4.1952096537e+01 1.0566000000e-01 0.0000e+00 -1.0000e+00
      994  1    1    2    0    0 -3.1616311408e+01 -2.0045910578e+01 +2.6308472383e+01 1.3876082083e+02 1.3100000000e+02 0.0000e+00 0.0000e+00
      997  1    1    2    0    0 +1.2800739141e+01 +6.2876914248e+00 +4.3881096477e+02 4.5028708263e+02 1.0000000000e+02 0.0000e+00 0.0000e+00
</event>
<event>
 5      1 +8.5651000e-08 1.95590700e+02 7.95774700e-02 5.12410500e-01
       13 -1    0    0    0    0 +0.0000000000e+00 +0.0000000000e+00 +4.9999998884e+02 5.0000000000e+02 1.0566000000e-01 0.0000e+00 1.0000e+00
      994 -1    0    0    0    0 -0.0000000000e+00 -0.0000000000e+00 +0.0000000000e+00 1.3100000000e+02 1.3100000000e+02 0.0000e+00 0.0000e+00
       13  1    1    2    0    0 +3.8067577626e+00 -2.1332734623e+01 +2.1603118660e+01 3.0598739697e+01 1.0566000000e-01 0.0000e+00 -1.0000e+00
      994  1    1    2    0    0 +3.2593032042e+01 +1.0943205596e+01 +2.9061967240e+01 1.3851952002e+02 1.3100000000e+02 0.0000e+00 0.0000e+00
      997  1    1    2    0    0 -3.6399789805e+01 +1.0389529027e+01 +4.4933490294e+02 4.6188174028e+02 1.0000000000e+02 0.0000e+00 0.0000e+00
</event>
<event>
 5      1 +8.5651000e-08 2.29822800e+02 7.95774700e-02 4.57338200e-01
       13 -1    0    0    0    0 +0.0000000000e+00 +0.0000000000e+00 +4.9999998884e+02 5.0000000000e+02 1.0566000000e-01 0.0000e+00 1.0000e+00
      994 -1    0    0    0    0 -0.0000000000e+00 -0.0000000000e+00 +0.0000000000e+00 1.3100000000e+02 1.3100000000e+02 0.0000e+00 0.0000e+00
       13  1    1    2    0    0 -4.1463226052e+01 +5.2196899788e+01 +1.4658855725e+02 1.6103394593e+02 1.0566000000e-01 0.0000e+00 -1.0000e+00
      994  1    1    2    0    0 -1.9733987685e+01 +4.4597365898e+01 +9.1314940185e+01 1.6696638469e+02 1.3100000000e+02 0.0000e+00 0.0000e+00
      997  1    1    2    0    0 +6.1197213737e+01 -9.6794265685e+01 +2.6209649140e+02 3.0299966938e+02 1.0000000000e+02 0.0000e+00 0.0000e+00
</event>
<event>
 5      1 +8.5651000e-08 1.94351000e+02 7.95774700e-02 5.14879500e-01
       13 -1    0    0    0    0 +0.0000000000e+00 +0.0000000000e+00 +4.9999998884e+02 5.0000000000e+02 1.0566000000e-01 0.0000e+00 1.0000e+00
      994 -1    0    0    0    0 -0.0000000000e+00 -0.0000000000e+00 +0.0000000000e+00 1.3100000000e+02 1.3100000000e+02 0.0000e+00 0.0000e+00
       13  1    1    2    0    0 -8.9088227134e+00 -2.0935647126e+01 +2.1344274175e+01 3.1197077537e+01 1.0566000000e-01 0.0000e+00 -1.0000e+00
      994  1    1    2    0    0 -2.5309480071e+00 +4.7035961304e+01 +3.4206495284e+01 1.4335226428e+02 1.3100000000e+02 0.0000e+00 0.0000e+00
      997  1    1    2    0    0 +1.1439770721e+01 -2.6100314178e+01 +4.4444921938e+02 4.5645065819e+02 1.0000000000e+02 0.0000e+00 0.0000e+00
</event>
<event>
 5      1 +8.5651000e-08 2.07027800e+02 7.95774700e-02 4.91432900e-01
       13 -1    0    0    0    0 +0.0000000000e+00 +0.0000000000e+00 +4.9999998884e+02 5.0000000000e+02 1.0566000000e-01 0.0000e+00 1.0000e+00
      994 -1    0    0    0    0 -0.0000000000e+00 -0.0000000000e+00 +0.0000000000e+00 1.3100000000e+02 1.3100000000e+02 0.0000e+00 0.0000e+00
       13  1    1    2    0    0 -5.2083918532e+00 +2.1894218490e+01 +4.7454826695e+00 2.3000324320e+01 1.0566000000e-01 0.0000e+00 -1.0000e+00
      994  1    1    2    0    0 -8.2757798637e+00 -1.6998903329e+00 +3.4273856295e+01 1.3567267737e+02 1.3100000000e+02 0.0000e+00 0.0000e+00
      997  1    1    2    0    0 +1.3484171717e+01 -2.0194328157e+01 +4.6098064987e+02 4.7232699831e+02 1.0000000000e+02 0.0000e+00 0.0000e+00
</event>
<event>
 5      1 +8.5651000e-08 1.94196800e+02 7.95774700e-02 5.15189400e-01
       13 -1    0    0    0    0 +0.0000000000e+00 +0.0000000000e+00 +4.9999998884e+02 5.0000000000e+02 1.0566000000e-01 0.0000e+00 -1.0000e+00
      994 -1    0    0    0    0 -0.0000000000e+00 -0.0000000000e+00 +0.0000000000e+00 1.3100000000e+02 1.3100000000e+02 0.0000e+00 0.0000e+00
       13  1    1    2    0    0 +1.9729645903e+01 +6.0905342494e+00 +3.6783050652e+01 4.2182431346e+01 1.0566000000e-01 0.0000e+00 1.0000e+00
      994  1    1    2    0    0 -2.2470181184e+01 +9.3191759965e+00 +2.0657934274e+01 1.3483139965e+02 1.3100000000e+02 0.0000e+00 0.0000e+00
      997  1    1    2    0    0 +2.7405352811e+00 -1.5409710246e+01 +4.4255900391e+02 4.5398616900e+02 1.0000000000e+02 0.0000e+00 0.0000e+00
</event>
<event>
 5      1 +8.5651000e-08 1.97282100e+02 7.95774700e-02 5.09107900e-01
       13 -1    0    0    0    0 +0.0000000000e+00 +0.0000000000e+00 +4.9999998884e+02 5.0000000000e+02 1.0566000000e-01 0.0000e+00 1.0000e+00
      994 -1    0    0    0    0 -0.0000000000e+00 -0.0000000000e+00 +0.0000000000e+00 1.3100000000e+02 1.3100000000e+02 0.0000e+00 0.0000e+00
       13  1    1    2    0    0 -9.4114317099e+00 +7.5176736712e+00 +2.5249056709e+01 2.7975283609e+01 1.0566000000e-01 0.0000e+00 -1.0000e+00
      994  1    1    2    0    0 -7.2070063888e+00 -6.8460439436e+00 +1.5000009393e+01 1.3223013855e+02 1.3100000000e+02 0.0000e+00 0.0000e+00
      997  1    1    2    0    0 +1.6618438099e+01 -6.7162972763e-01 +4.5975092273e+02 4.7079457784e+02 1.0000000000e+02 0.0000e+00 0.0000e+00
</event>
<event>
 5      1 +8.5651000e-08 2.08654200e+02 7.95774700e-02 4.88688700e-01
       13 -1    0    0    0    0 +0.0000000000e+00 +0.0000000000e+00 +4.9999998884e+02 5.0000000000e+02 1.0566000000e-01 0.0000e+00 -1.0000e+00
      994 -1    0    0    0    0 -0.0000000000e+00 -0.0000000000e+00 +0.0000000000e+00 1.3100000000e+02 1.3100000000e+02 0.0000e+00 0.0000e+00
       13  1    1    2    0    0 +9.9836250712e+00 -2.1005374283e+01 +1.3456221440e+00 2.3296359830e+01 1.0566000000e-01 0.0000e+00 1.0000e+00
      994  1    1    2    0    0 +5.5925827593e+01 +4.5792698104e+01 +7.6207558339e+01 1.6790849097e+02 1.3100000000e+02 0.0000e+00 0.0000e+00
      997  1    1    2    0    0 -6.5909452664e+01 -2.4787323821e+01 +4.2244680835e+02 4.3979514920e+02 1.0000000000e+02 0.0000e+00 0.0000e+00
</event>
<event>
 5      1 +8.5651000e-08 2.05037200e+02 7.95774700e-02 4.94867300e-01
       13 -1    0    0    0    0 +0.0000000000e+00 +0.0000000000e+00 +4.9999998884e+02 5.0000000000e+02 1.0566000000e-01 0.0000e+00 -1.0000e+00
      994 -1    0    0    0    0 -0.0000000000e+00 -0.0000000000e+00 +0.0000000000e+00 1.3100000000e+02 1.3100000000e+02 0.0000e+00 0.0000e+00
       13  1    1    2    0    0 +1.9375277339e+01 +4.5408795049e+01 +7.4301853656e+01 8.9208388958e+01 1.0566000000e-01 0.0000e+00 1.0000e+00
      994  1    1    2    0    0 -3.5305541709e+01 -8.6128962737e+00 +4.0561657137e+01 1.4186934583e+02 1.3100000000e+02 0.0000e+00 0.0000e+00
      997  1    1    2    0    0 +1.5930264371e+01 -3.6795898776e+01 +3.8513647804e+02 3.9992226521e+02 1.0000000000e+02 0.0000e+00 0.0000e+00
</event>
<event>
 5      1 +8.5651000e-08 1.96952200e+02 7.95774700e-02 5.09746200e-01
       13 -1    0    0    0    0 +0.0000000000e+00 +0.0000000000e+00 +4.9999998884e+02 5.0000000000e+02 1.0566000000e-01 0.0000e+00 -1.0000e+00
      994 -1    0    0    0    0 -0.0000000000e+00 -0.0000000000e+00 +0.0000000000e+00 1.3100000000e+02 1.3100000000e+02 0.0000e+00 0.0000e+00
       13  1    1    2    0    0 -7.0571182599e+00 -1.0017836131e+01 +1.7791945643e+01 2.1603806439e+01 1.0566000000e-01 0.0000e+00 1.0000e+00
      994  1    1    2    0    0 +1.0752947012e+01 +2.2571282904e+01 +1.8254895403e+01 1.3460806026e+02 1.3100000000e+02 0.0000e+00 0.0000e+00
      997  1    1    2    0    0 -3.6958287524e+00 -1.2553446773e+01 +4.6395314779e+02 4.7478813330e+02 1.0000000000e+02 0.0000e+00 0.0000e+00
</event>
<event>
 5      1 +8.5651000e-08 1.96575400e+02 7.95774700e-02 5.10478800e-01
       13 -1    0    0    0    0 +0.0000000000e+00 +0.0000000000e+00 +4.9999998884e+02 5.0000000000e+02 1.0566000000e-01 0.0000e+00 1.0000e+00
      994 -1    0    0    0    0 -0.0000000000e+00 -0.0000000000e+00 +0.0000000000e+00 1.3100000000e+02 1.3100000000e+02 0.0000e+00 0.0000e+00
       13  1    1    2    0    0 +5.8509559855e+00 +2.7345824210e+01 +7.9483486501e+01 8.4259501411e+01 1.0566000000e-01 0.0000e+00 -1.0000e+00
      994  1    1    2    0    0 -1.5814003245e+01 +3.9466900830e+01 +3.4054084463e+01 1.4187459120e+02 1.3100000000e+02 0.0000e+00 0.0000e+00
      997  1    1    2    0    0 +9.9630472597e+00 -6.6812725040e+01 +3.8646241787e+02 4.0486590739e+02 1.0000000000e+02 0.0000e+00 0.0000e+00
</event>
<event>
 5      1 +8.5651000e-08 1.98046400e+02 7.95774700e-02 5.07639900e-01
       13 -1    0    0    0    0 +0.0000000000e+00 +0.0000000000e+00 +4.9999998884e+02 5.0000000000e+02 1.0566000000e-01 0.0000e+00 1.0000e+00
      994 -1    0    0    0    0 -0.0000000000e+00 -0.0000000000e+00 +0.0000000000e+00 1.3100000000e+02 1.3100000000e+02 0.0000e+00 0.0000e+00
       13  1    1    2    0    0 +2.2056460655e+01 -5.4776614905e+00 +1.4644076028e+01 2.7036130618e+01 1.0566000000e-01 0.0000e+00 -1.0000e+00
      994  1    1    2    0    0 -3.1718477835e+01 +3.1534699989e+00 +3.0618928051e+01 1.3825528910e+02 1.3100000000e+02 0.0000e+00 0.0000e+00
      997  1    1    2    0    0 +9.6620171800e+00 +2.3241914916e+00 +4.5473698476e+02 4.6570858028e+02 1.0000000000e+02 0.0000e+00 0.0000e+00
</event>
<event>
 5      1 +8.5651000e-08 1.95142400e+02 7.95774700e-02 5.13298500e-01
       13 -1    0    0    0    0 +0.0000000000e+00 +0.0000000000e+00 +4.9999998884e+02 5.0000000000e+02 1.0566000000e-01 0.0000e+00 1.0000e+00
      994 -1    0    0    0    0 -0.0000000000e+00 -0.0000000000e+00 +0.0000000000e+00 1.3100000000e+02 1.3100000000e+02 0.0000e+00 0.0000e+00
       13  1    1    2    0    0 +1.5320541312e+01 -1.3916788799e+01 +5.6637310271e+01 6.0300846390e+01 1.0566000000e-01 0.0000e+00 -1.0000e+00
      994  1    1    2    0    0 -6.5091982267e+00 +3.8702418032e+00 +1.6707731158e+01 1.3227810368e+02 1.3100000000e+02 0.0000e+00 0.0000e+00
      997  1    1    2    0    0 -8.8113430856e+00 +1.0046546996e+01 +4.2665494741e+02 4.3842104993e+02 1.0000000000e+02 0.0000e+00 0.0000e+00
</event>
<event>
 5      1 +8.5651000e-08 2.11251200e+02 7.95774700e-02 4.84418000e-01
       13 -1    0    0    0    0 +0.0000000000e+00 +0.0000000000e+00 +4.9999998884e+02 5.0000000000e+02 1.0566000000e-01 0.0000e+00 -1.0000e+00
      994 -1    0    0    0    0 -0.0000000000e+00 -0.0000000000e+00 +0.0000000000e+00 1.3100000000e+02 1.3100000000e+02 0.0000e+00 0.0000e+00
       13  1    1    2    0    0 +5.2774559638e+01 +1.5749424695e+01 +1.2440745126e+02 1.3605301766e+02 1.0566000000e-01 0.0000e+00 1.0000e+00
      994  1    1    2    0    0 +2.5243075502e+01 -5.7129171555e+01 +6.9226620681e+01 1.6079266188e+02 1.3100000000e+02 0.0000e+00 0.0000e+00
      997  1    1    2    0    0 -7.8017635140e+01 +4.1379746860e+01 +3.0636591690e+02 3.3415432046e+02 1.0000000000e+02 0.0000e+00 0.0000e+00
</event>
<event>
 5      1 +8.5651000e-08 1.94238700e+02 7.95774700e-02 5.15105100e-01
       13 -1    0    0    0    0 +0.0000000000e+00 +0.0000000000e+00 +4.9999998884e+02 5.0000000000e+02 1.0566000000e-01 0.0000e+00 -1.0000e+00
      994 -1    0    0    0    0 -0.0000000000e+00 -0.0000000000e+00 +0.0000000000e+00 1.3100000000e+02 1.3100000000e+02 0.0000e+00 0.0000e+00
       13  1    1    2    0    0 -1.2279777234e+01 +1.0249847091e+00 +1.0144536870e+01 1.5961400782e+01 1.0566000000e-01 0.0000e+00 1.0000e+00
      994  1    1    2    0    0 +1.4168604119e+01 +7.7071500688e+00 +1.8702781327e+01 1.3330770246e+02 1.3100000000e+02 0.0000e+00 0.0000e+00
      997  1    1    2    0    0 -1.8888268852e+00 -8.7321347779e+00 +4.7115267064e+02 4.8173089676e+02 1.0000000000e+02 0.0000e+00 0.0000e+00
</event>
<event>
 5      1 +8.5651000e-08 1.97140700e+02 7.95774700e-02 5.09381100e-01
       13 -1    0    0    0    0 +0.0000000000e+00 +0.0000000000e+00 +4.9999998884e+02 5.0000000000e+02 1.0566000000e-01 0.0000e+00 1.0000e+00
      994 -1    0    0    0    0 -0.0000000000e+00 -0.0000000000e+00 +0.0000000000e+00 1.3100000000e+02 1.3100000000e+02 0.0000e+00 0.0000e+00
       13  1    1    2    0    0 -2.5637530568e+01 -7.4325182134e+00 +2.3260466820e+01 3.5406013349e+01 1.0566000000e-01 0.0000e+00 -1.0000e+00
      994  1    1    2    0    0 +4.7657464562e+01 -1.9007144288e+01 +4.0046171721e+01 1.4627782242e+02 1.3100000000e+02 0.0000e+00 0.0000e+00
      997  1    1    2    0    0 -2.2019933995e+01 +2.6439662502e+01 +4.3669335030e+02 4.4931616423e+02 1.0000000000e+02 0.0000e+00 0.0000e+00
</event>
<event>
 5      1 +8.5651000e-08 1.93950000e+02 7.95774700e-02 5.15686900e-01
       13 -1    0    0    0    0 +0.0000000000e+00 +0.0000000000e+00 +4.9999998884e+02 5.0000000000e+02 1.0566000000e-01 0.0000e+00 1.0000e+00
      994 -1    0    0    0    0 -0.0000000000e+00 -0.0000000000e+00 +0.0000000000e+00 1.3100000000e+02 1.3100000000e+02 0.0000e+00 0.0000e+00
       13  1    1    2    0    0 -2.5640020158e+00 +1.7033546024e+01 +2.7382821910e+01 3.2350361610e+01 1.0566000000e-01 0.0000e+00 -1.0000e+00
      994  1    1    2    0    0 -1.7046549421e+01 +2.0480161123e+00 +1.9173070179e+01 1.3350425400e+02 1.3100000000e+02 0.0000e+00 0.0000e+00
      997  1    1    2    0    0 +1.9610551437e+01 -1.9081562136e+01 +4.5344409675e+02 4.6514538439e+02 1.0000000000e+02 0.0000e+00 0.0000e+00
</event>
<event>
 5      1 +8.5651000e-08 1.95562000e+02 7.95774700e-02 5.12467200e-01
       13 -1    0    0    0    0 +0.0000000000e+00 +0.0000000000e+00 +4.9999998884e+02 5.0000000000e+02 1.0566000000e-01 0.0000e+00 1.0000e+00
      994 -1    0    0    0    0 -0.0000000000e+00 -0.0000000000e+00 +0.0000000000e+00 1.3100000000e+02 1.3100000000e+02 0.0000e+00 0.0000e+00
       13  1    1    2    0    0 +9.9025752949e+00 -1.5280658300e+01 +6.0354337415e+01 6.3041388979e+01 1.0566000000e-01 0.0000e+00 -1.0000e+00
      994  1    1    2    0    0 +1.2855961233e+01 -6.6156620207e-02 +1.6935168740e+01 1.3271427977e+02 1.3100000000e+02 0.0000e+00 0.0000e+00
      997  1    1    2    0    0 -2.2758536528e+01 +1.5346814921e+01 +4.2271048268e+02 4.3524433125e+02 1.0000000000e+02 0.0000e+00 0.0000e+00
</event>
<event>
 5      1 +8.5651000e-08 1.93592200e+02 7.95774700e-02 5.16411300e-01
       13 -1    0    0    0    0 +0.0000000000e+00 +0.0000000000e+00 +4.9999998884e+02 5.0000000000e+02 1.0566000000e-01 0.0000e+00 -1.0000e+00
      994 -1    0    0    0    0 -0.0000000000e+00 -0.0000000000e+00 +0.0000000000e+00 1.3100000000e+02 1.3100000000e+02 0.0000e+00 0.0000e+00
       13  1    1    2    0    0 -1.9075166905e+01 -6.9512331382e+00 +2.1775262189e+01 2.9771712111e+01 1.0566000000e-01 0.0000e+00 1.0000e+00
      994  1    1    2    0    0 +6.5753010851e+01 -1.4158176812e+01 +4.5459514920e+01 1.5411515144e+02 1.3100000000e+02 0.0000e+00 0.0000e+00
      997  1    1    2    0    0 -4.6677843946e+01 +2.1109409950e+01 +4.3276521173e+02 4.4711313645e+02 1.0000000000e+02 0.0000e+00 0.0000e+00
</event>
<event>
 5      1 +8.5651000e-08 1.95376000e+02 7.95774700e-02 5.12835200e-01
       13 -1    0    0    0    0 +0.0000000000e+00 +0.0000000000e+00 +4.9999998884e+02 5.0000000000e+02 1.0566000000e-01 0.0000e+00 1.0000e+00
      994 -1    0    0    0    0 -0.0000000000e+00 -0.0000000000e+00 +0.0000000000e+00 1.3100000000e+02 1.3100000000e+02 0.0000e+00 0.0000e+00
       13  1    1    2    0    0 +2.7422836043e+01 +1.8105201669e+01 +4.4149888691e+01 5.5036661414e+01 1.0566000000e-01 0.0000e+00 -1.0000e+00
      994  1    1    2    0    0 -5.4089839049e+01 -6.8820733955e+00 +4.0205745547e+01 1.4748076348e+02 1.3100000000e+02 0.0000e+00 0.0000e+00
      997  1    1    2    0    0 +2.6667003006e+01 -1.1223128274e+01 +4.1564435460e+02 4.2848257510e+02 1.0000000000e+02 0.0000e+00 0.0000e+00
</event>
<event>
 5      1 +8.5651000e-08 1.95649400e+02 7.95774700e-02 5.12294700e-01
       13 -1    0    0    0    0 +0.0000000000e+00 +0.0000000000e+00 +4.9999998884e+02 5.0000000000e+02 1.0566000000e-01 0.0000e+00 -1.0000e+00
      994 -1    0    0    0    0 -0.0000000000e+00 -0.0000000000e+00 +0.0000000000e+00 1.3100000000e+02 1.3100000000e+02 0.0000e+00 0.0000e+00
       13  1    1    2    0    0 -3.8761920848e+00 -2.0825050150e+01 +5.6008961498e+01 5.9880902723e+01 1.0566000000e-01 0.0000e+00 1.0000e+00
      994  1    1    2    0    0 +2.8120397902e+01 +1.7392506912e+01 +2.2169283545e+01 1.3691505837e+02 1.3100000000e+02 0.0000e+00 0.0000e+00
      997  1    1    2    0    0 -2.4244205817e+01 +3.4325432378e+00 +4.2182174379e+02 4.3420403891e+02 1.0000000000e+02 0.0000e+00 0.0000e+00
</event>
<event>
 5      1 +8.5651000e-08 2.03379000e+02 7.95774700e-02 4.97794200e-01
       13 -1    0    0    0    0 +0.0000000000e+00 +0.0000000000e+00 +4.9999998884e+02 5.0000000000e+02 1.0566000000e-01 0.0000e+00 1.0000e+00
      994 -1    0    0    0    0 -0.0000000000e+00 -0.0000000000e+00 +0.0000000000e+00 1.3100000000e+02 1.3100000000e+02 0.0000e+00 0.0000e+00
       13  1    1    2    0    0 -3.4386374152e+01 -3.5822901707e+00 +3.5645657100e+01 4.9657623426e+01 1.0566000000e-01 0.0000e+00 -1.0000e+00
      994  1    1    2    0    0 +1.2909882979e+00 +1.8210770100e+01 +3.1973639572e+01 1.3607575988e+02 1.3100000000e+02 0.0000e+00 0.0000e+00
      997  1    1    2    0    0 +3.3095385854e+01 -1.4628479929e+01 +4.3238069216e+02 4.4526661670e+02 1.0000000000e+02 0.0000e+00 0.0000e+00
</event>
<event>
 5      1 +8.5651000e-08 1.95324700e+02 7.95774700e-02 5.12936800e-01
       13 -1    0    0    0    0 +0.0000000000e+00 +0.0000000000e+00 +4.9999998884e+02 5.0000000000e+02 1.0566000000e-01 0.0000e+00 1.0000e+00
      994 -1    0    0    0    0 -0.0000000000e+00 -0.0000000000e+00 +0.0000000000e+00 1.3100000000e+02 1.3100000000e+02 0.0000e+00 0.0000e+00
       13  1    1    2    0    0 +1.7653230828e+00 -2.1503956190e+01 +9.5359301217e+01 9.7769852153e+01 1.0566000000e-01 0.0000e+00 -1.0000e+00
      994  1    1    2    0    0 +1.7637421887e+01 +1.1793359560e+01 +1.8776828061e+01 1.3402884485e+02 1.3100000000e+02 0.0000e+00 0.0000e+00
      997  1    1    2    0    0 -1.9402744969e+01 +9.7105966298e+00 +3.8586385956e+02 3.9920130299e+02 1.0000000000e+02 0.0000e+00 0.0000e+00
</event>
<event>
 5      1 +8.5651000e-08 1.99818400e+02 7.95774700e-02 5.04292300e-01
       13 -1    0    0    0    0 +0.0000000000e+00 +0.0000000000e+00 +4.9999998884e+02 5.0000000000e+02 1.0566000000e-01 0.0000e+00 -1.0000e+00
      994 -1    0    0    0    0 -0.0000000000e+00 -0.0000000000e+00 +0.0000000000e+00 1.3100000000e+02 1.3100000000e+02 0.0000e+00 0.0000e+00
       13  1    1    2    0    0 -4.8341334339e+00 +4.3022156582e+01 +1.1999667142e+02 1.2756757864e+02 1.0566000000e-01 0.0000e+00 1.0000e+00
      994  1    1    2    0    0 -4.7602422701e+01 -1.6646321101e+01 +4.2649835888e+01 1.4670752930e+02 1.3100000000e+02 0.0000e+00 0.0000e+00
      997  1    1    2    0    0 +5.2436556135e+01 -2.6375835482e+01 +3.3735348153e+02 3.5672489206e+02 1.0000000000e+02 0.0000e+00 0.0000e+00
</event>
<event>
 5      1 +8.5651000e-08 1.97460100e+02 7.95774700e-02 5.08764600e-01
       13 -1    0    0    0    0 +0.0000000000e+00 +0.0000000000e+00 +4.9999998884e+02 5.0000000000e+02 1.0566000000e-01 0.0000e+00 -1.0000e+00
      994 -1    0    0    0    0 -0.0000000000e+00 -0.0000000000e+00 +0.0000000000e+00 1.3100000000e+02 1.3100000000e+02 0.0000e+00 0.0000e+00
       13  1    1    2    0    0 -3.8259496261e+00 -1.4983413292e+01 +6.4589534103e+01 6.6415055854e+01 1.0566000000e-01 0.0000e+00 1.0000e+00
      994  1    1    2    0    0 -2.2638933212e+01 +1.8152558611e+01 +1.9008704129e+01 1.3551519293e+02 1.3100000000e+02 0.0000e+00 0.0000e+00
      997  1    1    2    0    0 +2.6464882838e+01 -3.1691453192e+00 +4.1640175060e+02 4.2906975122e+02 1.0000000000e+02 0.0000e+00 0.0000e+00
</event>
<event>
 5      1 +8.5651000e-08 2.21503600e+02 7.95774700e-02 4.68775500e-01
       13 -1    0    0    0    0 +0.0000000000e+00 +0.0000000000e+00 +4.9999998884e+02 5.0000000000e+02 1.0566000000e-01 0.0000e+00 -1.0000e+00
      994 -1    0    0    0    0 -0.0000000000e+00 -0.0000000000e+00 +0.0000000000e+00 1.3100000000e+02 1.3100000000e+02 0.0000e+00 0.0000e+00
       13  1    1    2    0    0 -4.6739857697e+01 +2.4793068749e+01 +4.3323968401e+01 6.8383389486e+01 1.0566000000e-01 0.0000e+00 1.0000e+00
      994  1    1    2    0    0 +8.2956489658e+00 +5.4148377091e+01 +7.9678336262e+01 1.6282045880e+02 1.3100000000e+02 0.0000e+00 0.0000e+00
      997  1    1    2    0    0 +3.8444208732e+01 -7.8941445840e+01 +3.7699768417e+02 3.9979615172e+02 1.0000000000e+02 0.0000e+00 0.0000e+00
</event>
<event>
 5      1 +8.5651000e-08 1.96237900e+02 7.95774700e-02 5.11138000e-01
       13 -1    0    0    0    0 +0.0000000000e+00 +0.0000000000e+00 +4.9999998884e+02 5.0000000000e+02 1.0566000000e-01 0.0000e+00 -1.0000e+00
      994 -1    0    0    0    0 -0.0000000000e+00 -0.0000000000e+00 +0.0000000000e+00 1.3100000000e+02 1.3100000000e+02 0.0000e+00 0.0000e+00
       13  1    1    2    0    0 +1.3064383288e+01 -1.3429299522e+01 +1.0312085393e+01 2.1386314912e+01 1.0566000000e-01 0.0000e+00 1.0000e+00
      994  1    1    2    0    0 -4.0568342071e+01 +6.9467295596e+00 +3.2960942410e+01 1.4121427390e+02 1.3100000000e+02 0.0000e+00 0.0000e+00
      997  1    1    2    0    0 +2.7503958783e+01 +6.4825699621e+00 +4.5672696103e+02 4.6839941118e+02 1.0000000000e+02 0.0000e+00 0.0000e+00
</event>
<event>
 5      1 +8.5651000e-08 2.04239800e+02 7.95774700e-02 4.96267200e-01
       13 -1    0    0    0    0 +0.0000000000e+00 +0.0000000000e+00 +4.9999998884e+02 5.0000000000e+02 1.0566000000e-01 0.0000e+00 -1.0000e+00
      994 -1    0    0    0    0 -0.0000000000e+00 -0.0000000000e+00 +0.0000000000e+00 1.3100000000e+02 1.3100000000e+02 0.0000e+00 0.0000e+00
       13  1    1    2    0    0 -1.1961978328e+01 +2.1334506390e+00 -3.8909951453e+00 1.2758978972e+01 1.0566000000e-01 0.0000e+00 1.0000e+00
      994  1    1    2    0    0 +3.1547556131e+00 +2.5469413822e+01 +3.5099516199e+01 1.3802760434e+02 1.3100000000e+02 0.0000e+00 0.0000e+00
      997  1    1    2    0    0 +8.8072227149e+00 -2.7602864461e+01 +4.6879146778e+02 4.8021341668e+02 1.0000000000e+02 0.0000e+00 0.0000e+00
</event>
<event>
 5      1 +8.5651000e-08 2.21976900e+02 7.95774700e-02 4.68096500e-01
       13 -1    0    0    0    0 +0.0000000000e+00 +0.0000000000e+00 +4.9999998884e+02 5.0000000000e+02 1.0566000000e-01 0.0000e+00 1.0000e+00
      994 -1    0    0    0    0 -0.0000000000e+00 -0.0000000000e+00 +0.0000000000e+00 1.3100000000e+02 1.3100000000e+02 0.0000e+00 0.0000e+00
       13  1    1    2    0    0 -4.1328513288e+01 +1.2199528205e+01 +1.3467108255e+01 4.5146967427e+01 1.0566000000e-01 0.0000e+00 -1.0000e+00
      994  1    1    2    0    0 +1.6904897727e+01 -2.3443804214e+01 +6.0047723423e+01 1.4697658525e+02 1.3100000000e+02 0.0000e+00 0.0000e+00
      997  1    1    2    0    0 +2.4423615561e+01 +1.1244276009e+01 +4.2648515716e+02 4.3887644732e+02 1.0000000000e+02 0.0000e+00 0.0000e+00
</event>
<event>
 5      1 +8.5651000e-08 1.95127600e+02 7.95774700e-02 5.13328000e-01
       13 -1    0    0    0    0 +0.0000000000e+00 +0.0000000000e+00 +4.9999998884e+02 5.0000000000e+02 1.0566000000e-01 0.0000e+00 -1.0000e+00
      994 -1    0    0    0    0 -0.0000000000e+00 -0.0000000000e+00 +0.0000000000e+00 1.3100000000e+02 1.3100000000e+02 0.0000e+00 0.0000e+00
       13  1    1    2    0    0 -1.0534748064e+01 -7.2612733681e+00 +1.0258414403e+01 1.6399793834e+01 1.0566000000e-01 0.0000e+00 1.0000e+00
      994  1    1    2    0    0 +3.4785217444e+01 +3.6125053205e+01 +3.1107228612e+01 1.4367912337e+02 1.3100000000e+02 0.0000e+00 0.0000e+00
      997  1    1    2    0    0 -2.4250469381e+01 -2.8863779837e+01 +4.5863434582e+02 4.7092108279e+02 1.0000000000e+02 0.0000e+00 0.0000e+00
</event>
<event>
 5      1 +8.5651000e-08 2.09399900e+02 7.95774700e-02 4.87448700e-01
       13 -1    0    0    0    0 +0.0000000000e+00 +0.0000000000e+00 +4.9999998884e+02 5.0000000000e+02 1.0566000000e-01 0.0000e+00 1.0000e+00
      994 -1    0    0    0    0 -0.0000000000e+00 -0.0000000000e+00 +0.0000000000e+00 1.3100000000e+02 1.3100000000e+02 0.0000e+00 0.0000e+00
       13  1    1    2    0    0 +2.7483183425e+00 +4.5627471237e+01 +2.6837937814e+01 5.3006654822e+01 1.0566000000e-01 0.0000e+00 -1.0000e+00
      994  1    1    2    0    0 +5.5474389742e+00 -6.9000946944e+01 +7.3746859262e+01 1.6550378850e+02 1.3100000000e+02 0.0000e+00 0.0000e+00
      997  1    1    2    0    0 -8.2957573167e+00 +2.3373475707e+01 +3.9941519176e+02 4.1248955667e+02 1.0000000000e+02 0.0000e+00 0.0000e+00
</event>
<event>
 5      1 +8.5651000e-08 1.93207600e+02 7.95774700e-02 5.17193700e-01
       13 -1    0    0    0    0 +0.0000000000e+00 +0.0000000000e+00 +4.9999998884e+02 5.0000000000e+02 1.0566000000e-01 0.0000e+00 -1.0000e+00
      994 -1    0    0    0    0 -0.0000000000e+00 -0.0000000000e+00 +0.0000000000e+00 1.3100000000e+02 1.3100000000e+02 0.0000e+00 0.0000e+00
       13  1    1    2    0    0 +2.2306398907e+01 +3.7014716806e+01 +9.1557047056e+01 1.0124410463e+02 1.0566000000e-01 0.0000e+00 1.0000e+00
      994  1    1    2    0    0 -3.4027595688e+01 -5.9183689337e+01 +4.8715882044e+01 1.5554685312e+02 1.3100000000e+02 0.0000e+00 0.0000e+00
      997  1    1    2    0    0 +1.1721196781e+01 +2.2168972531e+01 +3.5972705974e+02 3.7420904225e+02 1.0000000000e+02 0.0000e+00 0.0000e+00
</event>
<event>
 5      1 +8.5651000e-08 2.14234300e+02 7.95774700e-02 4.79673100e-01
       13 -1    0    0    0    0 +0.0000000000e+00 +0.0000000000e+00 +4.9999998884e+02 5.0000000000e+02 1.0566000000e-01 0.0000e+00 1.0000e+00
      994 -1    0    0    0    0 -0.0000000000e+00 -0.0000000000e+00 +0.0000000000e+00 1.3100000000e+02 1.3100000000e+02 0.0000e+00 0.0000e+00
       13  1    1    2    0    0 -8.5875967365e+00 -5.8841535527e+00 -1.1131556908e+01 1.5241154942e+01 1.0566000000e-01 0.0000e+00 -1.0000e+00
      994  1    1    2    0    0 +4.0793703081e+01 +5.6825343462e-02 +5.5281411100e+01 1.4792283074e+02 1.3100000000e+02 0.0000e+00 0.0000e+00
      997  1    1    2    0    0 -3.2206106344e+01 +5.8273282092e+00 +4.5585013464e+02 4.6783601432e+02 1.0000000000e+02 0.0000e+00 0.0000e+00
</event>
<event>
 5      1 +8.5651000e-08 1.94708700e+02 7.95774700e-02 5.14162900e-01
       13 -1    0    0    0    0 +0.0000000000e+00 +0.0000000000e+00 +4.9999998884e+02 5.0000000000e+02 1.0566000000e-01 0.0000e+00 -1.0000e+00
      994 -1    0    0    0    0 -0.0000000000e+00 -0.0000000000e+00 +0.0000000000e+00 1.3100000000e+02 1.3100000000e+02 0.0000e+00 0.0000e+00
       13  1    1    2    0    0 +1.3244132685e+01 -5.5499576334e-01 +4.6935187287e+00 1.4062551439e+01 1.0566000000e-01 0.0000e+00 1.0000e+00
      994  1    1    2    0    0 -2.1874409984e+01 +6.0168757073e+00 +2.4085136474e+01 1.3511397561e+02 1.3100000000e+02 0.0000e+00 0.0000e+00
      997  1    1    2    0    0 +8.6302772987e+00 -5.4618799440e+00 +4.7122133363e+02 4.8182347295e+02 1.0000000000e+02 0.0000e+00 0.0000e+00
</event>
<event>
 5      1 +8.5651000e-08 1.93109500e+02 7.95774700e-02 5.17394100e-01
       13 -1    0    0    0    0 +0.0000000000e+00 +0.0000000000e+00 +4.9999998884e+02 5.0000000000e+02 1.0566000000e-01 0.0000e+00 -1.0000e+00
      994 -1    0    0    0    0 -0.0000000000e+00 -0.0000000000e+00 +0.0000000000e+00 1.3100000000e+02 1.3100000000e+02 0.0000e+00 0.0000e+00
       13  1    1    2    0    0 +5.3040838461e+00 -1.1841784556e+01 +8.5980742193e+00 1.5565963229e+01 1.0566000000e-01 0.0000e+00 1.0000e+00
      994  1    1    2    0    0 -3.3797611955e+01 +7.2499596729e+00 +2.5265999475e+01 1.3781948780e+02 1.3100000000e+02 0.0000e+00 0.0000e+00
      997  1    1    2    0    0 +2.8493528109e+01 +4.5918248835e+00 +4.6613591514e+02 4.7761454897e+02 1.0000000000e+02 0.0000e+00 0.0000e+00
</event>
<event>
 5      1 +8.5651000e-08 2.19899700e+02 7.95774700e-02 4.71103100e-01
       13 -1    0    0    0    0 +0.0000000000e+00 +0.0000000000e+00 +4.9999998884e+02 5.0000000000e+02 1.0566000000e-01 0.0000e+00 -1.0000e+00
      994 -1    0    0    0    0 -0.0000000000e+00 -0.0000000000e+00 +0.0000000000e+00 1.3100000000e+02 1.3100000000e+02 0.0000e+00 0.0000e+00
       13  1    1    2    0    0 -3.1385972237e+01 +3.8492550864e+01 +6.9452150281e+01 8.5383652229e+01 1.0566000000e-01 0.0000e+00 1.0000e+00
      994  1    1    2    0    0 -4.2302126944e+01 +5.4282450836e+01 +9.4632418453e+01 1.7564836758e+02 1.3100000000e+02 0.0000e+00 0.0000e+00
      997  1    1    2    0    0 +7.3688099180e+01 -9.2775001700e+01 +3.3591542010e+02 3.6996798019e+02 1.0000000000e+02 0.0000e+00 0.0000e+00
</event>
<event>
 5      1 +8.5651000e-08 2.05068800e+02 7.95774700e-02 4.94812200e-01
       13 -1    0    0    0    0 +0.0000000000e+00 +0.0000000000e+00 +4.9999998884e+02 5.0000000000e+02 1.0566000000e-01 0.0000e+00 1.0000e+00
      994 -1    0    0    0    0 -0.0000000000e+00 -0.0000000000e+00 +0.0000000000e+00 1.3100000000e+02 1.3100000000e+02 0.0000e+00 0.0000e+00
       13  1    1    2    0    0 -8.9861402595e+00 -4.0613914987e+01 +4.9128771899e+01 6.4373039385e+01 1.0566000000e-01 0.0000e+00 -1.0000e+00
      994  1    1    2    0    0 +9.6091993093e-01 +1.2024389788e+01 +3.2585398406e+01 1.3552976613e+02 1.3100000000e+02 0.0000e+00 0.0000e+00
      997  1    1    2    0    0 +8.0252203286e+00 +2.8589525199e+01 +4.1828581853e+02 4.3109719449e+02 1.0000000000e+02 0.0000e+00 0.0000e+00
</event>
<event>
 5      1 +8.5651000e-08 1.94502700e+02 7.95774700e-02 5.14575200e-01
       13 -1    0    0    0    0 +0.0000000000e+00 +0.0000000000e+00 +4.9999998884e+02 5.0000000000e+02 1.0566000000e-01 0.0000e+00 1.0000e+00
      994 -1    0    0    0    0 -0.0000000000e+00 -0.0000000000e+00 +0.0000000000e+00 1.3100000000e+02 1.3100000000e+02 0.0000e+00 0.0000e+00
       13  1    1    2    0    0 -1.9727753641e+01 -2.5370917480e+01 +7.4568429895e+01 8.1199320308e+01 1.0566000000e-01 0.0000e+00 -1.0000e+00
      994  1    1    2    0    0 +5.3749534081e+01 +3.5146729722e+01 +4.1788385290e+01 1.5176157013e+02 1.3100000000e+02 0.0000e+00 0.0000e+00
      997  1    1    2    0    0 -3.4021780440e+01 -9.7758122429e+00 +3.8364317365e+02 3.9803910956e+02 1.0000000000e+02 0.0000e+00 0.0000e+00
</event>
<event>
 5      1 +8.5651000e-08 1.93135700e+02 7.95774700e-02 5.17340500e-01
       13 -1    0    0    0    0 +0.0000000000e+00 +0.0000000000e+00 +4.9999998884e+02 5.0000000000e+02 1.0566000000e-01 0.0000e+00 1.0000e+00
      994 -1    0    0    0    0 -0.0000000000e+00 -0.0000000000e+00 +0.0000000000e+00 1.3100000000e+02 1.3100000000e+02 0.0000e+00 0.0000e+00
       13  1    1    2    0    0 +1.0029916579e+01 +1.3806021882e+01 +2.0560680715e+01 2.6719996675e+01 1.0566000000e-01 0.0000e+00 -1.0000e+00
      994  1    1    2    0    0 -1.3903383740e+01 +2.8369744166e+00 +1.9399121519e+01 1.3318663003e+02 1.3100000000e+02 0.0000e+00 0.0000e+00
      997  1    1    2    0    0 +3.8734671605e+00 -1.6642996298e+01 +4.6004018660e+02 4.7109337329e+02 1.0000000000e+02 0.0000e+00 0.0000e+00
</event>
<event>
 5      1 +8.5651000e-08 1.95065700e+02 7.95774700e-02 5.13451100e-01
       13 -1    0    0    0    0 +0.0000000000e+00 +0.0000000000e+00 +4.9999998884e+02 5.0000000000e+02 1.0566000000e-01 0.0000e+00 1.0000e+00
      994 -1    0    0    0    0 -0.0000000000e+00 -0.0000000000e+00 +0.0000000000e+00 1.3100000000e+02 1.3100000000e+02 0.0000e+00 0.0000e+00
       13  1    1    2    0    0 -1.8650844978e+01 +1.8548671113e+01 +3.4112660884e+01 4.3076583141e+01 1.0566000000e-01 0.0000e+00 -1.0000e+00
      994  1    1    2    0    0 +1.2376608736e+01 -1.7296333628e+01 +2.4063717405e+01 1.3487922782e+02 1.3100000000e+02 0.0000e+00 0.0000e+00
      997  1    1    2    0    0 +6.2742362424e+00 -1.2523374845e+00 +4.4182361055e+02 4.5304418904e+02 1.0000000000e+02 0.0000e+00 0.0000e+00
</event>
<event>
 5      1 +8.5651000e-08 1.97042100e+02 7.95774700e-02 5.09571900e-01
       13 -1    0    0    0    0 +0.0000000000e+00 +0.0000000000e+00 +4.9999998884e+02 5.0000000000e+02 1.0566000000e-01 0.0000e+00 -1.0000e+00
      994 -1    0    0    0    0 -0.0000000000e+00 -0.0000000000e+00 +0.0000000000e+00 1.3100000000e+02 1.3100000000e+02 0.0000e+00 0.0000e+00
       13  1    1    2    0    0 +1.8209314330e+01 +7.4300115381e+00 +5.4906036274e+01 5.8322107157e+01 1.0566000000e-01 0.0000e+00 1.0000e+00
      994  1    1    2    0    0 -3.1088453014e+01 -2.0344658308e+01 +2.2478573468e+01 1.3800972175e+02 1.3100000000e+02 0.0000e+00 0.0000e+00
      997  1    1    2    0    0 +1.2879138684e+01 +1.2914646770e+01 +4.2261537909e+02 4.3466817109e+02 1.0000000000e+02 0.0000e+00 0.0000e+00
</event>
<event>
 5      1 +8.5651000e-08 2.08983100e+02 7.95774700e-02 4.88140400e-01
       13 -1    0    0    0    0 +0.0000000000e+00 +0.0000000000e+00 +4.9999998884e+02 5.0000000000e+02 1.0566000000e-01 0.0000e+00 -1.0000e+00
      994 -1    0    0    0    0 -0.0000000000e+00 -0.0000000000e+00 +0.0000000000e+00 1.3100000000e+02 1.3100000000e+02 0.0000e+00 0.0000e+00
       13  1    1    2    0    0 -6.2839111256e+01 -4.7718394233e+00 +1.3041718540e+02 1.4484535811e+02 1.0566000000e-01 0.0000e+00 1.0000e+00
      994  1    1    2    0    0 +2.0894682515e+01 +4.1348852913e+01 +5.1630120358e+01 1.4823287329e+02 1.3100000000e+02 0.0000e+00 0.0000e+00
      997  1    1    2    0    0 +4.1944428741e+01 -3.6577013489e+01 +3.1795268308e+02 3.3792176860e+02 1.0000000000e+02 0.0000e+00 0.0000e+00
</event>
<event>
 5      1 +8.5651000e-08 1.97464700e+02 7.95774700e-02 5.08755900e-01
       13 -1    0    0    0    0 +0.0000000000e+00 +0.0000000000e+00 +4.9999998884e+02 5.0000000000e+02 1.0566000000e-01 0.0000e+00 1.0000e+00
      994 -1    0    0    0    0 -0.0000000000e+00 -0.0000000000e+00 +0.0000000000e+00 1.3100000000e+02 1.3100000000e+02 0.0000e+00 0.0000e+00
       13  1    1    2    0    0 -1.1551456935e+01 +6.9541951378e+00 +2.5736361082e+01 2.9054576801e+01 1.0566000000e-01 0.0000e+00 -1.0000e+00
      994  1    1    2    0    0 +6.9563064601e+00 -4.3096345854e+01 +2.5100417325e+01 1.4034498985e+02 1.3100000000e+02 0.0000e+00 0.0000e+00
      997  1    1    2    0    0 +4.5951504749e+00 +3.6142150717e+01 +4.4916321043e+02 4.6160043335e+02 1.0000000000e+02 0.0000e+00 0.0000e+00
</event>
<event>
 5      1 +8.5651000e-08 2.16112300e+02 7.95774700e-02 4.76770100e-01
       13 -1    0    0    0    0 +0.0000000000e+00 +0.0000000000e+00 +4.9999998884e+02 5.0000000000e+02 1.0566000000e-01 0.0000e+00 -1.0000e+00
      994 -1    0    0    0    0 -0.0000000000e+00 -0.0000000000e+00 +0.0000000000e+00 1.3100000000e+02 1.3100000000e+02 0.0000e+00 0.0000e+00
       13  1    1    2    0    0 +1.8696879711e+01 -2.1521086873e+01 +4.8457507260e-01 2.8512742207e+01 1.0566000000e-01 0.0000e+00 1.0000e+00
      994  1    1    2    0    0 -1.6898844993e+01 +2.9053310554e+01 +5.3676356933e+01 1.4550538516e+02 1.3100000000e+02 0.0000e+00 0.0000e+00
      997  1    1    2    0    0 -1.7980347184e+00 -7.5322236812e+00 +4.4583905683e+02 4.5698187264e+02 1.0000000000e+02 0.0000e+00 0.0000e+00
</event>
<event>
 5      1 +8.5651000e-08 1.93135900e+02 7.95774700e-02 5.17340100e-01
       13 -1    0    0    0    0 +0.0000000000e+00 +0.0000000000e+00 +4.9999998884e+02 5.0000000000e+02 1.0566000000e-01 0.0000e+00 -1.0000e+00
      994 -1    0    0    0    0 -0.0000000000e+00 -0.0000000000e+00 +0.0000000000e+00 1.3100000000e+02 1.3100000000e+02 0.0000e+00 0.0000e+00
       13  1    1    2    0    0 +1.9125492266e+01 -3.5198437747e+00 +2.1824778047e+01 2.9231932120e+01 1.0566000000e-01 0.0000e+00 1.0000e+00
      994  1    1    2    0    0 -4.9200112112e+01 -7.6103474429e+01 +7.1840954733e+01 1.7474127340e+02 1.3100000000e+02 0.0000e+00 0.0000e+00
      997  1    1    2    0    0 +3.0074619846e+01 +7.9623318204e+01 +4.0633425606e+02 4.2702679448e+02 1.0000000000e+02 0.0000e+00 0.0000e+00
</event>
<event>
 5      1 +8.5651000e-08 2.25527700e+02 7.95774700e-02 4.63114300e-01
       13 -1    0    0    0    0 +0.0000000000e+00 +0.0000000000e+00 +4.9999998884e+02 5.0000000000e+02 1.0566000000e-01 0.0000e+00 -1.0000e+00
      994 -1    0    0    0    0 -0.0000000000e+00 -0.0000000000e+00 +0.0000000000e+00 1.3100000000e+02 1.3100000000e+02 0.0000e+00 0.0000e+00
       13  1    1    2    0    0 -2.7876634047e+00 +6.3385418923e+01 +2.9811383024e+01 7.0101441648e+01 1.0566000000e-01 0.0000e+00 1.0000e+00
      994  1    1    2    0    0 -8.1583303631e+01 +8.5275150810e+00 +2.7085853667e+02 3.1185557688e+02 1.3100000000e+02 0.0000e+00 0.0000e+00
      997  1    1    2    0    0 +8.4370967036e+01 -7.1912934004e+01 +1.9933006914e+02 2.4904298147e+02 1.0000000000e+02 0.0000e+00 0.0000e+00
</event>
<event>
 5      1 +8.5651000e-08 1.95010100e+02 7.95774700e-02 5.13561700e-01
       13 -1    0    0    0    0 +0.0000000000e+00 +0.0000000000e+00 +4.9999998884e+02 5.0000000000e+02 1.0566000000e-01 0.0000e+00 -1.0000e+00
      994 -1    0    0    0    0 -0.0000000000e+00 -0.0000000000e+00 +0.0000000000e+00 1.3100000000e+02 1.3100000000e+02 0.0000e+00 0.0000e+00
       13  1    1    2    0    0 +2.1589146949e+01 +9.8748669645e+00 +1.1566773138e+02 1.1807895456e+02 1.0566000000e-01 0.0000e+00 1.0000e+00
      994  1    1    2    0    0 -1.2570738241e+01 -1.9082887027e+01 +1.9485014602e+01 1.3439808716e+02 1.3100000000e+02 0.0000e+00 0.0000e+00
      997  1    1    2    0    0 -9.0184087081e+00 +9.2080200623e+00 +3.6484724286e+02 3.7852295829e+02 1.0000000000e+02 0.0000e+00 0.0000e+00
</event>
<event>
 5      1 +8.5651000e-08 2.06877900e+02 7.95774700e-02 4.91688500e-01
       13 -1    0    0    0    0 +0.0000000000e+00 +0.0000000000e+00 +4.9999998884e+02 5.0000000000e+02 1.0566000000e-01 0.0000e+00 -1.0000e+00
      994 -1    0    0    0    0 -0.0000000000e+00 -0.0000000000e+00 +0.0000000000e+00 1.3100000000e+02 1.3100000000e+02 0.0000e+00 0.0000e+00
       13  1    1    2    0    0 +1.6678174645e+01 -7.2508805877e+00 -7.9319709331e-01 1.8203766216e+01 1.0566000000e-01 0.0000e+00 1.0000e+00
      994  1    1    2    0    0 +4.1822195088e+00 +3.1409695746e+01 +4.0566845594e+01 1.4075059115e+02 1.3100000000e+02 0.0000e+00 0.0000e+00
      997  1    1    2    0    0 -2.0860394154e+01 -2.4158815158e+01 +4.6022634034e+02 4.7204564264e+02 1.0000000000e+02 0.0000e+00 0.0000e+00
</event>
<event>
 5      1 +8.5651000e-08 1.96394000e+02 7.95774700e-02 5.10832800e-01
       13 -1    0    0    0    0 +0.0000000000e+00 +0.0000000000e+00 +4.9999998884e+02 5.0000000000e+02 1.0566000000e-01 0.0000e+00 1.0000e+00
      994 -1    0    0    0    0 -0.0000000000e+00 -0.0000000000e+00 +0.0000000000e+00 1.3100000000e+02 1.3100000000e+02 0.0000e+00 0.0000e+00
       13  1    1    2    0    0 -1.7210932797e+01 +1.4392412932e+01 +1.0084878856e+02 1.0331431206e+02 1.0566000000e-01 0.0000e+00 -1.0000e+00
      994  1    1    2    0    0 +1.3023876607e+01 -4.1080089493e+01 +2.5886945347e+01 1.4031510629e+02 1.3100000000e+02 0.0000e+00 0.0000e+00
      997  1    1    2    0    0 +4.1870561899e+00 +2.6687676562e+01 +3.7326425492e+02 3.8737058165e+02 1.0000000000e+02 0.0000e+00 0.0000e+00
</event>
<event>
 5      1 +8.5651000e-08 1.92859800e+02 7.95774700e-02 5.17905000e-01
       13 -1    0    0    0    0 +0.0000000000e+00 +0.0000000000e+00 +4.9999998884e+02 5.0000000000e+02 1.0566000000e-01 0.0000e+00 -1.0000e+00
      994 -1    0    0    0    0 -0.0000000000e+00 -0.0000000000e+00 +0.0000000000e+00 1.3100000000e+02 1.3100000000e+02 0.0000e+00 0.0000e+00
       13  1    1    2    0    0 -1.4119800079e+01 +2.4559097102e+01 +9.4341753595e+01 9.8503277307e+01 1.0566000000e-01 0.0000e+00 1.0000e+00
      994  1    1    2    0    0 +1.5758800050e+01 +6.9769864951e+00 +2.0984314097e+01 1.3378475084e+02 1.3100000000e+02 0.0000e+00 0.0000e+00
      997  1    1    2    0    0 -1.6389999715e+00 -3.1536083597e+01 +3.8467392114e+02 3.9871197185e+02 1.0000000000e+02 0.0000e+00 0.0000e+00
</event>
<event>
 5      1 +8.5651000e-08 2.08838800e+02 7.95774700e-02 4.88380700e-01
       13 -1    0    0    0    0 +0.0000000000e+00 +0.0000000000e+00 +4.9999998884e+02 5.0000000000e+02 1.0566000000e-01 0.0000e+00 1.0000e+00
      994 -1    0    0    0    0 -0.0000000000e+00 -0.0000000000e+00 +0.0000000000e+00 1.3100000000e+02 1.3100000000e+02 0.0000e+00 0.0000e+00
       13  1    1    2    0    0 -3.5746790306e+01 -4.2868825146e+01 +8.2978074222e+01 1.0000470565e+02 1.0566000000e-01 0.0000e+00 -1.0000e+00
      994  1    1    2    0    0 -4.3625175484e+01 +8.8483304401e+01 +3.3381803917e+02 3.7192463533e+02 1.3100000000e+02 0.0000e+00 0.0000e+00
      997  1    1    2    0    0 +7.9371965789e+01 -4.5614479255e+01 +8.3203875448e+01 1.5907065902e+02 1.0000000000e+02 0.0000e+00 0.0000e+00
</event>
<event>
 5      1 +8.5651000e-08 1.95170000e+02 7.95774700e-02 5.13243700e-01
       13 -1    0    0    0    0 +0.0000000000e+00 +0.0000000000e+00 +4.9999998884e+02 5.0000000000e+02 1.0566000000e-01 0.0000e+00 1.0000e+00
      994 -1    0    0    0    0 -0.0000000000e+00 -0.0000000000e+00 +0.0000000000e+00 1.3100000000e+02 1.3100000000e+02 0.0000e+00 0.0000e+00
       13  1    1    2    0    0 +8.9611975502e+00 +7.0763407342e+00 +9.7216916761e+00 1.4996670057e+01 1.0566000000e-01 0.0000e+00 -1.0000e+00
      994  1    1    2    0    0 -1.6691351911e+01 -1.2649477995e+01 +1.8855458743e+01 1.3399678670e+02 1.3100000000e+02 0.0000e+00 0.0000e+00
      997  1    1    2    0    0 +7.7301543608e+00 +5.5731372610e+00 +4.7142283842e+02 4.8200654324e+02 1.0000000000e+02 0.0000e+00 0.0000e+00
</event>
<event>
 5      1 +8.5651000e-08 2.11240800e+02 7.95774700e-02 4.84434900e-01
       13 -1    0    0    0    0 +0.0000000000e+00 +0.0000000000e+00 +4.9999998884e+02 5.0000000000e+02 1.0566000000e-01 0.0000e+00 1.0000e+00
      994 -1    0    0    0    0 -0.0000000000e+00 -0.0000000000e+00 +0.0000000000e+00 1.3100000000e+02 1.3100000000e+02 0.0000e+00 0.0000e+00
       13  1    1    2    0    0 -7.9749820848e+00 -7.0874415290e+00 -8.4810707412e+00 1.3629816273e+01 1.0566000000e-01 0.0000e+00 -1.0000e+00
      994  1    1    2    0    0 -1.3760612012e+01 -1.5255419154e+01 +4.1733276391e+01 1.3901348357e+02 1.3100000000e+02 0.0000e+00 0.0000e+00
      997  1    1    2    0    0 +2.1735594097e+01 +2.2342860683e+01 +4.6674778319e+02 4.7835670015e+02 1.0000000000e+02 0.0000e+00 0.0000e+00
</event>
<event>
 5      1 +8.5651000e-08 1.92906200e+02 7.95774700e-02 5.17809900e-01
       13 -1    0    0    0    0 +0.0000000000e+00 +0.0000000000e+00 +4.9999998884e+02 5.0000000000e+02 1.0566000000e-01 0.0000e+00 -1.0000e+00
      994 -1    0    0    0    0 -0.0000000000e+00 -0.0000000000e+00 +0.0000000000e+00 1.3100000000e+02 1.3100000000e+02 0.0000e+00 0.0000e+00
       13  1    1    2    0    0 +1.3737851051e+01 +1.0346527796e+01 +1.4310408374e+01 2.2373603661e+01 1.0566000000e-01 0.0000e+00 1.0000e+00
      994  1    1    2    0    0 -4.2726436218e+01 +9.9751493606e+00 +3.0816752465e+01 1.4154760397e+02 1.3100000000e+02 0.0000e+00 0.0000e+00
      997  1    1    2    0    0 +2.8988585167e+01 -2.0321677157e+01 +4.5487282800e+02 4.6707879237e+02 1.0000000000e+02 0.0000e+00 0.0000e+00
</event>
<event>
 5      1 +8.5651000e-08 1.97994700e+02 7.95774700e-02 5.07738700e-01
       13 -1    0    0    0    0 +0.0000000000e+00 +0.0000000000e+00 +4.9999998884e+02 5.0000000000e+02 1.0566000000e-01 0.0000e+00 1.0000e+00
      994 -1    0    0    0    0 -0.0000000000e+00 -0.0000000000e+00 +0.0000000000e+00 1.3100000000e+02 1.3100000000e+02 0.0000e+00 0.0000e+00
       13  1    1    2    0    0 +1.9975906813e+01 -4.2203202981e+00 +2.5690525699e+01 3.2815579092e+01 1.0566000000e-01 0.0000e+00 -1.0000e+00
      994  1    1    2    0    0 -1.0738810896e+02 +6.2663740829e+01 +1.2419519307e+02 2.1919031991e+02 1.3100000000e+02 0.0000e+00 0.0000e+00
      997  1    1    2    0    0 +8.7412202143e+01 -5.8443420531e+01 +3.5011427007e+02 3.7899410100e+02 1.0000000000e+02 0.0000e+00 0.0000e+00
</event>
<event>
 5      1 +8.5651000e-08 1.98887900e+02 7.95774700e-02 5.06040400e-01
       13 -1    0    0    0    0 +0.0000000000e+00 +0.0000000000e+00 +4.9999998884e+02 5.0000000000e+02 1.0566000000e-01 0.0000e+00 -1.0000e+00
      994 -1    0    0    0    0 -0.0000000000e+00 -0.0000000000e+00 +0.0000000000e+00 1.3100000000e+02 1.3100000000e+02 0.0000e+00 0.0000e+00
       13  1    1    2    0    0 +8.3770384343e+00 -6.7291584919e+00 +4.9485927207e+01 5.0639159773e+01 1.0566000000e-01 0.0000e+00 1.0000e+00
      994  1    1    2    0    0 -1.3621073875e+01 -3.1537276506e+00 +1.4099776480e+01 1.3249635221e+02 1.3100000000e+02 0.0000e+00 0.0000e+00
      997  1    1    2    0    0 +5.2440354410e+00 +9.8828861425e+00 +4.3641428515e+02 4.4786448802e+02 1.0000000000e+02 0.0000e+00 0.0000e+00
</event>
<event>
 5      1 +8.5651000e-08 1.96597000e+02 7.95774700e-02 5.10436700e-01
       13 -1    0    0    0    0 +0.0000000000e+00 +0.0000000000e+00 +4.9999998884e+02 5.0000000000e+02 1.0566000000e-01 0.0000e+00 1.0000e+00
      994 -1    0    0    0    0 -0.0000000000e+00 -0.0000000000e+00 +0.0000000000e+00 1.3100000000e+02 1.3100000000e+02 0.0000e+00 0.0000e+00
       13  1    1    2    0    0 +1.7187177422e+01 +3.5562223146e+00 +1.1802214111e+01 2.1150631359e+01 1.0566000000e-01 0.0000e+00 -1.0000e+00
      994  1    1    2    0    0 +1.9420227781e+01 -1.2884191116e+01 +2.6156651010e+01 1.3560353248e+02 1.3100000000e+02 0.0000e+00 0.0000e+00
      997  1    1    2    0    0 -3.6607405203e+01 +9.3279688017e+00 +4.6204112371e+02 4.7424583617e+02 1.0000000000e+02 0.0000e+00 0.0000e+00
</event>
<event>
 5      1 +8.5651000e-08 1.93874500e+02 7.95774700e-02 5.15839500e-01
       13 -1    0    0    0    0 +0.0000000000e+00 +0.0000000000e+00 +4.9999998884e+02 5.0000000000e+02 1.0566000000e-01 0.0000e+00 -1.0000e+00
      994 -1    0    0    0    0 -0.0000000000e+00 -0.0000000000e+00 +0.0000000000e+00 1.3100000000e+02 1.3100000000e+02 0.0000e+00 0.0000e+00
       13  1    1    2    0    0 -2.7090327756e+01 -8.9129578862e+00 +1.3131844614e+02 1.3437958229e+02 1.0566000000e-01 0.0000e+00 1.0000e+00
      994  1    1    2    0    0 +2.3007426917e+01 +1.3672848157e+01 +2.1692014977e+01 1.3545416931e+02 1.3100000000e+02 0.0000e+00 0.0000e+00
      997  1    1    2    0    0 +4.0829008391e+00 -4.7598902711e+00 +3.4698952772e+02 3.6116624840e+02 1.0000000000e+02 0.0000e+00 0.0000e+00
</event>
<event>
 5      1 +8.5651000e-08 1.96970000e+02 7.95774700e-02 5.09711700e-01
       13 -1    0    0    0    0 +0.0000000000e+00 +0.0000000000e+00 +4.9999998884e+02 5.0000000000e+02 1.0566000000e-01 0.0000e+00 1.0000e+00
      994 -1    0    0    0    0 -0.0000000000e+00 -0.0000000000e+00 +0.0000000000e+00 1.3100000000e+02 1.3100000000e+02 0.0000e+00 0.0000e+00
       13  1    1    2    0    0 +1.0001655434e+01 +1.1577630505e+01 +5.3333204536e+01 5.5484380772e+01 1.0566000000e-01 0.0000e+00 -1.0000e+00
      994  1    1    2    0    0 -2.0007544002e+00 +4.1014227975e+00 +1.4845673828e+01 1.3191746935e+02 1.3100000000e+02 0.0000e+00 0.0000e+00
      997  1    1    2    0    0 -8.0009010338e+00 -1.5679053303e+01 +4.3182111047e+02 4.4359814988e+02 1.0000000000e+02 0.0000e+00 0.0000e+00
</event>
<event>
 5      1 +8.5651000e-08 2.14707400e+02 7.95774700e-02 4.78935800e-01
       13 -1    0    0    0    0 +0.0000000000e+00 +0.0000000000e+00 +4.9999998884e+02 5.0000000000e+02 1.0566000000e-01 0.0000e+00 -1.0000e+00
      994 -1    0    0    0    0 -0.0000000000e+00 -0.0000000000e+00 +0.0000000000e+00 1.3100000000e+02 1.3100000000e+02 0.0000e+00 0.0000e+00
       13  1    1    2    0    0 -3.4027330516e+00 +1.4056267871e+01 -9.1434372041e+00 1.7110548402e+01 1.0566000000e-01 0.0000e+00 1.0000e+00
      994  1    1    2    0    0 +9.1495394730e+00 -2.3525764483e+01 +4.7818743659e+01 1.4172088030e+02 1.3100000000e+02 0.0000e+00 0.0000e+00
      997  1    1    2    0    0 -5.7468064214e+00 +9.4694966122e+00 +4.6132468238e+02 4.7216857130e+02 1.0000000000e+02 0.0000e+00 0.0000e+00
</event>
<event>
 5      1 +8.5651000e-08 1.98562800e+02 7.95774700e-02 5.06656200e-01
       13 -1    0    0    0    0 +0.0000000000e+00 +0.0000000000e+00 +4.9999998884e+02 5.0000000000e+02 1.0566000000e-01 0.0000e+00 1.0000e+00
      994 -1    0    0    0    0 -0.0000000000e+00 -0.0000000000e+00 +0.0000000000e+00 1.3100000000e+02 1.3100000000e+02 0.0000e+00 0.0000e+00
       13  1    1    2    0    0 -3.0926270310e+01 -1.2262811552e+01 +3.8556719241e+01 5.0925853013e+01 1.0566000000e-01 0.0000e+00 -1.0000e+00
      994  1    1    2    0    0 +2.5836227359e+01 +2.2795721025e+01 +3.2265842143e+01 1.3924525166e+02 1.3100000000e+02 0.0000e+00 0.0000e+00
      997  1    1    2    0    0 +5.0900429514e+00 -1.0532909473e+01 +4.2917742745e+02 4.4082889533e+02 1.0000000000e+02 0.0000e+00 0.0000e+00
</event>
<event>
 5      1 +8.5651000e-08 1.44898000e+02 7.95774700e-02 6.66673600e-01
       13 -1    0    0    0    0 +0.0000000000e+00 +0.0000000000e+00 +4.9999998884e+02 5.0000000000e+02 1.0566000000e-01 0.0000e+00 -1.0000e+00
      994 -1    0    0    0    0 -0.0000000000e+00 -0.0000000000e+00 +0.0000000000e+00 1.3100000000e+02 1.3100000000e+02 0.0000e+00 0.0000e+00
       13  1    1    2    0    0 +4.7172108590e+01 -4.3166542162e+01 +7.2777873321e+00 6.4354763177e+01 1.0566000000e-01 0.0000e+00 1.0000e+00
      994  1    1    2    0    0 +1.4344048261e-01 -3.4555614137e+00 +1.3006690508e+02 1.8463575298e+02 1.3100000000e+02 0.0000e+00 0.0000e+00
      997  1    1    2    0    0 -4.7315549073e+01 +4.6622103575e+01 +3.6265529642e+02 3.8200948385e+02 1.0000000000e+02 0.0000e+00 0.0000e+00
</event>
<event>
 5      1 +8.5651000e-08 1.96016500e+02 7.95774700e-02 5.11572100e-01
       13 -1    0    0    0    0 +0.0000000000e+00 +0.0000000000e+00 +4.9999998884e+02 5.0000000000e+02 1.0566000000e-01 0.0000e+00 -1.0000e+00
      994 -1    0    0    0    0 -0.0000000000e+00 -0.0000000000e+00 +0.0000000000e+00 1.3100000000e+02 1.3100000000e+02 0.0000e+00 0.0000e+00
       13  1    1    2    0    0 -1.6851398694e+01 +5.6352306122e+00 +7.3010542570e+01 7.5141705813e+01 1.0566000000e-01 0.0000e+00 1.0000e+00
      994  1    1    2    0    0 -9.6267022527e+00 -2.4686845725e+01 +1.9568130420e+01 1.3507784969e+02 1.3100000000e+02 0.0000e+00 0.0000e+00
      997  1    1    2    0    0 +2.6478100946e+01 +1.9051615113e+01 +4.0742131585e+02 4.2078044450e+02 1.0000000000e+02 0.0000e+00 0.0000e+00
</event>
<event>
 5      1 +8.5651000e-08 1.92464900e+02 7.95774700e-02 5.18716700e-01
       13 -1    0    0    0    0 +0.0000000000e+00 +0.0000000000e+00 +4.9999998884e+02 5.0000000000e+02 1.0566000000e-01 0.0000e+00 1.0000e+00
      994 -1    0    0    0    0 -0.0000000000e+00 -0.0000000000e+00 +0.0000000000e+00 1.3100000000e+02 1.3100000000e+02 0.0000e+00 0.0000e+00
       13  1    1    2    0    0 +1.2493300785e+01 -1.6088783375e+01 +2.2735825813e+01 3.0526389476e+01 1.0566000000e-01 0.0000e+00 -1.0000e+00
      994  1    1    2    0    0 -9.7743555230e+00 +3.5495182647e+01 +2.6879063463e+01 1.3870447026e+02 1.3100000000e+02 0.0000e+00 0.0000e+00
      997  1    1    2    0    0 -2.7189452619e+00 -1.9406399271e+01 +4.5038509956e+02 4.6176914027e+02 1.0000000000e+02 0.0000e+00 0.0000e+00
</event>
<event>
 5      1 +8.5651000e-08 1.95300500e+02 7.95774700e-02 5.12984700e-01
       13 -1    0    0    0    0 +0.0000000000e+00 +0.0000000000e+00 +4.9999998884e+02 5.0000000000e+02 1.0566000000e-01 0.0000e+00 -1.0000e+00
      994 -1    0    0    0    0 -0.0000000000e+00 -0.0000000000e+00 +0.0000000000e+00 1.3100000000e+02 1.3100000000e+02 0.0000e+00 0.0000e+00
       13  1    1    2    0    0 -1.4139909173e+01 +1.1400927571e+01 +1.5015600515e+01 2.3566875138e+01 1.0566000000e-01 0.0000e+00 1.0000e+00
      994  1    1    2    0    0 -2.5549485176e+01 -1.9465560029e+01 +2.7831860197e+01 1.3772180896e+02 1.3100000000e+02 0.0000e+00 0.0000e+00
      997  1    1    2    0    0 +3.9689394349e+01 +8.0646324580e+00 +4.5715252812e+02 4.6971131591e+02 1.0000000000e+02 0.0000e+00 0.0000e+00
</event>
<event>
 5      1 +8.5651000e-08 2.01637200e+02 7.95774700e-02 5.00936000e-01
       13 -1    0    0    0    0 +0.0000000000e+00 +0.0000000000e+00 +4.9999998884e+02 5.0000000000e+02 1.0566000000e-01 0.0000e+00 -1.0000e+00
      994 -1    0    0    0    0 -0.0000000000e+00 -0.0000000000e+00 +0.0000000000e+00 1.3100000000e+02 1.3100000000e+02 0.0000e+00 0.0000e+00
       13  1    1    2    0    0 -1.4702358613e+01 -1.8903872644e+01 +1.3034834243e+01 2.7265982790e+01 1.0566000000e-01 0.0000e+00 1.0000e+00
      994  1    1    2    0    0 +6.4724843171e+00 +9.6971261428e+00 +2.8818396320e+01 1.3463813455e+02 1.3100000000e+02 0.0000e+00 0.0000e+00
      997  1    1    2    0    0 +8.2298742961e+00 +9.2067465010e+00 +4.5814675827e+02 4.6909588266e+02 1.0000000000e+02 0.0000e+00 0.0000e+00
</event>
<event>
 5      1 +8.5651000e-08 2.22818000e+02 7.95774700e-02 4.66898600e-01
       13 -1    0    0    0    0 +0.0000000000e+00 +0.0000000000e+00 +4.9999998884e+02 5.0000000000e+02 1.0566000000e-01 0.0000e+00 -1.0000e+00
      994 -1    0    0    0    0 -0.0000000000e+00 -0.0000000000e+00 +0.0000000000e+00 1.3100000000e+02 1.3100000000e+02 0.0000e+00 0.0000e+00
       13  1    1    2    0    0 -1.2967284327e+01 -2.1198871031e+01 -5.9171408140e+00 2.5545377571e+01 1.0566000000e-01 0.0000e+00 1.0000e+00
      994  1    1    2    0    0 +1.9285542249e+01 -4.1291804893e+01 +7.3035852347e+01 1.5675516266e+02 1.3100000000e+02 0.0000e+00 0.0000e+00
      997  1    1    2    0    0 -6.3182579222e+00 +6.2490675925e+01 +4.3288127730e+02 4.4869945977e+02 1.0000000000e+02 0.0000e+00 0.0000e+00
</event>
<event>
 5      1 +8.5651000e-08 2.04612300e+02 7.95774700e-02 4.95611500e-01
       13 -1    0    0    0    0 +0.0000000000e+00 +0.0000000000e+00 +4.9999998884e+02 5.0000000000e+02 1.0566000000e-01 0.0000e+00 1.0000e+00
      994 -1    0    0    0    0 -0.0000000000e+00 -0.0000000000e+00 +0.0000000000e+00 1.3100000000e+02 1.3100000000e+02 0.0000e+00 0.0000e+00
       13  1    1    2    0    0 +3.3998972624e+01 -3.2602755491e+01 +7.4550142159e+01 8.8185059194e+01 1.0566000000e-01 0.0000e+00 -1.0000e+00
      994  1    1    2    0    0 -1.5837441550e+01 +8.1151707018e-01 +3.2788223876e+01 1.3596893299e+02 1.3100000000e+02 0.0000e+00 0.0000e+00
      997  1    1    2    0    0 -1.8161531074e+01 +3.1791238421e+01 +3.9266162280e+02 4.0684600781e+02 1.0000000000e+02 0.0000e+00 0.0000e+00
</event>
<event>
 5      1 +8.5651000e-08 2.03073000e+02 7.95774700e-02 4.98341200e-01
       13 -1    0    0    0    0 +0.0000000000e+00 +0.0000000000e+00 +4.9999998884e+02 5.0000000000e+02 1.0566000000e-01 0.0000e+00 -1.0000e+00
      994 -1    0    0    0    0 -0.0000000000e+00 -0.0000000000e+00 +0.0000000000e+00 1.3100000000e+02 1.3100000000e+02 0.0000e+00 0.0000e+00
       13  1    1    2    0    0 +4.0217070173e+01 +7.2914706441e+00 +1.3037751837e+02 1.3663413460e+02 1.0566000000e-01 0.0000e+00 1.0000e+00
      994  1    1    2    0    0 +2.7840098716e+01 -2.2069545409e+01 +3.7833998817e+01 1.4090616522e+02 1.3100000000e+02 0.0000e+00 0.0000e+00
      997  1    1    2    0    0 -6.8057168889e+01 +1.4778074765e+01 +3.3178847165e+02 3.5345970018e+02 1.0000000000e+02 0.0000e+00 0.0000e+00
</event>
<event>
 5      1 +8.5651000e-08 1.94014300e+02 7.95774700e-02 5.15557100e-01
       13 -1    0    0    0    0 +0.0000000000e+00 +0.0000000000e+00 +4.9999998884e+02 5.0000000000e+02 1.0566000000e-01 0.0000e+00 1.0000e+00
      994 -1    0    0    0    0 -0.0000000000e+00 -0.0000000000e+00 +0.0000000000e+00 1.3100000000e+02 1.3100000000e+02 0.0000e+00 0.0000e+00
       13  1    1    2    0    0 -3.3403759165e+01 +2.2910292700e+00 +8.4721366210e+01 9.1097645403e+01 1.0566000000e-01 0.0000e+00 -1.0000e+00
      994  1    1    2    0    0 +1.8184995277e+01 -2.9373906807e+00 +2.2351403421e+01 1.3416373412e+02 1.3100000000e+02 0.0000e+00 0.0000e+00
      997  1    1    2    0    0 +1.5218763888e+01 +6.4636141070e-01 +3.9292721920e+02 4.0573862048e+02 1.0000000000e+02 0.0000e+00 0.0000e+00
</event>
<event>
 5      1 +8.5651000e-08 1.95271400e+02 7.95774700e-02 5.13042600e-01
       13 -1    0    0    0    0 +0.0000000000e+00 +0.0000000000e+00 +4.9999998884e+02 5.0000000000e+02 1.0566000000e-01 0.0000e+00 1.0000e+00
      994 -1    0    0    0    0 -0.0000000000e+00 -0.0000000000e+00 +0.0000000000e+00 1.3100000000e+02 1.3100000000e+02 0.0000e+00 0.0000e+00
       13  1    1    2    0    0 +1.2433720354e+01 -2.0083524520e+01 +1.1659515746e+02 1.1896380654e+02 1.0566000000e-01 0.0000e+00 -1.0000e+00
      994  1    1    2    0    0 +2.3065438440e+00 +3.0421234526e+01 +2.1593066140e+01 1.3622786851e+02 1.3100000000e+02 0.0000e+00 0.0000e+00
      997  1    1    2    0    0 -1.4740264199e+01 -1.0337710006e+01 +3.6181176524e+02 3.7580832495e+02 1.0000000000e+02 0.0000e+00 0.0000e+00
</event>
<event>
 5      1 +8.5651000e-08 2.02311300e+02 7.95774700e-02 4.99711700e-01
       13 -1    0    0    0    0 +0.0000000000e+00 +0.0000000000e+00 +4.9999998884e+02 5.0000000000e+02 1.0566000000e-01 0.0000e+00 1.0000e+00
      994 -1    0    0    0    0 -0.0000000000e+00 -0.0000000000e+00 +0.0000000000e+00 1.3100000000e+02 1.3100000000e+02 0.0000e+00 0.0000e+00
       13  1    1    2    0    0 +1.2231024610e+01 -1.0435082663e+01 +7.7911190631e-01 1.6096803801e+01 1.0566000000e-01 0.0000e+00 -1.0000e+00
      994  1    1    2    0    0 -2.7722199530e+01 -1.5267580539e+01 +3.5211507210e+01 1.3929274785e+02 1.3100000000e+02 0.0000e+00 0.0000e+00
      997  1    1    2    0    0 +1.5491174920e+01 +2.5702663202e+01 +4.6400936972e+02 4.7561044835e+02 1.0000000000e+02 0.0000e+00 0.0000e+00
</event>
<event>
 5      1 +8.5651000e-08 2.12527200e+02 7.95774700e-02 4.82367800e-01
       13 -1    0    0    0    0 +0.0000000000e+00 +0.0000000000e+00 +4.9999998884e+02 5.0000000000e+02 1.0566000000e-01 0.0000e+00 -1.0000e+00
      994 -1    0    0    0    0 -0.0000000000e+00 -0.0000000000e+00 +0.0000000000e+00 1.3100000000e+02 1.3100000000e+02 0.0000e+00 0.0000e+00
       13  1    1    2    0    0 +3.4911682740e+01 -2.5873837109e+01 +3.9043145544e+01 5.8417971691e+01 1.0566000000e-01 0.0000e+00 1.0000e+00
      994  1    1    2    0    0 +1.3119563725e+01 +1.8849640744e+00 +4.1520711639e+01 1.3806029674e+02 1.3100000000e+02 0.0000e+00 0.0000e+00
      997  1    1    2    0    0 -4.8031246465e+01 +2.3988873035e+01 +4.1943613165e+02 4.3452173157e+02 1.0000000000e+02 0.0000e+00 0.0000e+00
</event>
<event>
 5      1 +8.5651000e-08 2.10508500e+02 7.95774700e-02 4.85625700e-01
       13 -1    0    0    0    0 +0.0000000000e+00 +0.0000000000e+00 +4.9999998884e+02 5.0000000000e+02 1.0566000000e-01 0.0000e+00 1.0000e+00
      994 -1    0    0    0    0 -0.0000000000e+00 -0.0000000000e+00 +0.0000000000e+00 1.3100000000e+02 1.3100000000e+02 0.0000e+00 0.0000e+00
       13  1    1    2    0    0 +4.6366380638e+01 -4.7676159867e+01 +8.4520085671e+01 1.0754772670e+02 1.0566000000e-01 0.0000e+00 -1.0000e+00
      994  1    1    2    0    0 -7.7734445636e+01 -6.9646327901e-01 +8.7316162424e+01 1.7557972924e+02 1.3100000000e+02 0.0000e+00 0.0000e+00
      997  1    1    2    0    0 +3.1368064998e+01 +4.8372623146e+01 +3.2816374074e+02 3.4787254406e+02 1.0000000000e+02 0.0000e+00 0.0000e+00
</event>
<event>
 5      1 +8.5651000e-08 1.98423100e+02 7.95774700e-02 5.06921600e-01
       13 -1    0    0    0    0 +0.0000000000e+00 +0.0000000000e+00 +4.9999998884e+02 5.0000000000e+02 1.0566000000e-01 0.0000e+00 -1.0000e+00
      994 -1    0    0    0    0 -0.0000000000e+00 -0.0000000000e+00 +0.0000000000e+00 1.3100000000e+02 1.3100000000e+02 0.0000e+00 0.0000e+00
       13  1    1    2    0    0 -3.1269306439e-01 -1.2050442388e+01 +4.3762917929e+01 4.5392896894e+01 1.0566000000e-01 0.0000e+00 1.0000e+00
      994  1    1    2    0    0 -5.3356489718e+00 +7.6879798124e+00 +1.3918639573e+01 1.3206931025e+02 1.3100000000e+02 0.0000e+00 0.0000e+00
      997  1    1    2    0    0 +5.6483420362e+00 +4.3624625755e+00 +4.4231843133e+02 4.5353779285e+02 1.0000000000e+02 0.0000e+00 0.0000e+00
</event>
<event>
 5      1 +8.5651000e-08 1.93023700e+02 7.95774700e-02 5.17569400e-01
       13 -1    0    0    0    0 +0.0000000000e+00 +0.0000000000e+00 +4.9999998884e+02 5.0000000000e+02 1.0566000000e-01 0.0000e+00 1.0000e+00
      994 -1    0    0    0    0 -0.0000000000e+00 -0.0000000000e+00 +0.0000000000e+00 1.3100000000e+02 1.3100000000e+02 0.0000e+00 0.0000e+00
       13  1    1    2    0    0 +1.6707750124e+01 -9.0455371014e+00 +2.6867179013e+01 3.2906338718e+01 1.0566000000e-01 0.0000e+00 -1.0000e+00
      994  1    1    2    0    0 -1.2617501545e+01 -5.5231147235e+01 +3.8996423991e+01 1.4795743325e+02 1.3100000000e+02 0.0000e+00 0.0000e+00
      997  1    1    2    0    0 -4.0902485793e+00 +6.4276684337e+01 +4.3413638583e+02 4.5013622803e+02 1.0000000000e+02 0.0000e+00 0.0000e+00
</event>
<event>
 5      1 +8.5651000e-08 1.98231200e+02 7.95774700e-02 5.07287000e-01
       13 -1    0    0    0    0 +0.0000000000e+00 +0.0000000000e+00 +4.9999998884e+02 5.0000000000e+02 1.0566000000e-01 0.0000e+00 -1.0000e+00
      994 -1    0    0    0    0 -0.0000000000e+00 -0.0000000000e+00 +0.0000000000e+00 1.3100000000e+02 1.3100000000e+02 0.0000e+00 0.0000e+00
       13  1    1    2    0    0 +2.8746630395e+01 -1.2906096085e+01 +1.7637686439e+02 1.7916959990e+02 1.0566000000e-01 0.0000e+00 1.0000e+00
      994  1    1    2    0    0 +4.4671050977e+00 -2.0972882402e+01 +2.7315222508e+01 1.3552467748e+02 1.3100000000e+02 0.0000e+00 0.0000e+00
      997  1    1    2    0    0 -3.3213735493e+01 +3.3878978487e+01 +2.9630790194e+02 3.1630572262e+02 1.0000000000e+02 0.0000e+00 0.0000e+00
</event>
<event>
 5      1 +8.5651000e-08 2.05688400e+02 7.95774700e-02 4.93734400e-01
       13 -1    0    0    0    0 +0.0000000000e+00 +0.0000000000e+00 +4.9999998884e+02 5.0000000000e+02 1.0566000000e-01 0.0000e+00 -1.0000e+00
      994 -1    0    0    0    0 -0.0000000000e+00 -0.0000000000e+00 +0.0000000000e+00 1.3100000000e+02 1.3100000000e+02 0.0000e+00 0.0000e+00
       13  1    1    2    0    0 +5.9767666714e+00 -4.4712153390e+01 +5.8827786370e+01 7.4132435640e+01 1.0566000000e-01 0.0000e+00 1.0000e+00
      994  1    1    2    0    0 -4.2466549539e+01 +7.5102528965e+00 +4.5171747415e+01 1.4512511324e+02 1.3100000000e+02 0.0000e+00 0.0000e+00
      997  1    1    2    0    0 +3.6489782868e+01 +3.7201900494e+01 +3.9600045505e+02 4.1174245112e+02 1.0000000000e+02 0.0000e+00 0.0000e+00
</event>
<event>
 5      1 +8.5651000e-08 2.14581200e+02 7.95774700e-02 4.79132200e-01
       13 -1    0    0    0    0 +0.0000000000e+00 +0.0000000000e+00 +4.9999998884e+02 5.0000000000e+02 1.0566000000e-01 0.0000e+00 1.0000e+00
      994 -1    0    0    0    0 -0.0000000000e+00 -0.0000000000e+00 +0.0000000000e+00 1.3100000000e+02 1.3100000000e+02 0.0000e+00 0.0000e+00
       13  1    1    2    0    0 +9.0320877672e+00 +1.2384689151e+01 -8.3574519288e+00 1.7459017773e+01 1.0566000000e-01 0.0000e+00 -1.0000e+00
      994  1    1    2    0    0 -9.9247037169e+00 -1.5342339501e+01 +4.5318047173e+01 1.3981635285e+02 1.3100000000e+02 0.0000e+00 0.0000e+00
      997  1    1    2    0    0 +8.9261594969e-01 +2.9576503492e+00 +4.6303939359e+02 4.7372462938e+02 1.0000000000e+02 0.0000e+00 0.0000e+00
</event>
<event>
 5      1 +8.5651000e-08 2.07576300e+02 7.95774700e-02 4.90501300e-01
       13 -1    0    0    0    0 +0.0000000000e+00 +0.0000000000e+00 +4.9999998884e+02 5.0000000000e+02 1.0566000000e-01 0.0000e+00 1.0000e+00
      994 -1    0    0    0    0 -0.0000000000e+00 -0.0000000000e+00 +0.0000000000e+00 1.3100000000e+02 1.3100000000e+02 0.0000e+00 0.0000e+00
       13  1    1    2    0    0 +8.4956914378e+00 +2.2519893529e+01 +7.8118492152e+00 2.5305306355e+01 1.0566000000e-01 0.0000e+00 -1.0000e+00
      994  1    1    2    0    0 -2.5906242472e-01 +2.4387004482e+01 +3.8528042913e+01 1.3870905952e+02 1.3100000000e+02 0.0000e+00 0.0000e+00
      997  1    1    2    0    0 -8.2366290130e+00 -4.6906898010e+01 +4.5366009671e+02 4.6698563413e+02 1.0000000000e+02 0.0000e+00 0.0000e+00
</event>
<event>
 5      1 +8.5651000e-08 2.00174300e+02 7.95774700e-02 5.03629300e-01
       13 -1    0    0    0    0 +0.0000000000e+00 +0.0000000000e+00 +4.9999998884e+02 5.0000000000e+02 1.0566000000e-01 0.0000e+00 1.0000e+00
      994 -1    0    0    0    0 -0.0000000000e+00 -0.0000000000e+00 +0.0000000000e+00 1.3100000000e+02 1.3100000000e+02 0.0000e+00 0.0000e+00
       13  1    1    2    0    0 +1.2805277998e+01 +3.1224287286e+01 +6.3733985062e+01 7.2117704325e+01 1.0566000000e-01 0.0000e+00 -1.0000e+00
      994  1    1    2    0    0 +3.2015759616e+01 +1.2939939699e+01 +3.4072681954e+01 1.3969394603e+02 1.3100000000e+02 0.0000e+00 0.0000e+00
      997  1    1    2    0    0 -4.4821037614e+01 -4.4164226985e+01 +4.0219332182e+02 4.1918834964e+02 1.0000000000e+02 0.0000e+00 0.0000e+00
</event>
<event>
 5      1 +8.5651000e-08 1.96858700e+02 7.95774700e-02 5.09927700e-01
       13 -1    0    0    0    0 +0.0000000000e+00 +0.0000000000e+00 +4.9999998884e+02 5.0000000000e+02 1.0566000000e-01 0.0000e+00 -1.0000e+00
      994 -1    0    0    0    0 -0.0000000000e+00 -0.0000000000e+00 +0.0000000000e+00 1.3100000000e+02 1.3100000000e+02 0.0000e+00 0.0000e+00
       13  1    1    2    0    0 +2.1844518828e+01 +7.1559228713e+00 +2.0976979619e+01 3.1119689474e+01 1.0566000000e-01 0.0000e+00 1.0000e+00
      994  1    1    2    0    0 -8.5473681208e+00 -4.1980827182e+00 +2.3650335980e+01 1.3345793267e+02 1.3100000000e+02 0.0000e+00 0.0000e+00
      997  1    1    2    0    0 -1.3297150707e+01 -2.9578401531e+00 +4.5537267324e+02 4.6642237786e+02 1.0000000000e+02 0.0000e+00 0.0000e+00
</event>
<event>
 5      1 +8.5651000e-08 1.95642500e+02 7.95774700e-02 5.12308300e-01
       13 -1    0    0    0    0 +0.0000000000e+00 +0.0000000000e+00 +4.9999998884e+02 5.0000000000e+02 1.0566000000e-01 0.0000e+00 -1.0000e+00
      994 -1    0    0    0    0 -0.0000000000e+00 -0.0000000000e+00 +0.0000000000e+00 1.3100000000e+02 1.3100000000e+02 0.0000e+00 0.0000e+00
       13  1    1    2    0    0 -1.2706477198e+01 -1.2220638062e+01 +2.8040083413e+01 3.3121835687e+01 1.0566000000e-01 0.0000e+00 1.0000e+00
      994  1    1    2    0    0 +4.2304997630e+01 +6.7152614642e+00 +2.6512082095e+01 1.4035205042e+02 1.3100000000e+02 0.0000e+00 0.0000e+00
      997  1    1    2    0    0 -2.9598520432e+01 +5.5053765979e+00 +4.4544782333e+02 4.5752611389e+02 1.0000000000e+02 0.0000e+00 0.0000e+00
</event>
<event>
 5      1 +8.5651000e-08 1.94753900e+02 7.95774700e-02 5.14072500e-01
       13 -1    0    0    0    0 +0.0000000000e+00 +0.0000000000e+00 +4.9999998884e+02 5.0000000000e+02 1.0566000000e-01 0.0000e+00 1.0000e+00
      994 -1    0    0    0    0 -0.0000000000e+00 -0.0000000000e+00 +0.0000000000e+00 1.3100000000e+02 1.3100000000e+02 0.0000e+00 0.0000e+00
       13  1    1    2    0    0 +2.8787545457e+00 -2.3092806128e+01 +3.1675302612e+01 3.9305227161e+01 1.0566000000e-01 0.0000e+00 -1.0000e+00
      994  1    1    2    0    0 -6.1094754725e+01 +6.3066749258e+01 +6.5653902621e+01 1.7082569727e+02 1.3100000000e+02 0.0000e+00 0.0000e+00
      997  1    1    2    0    0 +5.8216000179e+01 -3.9973943130e+01 +4.0267078360e+02 4.2086907557e+02 1.0000000000e+02 0.0000e+00 0.0000e+00
</event>
<event>
 5      1 +8.5651000e-08 2.27775500e+02 7.95774700e-02 4.60058400e-01
       13 -1    0    0    0    0 +0.0000000000e+00 +0.0000000000e+00 +4.9999998884e+02 5.0000000000e+02 1.0566000000e-01 0.0000e+00 1.0000e+00
      994 -1    0    0    0    0 -0.0000000000e+00 -0.0000000000e+00 +0.0000000000e+00 1.3100000000e+02 1.3100000000e+02 0.0000e+00 0.0000e+00
       13  1    1    2    0    0 -1.3921399883e+01 -2.2068992819e+01 -1.1843192346e+01 2.8655159879e+01 1.0566000000e-01 0.0000e+00 -1.0000e+00
      994  1    1    2    0    0 +4.0422240768e+01 +2.5660762327e+01 +8.5457488278e+01 1.6357388109e+02 1.3100000000e+02 0.0000e+00 0.0000e+00
      997  1    1    2    0    0 -2.6500840885e+01 -3.5917695078e+00 +4.2638569290e+02 4.3877095903e+02 1.0000000000e+02 0.0000e+00 0.0000e+00
</event>
<event>
 5      1 +8.5651000e-08 1.92797700e+02 7.95774700e-02 5.18032400e-01
       13 -1    0    0    0    0 +0.0000000000e+00 +0.0000000000e+00 +4.9999998884e+02 5.0000000000e+02 1.0566000000e-01 0.0000e+00 -1.0000e+00
      994 -1    0    0    0    0 -0.0000000000e+00 -0.0000000000e+00 +0.0000000000e+00 1.3100000000e+02 1.3100000000e+02 0.0000e+00 0.0000e+00
       13  1    1    2    0    0 -2.8799386467e+01 +2.8245286776e+01 +1.2331034271e+02 1.2974071323e+02 1.0566000000e-01 0.0000e+00 1.0000e+00
      994  1    1    2    0    0 +4.0105247834e+01 -2.9825666336e+01 +3.4248017510e+01 1.4433269893e+02 1.3100000000e+02 0.0000e+00 0.0000e+00
      997  1    1    2    0    0 -1.1305861366e+01 +1.5803795597e+00 +3.4244162862e+02 3.5692658785e+02 1.0000000000e+02 0.0000e+00 0.0000e+00
</event>
<event>
 5      1 +8.5651000e-08 1.59732800e+02 7.95774700e-02 6.06335500e-01
       13 -1    0    0    0    0 +0.0000000000e+00 +0.0000000000e+00 +4.9999998884e+02 5.0000000000e+02 1.0566000000e-01 0.0000e+00 -1.0000e+00
      994 -1    0    0    0    0 -0.0000000000e+00 -0.0000000000e+00 +0.0000000000e+00 1.3100000000e+02 1.3100000000e+02 0.0000e+00 0.0000e+00
       13  1    1    2    0    0 -3.2634789214e+00 +7.8911540703e+01 +1.8417015543e+02 2.0039046601e+02 1.0566000000e-01 0.0000e+00 1.0000e+00
      994  1    1    2    0    0 -2.0539999775e+01 -4.3990261011e+01 +5.8770014432e+01 1.5156500009e+02 1.3100000000e+02 0.0000e+00 0.0000e+00
      997  1    1    2    0    0 +2.3803478696e+01 -3.4921279693e+01 +2.5705981897e+02 2.7904453391e+02 1.0000000000e+02 0.0000e+00 0.0000e+00
</event>
<event>
 5      1 +8.5651000e-08 2.03444500e+02 7.95774700e-02 4.97677500e-01
       13 -1    0    0    0    0 +0.0000000000e+00 +0.0000000000e+00 +4.9999998884e+02 5.0000000000e+02 1.0566000000e-01 0.0000e+00 -1.0000e+00
      994 -1    0    0    0    0 -0.0000000000e+00 -0.0000000000e+00 +0.0000000000e+00 1.3100000000e+02 1.3100000000e+02 0.0000e+00 0.0000e+00
       13  1    1    2    0    0 -5.9472686986e+01 +1.5136371411e+01 +1.8820333419e+02 1.9795609715e+02 1.0566000000e-01 0.0000e+00 1.0000e+00
      994  1    1    2    0    0 +3.3473993578e+01 -3.4635859618e+01 +4.5603589433e+01 1.4683609361e+02 1.3100000000e+02 0.0000e+00 0.0000e+00
      997  1    1    2    0    0 +2.5998693408e+01 +1.9499488207e+01 +2.6619306522e+02 2.8620780924e+02 1.0000000000e+02 0.0000e+00 0.0000e+00
</event>
<event>
 5      1 +8.5651000e-08 1.96235400e+02 7.95774700e-02 5.11142900e-01
       13 -1    0    0    0    0 +0.0000000000e+00 +0.0000000000e+00 +4.9999998884e+02 5.0000000000e+02 1.0566000000e-01 0.0000e+00 1.0000e+00
      994 -1    0    0    0    0 -0.0000000000e+00 -0.0000000000e+00 +0.0000000000e+00 1.3100000000e+02 1.3100000000e+02 0.0000e+00 0.0000e+00
       13  1    1    2    0    0 +1.0214840452e+01 -1.3953549012e+01 +4.5829594463e+01 4.8983746164e+01 1.0566000000e-01 0.0000e+00 -1.0000e+00
      994  1    1    2    0    0 -4.6019706100e+00 +4.7512313466e+00 +1.5635962075e+01 1.3209555497e+02 1.3100000000e+02 0.0000e+00 0.0000e+00
      997  1    1    2    0    0 -5.6128698422e+00 +9.2023176657e+00 +4.3853443230e+02 4.4992069887e+02 1.0000000000e+02 0.0000e+00 0.0000e+00
</event>
<event>
 5      1 +8.5651000e-08 1.96464700e+02 7.95774700e-02 5.10694700e-01
       13 -1    0    0    0    0 +0.0000000000e+00 +0.0000000000e+00 +4.9999998884e+02 5.0000000000e+02 1.0566000000e-01 0.0000e+00 1.0000e+00
      994 -1    0    0    0    0 -0.0000000000e+00 -0.0000000000e+00 +0.0000000000e+00 1.3100000000e+02 1.3100000000e+02 0.0000e+00 0.0000e+00
       13  1    1    2    0    0 -2.4074748267e+01 +3.0314408748e+01 +3.5325952811e+01 5.2406974612e+01 1.0566000000e-01 0.0000e+00 -1.0000e+00
      994  1    1    2    0    0 +1.1864420917e+02 -1.7330493347e+01 +1.4142243473e+02 2.2702004188e+02 1.3100000000e+02 0.0000e+00 0.0000e+00
      997  1    1    2    0    0 -9.4569460904e+01 -1.2983915402e+01 +3.2325160129e+02 3.5157298351e+02 1.0000000000e+02 0.0000e+00 0.0000e+00
</event>
<event>
 5      1 +8.5651000e-08 1.93225700e+02 7.95774700e-02 5.17156900e-01
       13 -1    0    0    0    0 +0.0000000000e+00 +0.0000000000e+00 +4.9999998884e+02 5.0000000000e+02 1.0566000000e-01 0.0000e+00 1.0000e+00
      994 -1    0    0    0    0 -0.0000000000e+00 -0.0000000000e+00 +0.0000000000e+00 1.3100000000e+02 1.3100000000e+02 0.0000e+00 0.0000e+00
       13  1    1    2    0    0 +1.6329376860e+01 +2.1967161779e+01 +1.3518829823e+02 1.3793147533e+02 1.0566000000e-01 0.0000e+00 -1.0000e+00
      994  1    1    2    0    0 -1.9640403158e+01 -4.9288625832e+00 +2.0527814044e+01 1.3413586497e+02 1.3100000000e+02 0.0000e+00 0.0000e+00
      997  1    1    2    0    0 +3.3110262978e+00 -1.7038299196e+01 +3.4428387656e+02 3.5893265970e+02 1.0000000000e+02 0.0000e+00 0.0000e+00
</event>
<event>
 5      1 +8.5651000e-08 1.93941500e+02 7.95774700e-02 5.15704200e-01
       13 -1    0    0    0    0 +0.0000000000e+00 +0.0000000000e+00 +4.9999998884e+02 5.0000000000e+02 1.0566000000e-01 0.0000e+00 -1.0000e+00
      994 -1    0    0    0    0 -0.0000000000e+00 -0.0000000000e+00 +0.0000000000e+00 1.3100000000e+02 1.3100000000e+02 0.0000e+00 0.0000e+00
       13  1    1    2    0    0 +1.1988697802e+01 -1.6488309796e+01 +3.3272063767e+01 3.9020951119e+01 1.0566000000e-01 0.0000e+00 1.0000e+00
      994  1    1    2    0    0 -6.4592586636e+00 +2.0000501446e+01 +2.0031127726e+01 1.3417894082e+02 1.3100000000e+02 0.0000e+00 0.0000e+00
      997  1    1    2    0    0 -5.5294391387e+00 -3.5121916501e+00 +4.4669679734e+02 4.5780010806e+02 1.0000000000e+02 0.0000e+00 0.0000e+00
</event>
<event>
 5      1 +8.5651000e-08 1.97295900e+02 7.95774700e-02 5.09081200e-01
       13 -1    0    0    0    0 +0.0000000000e+00 +0.0000000000e+00 +4.9999998884e+02 5.0000000000e+02 1.0566000000e-01 0.0000e+00 1.0000e+00
      994 -1    0    0    0    0 -0.0000000000e+00 -0.0000000000e+00 +0.0000000000e+00 1.3100000000e+02 1.3100000000e+02 0.0000e+00 0.0000e+00
       13  1    1    2    0    0 +1.1960707931e+01 -1.3321415156e+00 +2.2595960534e+01 2.5601205669e+01 1.0566000000e-01 0.0000e+00 -1.0000e+00
      994  1    1    2    0    0 -6.9238497050e+00 +6.2961363797e+00 +1.4925077126e+01 1.3217919260e+02 1.3100000000e+02 0.0000e+00 0.0000e+00
      997  1    1    2    0    0 -5.0368582258e+00 -4.9639948641e+00 +4.6247895118e+02 4.7321960173e+02 1.0000000000e+02 0.0000e+00 0.0000e+00
</event>
<event>
 5      1 +8.5651000e-08 1.96549600e+02 7.95774700e-02 5.10529000e-01
       13 -1    0    0    0    0 +0.0000000000e+00 +0.0000000000e+00 +4.9999998884e+02 5.0000000000e+02 1.0566000000e-01 0.0000e+00 1.0000e+00
      994 -1    0    0    0    0 -0.0000000000e+00 -0.0000000000e+00 +0.0000000000e+00 1.3100000000e+02 1.3100000000e+02 0.0000e+00 0.0000e+00
       13  1    1    2    0    0 +8.6535586454e+00 -9.3392003950e+00 +1.8189082229e+01 2.2202671407e+01 1.0566000000e-01 0.0000e+00 -1.0000e+00
      994  1    1    2    0    0 -1.1180981813e+01 +1.7262902474e+01 +1.7485234404e+01 1.3375259092e+02 1.3100000000e+02 0.0000e+00 0.0000e+00
      997  1    1    2    0    0 +2.5274231673e+00 -7.9237020792e+00 +4.6432567220e+02 4.7504473767e+02 1.0000000000e+02 0.0000e+00 0.0000e+00
</event>
<event>
 5      1 +8.5651000e-08 2.07242700e+02 7.95774700e-02 4.91067000e-01
       13 -1    0    0    0    0 +0.0000000000e+00 +0.0000000000e+00 +4.9999998884e+02 5.0000000000e+02 1.0566000000e-01 0.0000e+00 1.0000e+00
      994 -1    0    0    0    0 -0.0000000000e+00 -0.0000000000e+00 +0.0000000000e+00 1.3100000000e+02 1.3100000000e+02 0.0000e+00 0.0000e+00
       13  1    1    2    0    0 -5.2951379314e+01 -4.6047030636e+01 +1.0837907524e+02 1.2911317793e+02 1.0566000000e-01 0.0000e+00 -1.0000e+00
      994  1    1    2    0    0 +2.7577943005e+01 +6.4942264051e+01 +7.1612487594e+01 1.6512840149e+02 1.3100000000e+02 0.0000e+00 0.0000e+00
      997  1    1    2    0    0 +2.5373436309e+01 -1.8895233415e+01 +3.2000842600e+02 3.3675842057e+02 1.0000000000e+02 0.0000e+00 0.0000e+00
</event>
<event>
 5      1 +8.5651000e-08 1.61986100e+02 7.95774700e-02 5.98631200e-01
       13 -1    0    0    0    0 +0.0000000000e+00 +0.0000000000e+00 +4.9999998884e+02 5.0000000000e+02 1.0566000000e-01 0.0000e+00 1.0000e+00
      994 -1    0    0    0    0 -0.0000000000e+00 -0.0000000000e+00 +0.0000000000e+00 1.3100000000e+02 1.3100000000e+02 0.0000e+00 0.0000e+00
       13  1    1    2    0    0 -4.0534285020e+01 +8.2492550282e+01 +1.9075725661e+02 2.1174605363e+02 1.0566000000e-01 0.0000e+00 -1.0000e+00
      994  1    1    2    0    0 +8.0200343193e+01 -3.3126182750e+01 +1.2744218416e+02 2.0231645839e+02 1.3100000000e+02 0.0000e+00 0.0000e+00
      997  1    1    2    0    0 -3.9666058174e+01 -4.9366367533e+01 +1.8180054806e+02 2.1693748798e+02 1.0000000000e+02 0.0000e+00 0.0000e+00
</event>
<event>
 5      1 +8.5651000e-08 1.93510300e+02 7.95774700e-02 5.16577700e-01
       13 -1    0    0    0    0 +0.0000000000e+00 +0.0000000000e+00 +4.9999998884e+02 5.0000000000e+02 1.0566000000e-01 0.0000e+00 -1.0000e+00
      994 -1    0    0    0    0 -0.0000000000e+00 -0.0000000000e+00 +0.0000000000e+00 1.3100000000e+02 1.3100000000e+02 0.0000e+00 0.0000e+00
       13  1    1    2    0    0 -4.1863738244e+00 -1.9423368938e+01 +2.1241245842e+01 2.9085987616e+01 1.0566000000e-01 0.0000e+00 1.0000e+00
      994  1    1    2    0    0 +1.4138580894e+01 +1.2984083078e+01 +2.2034294912e+01 1.3421995394e+02 1.3100000000e+02 0.0000e+00 0.0000e+00
      997  1    1    2    0    0 -9.9522070700e+00 +6.4392858597e+00 +4.5672444808e+02 4.6769405844e+02 1.0000000000e+02 0.0000e+00 0.0000e+00
</event>
<event>
 5      1 +8.5651000e-08 2.00906800e+02 7.95774700e-02 5.02274400e-01
       13 -1    0    0    0    0 +0.0000000000e+00 +0.0000000000e+00 +4.9999998884e+02 5.0000000000e+02 1.0566000000e-01 0.0000e+00 -1.0000e+00
      994 -1    0    0    0    0 -0.0000000000e+00 -0.0000000000e+00 +0.0000000000e+00 1.3100000000e+02 1.3100000000e+02 0.0000e+00 0.0000e+00
       13  1    1    2    0    0 -7.4981445392e-01 +1.5069577765e+01 -1.9858303752e-01 1.5089897116e+01 1.0566000000e-01 0.0000e+00 1.0000e+00
      994  1    1    2    0    0 -1.3727639141e+00 -4.1655569181e+01 +3.8508308284e+01 1.4276190224e+02 1.3100000000e+02 0.0000e+00 0.0000e+00
      997  1    1    2    0    0 +2.1225783680e+00 +2.6585991416e+01 +4.6169026359e+02 4.7314820064e+02 1.0000000000e+02 0.0000e+00 0.0000e+00
</event>
<event>
 5      1 +8.5651000e-08 1.60696500e+02 7.95774700e-02 6.03000600e-01
       13 -1    0    0    0    0 +0.0000000000e+00 +0.0000000000e+00 +4.9999998884e+02 5.0000000000e+02 1.0566000000e-01 0.0000e+00 1.0000e+00
      994 -1    0    0    0    0 -0.0000000000e+00 -0.0000000000e+00 +0.0000000000e+00 1.3100000000e+02 1.3100000000e+02 0.0000e+00 0.0000e+00
       13  1    1    2    0    0 +3.6613302279e+01 -5.9079638298e+01 +2.1891005781e+02 2.2967925927e+02 1.0566000000e-01 0.0000e+00 -1.0000e+00
      994  1    1    2    0    0 -3.5337577429e+01 +4.7683989439e+00 +5.1745654231e+01 1.4529313383e+02 1.3100000000e+02 0.0000e+00 0.0000e+00
      997  1    1    2    0    0 -1.2757248495e+00 +5.4311239355e+01 +2.2934427680e+02 2.5602760690e+02 1.0000000000e+02 0.0000e+00 0.0000e+00
</event>
<event>
 5      1 +8.5651000e-08 1.96006000e+02 7.95774700e-02 5.11592700e-01
       13 -1    0    0    0    0 +0.0000000000e+00 +0.0000000000e+00 +4.9999998884e+02 5.0000000000e+02 1.0566000000e-01 0.0000e+00 -1.0000e+00
      994 -1    0    0    0    0 -0.0000000000e+00 -0.0000000000e+00 +0.0000000000e+00 1.3100000000e+02 1.3100000000e+02 0.0000e+00 0.0000e+00
       13  1    1    2    0    0 -2.7538261167e+01 -5.1683487904e+01 +1.4160966816e+02 1.5324114340e+02 1.0566000000e-01 0.0000e+00 1.0000e+00
      994  1    1    2    0    0 -3.5316242215e+00 +1.1002149464e+02 +1.1415319507e+02 2.0569188997e+02 1.3100000000e+02 0.0000e+00 0.0000e+00
      997  1    1    2    0    0 +3.1069885388e+01 -5.8338006741e+01 +2.4423712561e+02 2.7206696663e+02 1.0000000000e+02 0.0000e+00 0.0000e+00
</event>
<event>
 5      1 +8.5651000e-08 1.98914200e+02 7.95774700e-02 5.05990800e-01
       13 -1    0    0    0    0 +0.0000000000e+00 +0.0000000000e+00 +4.9999998884e+02 5.0000000000e+02 1.0566000000e-01 0.0000e+00 -1.0000e+00
      994 -1    0    0    0    0 -0.0000000000e+00 -0.0000000000e+00 +0.0000000000e+00 1.3100000000e+02 1.3100000000e+02 0.0000e+00 0.0000e+00
       13  1    1    2    0    0 +6.4321728687e+00 +8.5503634000e+00 +4.9217603909e+01 5.0367303488e+01 1.0566000000e-01 0.0000e+00 1.0000e+00
      994  1    1    2    0    0 +1.2805135011e+01 -2.4335614991e+01 +1.7179995010e+01 1.3495312471e+02 1.3100000000e+02 0.0000e+00 0.0000e+00
      997  1    1    2    0    0 -1.9237307879e+01 +1.5785251591e+01 +4.3360238992e+02 4.4567957180e+02 1.0000000000e+02 0.0000e+00 0.0000e+00
</event>
<event>
 5      1 +8.5651000e-08 1.99412600e+02 7.95774700e-02 5.05052100e-01
       13 -1    0    0    0    0 +0.0000000000e+00 +0.0000000000e+00 +4.9999998884e+02 5.0000000000e+02 1.0566000000e-01 0.0000e+00 -1.0000e+00
      994 -1    0    0    0    0 -0.0000000000e+00 -0.0000000000e+00 +0.0000000000e+00 1.3100000000e+02 1.3100000000e+02 0.0000e+00 0.0000e+00
       13  1    1    2    0    0 -4.7220272491e+01 +2.3381792965e+01 +5.0522781476e+01 7.3000171154e+01 1.0566000000e-01 0.0000e+00 1.0000e+00
      994  1    1    2    0    0 +4.8431621412e+01 -1.1561444030e+02 +1.7666592358e+02 2.5314851236e+02 1.3100000000e+02 0.0000e+00 0.0000e+00
      997  1    1    2    0    0 -1.2113489204e+00 +9.2232647338e+01 +2.7281128378e+02 3.0485131648e+02 1.0000000000e+02 0.0000e+00 0.0000e+00
</event>
<event>
 5      1 +8.5651000e-08 1.92660500e+02 7.95774700e-02 5.18314100e-01
       13 -1    0    0    0    0 +0.0000000000e+00 +0.0000000000e+00 +4.9999998884e+02 5.0000000000e+02 1.0566000000e-01 0.0000e+00 -1.0000e+00
      994 -1    0    0    0    0 -0.0000000000e+00 -0.0000000000e+00 +0.0000000000e+00 1.3100000000e+02 1.3100000000e+02 0.0000e+00 0.0000e+00
       13  1    1    2    0    0 -1.7301349589e+00 +1.0852954143e+01 +4.1132838782e+00 1.1735001019e+01 1.0566000000e-01 0.0000e+00 1.0000e+00
      994  1    1    2    0    0 -5.2236113255e+01 -1.9138393651e+01 +3.7849314496e+01 1.4727002495e+02 1.3100000000e+02 0.0000e+00 0.0000e+00
      997  1    1    2    0    0 +5.3966248214e+01 +8.2854395076e+00 +4.5803739046e+02 4.7199497404e+02 1.0000000000e+02 0.0000e+00 0.0000e+00
</event>
<event>
 5      1 +8.5651000e-08 1.51659300e+02 7.95774700e-02 6.36867700e-01
       13 -1    0    0    0    0 +0.0000000000e+00 +0.0000000000e+00 +4.9999998884e+02 5.0000000000e+02 1.0566000000e-01 0.0000e+00 1.0000e+00
      994 -1    0    0    0    0 -0.0000000000e+00 -0.0000000000e+00 +0.0000000000e+00 1.3100000000e+02 1.3100000000e+02 0.0000e+00 0.0000e+00
       13  1    1    2    0    0 -4.3122625678e+01 +7.0379254847e+01 +4.3783083465e+01 9.3433237769e+01 1.0566000000e-01 0.0000e+00 -1.0000e+00
      994  1    1    2    0    0 +6.7569163034e+01 -1.8190816710e+01 +1.5347440546e+02 2.1356940496e+02 1.3100000000e+02 0.0000e+00 0.0000e+00
      997  1    1    2    0    0 -2.4446537356e+01 -5.2188438137e+01 +3.0274249991e+02 3.2399735727e+02 1.0000000000e+02 0.0000e+00 0.0000e+00
</event>
<event>
 5      1 +8.5651000e-08 1.95507600e+02 7.95774700e-02 5.12574800e-01
       13 -1    0    0    0    0 +0.0000000000e+00 +0.0000000000e+00 +4.9999998884e+02 5.0000000000e+02 1.0566000000e-01 0.0000e+00 1.0000e+00
      994 -1    0    0    0    0 -0.0000000000e+00 -0.0000000000e+00 +0.0000000000e+00 1.3100000000e+02 1.3100000000e+02 0.0000e+00 0.0000e+00
       13  1    1    2    0    0 -2.6163013659e+01 +1.5683296914e+01 +3.4680179646e+01 4.6186525201e+01 1.0566000000e-01 0.0000e+00 -1.0000e+00
      994  1    1    2    0    0 +5.5891120782e+01 -1.0834028115e+01 +4.2119435824e+01 1.4891689099e+02 1.3100000000e+02 0.0000e+00 0.0000e+00
      997  1    1    2    0    0 -2.9728107122e+01 -4.8492687996e+00 +4.2320037337e+02 4.3589658381e+02 1.0000000000e+02 0.0000e+00 0.0000e+00
</event>
<event>
 5      1 +8.5651000e-08 1.97499200e+02 7.95774700e-02 5.08689500e-01
       13 -1    0    0    0    0 +0.0000000000e+00 +0.0000000000e+00 +4.9999998884e+02 5.0000000000e+02 1.0566000000e-01 0.0000e+00 1.0000e+00
      994 -1    0    0    0    0 -0.0000000000e+00 -0.0000000000e+00 +0.0000000000e+00 1.3100000000e+02 1.3100000000e+02 0.0000e+00 0.0000e+00
       13  1    1    2    0    0 +4.5667337088e+01 +5.5042890324e+00 +8.8618809691e+01 9.9845417869e+01 1.0566000000e-01 0.0000e+00 -1.0000e+00
      994  1    1    2    0    0 -4.3320610614e+01 -3.5571268877e+01 +4.3869968889e+01 1.4908911645e+02 1.3100000000e+02 0.0000e+00 0.0000e+00
      997  1    1    2    0    0 -2.3467264743e+00 +3.0066979844e+01 +3.6751121026e+02 3.8206546568e+02 1.0000000000e+02 0.0000e+00 0.0000e+00
</event>
<event>
 5      1 +8.5651000e-08 1.94286400e+02 7.95774700e-02 5.15009200e-01
       13 -1    0    0    0    0 +0.0000000000e+00 +0.0000000000e+00 +4.9999998884e+02 5.0000000000e+02 1.0566000000e-01 0.0000e+00 1.0000e+00
      994 -1    0    0    0    0 -0.0000000000e+00 -0.0000000000e+00 +0.0000000000e+00 1.3100000000e+02 1.3100000000e+02 0.0000e+00 0.0000e+00
       13  1    1    2    0    0 -8.9319783598e+00 +1.7033095529e+01 +1.8968380714e+01 2.7013278432e+01 1.0566000000e-01 0.0000e+00 -1.0000e+00
      994  1    1    2    0    0 -6.3675826483e+00 -8.2712366276e+00 +2.1245557676e+01 1.3312149783e+02 1.3100000000e+02 0.0000e+00 0.0000e+00
      997  1    1    2    0    0 +1.5299561008e+01 -8.7618589013e+00 +4.5978605045e+02 4.7086522374e+02 1.0000000000e+02 0.0000e+00 0.0000e+00
</event>
<event>
 5      1 +8.5651000e-08 2.07452300e+02 7.95774700e-02 4.90711400e-01
       13 -1    0    0    0    0 +0.0000000000e+00 +0.0000000000e+00 +4.9999998884e+02 5.0000000000e+02 1.0566000000e-01 0.0000e+00 -1.0000e+00
      994 -1    0    0    0    0 -0.0000000000e+00 -0.0000000000e+00 +0.0000000000e+00 1.3100000000e+02 1.3100000000e+02 0.0000e+00 0.0000e+00
       13  1    1    2    0    0 +2.6965120311e+00 -2.1015198279e+01 +5.4844731383e-02 2.1187824519e+01 1.0566000000e-01 0.0000e+00 1.0000e+00
      994  1    1    2    0    0 -6.5427718355e+00 +4.2282382045e+01 +4.7227015303e+01 1.4567772194e+02 1.3100000000e+02 0.0000e+00 0.0000e+00
      997  1    1    2    0    0 +3.8462598044e+00 -2.1267183765e+01 +4.5271812880e+02 4.6413445354e+02 1.0000000000e+02 0.0000e+00 0.0000e+00
</event>
<event>
 5      1 +8.5651000e-08 2.21131900e+02 7.95774700e-02 4.69311200e-01
       13 -1    0    0    0    0 +0.0000000000e+00 +0.0000000000e+00 +4.9999998884e+02 5.0000000000e+02 1.0566000000e-01 0.0000e+00 -1.0000e+00
      994 -1    0    0    0    0 -0.0000000000e+00 -0.0000000000e+00 +0.0000000000e+00 1.3100000000e+02 1.3100000000e+02 0.0000e+00 0.0000e+00
       13  1    1    2    0    0 -6.5393369172e+01 -1.0386410666e+00 +1.1980928163e+02 1.3649778986e+02 1.0566000000e-01 0.0000e+00 1.0000e+00
      994  1    1    2    0    0 -2.0879042308e+01 +2.0277830970e+01 +5.8820356474e+01 1.4651948393e+02 1.3100000000e+02 0.0000e+00 0.0000e+00
      997  1    1    2    0    0 +8.6272411480e+01 -1.9239189904e+01 +3.2137035073e+02 3.4798272621e+02 1.0000000000e+02 0.0000e+00 0.0000e+00
</event>
<event>
 5      1 +8.5651000e-08 2.02473800e+02 7.95774700e-02 4.99418200e-01
       13 -1    0    0    0    0 +0.0000000000e+00 +0.0000000000e+00 +4.9999998884e+02 5.0000000000e+02 1.0566000000e-01 0.0000e+00 -1.0000e+00
      994 -1    0    0    0    0 -0.0000000000e+00 -0.0000000000e+00 +0.0000000000e+00 1.3100000000e+02 1.3100000000e+02 0.0000e+00 0.0000e+00
       13  1    1    2    0    0 +9.7939393204e+00 +2.2762418341e+01 +1.3550567445e+01 2.8243193485e+01 1.0566000000e-01 0.0000e+00 1.0000e+00
      994  1    1    2    0    0 +5.5773731372e+00 -1.1348205682e+01 +2.9861048105e+01 1.3495395903e+02 1.3100000000e+02 0.0000e+00 0.0000e+00
      997  1    1    2    0    0 -1.5371312458e+01 -1.1414212659e+01 +4.5658837329e+02 4.6780284749e+02 1.0000000000e+02 0.0000e+00 0.0000e+00
</event>
<event>
 5      1 +8.5651000e-08 1.93238200e+02 7.95774700e-02 5.17131400e-01
       13 -1    0    0    0    0 +0.0000000000e+00 +0.0000000000e+00 +4.9999998884e+02 5.0000000000e+02 1.0566000000e-01 0.0000e+00 -1.0000e+00
      994 -1    0    0    0    0 -0.0000000000e+00 -0.0000000000e+00 +0.0000000000e+00 1.3100000000e+02 1.3100000000e+02 0.0000e+00 0.0000e+00
       13  1    1    2    0    0 +4.5456092879e+00 +1.2601305895e+01 +1.0851442817e+01 1.7240082636e+01 1.0566000000e-01 0.0000e+00 1.0000e+00
      994  1    1    2    0    0 -7.9175117472e+00 -4.1218369532e+00 +1.8598021209e+01 1.3261433906e+02 1.3100000000e+02 0.0000e+00 0.0000e+00
      997  1    1    2    0    0 +3.3719024593e+00 -8.4794689414e+00 +4.7055052481e+02 4.8114557830e+02 1.0000000000e+02 0.0000e+00 0.0000e+00
</event>
<event>
 5      1 +8.5651000e-08 1.96142900e+02 7.95774700e-02 5.11324200e-01
       13 -1    0    0    0    0 +0.0000000000e+00 +0.0000000000e+00 +4.9999998884e+02 5.0000000000e+02 1.0566000000e-01 0.0000e+00 -1.0000e+00
      994 -1    0    0    0    0 -0.0000000000e+00 -0.0000000000e+00 +0.0000000000e+00 1.3100000000e+02 1.3100000000e+02 0.0000e+00 0.0000e+00
       13  1    1    2    0    0 +1.7400854218e+01 +2.7657824994e+00 +1.1982006586e+01 2.1307719874e+01 1.0566000000e-01 0.0000e+00 1.0000e+00
      994  1    1    2    0    0 +3.3741419873e+00 +2.4305168623e+01 +2.6057100633e+01 1.3580168832e+02 1.3100000000e+02 0.0000e+00 0.0000e+00
      997  1    1    2    0    0 -2.0774996206e+01 -2.7070951122e+01 +4.6196088162e+02 4.7389059181e+02 1.0000000000e+02 0.0000e+00 0.0000e+00
</event>
<event>
 5      1 +8.5651000e-08 1.92521800e+02 7.95774700e-02 5.18599400e-01
       13 -1    0    0    0    0 +0.0000000000e+00 +0.0000000000e+00 +4.9999998884e+02 5.0000000000e+02 1.0566000000e-01 0.0000e+00 -1.0000e+00
      994 -1    0    0    0    0 -0.0000000000e+00 -0.0000000000e+00 +0.0000000000e+00 1.3100000000e+02 1.3100000000e+02 0.0000e+00 0.0000e+00
       13  1    1    2    0    0 -1.2414831402e+01 -3.3210217708e+01 +1.0231794699e+02 1.0828674914e+02 1.0566000000e-01 0.0000e+00 1.0000e+00
      994  1    1    2    0    0 +1.5674129861e+01 +3.4771696301e+01 +2.7419546088e+01 1.3916745567e+02 1.3100000000e+02 0.0000e+00 0.0000e+00
      997  1    1    2    0    0 -3.2592984591e+00 -1.5614785929e+00 +3.7026249575e+02 3.8354579519e+02 1.0000000000e+02 0.0000e+00 0.0000e+00
</event>
<event>
 5      1 +8.5651000e-08 2.17604700e+02 7.95774700e-02 4.74507800e-01
       13 -1    0    0    0    0 +0.0000000000e+00 +0.0000000000e+00 +4.9999998884e+02 5.0000000000e+02 1.0566000000e-01 0.0000e+00 -1.0000e+00
      994 -1    0    0    0    0 -0.0000000000e+00 -0.0000000000e+00 +0.0000000000e+00 1.3100000000e+02 1.3100000000e+02 0.0000e+00 0.0000e+00
       13  1    1    2    0    0 +1.6072777564e+01 -2.6256726531e+01 +3.4199437586e+00 3.0975103649e+01 1.0566000000e-01 0.0000e+00 1.0000e+00
      994  1    1    2    0    0 -2.9812781408e+00 +1.3271763025e+01 +4.8181233780e+01 1.4024071806e+02 1.3100000000e+02 0.0000e+00 0.0000e+00
      997  1    1    2    0    0 -1.3091499423e+01 +1.2984963507e+01 +4.4839881130e+02 4.5978417829e+02 1.0000000000e+02 0.0000e+00 0.0000e+00
</event>
<event>
 5      1 +8.5651000e-08 1.95869600e+02 7.95774700e-02 5.11860800e-01
       13 -1    0    0    0    0 +0.0000000000e+00 +0.0000000000e+00 +4.9999998884e+02 5.0000000000e+02 1.0566000000e-01 0.0000e+00 -1.0000e+00
      994 -1    0    0    0    0 -0.0000000000e+00 -0.0000000000e+00 +0.0000000000e+00 1.3100000000e+02 1.3100000000e+02 0.0000e+00 0.0000e+00
       13  1    1    2    0    0 +7.3475079100e+00 -1.5627168445e+01 +5.9641268131e+01 6.2090951792e+01 1.0566000000e-01 0.0000e+00 1.0000e+00
      994  1    1    2    0    0 -9.7201748229e+00 -1.3935814940e+01 +1.7351786237e+01 1.3323202776e+02 1.3100000000e+02 0.0000e+00 0.0000e+00
      997  1    1    2    0    0 +2.3726669129e+00 +2.9562983385e+01 +4.2300693447e+02 4.3567702044e+02 1.0000000000e+02 0.0000e+00 0.0000e+00
</event>
<event>
 5      1 +8.5651000e-08 2.00208500e+02 7.95774700e-02 5.03565700e-01
       13 -1    0    0    0    0 +0.0000000000e+00 +0.0000000000e+00 +4.9999998884e+02 5.0000000000e+02 1.0566000000e-01 0.0000e+00 1.0000e+00
      994 -1    0    0    0    0 -0.0000000000e+00 -0.0000000000e+00 +0.0000000000e+00 1.3100000000e+02 1.3100000000e+02 0.0000e+00 0.0000e+00
       13  1    1    2    0    0 +5.4206079271e+00 -1.9237135426e+01 +7.0488674928e+00 2.1193113661e+01 1.0566000000e-01 0.0000e+00 -1.0000e+00
      994  1    1    2    0    0 -2.8858267714e+01 +2.0949251670e+01 +3.4628558164e+01 1.4011355324e+02 1.3100000000e+02 0.0000e+00 0.0000e+00
      997  1    1    2    0    0 +2.3437659787e+01 -1.7121162442e+00 +4.5832256318e+02 4.6969333310e+02 1.0000000000e+02 0.0000e+00 0.0000e+00
</event>
<event>
 5      1 +8.5651000e-08 1.97767400e+02 7.95774700e-02 5.08174000e-01
       13 -1    0    0    0    0 +0.0000000000e+00 +0.0000000000e+00 +4.9999998884e+02 5.0000000000e+02 1.0566000000e-01 0.0000e+00 1.0000e+00
      994 -1    0    0    0    0 -0.0000000000e+00 -0.0000000000e+00 +0.0000000000e+00 1.3100000000e+02 1.3100000000e+02 0.0000e+00 0.0000e+00
       13  1    1    2    0    0 -1.5434522868e+00 +1.1234070175e+01 +2.0506318589e+01 2.3433028907e+01 1.0566000000e-01 0.0000e+00 -1.0000e+00
      994  1    1    2    0    0 +1.3926651717e+01 -1.5990125290e+01 +1.6518166573e+01 1.3372915001e+02 1.3100000000e+02 0.0000e+00 0.0000e+00
      997  1    1    2    0    0 -1.2383199430e+01 +4.7560551152e+00 +4.6297550367e+02 4.7383782109e+02 1.0000000000e+02 0.0000e+00 0.0000e+00
</event>
<event>
 5      1 +8.5651000e-08 1.98060200e+02 7.95774700e-02 5.07613500e-01
       13 -1    0    0    0    0 +0.0000000000e+00 +0.0000000000e+00 +4.9999998884e+02 5.0000000000e+02 1.0566000000e-01 0.0000e+00 1.0000e+00
      994 -1    0    0    0    0 -0.0000000000e+00 -0.0000000000e+00 +0.0000000000e+00 1.3100000000e+02 1.3100000000e+02 0.0000e+00 0.0000e+00
       13  1    1    2    0    0 -1.1256498591e+00 +4.2486600685e+01 +1.4307274040e+02 1.4925213075e+02 1.0566000000e-01 0.0000e+00 -1.0000e+00
      994  1    1    2    0    0 -5.2398595297e+00 -1.2450399127e+01 +2.5417035122e+01 1.3412492028e+02 1.3100000000e+02 0.0000e+00 0.0000e+00
      997  1    1    2    0    0 +6.3655093888e+00 -3.0036201558e+01 +3.3151021332e+02 3.4762294896e+02 1.0000000000e+02 0.0000e+00 0.0000e+00
</event>
<event>
 5      1 +8.5651000e-08 1.99675200e+02 7.95774700e-02 5.04559900e-01
       13 -1    0    0    0    0 +0.0000000000e+00 +0.0000000000e+00 +4.9999998884e+02 5.0000000000e+02 1.0566000000e-01 0.0000e+00 1.0000e+00
      994 -1    0    0    0    0 -0.0000000000e+00 -0.0000000000e+00 +0.0000000000e+00 1.3100000000e+02 1.3100000000e+02 0.0000e+00 0.0000e+00
       13  1    1    2    0    0 -5.8397544933e+00 -1.4703166976e+01 +2.3158491009e+00 1.5989376872e+01 1.0566000000e-01 0.0000e+00 -1.0000e+00
      994  1    1    2    0    0 +1.0310733548e+01 +2.6221638664e+01 +3.0949623849e+01 1.3752368806e+02 1.3100000000e+02 0.0000e+00 0.0000e+00
      997  1    1    2    0    0 -4.4709790552e+00 -1.1518471688e+01 +4.6673451589e+02 4.7748693507e+02 1.0000000000e+02 0.0000e+00 0.0000e+00
</event>
<event>
 5      1 +8.5651000e-08 1.92959600e+02 7.95774700e-02 5.17700600e-01
       13 -1    0    0    0    0 +0.0000000000e+00 +0.0000000000e+00 +4.9999998884e+02 5.0000000000e+02 1.0566000000e-01 0.0000e+00 -1.0000e+00
      994 -1    0    0    0    0 -0.0000000000e+00 -0.0000000000e+00 +0.0000000000e+00 1.3100000000e+02 1.3100000000e+02 0.0000e+00 0.0000e+00
       13  1    1    2    0    0 -3.8623757139e+01 +4.2306021222e+01 +5.0602994687e+01 7.6434732174e+01 1.0566000000e-01 0.0000e+00 1.0000e+00
      994  1    1    2    0    0 +9.5398303507e+01 -1.0162010987e+02 +2.2296024026e+02 2.9376819395e+02 1.3100000000e+02 0.0000e+00 0.0000e+00
      997  1    1    2    0    0 -5.6774546368e+01 +5.9314088652e+01 +2.2643675389e+02 2.6079707387e+02 1.0000000000e+02 0.0000e+00 0.0000e+00
</event>
<event>
 5      1 +8.5651000e-08 2.16859400e+02 7.95774700e-02 4.75632700e-01
       13 -1    0    0    0    0 +0.0000000000e+00 +0.0000000000e+00 +4.9999998884e+02 5.0000000000e+02 1.0566000000e-01 0.0000e+00 -1.0000e+00
      994 -1    0    0    0    0 -0.0000000000e+00 -0.0000000000e+00 +0.0000000000e+00 1.3100000000e+02 1.3100000000e+02 0.0000e+00 0.0000e+00
       13  1    1    2    0    0 -5.7540093287e+01 -4.7219152107e+01 +7.3396530909e+01 1.0453503037e+02 1.0566000000e-01 0.0000e+00 1.0000e+00
      994  1    1    2    0    0 +4.3315372618e+01 +4.8714021798e+01 +8.2794257322e+01 1.6812247461e+02 1.3100000000e+02 0.0000e+00 0.0000e+00
      997  1    1    2    0    0 +1.4224720668e+01 -1.4948696913e+00 +3.4380920060e+02 3.5834249502e+02 1.0000000000e+02 0.0000e+00 0.0000e+00
</event>
<event>
 5      1 +8.5651000e-08 1.96582900e+02 7.95774700e-02 5.10464200e-01
       13 -1    0    0    0    0 +0.0000000000e+00 +0.0000000000e+00 +4.9999998884e+02 5.0000000000e+02 1.0566000000e-01 0.0000e+00 -1.0000e+00
      994 -1    0    0    0    0 -0.0000000000e+00 -0.0000000000e+00 +0.0000000000e+00 1.3100000000e+02 1.3100000000e+02 0.0000e+00 0.0000e+00
       13  1    1    2    0    0 +9.6089086881e+00 -1.5354647042e+01 +1.0566300427e+01 2.0970316657e+01 1.0566000000e-01 0.0000e+00 1.0000e+00
      994  1    1    2    0    0 +5.7055817784e+00 +1.7942999437e+01 +2.4985280873e+01 1.3468396026e+02 1.3100000000e+02 0.0000e+00 0.0000e+00
      997  1    1    2    0    0 -1.5314490467e+01 -2.5883523951e+00 +4.6444840754e+02 4.7534572308e+02 1.0000000000e+02 0.0000e+00 0.0000e+00
</event>
<event>
 5      1 +8.5651000e-08 1.94664100e+02 7.95774700e-02 5.14252000e-01
       13 -1    0    0    0    0 +0.0000000000e+00 +0.0000000000e+00 +4.9999998884e+02 5.0000000000e+02 1.0566000000e-01 0.0000e+00 -1.0000e+00
      994 -1    0    0    0    0 -0.0000000000e+00 -0.0000000000e+00 +0.0000000000e+00 1.3100000000e+02 1.3100000000e+02 0.0000e+00 0.0000e+00
       13  1    1    2    0    0 -1.1919426435e+01 +4.3963024562e+00 +4.0838047309e+00 1.3344992580e+01 1.0566000000e-01 0.0000e+00 1.0000e+00
      994  1    1    2    0    0 +1.5589702697e+01 -1.4010335132e+01 +2.3587427453e+01 1.3474678124e+02 1.3100000000e+02 0.0000e+00 0.0000e+00
      997  1    1    2    0    0 -3.6702762620e+00 +9.6140326758e+00 +4.7232875665e+02 4.8290822618e+02 1.0000000000e+02 0.0000e+00 0.0000e+00
</event>
<event>
 5      1 +8.5651000e-08 2.02391500e+02 7.95774700e-02 4.99566800e-01
       13 -1    0    0    0    0 +0.0000000000e+00 +0.0000000000e+00 +4.9999998884e+02 5.0000000000e+02 1.0566000000e-01 0.0000e+00 -1.0000e+00
      994 -1    0    0    0    0 -0.0000000000e+00 -0.0000000000e+00 +0.0000000000e+00 1.3100000000e+02 1.3100000000e+02 0.0000e+00 0.0000e+00
       13  1    1    2    0    0 -2.9430777648e+01 -3.0245255647e+01 +6.4038501326e+01 7.6693461118e+01 1.0566000000e-01 0.0000e+00 1.0000e+00
      994  1    1    2    0    0 +8.2156287723e+00 +9.4755272684e+00 +2.9756336587e+01 1.3492116861e+02 1.3100000000e+02 0.0000e+00 0.0000e+00
      997  1    1    2    0    0 +2.1215148875e+01 +2.0769728378e+01 +4.0620515092e+02 4.1938537027e+02 1.0000000000e+02 0.0000e+00 0.0000e+00
</event>
<event>
 5      1 +8.5651000e-08 1.98829500e+02 7.95774700e-02 5.06150800e-01
       13 -1    0    0    0    0 +0.0000000000e+00 +0.0000000000e+00 +4.9999998884e+02 5.0000000000e+02 1.0566000000e-01 0.0000e+00 -1.0000e+00
      994 -1    0    0    0    0 -0.0000000000e+00 -0.0000000000e+00 +0.0000000000e+00 1.3100000000e+02 1.3100000000e+02 0.0000e+00 0.0000e+00
       13  1    1    2    0    0 -6.8373026927e+00 +1.2173368050e+01 +7.3483561081e+01 7.4798292166e+01 1.0566000000e-01 0.0000e+00 1.0000e+00
      994  1    1    2    0    0 +3.8529001153e+00 -5.2226798687e+01 +2.8598008026e+01 1.4394905142e+02 1.3100000000e+02 0.0000e+00 0.0000e+00
      997  1    1    2    0    0 +2.9844025774e+00 +4.0053430636e+01 +3.9791841973e+02 4.1225265642e+02 1.0000000000e+02 0.0000e+00 0.0000e+00
</event>
<event>
 5      1 +8.5651000e-08 2.00468700e+02 7.95774700e-02 5.03083200e-01
       13 -1    0    0    0    0 +0.0000000000e+00 +0.0000000000e+00 +4.9999998884e+02 5.0000000000e+02 1.0566000000e-01 0.0000e+00 1.0000e+00
      994 -1    0    0    0    0 -0.0000000000e+00 -0.0000000000e+00 +0.0000000000e+00 1.3100000000e+02 1.3100000000e+02 0.0000e+00 0.0000e+00
       13  1    1    2    0    0 +6.2387452482e+01 -1.3559472698e+01 +1.6498908642e+02 1.7691089093e+02 1.0566000000e-01 0.0000e+00 -1.0000e+00
      994  1    1    2    0    0 -6.1901322644e+01 +5.3603640133e-01 +5.2482420189e+01 1.5410212688e+02 1.3100000000e+02 0.0000e+00 0.0000e+00
      997  1    1    2    0    0 -4.8612983759e-01 +1.3023436297e+01 +2.8252848223e+02 2.9998698219e+02 1.0000000000e+02 0.0000e+00 0.0000e+00
</event>
<event>
 5      1 +8.5651000e-08 1.97098100e+02 7.95774700e-02 5.09463500e-01
       13 -1    0    0    0    0 +0.0000000000e+00 +0.0000000000e+00 +4.9999998884e+02 5.0000000000e+02 1.0566000000e-01 0.0000e+00 1.0000e+00
      994 -1    0    0    0    0 -0.0000000000e+00 -0.0000000000e+00 +0.0000000000e+00 1.3100000000e+02 1.3100000000e+02 0.0000e+00 0.0000e+00
       13  1    1    2    0    0 +5.7092667614e+00 +1.2996057761e+01 +3.3481324994e+01 3.6366241649e+01 1.0566000000e-01 0.0000e+00 -1.0000e+00
      994  1    1    2    0    0 -1.0573085443e+00 -7.9447928544e+00 +1.4972658946e+01 1.3209624579e+02 1.3100000000e+02 0.0000e+00 0.0000e+00
      997  1    1    2    0    0 -4.6519582171e+00 -5.0512649067e+00 +4.5154600490e+02 4.6253751257e+02 1.0000000000e+02 0.0000e+00 0.0000e+00
</event>
<event>
 5      1 +8.5651000e-08 1.94533000e+02 7.95774700e-02 5.14514300e-01
       13 -1    0    0    0    0 +0.0000000000e+00 +0.0000000000e+00 +4.9999998884e+02 5.0000000000e+02 1.0566000000e-01 0.0000e+00 1.0000e+00
      994 -1    0    0    0    0 -0.0000000000e+00 -0.0000000000e+00 +0.0000000000e+00 1.3100000000e+02 1.3100000000e+02 0.0000e+00 0.0000e+00
       13  1    1    2    0    0 -3.8639365028e+00 -1.6226975638e+01 +1.0319749203e+01 1.9615125064e+01 1.0566000000e-01 0.0000e+00 -1.0000e+00
      994  1    1    2    0    0 +4.3051633959e+00 +2.5501314626e+01 +2.4840029442e+01 1.3581928634e+02 1.3100000000e+02 0.0000e+00 0.0000e+00
      997  1    1    2    0    0 -4.4122689308e-01 -9.2743389884e+00 +4.6484021019e+02 4.7556558859e+02 1.0000000000e+02 0.0000e+00 0.0000e+00
</event>
<event>
 5      1 +8.5651000e-08 1.96667800e+02 7.95774700e-02 5.10298800e-01
       13 -1    0    0    0    0 +0.0000000000e+00 +0.0000000000e+00 +4.9999998884e+02 5.0000000000e+02 1.0566000000e-01 0.0000e+00 -1.0000e+00
      994 -1    0    0    0    0 -0.0000000000e+00 -0.0000000000e+00 +0.0000000000e+00 1.3100000000e+02 1.3100000000e+02 0.0000e+00 0.0000e+00
       13  1    1    2    0    0 +8.5331802684e+00 +7.5520321703e+00 +1.3852321934e+01 1.7937289160e+01 1.0566000000e-01 0.0000e+00 1.0000e+00
      994  1    1    2    0    0 -2.3186470643e+01 -9.9986262972e+00 +1.8590359156e+01 1.3470035784e+02 1.3100000000e+02 0.0000e+00 0.0000e+00
      997  1    1    2    0    0 +1.4653290375e+01 +2.4465941268e+00 +4.6755730775e+02 4.7836235300e+02 1.0000000000e+02 0.0000e+00 0.0000e+00
</event>
<event>
 5      1 +8.5651000e-08 2.07581400e+02 7.95774700e-02 4.90492600e-01
       13 -1    0    0    0    0 +0.0000000000e+00 +0.0000000000e+00 +4.9999998884e+02 5.0000000000e+02 1.0566000000e-01 0.0000e+00 1.0000e+00
      994 -1    0    0    0    0 -0.0000000000e+00 -0.0000000000e+00 +0.0000000000e+00 1.3100000000e+02 1.3100000000e+02 0.0000e+00 0.0000e+00
       13  1    1    2    0    0 +1.0063175651e+01 +6.4558262486e+00 -5.7594584201e+00 1.3271311995e+01 1.0566000000e-01 0.0000e+00 -1.0000e+00
      994  1    1    2    0    0 +1.9973155344e+01 -1.9126552249e+00 +3.7192461058e+01 1.3764760929e+02 1.3100000000e+02 0.0000e+00 0.0000e+00
      997  1    1    2    0    0 -3.0036330996e+01 -4.5431710237e+00 +4.6856698620e+02 4.8008107871e+02 1.0000000000e+02 0.0000e+00 0.0000e+00
</event>
<event>
 5      1 +8.5651000e-08 2.15663900e+02 7.95774700e-02 4.77457600e-01
       13 -1    0    0    0    0 +0.0000000000e+00 +0.0000000000e+00 +4.9999998884e+02 5.0000000000e+02 1.0566000000e-01 0.0000e+00 1.0000e+00
      994 -1    0    0    0    0 -0.0000000000e+00 -0.0000000000e+00 +0.0000000000e+00 1.3100000000e+02 1.3100000000e+02 0.0000e+00 0.0000e+00
       13  1    1    2    0    0 -8.8383982431e+00 -1.1105270946e+01 -8.8253452395e+00 1.6713533705e+01 1.0566000000e-01 0.0000e+00 -1.0000e+00
      994  1    1    2    0    0 -3.3930811825e+01 -2.0952834050e+01 +5.6785861395e+01 1.4824289292e+02 1.3100000000e+02 0.0000e+00 0.0000e+00
      997  1    1    2    0    0 +4.2769210068e+01 +3.2058104996e+01 +4.5203947268e+02 4.6604357338e+02 1.0000000000e+02 0.0000e+00 0.0000e+00
</event>
<event>
 5      1 +8.5651000e-08 1.97028900e+02 7.95774700e-02 5.09597500e-01
       13 -1    0    0    0    0 +0.0000000000e+00 +0.0000000000e+00 +4.9999998884e+02 5.0000000000e+02 1.0566000000e-01 0.0000e+00 -1.0000e+00
      994 -1    0    0    0    0 -0.0000000000e+00 -0.0000000000e+00 +0.0000000000e+00 1.3100000000e+02 1.3100000000e+02 0.0000e+00 0.0000e+00
       13  1    1    2    0    0 +2.5899373059e+01 +2.6795315891e+01 +7.4010900371e+01 8.2863689371e+01 1.0566000000e-01 0.0000e+00 1.0000e+00
      994  1    1    2    0    0 -1.9216070261e+01 -6.0383414277e+00 +2.5749792301e+01 1.3501766820e+02 1.3100000000e+02 0.0000e+00 0.0000e+00
      997  1    1    2    0    0 -6.6833027978e+00 -2.0756974463e+01 +4.0023929616e+02 4.1311864243e+02 1.0000000000e+02 0.0000e+00 0.0000e+00
</event>
<event>
 5      1 +8.5651000e-08 2.10126900e+02 7.95774700e-02 4.86250500e-01
       13 -1    0    0    0    0 +0.0000000000e+00 +0.0000000000e+00 +4.9999998884e+02 5.0000000000e+02 1.0566000000e-01 0.0000e+00 -1.0000e+00
      994 -1    0    0    0    0 -0.0000000000e+00 -0.0000000000e+00 +0.0000000000e+00 1.3100000000e+02 1.3100000000e+02 0.0000e+00 0.0000e+00
       13  1    1    2    0    0 -4.8151621590e+01 -1.1867092266e+01 +2.8154786485e+01 5.7027271605e+01 1.0566000000e-01 0.0000e+00 1.0000e+00
      994  1    1    2    0    0 +6.6192819255e+01 +5.1680576904e+01 +9.6538847870e+01 1.8312050813e+02 1.3100000000e+02 0.0000e+00 0.0000e+00
      997  1    1    2    0    0 -1.8041197665e+01 -3.9813484638e+01 +3.7530635448e+02 3.9085222026e+02 1.0000000000e+02 0.0000e+00 0.0000e+00
</event>
<event>
 5      1 +8.5651000e-08 1.97900600e+02 7.95774700e-02 5.07918700e-01
       13 -1    0    0    0    0 +0.0000000000e+00 +0.0000000000e+00 +4.9999998884e+02 5.0000000000e+02 1.0566000000e-01 0.0000e+00 -1.0000e+00
      994 -1    0    0    0    0 -0.0000000000e+00 -0.0000000000e+00 +0.0000000000e+00 1.3100000000e+02 1.3100000000e+02 0.0000e+00 0.0000e+00
       13  1    1    2    0    0 -1.9416340631e+01 -2.3651725136e+01 +8.4551109359e+01 8.9918294264e+01 1.0566000000e-01 0.0000e+00 1.0000e+00
      994  1    1    2    0    0 +5.0217195500e+01 -6.4211126345e+01 +6.9680221293e+01 1.6929609774e+02 1.3100000000e+02 0.0000e+00 0.0000e+00
      997  1    1    2    0    0 -3.0800854870e+01 +8.7862851482e+01 +3.4576865818e+02 3.7178560800e+02 1.0000000000e+02 0.0000e+00 0.0000e+00
</event>
<event>
 5      1 +8.5651000e-08 1.95638700e+02 7.95774700e-02 5.12315800e-01
       13 -1    0    0    0    0 +0.0000000000e+00 +0.0000000000e+00 +4.9999998884e+02 5.0000000000e+02 1.0566000000e-01 0.0000e+00 -1.0000e+00
      994 -1    0    0    0    0 -0.0000000000e+00 -0.0000000000e+00 +0.0000000000e+00 1.3100000000e+02 1.3100000000e+02 0.0000e+00 0.0000e+00
       13  1    1    2    0    0 -4.4168939585e+00 +1.4584081706e+01 +2.5373940689e+01 2.9598182741e+01 1.0566000000e-01 0.0000e+00 1.0000e+00
      994  1    1    2    0    0 -1.3740296840e+01 -1.3447958903e+01 +1.8025003097e+01 1.3362463879e+02 1.3100000000e+02 0.0000e+00 0.0000e+00
      997  1    1    2    0    0 +1.8157190799e+01 -1.1361228036e+00 +4.5660104505e+02 4.6777717847e+02 1.0000000000e+02 0.0000e+00 0.0000e+00
</event>
<event>
 5      1 +8.5651000e-08 1.92720200e+02 7.95774700e-02 5.18191500e-01
       13 -1    0    0    0    0 +0.0000000000e+00 +0.0000000000e+00 +4.9999998884e+02 5.0000000000e+02 1.0566000000e-01 0.0000e+00 1.0000e+00
      994 -1    0    0    0    0 -0.0000000000e+00 -0.0000000000e+00 +0.0000000000e+00 1.3100000000e+02 1.3100000000e+02 0.0000e+00 0.0000e+00
       13  1    1    2    0    0 +1.1112444508e+01 -8.2472551192e-01 +4.0624996233e+00 1.1860930079e+01 1.0566000000e-01 0.0000e+00 -1.0000e+00
      994  1    1    2    0    0 -2.1739308400e+01 +1.6817266663e+01 +2.3558353230e+01 1.3590958022e+02 1.3100000000e+02 0.0000e+00 0.0000e+00
      997  1    1    2    0    0 +1.0626863892e+01 -1.5992541151e+01 +4.7237913598e+02 4.8322948970e+02 1.0000000000e+02 0.0000e+00 0.0000e+00
</event>
<event>
 5      1 +8.5651000e-08 1.93287800e+02 7.95774700e-02 5.17030200e-01
       13 -1    0    0    0    0 +0.0000000000e+00 +0.0000000000e+00 +4.9999998884e+02 5.0000000000e+02 1.0566000000e-01 0.0000e+00 1.0000e+00
      994 -1    0    0    0    0 -0.0000000000e+00 -0.0000000000e+00 +0.0000000000e+00 1.3100000000e+02 1.3100000000e+02 0.0000e+00 0.0000e+00
       13  1    1    2    0    0 -2.0829473669e+01 +2.2994228694e+01 +1.1938784624e+02 1.2335343740e+02 1.0566000000e-01 0.0000e+00 -1.0000e+00
      994  1    1    2    0    0 +1.1013079956e+01 -1.4966183026e+00 +2.0373855162e+01 1.3303992548e+02 1.3100000000e+02 0.0000e+00 0.0000e+00
      997  1    1    2    0    0 +9.8163937127e+00 -2.1497610391e+01 +3.6023828744e+02 3.7460663712e+02 1.0000000000e+02 0.0000e+00 0.0000e+00
</event>
<event>
 5      1 +8.5651000e-08 1.98357900e+02 7.95774700e-02 5.07045700e-01
       13 -1    0    0    0    0 +0.0000000000e+00 +0.0000000000e+00 +4.9999998884e+02 5.0000000000e+02 1.0566000000e-01 0.0000e+00 -1.0000e+00
      994 -1    0    0    0    0 -0.0000000000e+00 -0.0000000000e+00 +0.0000000000e+00 1.3100000000e+02 1.3100000000e+02 0.0000e+00 0.0000e+00
       13  1    1    2    0    0 -5.6249694420e+00 +9.9784304642e+00 +2.5990863665e+01 2.8403265901e+01 1.0566000000e-01 0.0000e+00 1.0000e+00
      994  1    1    2    0    0 -2.1059617870e+01 -3.8450647441e+01 +2.4310410151e+01 1.4026387930e+02 1.3100000000e+02 0.0000e+00 0.0000e+00
      997  1    1    2    0    0 +2.6684587312e+01 +2.8472216976e+01 +4.4969871502e+02 4.6233285480e+02 1.0000000000e+02 0.0000e+00 0.0000e+00
</event>
<event>
 5      1 +8.5651000e-08 2.16708800e+02 7.95774700e-02 4.75861200e-01
       13 -1    0    0    0    0 +0.0000000000e+00 +0.0000000000e+00 +4.9999998884e+02 5.0000000000e+02 1.0566000000e-01 0.0000e+00 1.0000e+00
      994 -1    0    0    0    0 -0.0000000000e+00 -0.0000000000e+00 +0.0000000000e+00 1.3100000000e+02 1.3100000000e+02 0.0000e+00 0.0000e+00
       13  1    1    2    0    0 +7.1234774808e+00 -1.3237286936e+01 -9.4132573442e+00 1.7736692891e+01 1.0566000000e-01 0.0000e+00 -1.0000e+00
      994  1    1    2    0    0 -9.2182717075e-01 +6.1580240516e+00 +4.5831933672e+01 1.3892565339e+02 1.3100000000e+02 0.0000e+00 0.0000e+00
      997  1    1    2    0    0 -6.2016503101e+00 +7.0792628842e+00 +4.6358131251e+02 4.7433765372e+02 1.0000000000e+02 0.0000e+00 0.0000e+00
</event>
<event>
 5      1 +8.5651000e-08 1.93831600e+02 7.95774700e-02 5.15926300e-01
       13 -1    0    0    0    0 +0.0000000000e+00 +0.0000000000e+00 +4.9999998884e+02 5.0000000000e+02 1.0566000000e-01 0.0000e+00 -1.0000e+00
      994 -1    0    0    0    0 -0.0000000000e+00 -0.0000000000e+00 +0.0000000000e+00 1.3100000000e+02 1.3100000000e+02 0.0000e+00 0.0000e+00
       13  1    1    2    0    0 +1.3188797623e+01 -1.3769315178e+00 +1.2311881155e+01 1.8095134837e+01 1.0566000000e-01 0.0000e+00 1.0000e+00
      994  1    1    2    0    0 -9.7265809906e-01 +1.4315376207e+01 +1.8771272558e+01 1.3311362339e+02 1.3100000000e+02 0.0000e+00 0.0000e+00
      997  1    1    2    0    0 -1.2216139524e+01 -1.2938444689e+01 +4.6891683512e+02 4.7979124177e+02 1.0000000000e+02 0.0000e+00 0.0000e+00
</event>
<event>
 5      1 +8.5651000e-08 1.96896400e+02 7.95774700e-02 5.09854500e-01
       13 -1    0    0    0    0 +0.0000000000e+00 +0.0000000000e+00 +4.9999998884e+02 5.0000000000e+02 1.0566000000e-01 0.0000e+00 1.0000e+00
      994 -1    0    0    0    0 -0.0000000000e+00 -0.0000000000e+00 +0.0000000000e+00 1.3100000000e+02 1.3100000000e+02 0.0000e+00 0.0000e+00
       13  1    1    2    0    0 +1.0898652168e+01 -1.2984128522e+00 +1.5717757206e+01 1.9170955913e+01 1.0566000000e-01 0.0000e+00 -1.0000e+00
      994  1    1    2    0    0 -7.0434389779e+00 -4.3434745106e+00 +1.5177740155e+01 1.3213568632e+02 1.3100000000e+02 0.0000e+00 0.0000e+00
      997  1    1    2    0    0 -3.8552131897e+00 +5.6418873628e+00 +4.6910449148e+02 4.7969335777e+02 1.0000000000e+02 0.0000e+00 0.0000e+00
</event>
<event>
 5      1 +8.5651000e-08 1.95404800e+02 7.95774700e-02 5.12778100e-01
       13 -1    0    0    0    0 +0.0000000000e+00 +0.0000000000e+00 +4.9999998884e+02 5.0000000000e+02 1.0566000000e-01 0.0000e+00 -1.0000e+00
      994 -1    0    0    0    0 -0.0000000000e+00 -0.0000000000e+00 +0.0000000000e+00 1.3100000000e+02 1.3100000000e+02 0.0000e+00 0.0000e+00
       13  1    1    2    0    0 -1.1535016589e+01 +1.9508737054e+00 +1.0082034772e+01 1.5444128499e+01 1.0566000000e-01 0.0000e+00 1.0000e+00
      994  1    1    2    0    0 +2.4277288950e+01 -3.8860635388e+01 +2.8324567200e+01 1.4164327322e+02 1.3100000000e+02 0.0000e+00 0.0000e+00
      997  1    1    2    0    0 -1.2742272361e+01 +3.6909761683e+01 +4.6159338686e+02 4.7391259828e+02 1.0000000000e+02 0.0000e+00 0.0000e+00
</event>
<event>
 5      1 +8.5651000e-08 1.98286400e+02 7.95774700e-02 5.07181800e-01
       13 -1    0    0    0    0 +0.0000000000e+00 +0.0000000000e+00 +4.9999998884e+02 5.0000000000e+02 1.0566000000e-01 0.0000e+00 -1.0000e+00
      994 -1    0    0    0    0 -0.0000000000e+00 -0.0000000000e+00 +0.0000000000e+00 1.3100000000e+02 1.3100000000e+02 0.0000e+00 0.0000e+00
       13  1    1    2    0    0 +9.8527441316e+00 -1.9268030072e+00 +2.3497314174e+01 2.5552379031e+01 1.0566000000e-01 0.0000e+00 1.0000e+00
      994  1    1    2    0    0 -1.8120396598e+00 -1.2464240135e+01 +1.4432547573e+01 1.3239312369e+02 1.3100000000e+02 0.0000e+00 0.0000e+00
      997  1    1    2    0    0 -8.0407044718e+00 +1.4391043142e+01 +4.6207012709e+02 4.7305449728e+02 1.0000000000e+02 0.0000e+00 0.0000e+00
</event>
<event>
 5      1 +8.5651000e-08 1.94770100e+02 7.95774700e-02 5.14040100e-01
       13 -1    0    0    0    0 +0.0000000000e+00 +0.0000000000e+00 +4.9999998884e+02 5.0000000000e+02 1.0566000000e-01 0.0000e+00 1.0000e+00
      994 -1    0    0    0    0 -0.0000000000e+00 -0.0000000000e+00 +0.0000000000e+00 1.3100000000e+02 1.3100000000e+02 0.0000e+00 0.0000e+00
       13  1    1    2    0    0 +1.3885858643e+01 -1.1222457005e+01 +3.1485985547e+01 3.6195843151e+01 1.0566000000e-01 0.0000e+00 -1.0000e+00
      994  1    1    2    0    0 -1.6208994100e+01 -6.0585244398e+00 +1.8432008954e+01 1.3341730084e+02 1.3100000000e+02 0.0000e+00 0.0000e+00
      997  1    1    2    0    0 +2.3231354569e+00 +1.7280981445e+01 +4.5008199433e+02 4.6138685601e+02 1.0000000000e+02 0.0000e+00 0.0000e+00
</event>
<event>
 5      1 +8.5651000e-08 1.98749900e+02 7.95774700e-02 5.06301400e-01
       13 -1    0    0    0    0 +0.0000000000e+00 +0.0000000000e+00 +4.9999998884e+02 5.0000000000e+02 1.0566000000e-01 0.0000e+00 -1.0000e+00
      994 -1    0    0    0    0 -0.0000000000e+00 -0.0000000000e+00 +0.0000000000e+00 1.3100000000e+02 1.3100000000e+02 0.0000e+00 0.0000e+00
       13  1    1    2    0    0 -2.2624549733e+01 -5.5753070455e+00 +1.3558753058e+01 2.6959325804e+01 1.0566000000e-01 0.0000e+00 1.0000e+00
      994  1    1    2    0    0 +3.5703250032e+01 +1.6068218194e+01 +3.4700655286e+01 1.4106043094e+02 1.3100000000e+02 0.0000e+00 0.0000e+00
      997  1    1    2    0    0 -1.3078700299e+01 -1.0492911148e+01 +4.5174058049e+02 4.6298024326e+02 1.0000000000e+02 0.0000e+00 0.0000e+00
</event>
<event>
 5      1 +8.5651000e-08 1.96521700e+02 7.95774700e-02 5.10583400e-01
       13 -1    0    0    0    0 +0.0000000000e+00 +0.0000000000e+00 +4.9999998884e+02 5.0000000000e+02 1.0566000000e-01 0.0000e+00 -1.0000e+00
      994 -1    0    0    0    0 -0.0000000000e+00 -0.0000000000e+00 +0.0000000000e+00 1.3100000000e+02 1.3100000000e+02 0.0000e+00 0.0000e+00
       13  1    1    2    0    0 -7.8418020725e+00 -1.3548075223e+01 +2.3684078970e+01 2.8389979969e+01 1.0566000000e-01 0.0000e+00 1.0000e+00
      994  1    1    2    0    0 +2.3509867607e+01 +3.6812930281e+01 +2.6055938667e+01 1.4052692856e+02 1.3100000000e+02 0.0000e+00 0.0000e+00
      997  1    1    2    0    0 -1.5668065535e+01 -2.3264855059e+01 +4.5025997120e+02 4.6208309147e+02 1.0000000000e+02 0.0000e+00 0.0000e+00
</event>
<event>
 5      1 +8.5651000e-08 1.97829600e+02 7.95774700e-02 5.08054700e-01
       13 -1    0    0    0    0 +0.0000000000e+00 +0.0000000000e+00 +4.9999998884e+02 5.0000000000e+02 1.0566000000e-01 0.0000e+00 -1.0000e+00
      994 -1    0    0    0    0 -0.0000000000e+00 -0.0000000000e+00 +0.0000000000e+00 1.3100000000e+02 1.3100000000e+02 0.0000e+00 0.0000e+00
       13  1    1    2    0    0 +6.7170349742e+00 -1.3551745139e+01 +3.9949589302e+01 4.2717083288e+01 1.0566000000e-01 0.0000e+00 1.0000e+00
      994  1    1    2    0    0 -2.0707344795e+01 +2.1226811289e+01 +1.8874353973e+01 1.3563411401e+02 1.3100000000e+02 0.0000e+00 0.0000e+00
      997  1    1    2    0    0 +1.3990309821e+01 -7.6750661500e+00 +4.4117604556e+02 4.5264880270e+02 1.0000000000e+02 0.0000e+00 0.0000e+00
</event>
<event>
 5      1 +8.5651000e-08 1.97315600e+02 7.95774700e-02 5.09043300e-01
       13 -1    0    0    0    0 +0.0000000000e+00 +0.0000000000e+00 +4.9999998884e+02 5.0000000000e+02 1.0566000000e-01 0.0000e+00 -1.0000e+00
      994 -1    0    0    0    0 -0.0000000000e+00 -0.0000000000e+00 +0.0000000000e+00 1.3100000000e+02 1.3100000000e+02 0.0000e+00 0.0000e+00
       13  1    1    2    0    0 +3.3131684020e+00 -1.3085752464e+01 +2.6526504973e+01 2.9763746951e+01 1.0566000000e-01 0.0000e+00 1.0000e+00
      994  1    1    2    0    0 -1.4814959409e+01 +1.7279517338e+01 +1.7315568728e+01 1.3408539690e+02 1.3100000000e+02 0.0000e+00 0.0000e+00
      997  1    1    2    0    0 +1.1501791007e+01 -4.1937648737e+00 +4.5615791513e+02 4.6715085615e+02 1.0000000000e+02 0.0000e+00 0.0000e+00
</event>
<event>
 5      1 +8.5651000e-08 1.94300500e+02 7.95774700e-02 5.14980900e-01
       13 -1    0    0    0    0 +0.0000000000e+00 +0.0000000000e+00 +4.9999998884e+02 5.0000000000e+02 1.0566000000e-01 0.0000e+00 1.0000e+00
      994 -1    0    0    0    0 -0.0000000000e+00 -0.0000000000e+00 +0.0000000000e+00 1.3100000000e+02 1.3100000000e+02 0.0000e+00 0.0000e+00
       13  1    1    2    0    0 -1.0310326000e+01 -1.2762211312e+01 +1.0555199318e+01 1.9508978868e+01 1.0566000000e-01 0.0000e+00 -1.0000e+00
      994  1    1    2    0    0 +8.4131714203e+00 +2.1269648535e+01 +2.3731569117e+01 1.3508281451e+02 1.3100000000e+02 0.0000e+00 0.0000e+00
      997  1    1    2    0    0 +1.8971545795e+00 -8.5074372225e+00 +4.6571322040e+02 4.7640820663e+02 1.0000000000e+02 0.0000e+00 0.0000e+00
</event>
<event>
 5      1 +8.5651000e-08 1.98704900e+02 7.95774700e-02 5.06386700e-01
       13 -1    0    0    0    0 +0.0000000000e+00 +0.0000000000e+00 +4.9999998884e+02 5.0000000000e+02 1.0566000000e-01 0.0000e+00 -1.0000e+00
      994 -1    0    0    0    0 -0.0000000000e+00 -0.0000000000e+00 +0.0000000000e+00 1.3100000000e+02 1.3100000000e+02 0.0000e+00 0.0000e+00
       13  1    1    2    0    0 +1.5206210681e+01 -2.9589380483e+01 +4.0106197346e+01 5.2108334364e+01 1.0566000000e-01 0.0000e+00 1.0000e+00
      994  1    1    2    0    0 -3.0101902716e+01 +1.4456138718e+01 +3.1958921202e+01 1.3891535962e+02 1.3100000000e+02 0.0000e+00 0.0000e+00
      997  1    1    2    0    0 +1.4895692035e+01 +1.5133241764e+01 +4.2793487029e+02 4.3997630602e+02 1.0000000000e+02 0.0000e+00 0.0000e+00
</event>
<event>
 5      1 +8.5651000e-08 2.12418100e+02 7.95774700e-02 4.82542000e-01
       13 -1    0    0    0    0 +0.0000000000e+00 +0.0000000000e+00 +4.9999998884e+02 5.0000000000e+02 1.0566000000e-01 0.0000e+00 1.0000e+00
      994 -1    0    0    0    0 -0.0000000000e+00 -0.0000000000e+00 +0.0000000000e+00 1.3100000000e+02 1.3100000000e+02 0.0000e+00 0.0000e+00
       13  1    1    2    0    0 +5.9078751482e+01 -2.9841040875e+01 +1.0695080947e+02 1.2577469303e+02 1.0566000000e-01 0.0000e+00 -1.0000e+00
      994  1    1    2    0    0 -4.7657318740e+01 -3.1686062044e+01 +6.5816391196e+01 1.5737860054e+02 1.3100000000e+02 0.0000e+00 0.0000e+00
      997  1    1    2    0    0 -1.1421432742e+01 +6.1527102920e+01 +3.2723278817e+02 3.4784670643e+02 1.0000000000e+02 0.0000e+00 0.0000e+00
</event>
<event>
 5      1 +8.5651000e-08 1.94343200e+02 7.95774700e-02 5.14895100e-01
       13 -1    0    0    0    0 +0.0000000000e+00 +0.0000000000e+00 +4.9999998884e+02 5.0000000000e+02 1.0566000000e-01 0.0000e+00 -1.0000e+00
      994 -1    0    0    0    0 -0.0000000000e+00 -0.0000000000e+00 +0.0000000000e+00 1.3100000000e+02 1.3100000000e+02 0.0000e+00 0.0000e+00
       13  1    1    2    0    0 -1.6153443698e+01 -1.5541241628e+01 +4.2487688643e+01 4.8038305392e+01 1.0566000000e-01 0.0000e+00 1.0000e+00
      994  1    1    2    0    0 +1.2247358093e+01 +2.6926574523e+01 +2.2165403091e+01 1.3611518391e+02 1.3100000000e+02 0.0000e+00 0.0000e+00
      997  1    1    2    0    0 +3.9060856053e+00 -1.1385332895e+01 +4.3534689710e+02 4.4684651070e+02 1.0000000000e+02 0.0000e+00 0.0000e+00
</event>
<event>
 5      1 +8.5651000e-08 1.96456700e+02 7.95774700e-02 5.10710200e-01
       13 -1    0    0    0    0 +0.0000000000e+00 +0.0000000000e+00 +4.9999998884e+02 5.0000000000e+02 1.0566000000e-01 0.0000e+00 -1.0000e+00
      994 -1    0    0    0    0 -0.0000000000e+00 -0.0000000000e+00 +0.0000000000e+00 1.3100000000e+02 1.3100000000e+02 0.0000e+00 0.0000e+00
       13  1    1    2    0    0 -4.0203990245e+00 +2.7383840717e+01 +5.5499823215e+01 6.2018383417e+01 1.0566000000e-01 0.0000e+00 1.0000e+00
      994  1    1    2    0    0 +3.4112466343e+01 -7.8868207146e+01 +6.0878562617e+01 1.6808049811e+02 1.3100000000e+02 0.0000e+00 0.0000e+00
      997  1    1    2    0    0 -3.0092067318e+01 +5.1484366428e+01 +3.8362160300e+02 4.0090111847e+02 1.0000000000e+02 0.0000e+00 0.0000e+00
</event>
<event>
 5      1 +8.5651000e-08 1.93624400e+02 7.95774700e-02 5.16345900e-01
       13 -1    0    0    0    0 +0.0000000000e+00 +0.0000000000e+00 +4.9999998884e+02 5.0000000000e+02 1.0566000000e-01 0.0000e+00 1.0000e+00
      994 -1    0    0    0    0 -0.0000000000e+00 -0.0000000000e+00 +0.0000000000e+00 1.3100000000e+02 1.3100000000e+02 0.0000e+00 0.0000e+00
       13  1    1    2    0    0 +2.5424969364e+01 +1.4686632864e+01 +1.2211703233e+02 1.2559740046e+02 1.0566000000e-01 0.0000e+00 -1.0000e+00
      994  1    1    2    0    0 -3.1733787420e+01 +3.6128839778e+01 +3.3995075155e+01 1.4362796198e+02 1.3100000000e+02 0.0000e+00 0.0000e+00
      997  1    1    2    0    0 +6.3088180560e+00 -5.0815472642e+01 +3.4388788135e+02 3.6177463756e+02 1.0000000000e+02 0.0000e+00 0.0000e+00
</event>
<event>
 5      1 +8.5651000e-08 1.60047400e+02 7.95774700e-02 6.05240100e-01
       13 -1    0    0    0    0 +0.0000000000e+00 +0.0000000000e+00 +4.9999998884e+02 5.0000000000e+02 1.0566000000e-01 0.0000e+00 -1.0000e+00
      994 -1    0    0    0    0 -0.0000000000e+00 -0.0000000000e+00 +0.0000000000e+00 1.3100000000e+02 1.3100000000e+02 0.0000e+00 0.0000e+00
       13  1    1    2    0    0 +5.1245624536e+01 -7.5600060953e+01 +3.9777045560e+01 9.9617808487e+01 1.0566000000e-01 0.0000e+00 1.0000e+00
      994  1    1    2    0    0 -4.3895052783e+01 +5.9018010883e+01 +1.8703471056e+02 2.3990182205e+02 1.3100000000e+02 0.0000e+00 0.0000e+00
      997  1    1    2    0    0 -7.3505717534e+00 +1.6582050070e+01 +2.7318823272e+02 2.9148036947e+02 1.0000000000e+02 0.0000e+00 0.0000e+00
</event>
<event>
 5      1 +8.5651000e-08 1.96405500e+02 7.95774700e-02 5.10810200e-01
       13 -1    0    0    0    0 +0.0000000000e+00 +0.0000000000e+00 +4.9999998884e+02 5.0000000000e+02 1.0566000000e-01 0.0000e+00 -1.0000e+00
      994 -1    0    0    0    0 -0.0000000000e+00 -0.0000000000e+00 +0.0000000000e+00 1.3100000000e+02 1.3100000000e+02 0.0000e+00 0.0000e+00
       13  1    1    2    0    0 -2.6687945930e+00 -1.2731119815e+01 +1.5048147232e+01 1.9891248716e+01 1.0566000000e-01 0.0000e+00 1.0000e+00
      994  1    1    2    0    0 +1.2687687992e+01 +4.1665572554e+01 +2.6108756058e+01 1.4049791638e+02 1.3100000000e+02 0.0000e+00 0.0000e+00
      997  1    1    2    0    0 -1.0018893399e+01 -2.8934452739e+01 +4.5884308555e+02 4.7061083491e+02 1.0000000000e+02 0.0000e+00 0.0000e+00
</event>
<event>
 5      1 +8.5651000e-08 1.95359700e+02 7.95774700e-02 5.12867500e-01
       13 -1    0    0    0    0 +0.0000000000e+00 +0.0000000000e+00 +4.9999998884e+02 5.0000000000e+02 1.0566000000e-01 0.0000e+00 1.0000e+00
      994 -1    0    0    0    0 -0.0000000000e+00 -0.0000000000e+00 +0.0000000000e+00 1.3100000000e+02 1.3100000000e+02 0.0000e+00 0.0000e+00
       13  1    1    2    0    0 -1.8626134634e+01 -1.0556250745e+01 +1.6847110370e+01 2.7243414123e+01 1.0566000000e-01 0.0000e+00 -1.0000e+00
      994  1    1    2    0    0 +3.6382461362e+01 +9.3378395624e+00 +3.0239215669e+01 1.3959329822e+02 1.3100000000e+02 0.0000e+00 0.0000e+00
      997  1    1    2    0    0 -1.7756326728e+01 +1.2184111829e+00 +4.5291366280e+02 4.6416328766e+02 1.0000000000e+02 0.0000e+00 0.0000e+00
</event>
<event>
 5      1 +8.5651000e-08 1.93269800e+02 7.95774700e-02 5.17067000e-01
       13 -1    0    0    0    0 +0.0000000000e+00 +0.0000000000e+00 +4.9999998884e+02 5.0000000000e+02 1.0566000000e-01 0.0000e+00 1.0000e+00
      994 -1    0    0    0    0 -0.0000000000e+00 -0.0000000000e+00 +0.0000000000e+00 1.3100000000e+02 1.3100000000e+02 0.0000e+00 0.0000e+00
       13  1    1    2    0    0 +1.0129797673e+01 +4.7303886950e+00 +4.8962838377e+00 1.2205496203e+01 1.0566000000e-01 0.0000e+00 -1.0000e+00
      994  1    1    2    0    0 +6.6923007915e+00 +2.2858903167e+01 +2.2980354435e+01 1.3511629448e+02 1.3100000000e+02 0.0000e+00 0.0000e+00
      997  1    1    2    0    0 -1.6822098464e+01 -2.7589291862e+01 +4.7212335056e+02 4.8367820932e+02 1.0000000000e+02 0.0000e+00 0.0000e+00
</event>
<event>
 5      1 +8.5651000e-08 2.00971000e+02 7.95774700e-02 5.02156200e-01
       13 -1    0    0    0    0 +0.0000000000e+00 +0.0000000000e+00 +4.9999998884e+02 5.0000000000e+02 1.0566000000e-01 0.0000e+00 1.0000e+00
      994 -1    0    0    0    0 -0.0000000000e+00 -0.0000000000e+00 +0.0000000000e+00 1.3100000000e+02 1.3100000000e+02 0.0000e+00 0.0000e+00
       13  1    1    2    0    0 +4.9935744587e+00 -2.2778184603e+01 +7.0652668060e+00 2.4366178173e+01 1.0566000000e-01 0.0000e+00 -1.0000e+00
      994  1    1    2    0    0 +1.8559800154e+01 +6.9158247085e+01 +6.2780677134e+01 1.6195599014e+02 1.3100000000e+02 0.0000e+00 0.0000e+00
      997  1    1    2    0    0 -2.3553374612e+01 -4.6380062483e+01 +4.3015404490e+02 4.4467783168e+02 1.0000000000e+02 0.0000e+00 0.0000e+00
</event>
<event>
 5      1 +8.5651000e-08 2.03555800e+02 7.95774700e-02 4.97479300e-01
       13 -1    0    0    0    0 +0.0000000000e+00 +0.0000000000e+00 +4.9999998884e+02 5.0000000000e+02 1.0566000000e-01 0.0000e+00 1.0000e+00
      994 -1    0    0    0    0 -0.0000000000e+00 -0.0000000000e+00 +0.0000000000e+00 1.3100000000e+02 1.3100000000e+02 0.0000e+00 0.0000e+00
       13  1    1    2    0    0 -1.3871523075e+01 +1.0282414809e+01 +1.4383223717e+00 1.7327063860e+01 1.0566000000e-01 0.0000e+00 -1.0000e+00
      994  1    1    2    0    0 +9.3168073678e+00 +6.0736511767e+00 +3.0787454833e+01 1.3502799529e+02 1.3100000000e+02 0.0000e+00 0.0000e+00
      997  1    1    2    0    0 +4.5547157076e+00 -1.6356065986e+01 +4.6777421163e+02 4.7864494085e+02 1.0000000000e+02 0.0000e+00 0.0000e+00
</event>
<event>
 5      1 +8.5651000e-08 1.95380700e+02 7.95774700e-02 5.12825800e-01
       13 -1    0    0    0    0 +0.0000000000e+00 +0.0000000000e+00 +4.9999998884e+02 5.0000000000e+02 1.0566000000e-01 0.0000e+00 1.0000e+00
      994 -1    0    0    0    0 -0.0000000000e+00 -0.0000000000e+00 +0.0000000000e+00 1.3100000000e+02 1.3100000000e+02 0.0000e+00 0.0000e+00
       13  1    1    2    0    0 +9.1373080841e+00 -1.7938142295e+01 +5.8726597076e+01 6.2081331463e+01 1.0566000000e-01 0.0000e+00 -1.0000e+00
      994  1    1    2    0    0 +2.0295708218e+01 +1.8749389281e+01 +2.0522147109e+01 1.3544598146e+02 1.3100000000e+02 0.0000e+00 0.0000e+00
      997  1    1    2    0    0 -2.9433016302e+01 -8.1124698637e-01 +4.2075124465e+02 4.3347268708e+02 1.0000000000e+02 0.0000e+00 0.0000e+00
</event>
<event>
 5      1 +8.5651000e-08 1.95449900e+02 7.95774700e-02 5.12689000e-01
       13 -1    0    0    0    0 +0.0000000000e+00 +0.0000000000e+00 +4.9999998884e+02 5.0000000000e+02 1.0566000000e-01 0.0000e+00 -1.0000e+00
      994 -1    0    0    0    0 -0.0000000000e+00 -0.0000000000e+00 +0.0000000000e+00 1.3100000000e+02 1.3100000000e+02 0.0000e+00 0.0000e+00
       13  1    1    2    0    0 -2.8294640147e+00 +1.3449416197e+01 +5.0299918102e+00 1.4635731765e+01 1.0566000000e-01 0.0000e+00 1.0000e+00
      994  1    1    2    0    0 +3.4548417107e+01 -6.3306286589e-01 +2.8988441453e+01 1.3854718918e+02 1.3100000000e+02 0.0000e+00 0.0000e+00
      997  1    1    2    0    0 -3.1718953092e+01 -1.2816353331e+01 +4.6598155557e+02 4.7781707905e+02 1.0000000000e+02 0.0000e+00 0.0000e+00
</event>
<event>
 5      1 +8.5651000e-08 1.96070400e+02 7.95774700e-02 5.11466200e-01
       13 -1    0    0    0    0 +0.0000000000e+00 +0.0000000000e+00 +4.9999998884e+02 5.0000000000e+02 1.0566000000e-01 0.0000e+00 1.0000e+00
      994 -1    0    0    0    0 -0.0000000000e+00 -0.0000000000e+00 +0.0000000000e+00 1.3100000000e+02 1.3100000000e+02 0.0000e+00 0.0000e+00
       13  1    1    2    0    0 -4.1404931331e+01 +9.7963071015e+00 +1.0770821919e+02 1.1580763194e+02 1.0566000000e-01 0.0000e+00 -1.0000e+00
      994  1    1    2    0    0 +3.3513849360e+01 +1.3376981013e+00 +2.9210469817e+01 1.3834456651e+02 1.3100000000e+02 0.0000e+00 0.0000e+00
      997  1    1    2    0    0 +7.8910819712e+00 -1.1134005203e+01 +3.6308129983e+02 3.7684780155e+02 1.0000000000e+02 0.0000e+00 0.0000e+00
</event>
<event>
 5      1 +8.5651000e-08 1.94496400e+02 7.95774700e-02 5.14587700e-01
       13 -1    0    0    0    0 +0.0000000000e+00 +0.0000000000e+00 +4.9999998884e+02 5.0000000000e+02 1.0566000000e-01 0.0000e+00 -1.0000e+00
      994 -1    0    0    0    0 -0.0000000000e+00 -0.0000000000e+00 +0.0000000000e+00 1.3100000000e+02 1.3100000000e+02 0.0000e+00 0.0000e+00
       13  1    1    2    0    0 +1.5621836296e+01 -1.3841567968e+01 +3.1571131952e+01 3.7846774101e+01 1.0566000000e-01 0.0000e+00 1.0000e+00
      994  1    1    2    0    0 -3.8591291654e+01 +1.8068097786e+01 +2.7564446603e+01 1.4048680602e+02 1.3100000000e+02 0.0000e+00 0.0000e+00
      997  1    1    2    0    0 +2.2969455358e+01 -4.2265298181e+00 +4.4086441028e+02 4.5266641988e+02 1.0000000000e+02 0.0000e+00 0.0000e+00
</event>
<event>
 5      1 +8.5651000e-08 1.95738800e+02 7.95774700e-02 5.12118400e-01
       13 -1    0    0    0    0 +0.0000000000e+00 +0.0000000000e+00 +4.9999998884e+02 5.0000000000e+02 1.0566000000e-01 0.0000e+00 -1.0000e+00
      994 -1    0    0    0    0 -0.0000000000e+00 -0.0000000000e+00 +0.0000000000e+00 1.3100000000e+02 1.3100000000e+02 0.0000e+00 0.0000e+00
       13  1    1    2    0    0 -1.1379395848e+01 -2.6152833949e+01 +7.3646261597e+01 7.8976226706e+01 1.0566000000e-01 0.0000e+00 1.0000e+00
      994  1    1    2    0    0 +6.2884028931e+01 +4.2450384762e+01 +5.0852306137e+01 1.5969781871e+02 1.3100000000e+02 0.0000e+00 0.0000e+00
      997  1    1    2    0    0 -5.1504633084e+01 -1.6297550814e+01 +3.7550142110e+02 3.9232595458e+02 1.0000000000e+02 0.0000e+00 0.0000e+00
</event>
<event>
 5      1 +8.5651000e-08 1.95386000e+02 7.95774700e-02 5.12815500e-01
       13 -1    0    0    0    0 +0.0000000000e+00 +0.0000000000e+00 +4.9999998884e+02 5.0000000000e+02 1.0566000000e-01 0.0000e+00 1.0000e+00
      994 -1    0    0    0    0 -0.0000000000e+00 -0.0000000000e+00 +0.0000000000e+00 1.3100000000e+02 1.3100000000e+02 0.0000e+00 0.0000e+00
       13  1    1    2    0    0 +4.4053763948e+00 -1.7759642245e+01 +3.9045400307e+01 4.3120374337e+01 1.0566000000e-01 0.0000e+00 -1.0000e+00
      994  1    1    2    0    0 -7.8078336065e+00 +7.9414318137e+00 +1.6862814019e+01 1.3254954961e+02 1.3100000000e+02 0.0000e+00 0.0000e+00
      997  1    1    2    0    0 +3.4024572117e+00 +9.8182104312e+00 +4.4409177451e+02 4.5533007605e+02 1.0000000000e+02 0.0000e+00 0.0000e+00
</event>
<event>
 5      1 +8.5651000e-08 2.08660500e+02 7.95774700e-02 4.88678100e-01
       13 -1    0    0    0    0 +0.0000000000e+00 +0.0000000000e+00 +4.9999998884e+02 5.0000000000e+02 1.0566000000e-01 0.0000e+00 1.0000e+00
      994 -1    0    0    0    0 -0.0000000000e+00 -0.0000000000e+00 +0.0000000000e+00 1.3100000000e+02 1.3100000000e+02 0.0000e+00 0.0000e+00
       13  1    1    2    0    0 -1.3469329392e+01 +2.4978115909e+01 +8.8255717331e+00 2.9719202363e+01 1.0566000000e-01 0.0000e+00 -1.0000e+00
      994  1    1    2    0    0 +9.9601940373e+00 -2.3976483228e+01 +4.0388196130e+01 1.3952162413e+02 1.3100000000e+02 0.0000e+00 0.0000e+00
      997  1    1    2    0    0 +3.5091353550e+00 -1.0016326803e+00 +4.5078622097e+02 4.6175917351e+02 1.0000000000e+02 0.0000e+00 0.0000e+00
</event>
<event>
 5      1 +8.5651000e-08 1.95359800e+02 7.95774700e-02 5.12867200e-01
       13 -1    0    0    0    0 +0.0000000000e+00 +0.0000000000e+00 +4.9999998884e+02 5.0000000000e+02 1.0566000000e-01 0.0000e+00 1.0000e+00
      994 -1    0    0    0    0 -0.0000000000e+00 -0.0000000000e+00 +0.0000000000e+00 1.3100000000e+02 1.3100000000e+02 0.0000e+00 0.0000e+00
       13  1    1    2    0    0 -1.4703416006e+01 -2.8060555647e+01 +1.1935622959e+02 1.2348888991e+02 1.0566000000e-01 0.0000e+00 -1.0000e+00
      994  1    1    2    0    0 -2.2930595478e+01 +5.0110785508e+00 +2.4954262078e+01 1.3540545895e+02 1.3100000000e+02 0.0000e+00 0.0000e+00
      997  1    1    2    0    0 +3.7634011484e+01 +2.3049477097e+01 +3.5568949717e+02 3.7210565114e+02 1.0000000000e+02 0.0000e+00 0.0000e+00
</event>
<event>
 5      1 +8.5651000e-08 1.99819800e+02 7.95774700e-02 5.04289700e-01
       13 -1    0    0    0    0 +0.0000000000e+00 +0.0000000000e+00 +4.9999998884e+02 5.0000000000e+02 1.0566000000e-01 0.0000e+00 -1.0000e+00
      994 -1    0    0    0    0 -0.0000000000e+00 -0.0000000000e+00 +0.0000000000e+00 1.3100000000e+02 1.3100000000e+02 0.0000e+00 0.0000e+00
       13  1    1    2    0    0 +2.9373966927e+01 -3.8903128424e+01 +1.1990961011e+02 1.2943959632e+02 1.0566000000e-01 0.0000e+00 1.0000e+00
      994  1    1    2    0    0 -6.8118028415e+01 -7.8233813162e+00 +5.7901165394e+01 1.5879173796e+02 1.3100000000e+02 0.0000e+00 0.0000e+00
      997  1    1    2    0    0 +3.8744061488e+01 +4.6726509740e+01 +3.2218921334e+02 3.4276866572e+02 1.0000000000e+02 0.0000e+00 0.0000e+00
</event>
<event>
 5      1 +8.5651000e-08 2.16745100e+02 7.95774700e-02 4.75806100e-01
       13 -1    0    0    0    0 +0.0000000000e+00 +0.0000000000e+00 +4.9999998884e+02 5.0000000000e+02 1.0566000000e-01 0.0000e+00 1.0000e+00
      994 -1    0    0    0    0 -0.0000000000e+00 -0.0000000000e+00 +0.0000000000e+00 1.3100000000e+02 1.3100000000e+02 0.0000e+00 0.0000e+00
       13  1    1    2    0    0 +9.8145438044e+00 -2.1441437772e+00 -1.1907188926e+01 1.5579311114e+01 1.0566000000e-01 0.0000e+00 -1.0000e+00
      994  1    1    2    0    0 -1.0049895172e+01 +8.8726980592e+00 +4.6980845663e+01 1.3981389424e+02 1.3100000000e+02 0.0000e+00 0.0000e+00
      997  1    1    2    0    0 +2.3535136743e-01 -6.7285542820e+00 +4.6492633210e+02 4.7560679464e+02 1.0000000000e+02 0.0000e+00 0.0000e+00
</event>
<event>
 5      1 +8.5651000e-08 2.08630400e+02 7.95774700e-02 4.88728500e-01
       13 -1    0    0    0    0 +0.0000000000e+00 +0.0000000000e+00 +4.9999998884e+02 5.0000000000e+02 1.0566000000e-01 0.0000e+00 -1.0000e+00
      994 -1    0    0    0    0 -0.0000000000e+00 -0.0000000000e+00 +0.0000000000e+00 1.3100000000e+02 1.3100000000e+02 0.0000e+00 0.0000e+00
       13  1    1    2    0    0 -3.2584368237e+01 -1.4932445867e+01 +2.3643475889e+01 4.2938841497e+01 1.0566000000e-01 0.0000e+00 1.0000e+00
      994  1    1    2    0    0 +1.7054357540e+01 -6.6917486177e+00 +3.7956146667e+01 1.3761286161e+02 1.3100000000e+02 0.0000e+00 0.0000e+00
      997  1    1    2    0    0 +1.5530010696e+01 +2.1624194485e+01 +4.3840036628e+02 4.5044829689e+02 1.0000000000e+02 0.0000e+00 0.0000e+00
</event>
<event>
 5      1 +8.5651000e-08 2.03571800e+02 7.95774700e-02 4.97450700e-01
       13 -1    0    0    0    0 +0.0000000000e+00 +0.0000000000e+00 +4.9999998884e+02 5.0000000000e+02 1.0566000000e-01 0.0000e+00 1.0000e+00
      994 -1    0    0    0    0 -0.0000000000e+00 -0.0000000000e+00 +0.0000000000e+00 1.3100000000e+02 1.3100000000e+02 0.0000e+00 0.0000e+00
       13  1    1    2    0    0 +7.5364591599e+00 +1.2692101556e+01 -1.9343619476e+00 1.4887598152e+01 1.0566000000e-01 0.0000e+00 -1.0000e+00
      994  1    1    2    0    0 +1.0772167445e+01 -3.2802679335e+01 +3.7939941400e+01 1.4068580069e+02 1.3100000000e+02 0.0000e+00 0.0000e+00
      997  1    1    2    0    0 -1.8308626605e+01 +2.0110577779e+01 +4.6399440938e+02 4.7542660116e+02 1.0000000000e+02 0.0000e+00 0.0000e+00
</event>
<event>
 5      1 +8.5651000e-08 1.96692800e+02 7.95774700e-02 5.10250200e-01
       13 -1    0    0    0    0 +0.0000000000e+00 +0.0000000000e+00 +4.9999998884e+02 5.0000000000e+02 1.0566000000e-01 0.0000e+00 1.0000e+00
      994 -1    0    0    0    0 -0.0000000000e+00 -0.0000000000e+00 +0.0000000000e+00 1.3100000000e+02 1.3100000000e+02 0.0000e+00 0.0000e+00
       13  1    1    2    0    0 +2.4822716082e+01 +2.7408276185e+01 +9.6189261805e+01 1.0305224931e+02 1.0566000000e-01 0.0000e+00 -1.0000e+00
      994  1    1    2    0    0 -1.2290447362e+01 +2.5268291548e+00 +2.3892234813e+01 1.3375080877e+02 1.3100000000e+02 0.0000e+00 0.0000e+00
      997  1    1    2    0    0 -1.2532268720e+01 -2.9935105340e+01 +3.7991849222e+02 3.9419694192e+02 1.0000000000e+02 0.0000e+00 0.0000e+00
</event>
<event>
 5      1 +8.5651000e-08 1.98006500e+02 7.95774700e-02 5.07716000e-01
       13 -1    0    0    0    0 +0.0000000000e+00 +0.0000000000e+00 +4.9999998884e+02 5.0000000000e+02 1.0566000000e-01 0.0000e+00 -1.0000e+00
      994 -1    0    0    0    0 -0.0000000000e+00 -0.0000000000e+00 +0.0000000000e+00 1.3100000000e+02 1.3100000000e+02 0.0000e+00 0.0000e+00
       13  1    1    2    0    0 -7.5271988162e+00 -3.9073876718e+01 +7.3551056098e+01 8.3625328585e+01 1.0566000000e-01 0.0000e+00 1.0000e+00
      994  1    1    2    0    0 +1.1303471194e+01 +2.2022314754e+01 +2.8038272943e+01 1.3623470761e+02 1.3100000000e+02 0.0000e+00 0.0000e+00
      997  1    1    2    0    0 -3.7762723783e+00 +1.7051561964e+01 +3.9841065980e+02 4.1113996380e+02 1.0000000000e+02 0.0000e+00 0.0000e+00
</event>
<event>
 5      1 +8.5651000e-08 1.93680200e+02 7.95774700e-02 5.16232800e-01
       13 -1    0    0    0    0 +0.0000000000e+00 +0.0000000000e+00 +4.9999998884e+02 5.0000000000e+02 1.0566000000e-01 0.0000e+00 -1.0000e+00
      994 -1    0    0    0    0 -0.0000000000e+00 -0.0000000000e+00 +0.0000000000e+00 1.3100000000e+02 1.3100000000e+02 0.0000e+00 0.0000e+00
       13  1    1    2    0    0 -5.8605398874e+00 -1.1730014647e+01 +7.1862695469e+00 1.4953019943e+01 1.0566000000e-01 0.0000e+00 1.0000e+00
      994  1    1    2    0    0 -2.9167995619e+00 -2.5220251915e+00 +2.0108679646e+01 1.3259044961e+02 1.3100000000e+02 0.0000e+00 0.0000e+00
      997  1    1    2    0    0 +8.7773394493e+00 +1.4252039838e+01 +4.7270503964e+02 4.8345653045e+02 1.0000000000e+02 0.0000e+00 0.0000e+00
</event>
<event>
 5      1 +8.5651000e-08 1.94281900e+02 7.95774700e-02 5.15018200e-01
       13 -1    0    0    0    0 +0.0000000000e+00 +0.0000000000e+00 +4.9999998884e+02 5.0000000000e+02 1.0566000000e-01 0.0000e+00 -1.0000e+00
      994 -1    0    0    0    0 -0.0000000000e+00 -0.0000000000e+00 +0.0000000000e+00 1.3100000000e+02 1.3100000000e+02 0.0000e+00 0.0000e+00
       13  1    1    2    0    0 -3.9438445263e+01 +2.0131342869e+01 +8.8468748738e+01 9.8931251876e+01 1.0566000000e-01 0.0000e+00 1.0000e+00
      994  1    1    2    0    0 +4.5081186889e+01 -5.9221673766e+01 +5.6166887861e+01 1.6079564468e+02 1.3100000000e+02 0.0000e+00 0.0000e+00
      997  1    1    2    0    0 -5.6427416262e+00 +3.9090330898e+01 +3.5536435224e+02 3.7127310345e+02 1.0000000000e+02 0.0000e+00 0.0000e+00
</event>
<event>
 5      1 +8.5651000e-08 1.93730900e+02 7.95774700e-02 5.16130100e-01
       13 -1    0    0    0    0 +0.0000000000e+00 +0.0000000000e+00 +4.9999998884e+02 5.0000000000e+02 1.0566000000e-01 0.0000e+00 -1.0000e+00
      994 -1    0    0    0    0 -0.0000000000e+00 -0.0000000000e+00 +0.0000000000e+00 1.3100000000e+02 1.3100000000e+02 0.0000e+00 0.0000e+00
       13  1    1    2    0    0 -4.3505126124e+00 -2.6163948314e+01 +5.5801630660e+01 6.1784401751e+01 1.0566000000e-01 0.0000e+00 1.0000e+00
      994  1    1    2    0    0 -2.5159417546e-02 -2.0319640266e+00 +2.0093759150e+01 1.3254768450e+02 1.3100000000e+02 0.0000e+00 0.0000e+00
      997  1    1    2    0    0 +4.3756720299e+00 +2.8195912341e+01 +4.2410459903e+02 4.3666791374e+02 1.0000000000e+02 0.0000e+00 0.0000e+00
</event>
<event>
 5      1 +8.5651000e-08 1.95540900e+02 7.95774700e-02 5.12509000e-01
       13 -1    0    0    0    0 +0.0000000000e+00 +0.0000000000e+00 +4.9999998884e+02 5.0000000000e+02 1.0566000000e-01 0.0000e+00 1.0000e+00
      994 -1    0    0    0    0 -0.0000000000e+00 -0.0000000000e+00 +0.0000000000e+00 1.3100000000e+02 1.3100000000e+02 0.0000e+00 0.0000e+00
       13  1    1    2    0    0 +1.1843853863e+01 -1.0119499939e+01 +7.3955385173e+00 1.7244892210e+01 1.0566000000e-01 0.0000e+00 -1.0000e+00
      994  1    1    2    0    0 -1.9834544429e+01 +3.7136710438e+00 +2.4263430565e+01 1.3474759578e+02 1.3100000000e+02 0.0000e+00 0.0000e+00
      997  1    1    2    0    0 +7.9906905653e+00 +6.4058288952e+00 +4.6834101975e+02 4.7900751201e+02 1.0000000000e+02 0.0000e+00 0.0000e+00
</event>
<event>
 5      1 +8.5651000e-08 1.95168900e+02 7.95774700e-02 5.13246000e-01
       13 -1    0    0    0    0 +0.0000000000e+00 +0.0000000000e+00 +4.9999998884e+02 5.0000000000e+02 1.0566000000e-01 0.0000e+00 -1.0000e+00
      994 -1    0    0    0    0 -0.0000000000e+00 -0.0000000000e+00 +0.0000000000e+00 1.3100000000e+02 1.3100000000e+02 0.0000e+00 0.0000e+00
       13  1    1    2    0    0 +1.0731782670e+01 +9.2586471197e+00 +2.0938411508e+01 2.5284816516e+01 1.0566000000e-01 0.0000e+00 1.0000e+00
      994  1    1    2    0    0 -2.2265207614e+01 +3.0118018920e+01 +2.4444141663e+01 1.3842453032e+02 1.3100000000e+02 0.0000e+00 0.0000e+00
      997  1    1    2    0    0 +1.1533424944e+01 -3.9376666040e+01 +4.5461743567e+02 4.6729065316e+02 1.0000000000e+02 0.0000e+00 0.0000e+00
</event>
<event>
 5      1 +8.5651000e-08 1.93810400e+02 7.95774700e-02 5.15969200e-01
       13 -1    0    0    0    0 +0.0000000000e+00 +0.0000000000e+00 +4.9999998884e+02 5.0000000000e+02 1.0566000000e-01 0.0000e+00 -1.0000e+00
      994 -1    0    0    0    0 -0.0000000000e+00 -0.0000000000e+00 +0.0000000000e+00 1.3100000000e+02 1.3100000000e+02 0.0000e+00 0.0000e+00
       13  1    1    2    0    0 +1.2422598958e+01 +2.9533599347e+01 +1.4400603227e+02 1.4752729560e+02 1.0566000000e-01 0.0000e+00 1.0000e+00
      994  1    1    2    0    0 -4.8967328554e+01 -3.5648715772e+01 +3.9701793611e+01 1.4968587982e+02 1.3100000000e+02 0.0000e+00 0.0000e+00
      997  1    1    2    0    0 +3.6544729595e+01 +6.1151164248e+00 +3.1629216296e+02 3.3378682457e+02 1.0000000000e+02 0.0000e+00 0.0000e+00
</event>
<event>
 5      1 +8.5651000e-08 2.03155000e+02 7.95774700e-02 4.98194500e-01
       13 -1    0    0    0    0 +0.0000000000e+00 +0.0000000000e+00 +4.9999998884e+02 5.0000000000e+02 1.0566000000e-01 0.0000e+00 -1.0000e+00
      994 -1    0    0    0    0 -0.0000000000e+00 -0.0000000000e+00 +0.0000000000e+00 1.3100000000e+02 1.3100000000e+02 0.0000e+00 0.0000e+00
       13  1    1    2    0    0 -6.9391528149e+00 +4.8158239658e+01 +7.2540093695e+01 8.7346689954e+01 1.0566000000e-01 0.0000e+00 1.0000e+00
      994  1    1    2    0    0 +3.2733438788e+01 -2.8584069909e+01 +4.2223115139e+01 1.4433405184e+02 1.3100000000e+02 0.0000e+00 0.0000e+00
      997  1    1    2    0    0 -2.5794285973e+01 -1.9574169749e+01 +3.8523678000e+02 3.9931925821e+02 1.0000000000e+02 0.0000e+00 0.0000e+00
</event>
<event>
 5      1 +8.5651000e-08 2.02489900e+02 7.95774700e-02 4.99389200e-01
       13 -1    0    0    0    0 +0.0000000000e+00 +0.0000000000e+00 +4.9999998884e+02 5.0000000000e+02 1.0566000000e-01 0.0000e+00 1.0000e+00
      994 -1    0    0    0    0 -0.0000000000e+00 -0.0000000000e+00 +0.0000000000e+00 1.3100000000e+02 1.3100000000e+02 0.0000e+00 0.0000e+00
       13  1    1    2    0    0 -1.7124751585e+00 -5.0757387385e+01 +1.0313844069e+02 1.1496431645e+02 1.0566000000e-01 0.0000e+00 -1.0000e+00
      994  1    1    2    0    0 -8.4278586816e+00 +2.2562965255e+01 +3.2622996073e+01 1.3713269514e+02 1.3100000000e+02 0.0000e+00 0.0000e+00
      997  1    1    2    0    0 +1.0140333840e+01 +2.8194422130e+01 +3.6423855208e+02 3.7890298841e+02 1.0000000000e+02 0.0000e+00 0.0000e+00
</event>
<event>
 5      1 +8.5651000e-08 1.97079600e+02 7.95774700e-02 5.09499500e-01
       13 -1    0    0    0    0 +0.0000000000e+00 +0.0000000000e+00 +4.9999998884e+02 5.0000000000e+02 1.0566000000e-01 0.0000e+00 1.0000e+00
      994 -1    0    0    0    0 -0.0000000000e+00 -0.0000000000e+00 +0.0000000000e+00 1.3100000000e+02 1.3100000000e+02 0.0000e+00 0.0000e+00
       13  1    1    2    0    0 +9.3759609129e+00 +1.0533164389e+01 +2.8723449749e+01 3.1998498787e+01 1.0566000000e-01 0.0000e+00 -1.0000e+00
      994  1    1    2    0    0 -3.2384206719e+00 -1.9659817081e+01 +1.6851710866e+01 1.3357385948e+02 1.3100000000e+02 0.0000e+00 0.0000e+00
      997  1    1    2    0    0 -6.1375402410e+00 +9.1266526918e+00 +4.5442482822e+02 4.6542764174e+02 1.0000000000e+02 0.0000e+00 0.0000e+00
</event>
<event>
 5      1 +8.5651000e-08 1.97827000e+02 7.95774700e-02 5.08059700e-01
       13 -1    0    0    0    0 +0.0000000000e+00 +0.0000000000e+00 +4.9999998884e+02 5.0000000000e+02 1.0566000000e-01 0.0000e+00 1.0000e+00
      994 -1    0    0    0    0 -0.0000000000e+00 -0.0000000000e+00 +0.0000000000e+00 1.3100000000e+02 1.3100000000e+02 0.0000e+00 0.0000e+00
       13  1    1    2    0    0 +8.6395273087e+00 +1.4259956096e+01 +2.6280862825e+01 3.1123667760e+01 1.0566000000e-01 0.0000e+00 -1.0000e+00
      994  1    1    2    0    0 -1.2297780927e+01 -8.5457190530e+01 +5.9435450974e+01 1.6777288119e+02 1.3100000000e+02 0.0000e+00 0.0000e+00
      997  1    1    2    0    0 +3.6582536181e+00 +7.1197234434e+01 +4.1428367504e+02 4.3210345105e+02 1.0000000000e+02 0.0000e+00 0.0000e+00
</event>
<event>
 5      1 +8.5651000e-08 1.98360200e+02 7.95774700e-02 5.07041200e-01
       13 -1    0    0    0    0 +0.0000000000e+00 +0.0000000000e+00 +4.9999998884e+02 5.0000000000e+02 1.0566000000e-01 0.0000e+00 -1.0000e+00
      994 -1    0    0    0    0 -0.0000000000e+00 -0.0000000000e+00 +0.0000000000e+00 1.3100000000e+02 1.3100000000e+02 0.0000e+00 0.0000e+00
       13  1    1    2    0    0 -9.5618526147e+00 +7.8718340394e+00 +5.0443768538e+01 5.1942080675e+01 1.0566000000e-01 0.0000e+00 1.0000e+00
      994  1    1    2    0    0 +2.6167086874e+01 +1.5021944499e+01 +1.8554324229e+01 1.3570423059e+02 1.3100000000e+02 0.0000e+00 0.0000e+00
      997  1    1    2    0    0 -1.6605234260e+01 -2.2893778539e+01 +4.3100189607e+02 4.4335368874e+02 1.0000000000e+02 0.0000e+00 0.0000e+00
</event>
<event>
 5      1 +8.5651000e-08 2.26014000e+02 7.95774700e-02 4.62446900e-01
       13 -1    0    0    0    0 +0.0000000000e+00 +0.0000000000e+00 +4.9999998884e+02 5.0000000000e+02 1.0566000000e-01 0.0000e+00 1.0000e+00
      994 -1    0    0    0    0 -0.0000000000e+00 -0.0000000000e+00 +0.0000000000e+00 1.3100000000e+02 1.3100000000e+02 0.0000e+00 0.0000e+00
       13  1    1    2    0    0 +4.9583189346e+01 -1.0974854850e+01 +3.5610430367e+01 6.2024624301e+01 1.0566000000e-01 0.0000e+00 -1.0000e+00
      994  1    1    2    0    0 +4.1374081446e+01 -1.7185463565e+01 +7.8566625124e+01 1.5918815709e+02 1.3100000000e+02 0.0000e+00 0.0000e+00
      997  1    1    2    0    0 -9.0957270792e+01 +2.8160318415e+01 +3.8582293334e+02 4.0978721861e+02 1.0000000000e+02 0.0000e+00 0.0000e+00
</event>
<event>
 5      1 +8.5651000e-08 1.98078100e+02 7.95774700e-02 5.07579300e-01
       13 -1    0    0    0    0 +0.0000000000e+00 +0.0000000000e+00 +4.9999998884e+02 5.0000000000e+02 1.0566000000e-01 0.0000e+00 1.0000e+00
      994 -1    0    0    0    0 -0.0000000000e+00 -0.0000000000e+00 +0.0000000000e+00 1.3100000000e+02 1.3100000000e+02 0.0000e+00 0.0000e+00
       13  1    1    2    0    0 -9.5300602646e+00 +1.7073617797e+01 +7.7029794905e+01 7.9472831461e+01 1.0566000000e-01 0.0000e+00 -1.0000e+00
      994  1    1    2    0    0 +1.9871742892e+01 -4.9412526932e+01 +2.9928305678e+01 1.4454475938e+02 1.3100000000e+02 0.0000e+00 0.0000e+00
      997  1    1    2    0    0 -1.0341682628e+01 +3.2338909135e+01 +3.9304188825e+02 4.0698240916e+02 1.0000000000e+02 0.0000e+00 0.0000e+00
</event>
<event>
 5      1 +8.5651000e-08 1.99022700e+02 7.95774700e-02 5.05785800e-01
       13 -1    0    0    0    0 +0.0000000000e+00 +0.0000000000e+00 +4.9999998884e+02 5.0000000000e+02 1.0566000000e-01 0.0000e+00 -1.0000e+00
      994 -1    0    0    0    0 -0.0000000000e+00 -0.0000000000e+00 +0.0000000000e+00 1.3100000000e+02 1.3100000000e+02 0.0000e+00 0.0000e+00
       13  1    1    2    0    0 -3.9898979161e+00 -9.5193582057e+00 +5.1043641504e+01 5.2076885160e+01 1.0566000000e-01 0.0000e+00 1.0000e+00
      994  1    1    2    0    0 +1.9280043798e+01 +3.3961151040e+00 +1.5013874249e+01 1.3330292610e+02 1.3100000000e+02 0.0000e+00 0.0000e+00
      997  1    1    2    0    0 -1.5290145882e+01 +6.1232431017e+00 +4.3394247308e+02 4.4562018874e+02 1.0000000000e+02 0.0000e+00 0.0000e+00
</event>
<event>
 5      1 +8.5651000e-08 2.09499100e+02 7.95774700e-02 4.87284500e-01
       13 -1    0    0    0    0 +0.0000000000e+00 +0.0000000000e+00 +4.9999998884e+02 5.0000000000e+02 1.0566000000e-01 0.0000e+00 1.0000e+00
      994 -1    0    0    0    0 -0.0000000000e+00 -0.0000000000e+00 +0.0000000000e+00 1.3100000000e+02 1.3100000000e+02 0.0000e+00 0.0000e+00
       13  1    1    2    0    0 +4.2397637428e+01 +1.8860631658e+01 +3.7293294964e+01 5.9532210604e+01 1.0566000000e-01 0.0000e+00 -1.0000e+00
      994  1    1    2    0    0 -4.9917845587e+01 +1.4170198900e+01 +5.6575211626e+01 1.5183655823e+02 1.3100000000e+02 0.0000e+00 0.0000e+00
      997  1    1    2    0    0 +7.5202081588e+00 -3.3030830559e+01 +4.0613148225e+02 4.1963123117e+02 1.0000000000e+02 0.0000e+00 0.0000e+00
</event>
<event>
 5      1 +8.5651000e-08 2.04926500e+02 7.95774700e-02 4.95060800e-01
       13 -1    0    0    0    0 +0.0000000000e+00 +0.0000000000e+00 +4.9999998884e+02 5.0000000000e+02 1.0566000000e-01 0.0000e+00 1.0000e+00
      994 -1    0    0    0    0 -0.0000000000e+00 -0.0000000000e+00 +0.0000000000e+00 1.3100000000e+02 1.3100000000e+02 0.0000e+00 0.0000e+00
       13  1    1    2    0    0 +4.3825881325e+00 -3.2924583791e+01 +1.4223822415e+01 3.6132583421e+01 1.0566000000e-01 0.0000e+00 -1.0000e+00
      994  1    1    2    0    0 +7.0736744964e+00 +7.1895690197e+01 +6.9737402397e+01 1.6505554348e+02 1.3100000000e+02 0.0000e+00 0.0000e+00
      997  1    1    2    0    0 -1.1456262629e+01 -3.8971106406e+01 +4.1603876402e+02 4.2981187310e+02 1.0000000000e+02 0.0000e+00 0.0000e+00
</event>
<event>
 5      1 +8.5651000e-08 2.10312400e+02 7.95774700e-02 4.85946400e-01
       13 -1    0    0    0    0 +0.0000000000e+00 +0.0000000000e+00 +4.9999998884e+02 5.0000000000e+02 1.0566000000e-01 0.0000e+00 -1.0000e+00
      994 -1    0    0    0    0 -0.0000000000e+00 -0.0000000000e+00 +0.0000000000e+00 1.3100000000e+02 1.3100000000e+02 0.0000e+00 0.0000e+00
       13  1    1    2    0    0 -1.3196959229e+01 -5.6650317367e+00 -5.5937325019e+00 1.5412764996e+01 1.0566000000e-01 0.0000e+00 1.0000e+00
      994  1    1    2    0    0 -1.7058062991e+01 -1.3442200822e+01 +4.0949475729e+01 1.3895873430e+02 1.3100000000e+02 0.0000e+00 0.0000e+00
      997  1    1    2    0    0 +3.0255022220e+01 +1.9107232559e+01 +4.6464424561e+02 4.7662850070e+02 1.0000000000e+02 0.0000e+00 0.0000e+00
</event>
<event>
 5      1 +8.5651000e-08 1.94084500e+02 7.95774700e-02 5.15415700e-01
       13 -1    0    0    0    0 +0.0000000000e+00 +0.0000000000e+00 +4.9999998884e+02 5.0000000000e+02 1.0566000000e-01 0.0000e+00 -1.0000e+00
      994 -1    0    0    0    0 -0.0000000000e+00 -0.0000000000e+00 +0.0000000000e+00 1.3100000000e+02 1.3100000000e+02 0.0000e+00 0.0000e+00
       13  1    1    2    0    0 -1.9902754197e+01 -1.5111188956e+01 +2.9357035045e+01 3.8552747333e+01 1.0566000000e-01 0.0000e+00 1.0000e+00
      994  1    1    2    0    0 +9.4067007812e+00 +4.7979029132e+01 +3.4994290256e+01 1.4413907731e+02 1.3100000000e+02 0.0000e+00 0.0000e+00
      997  1    1    2    0    0 +1.0496053416e+01 -3.2867840176e+01 +4.3564866354e+02 4.4830817536e+02 1.0000000000e+02 0.0000e+00 0.0000e+00
</event>
<event>
 5      1 +8.5651000e-08 2.20913900e+02 7.95774700e-02 4.69626400e-01
       13 -1    0    0    0    0 +0.0000000000e+00 +0.0000000000e+00 +4.9999998884e+02 5.0000000000e+02 1.0566000000e-01 0.0000e+00 1.0000e+00
      994 -1    0    0    0    0 -0.0000000000e+00 -0.0000000000e+00 +0.0000000000e+00 1.3100000000e+02 1.3100000000e+02 0.0000e+00 0.0000e+00
       13  1    1    2    0    0 +4.1323493842e+01 +1.1433181919e+01 +1.0198670506e+02 1.1063294249e+02 1.0566000000e-01 0.0000e+00 -1.0000e+00
      994  1    1    2    0    0 +7.8359777692e+01 -4.2809392518e+01 +2.8187011446e+02 3.2339551678e+02 1.3100000000e+02 0.0000e+00 0.0000e+00
      997  1    1    2    0    0 -1.1968327153e+02 +3.1376210599e+01 +1.1614316931e+02 1.9697154072e+02 1.0000000000e+02 0.0000e+00 0.0000e+00
</event>
<event>
 5      1 +8.5651000e-08 1.93065900e+02 7.95774700e-02 5.17483200e-01
       13 -1    0    0    0    0 +0.0000000000e+00 +0.0000000000e+00 +4.9999998884e+02 5.0000000000e+02 1.0566000000e-01 0.0000e+00 1.0000e+00
      994 -1    0    0    0    0 -0.0000000000e+00 -0.0000000000e+00 +0.0000000000e+00 1.3100000000e+02 1.3100000000e+02 0.0000e+00 0.0000e+00
       13  1    1    2    0    0 -1.7301152513e+01 +4.4204472625e+01 +1.2772047385e+02 1.3625672785e+02 1.0566000000e-01 0.0000e+00 -1.0000e+00
      994  1    1    2    0    0 +3.3917350335e+01 -6.3193460277e+01 +5.1797587653e+01 1.5807526740e+02 1.3100000000e+02 0.0000e+00 0.0000e+00
      997  1    1    2    0    0 -1.6616197822e+01 +1.8988987652e+01 +3.2048192733e+02 3.3666800476e+02 1.0000000000e+02 0.0000e+00 0.0000e+00
</event>
<event>
 5      1 +8.5651000e-08 1.98598000e+02 7.95774700e-02 5.06589400e-01
       13 -1    0    0    0    0 +0.0000000000e+00 +0.0000000000e+00 +4.9999998884e+02 5.0000000000e+02 1.0566000000e-01 0.0000e+00 -1.0000e+00
      994 -1    0    0    0    0 -0.0000000000e+00 -0.0000000000e+00 +0.0000000000e+00 1.3100000000e+02 1.3100000000e+02 0.0000e+00 0.0000e+00
       13  1    1    2    0    0 +4.0337926322e+01 +3.4293771590e+01 +2.0219392711e+02 2.0901101979e+02 1.0566000000e-01 0.0000e+00 1.0000e+00
      994  1    1    2    0    0 -2.3540767554e+01 -5.8424149250e+01 +5.0946670576e+01 1.5402633604e+02 1.3100000000e+02 0.0000e+00 0.0000e+00
      997  1    1    2    0    0 -1.6797158768e+01 +2.4130377660e+01 +2.4685939116e+02 2.6796264417e+02 1.0000000000e+02 0.0000e+00 0.0000e+00
</event>
<event>
 5      1 +8.5651000e-08 1.93046200e+02 7.95774700e-02 5.17523500e-01
       13 -1    0    0    0    0 +0.0000000000e+00 +0.0000000000e+00 +4.9999998884e+02 5.0000000000e+02 1.0566000000e-01 0.0000e+00 1.0000e+00
      994 -1    0    0    0    0 -0.0000000000e+00 -0.0000000000e+00 +0.0000000000e+00 1.3100000000e+02 1.3100000000e+02 0.0000e+00 0.0000e+00
       13  1    1    2    0    0 -2.4775047087e+00 -1.7147996806e+01 +2.0641679731e+01 2.6949618368e+01 1.0566000000e-01 0.0000e+00 -1.0000e+00
      994  1    1    2    0    0 +5.2426588857e-01 +8.2719862314e+00 +1.8714251251e+01 1.3258930504e+02 1.3100000000e+02 0.0000e+00 0.0000e+00
      997  1    1    2    0    0 +1.9532388201e+00 +8.8760105747e+00 +4.6064405785e+02 4.7146107659e+02 1.0000000000e+02 0.0000e+00 0.0000e+00
</event>
<event>
 5      1 +8.5651000e-08 2.16776700e+02 7.95774700e-02 4.75758200e-01
       13 -1    0    0    0    0 +0.0000000000e+00 +0.0000000000e+00 +4.9999998884e+02 5.0000000000e+02 1.0566000000e-01 0.0000e+00 -1.0000e+00
      994 -1    0    0    0    0 -0.0000000000e+00 -0.0000000000e+00 +0.0000000000e+00 1.3100000000e+02 1.3100000000e+02 0.0000e+00 0.0000e+00
       13  1    1    2    0    0 -4.2941442058e+01 -1.1755339004e+01 +2.4747381169e+01 5.0937211151e+01 1.0566000000e-01 0.0000e+00 1.0000e+00
      994  1    1    2    0    0 +1.4342646831e+01 +1.7829267059e+01 +4.9740527007e+01 1.4198138719e+02 1.3100000000e+02 0.0000e+00 0.0000e+00
      997  1    1    2    0    0 +2.8598795227e+01 -6.0739280550e+00 +4.2551208066e+02 4.3808140166e+02 1.0000000000e+02 0.0000e+00 0.0000e+00
</event>
<event>
 5      1 +8.5651000e-08 1.93677600e+02 7.95774700e-02 5.16238000e-01
       13 -1    0    0    0    0 +0.0000000000e+00 +0.0000000000e+00 +4.9999998884e+02 5.0000000000e+02 1.0566000000e-01 0.0000e+00 -1.0000e+00
      994 -1    0    0    0    0 -0.0000000000e+00 -0.0000000000e+00 +0.0000000000e+00 1.3100000000e+02 1.3100000000e+02 0.0000e+00 0.0000e+00
       13  1    1    2    0    0 +1.9574510048e-02 +2.0015144003e+01 +3.9956435076e+01 4.4689307901e+01 1.0566000000e-01 0.0000e+00 1.0000e+00
      994  1    1    2    0    0 +1.0541196217e+01 +4.3039890175e+00 +1.8475742377e+01 1.3278551953e+02 1.3100000000e+02 0.0000e+00 0.0000e+00
      997  1    1    2    0    0 -1.0560770727e+01 -2.4319133020e+01 +4.4156781138e+02 4.5352517257e+02 1.0000000000e+02 0.0000e+00 0.0000e+00
</event>
<event>
 5      1 +8.5651000e-08 1.95483400e+02 7.95774700e-02 5.12622600e-01
       13 -1    0    0    0    0 +0.0000000000e+00 +0.0000000000e+00 +4.9999998884e+02 5.0000000000e+02 1.0566000000e-01 0.0000e+00 -1.0000e+00
      994 -1    0    0    0    0 -0.0000000000e+00 -0.0000000000e+00 +0.0000000000e+00 1.3100000000e+02 1.3100000000e+02 0.0000e+00 0.0000e+00
       13  1    1    2    0    0 -6.6084372071e+00 +3.9493293986e+01 +7.4591834829e+01 8.4660171860e+01 1.0566000000e-01 0.0000e+00 1.0000e+00
      994  1    1    2    0    0 -1.8555225327e+00 -4.7536739775e+01 +3.5746749086e+01 1.4388194697e+02 1.3100000000e+02 0.0000e+00 0.0000e+00
      997  1    1    2    0    0 +8.4639597397e+00 +8.0434457892e+00 +3.8966140492e+02 4.0245788117e+02 1.0000000000e+02 0.0000e+00 0.0000e+00
</event>
<event>
 5      1 +8.5651000e-08 1.96082600e+02 7.95774700e-02 5.11442400e-01
       13 -1    0    0    0    0 +0.0000000000e+00 +0.0000000000e+00 +4.9999998884e+02 5.0000000000e+02 1.0566000000e-01 0.0000e+00 -1.0000e+00
      994 -1    0    0    0    0 -0.0000000000e+00 -0.0000000000e+00 +0.0000000000e+00 1.3100000000e+02 1.3100000000e+02 0.0000e+00 0.0000e+00
       13  1    1    2    0    0 -2.2914382064e+01 +2.7282509661e+01 +1.7906435833e+02 1.8257453225e+02 1.0566000000e-01 0.0000e+00 1.0000e+00
      994  1    1    2    0    0 +3.4530192420e+01 +3.7667072142e+00 +2.9730959245e+01 1.3874960256e+02 1.3100000000e+02 0.0000e+00 0.0000e+00
      997  1    1    2    0    0 -1.1615810356e+01 -3.1049216875e+01 +2.9120467127e+02 3.0967586520e+02 1.0000000000e+02 0.0000e+00 0.0000e+00
</event>
<event>
 5      1 +8.5651000e-08 1.93540900e+02 7.95774700e-02 5.16515400e-01
       13 -1    0    0    0    0 +0.0000000000e+00 +0.0000000000e+00 +4.9999998884e+02 5.0000000000e+02 1.0566000000e-01 0.0000e+00 1.0000e+00
      994 -1    0    0    0    0 -0.0000000000e+00 -0.0000000000e+00 +0.0000000000e+00 1.3100000000e+02 1.3100000000e+02 0.0000e+00 0.0000e+00
       13  1    1    2    0    0 +2.3149510375e+01 -5.5044892507e+00 +7.6346678403e+01 7.9968904580e+01 1.0566000000e-01 0.0000e+00 -1.0000e+00
      994  1    1    2    0    0 +1.4152725413e+00 -8.6802069998e+00 +1.8301883126e+01 1.3256435387e+02 1.3100000000e+02 0.0000e+00 0.0000e+00
      997  1    1    2    0    0 -2.4564782916e+01 +1.4184696250e+01 +4.0535142731e+02 4.1846674155e+02 1.0000000000e+02 0.0000e+00 0.0000e+00
</event>
<event>
 5      1 +8.5651000e-08 1.92471800e+02 7.95774700e-02 5.18702400e-01
       13 -1    0    0    0    0 +0.0000000000e+00 +0.0000000000e+00 +4.9999998884e+02 5.0000000000e+02 1.0566000000e-01 0.0000e+00 1.0000e+00
      994 -1    0    0    0    0 -0.0000000000e+00 -0.0000000000e+00 +0.0000000000e+00 1.3100000000e+02 1.3100000000e+02 0.0000e+00 0.0000e+00
       13  1    1    2    0    0 -3.4986922667e+01 +4.4724583671e+00 +1.5105508634e+02 1.5511846413e+02 1.0566000000e-01 0.0000e+00 -1.0000e+00
      994  1    1    2    0    0 +3.7949189603e+01 -5.3189318957e-02 +2.7410024737e+01 1.3911309527e+02 1.3100000000e+02 0.0000e+00 0.0000e+00
      997  1    1    2    0    0 -2.9622669357e+00 -4.4192690482e+00 +3.2153487776e+02 3.3676844059e+02 1.0000000000e+02 0.0000e+00 0.0000e+00
</event>
<event>
 5      1 +8.5651000e-08 2.09796100e+02 7.95774700e-02 4.86794400e-01
       13 -1    0    0    0    0 +0.0000000000e+00 +0.0000000000e+00 +4.9999998884e+02 5.0000000000e+02 1.0566000000e-01 0.0000e+00 -1.0000e+00
      994 -1    0    0    0    0 -0.0000000000e+00 -0.0000000000e+00 +0.0000000000e+00 1.3100000000e+02 1.3100000000e+02 0.0000e+00 0.0000e+00
       13  1    1    2    0    0 -3.6311478244e+01 +2.7877807810e+01 +4.5868070316e+01 6.4804217912e+01 1.0566000000e-01 0.0000e+00 1.0000e+00
      994  1    1    2    0    0 +2.7488603481e+00 -1.6750597684e+01 +3.9006245818e+01 1.3773389550e+02 1.3100000000e+02 0.0000e+00 0.0000e+00
      997  1    1    2    0    0 +3.3562617896e+01 -1.1127210126e+01 +4.1512567270e+02 4.2846188659e+02 1.0000000000e+02 0.0000e+00 0.0000e+00
</event>
<event>
 5      1 +8.5651000e-08 1.93488500e+02 7.95774700e-02 5.16621900e-01
       13 -1    0    0    0    0 +0.0000000000e+00 +0.0000000000e+00 +4.9999998884e+02 5.0000000000e+02 1.0566000000e-01 0.0000e+00 -1.0000e+00
      994 -1    0    0    0    0 -0.0000000000e+00 -0.0000000000e+00 +0.0000000000e+00 1.3100000000e+02 1.3100000000e+02 0.0000e+00 0.0000e+00
       13  1    1    2    0    0 -1.3578850139e+01 -5.4679725530e+00 +1.6985767078e+01 2.2423455180e+01 1.0566000000e-01 0.0000e+00 1.0000e+00
      994  1    1    2    0    0 -6.2762921938e+00 -1.9199726613e+01 +2.0265688401e+01 1.3408847628e+02 1.3100000000e+02 0.0000e+00 0.0000e+00
      997  1    1    2    0    0 +1.9855142333e+01 +2.4667699166e+01 +4.6274853336e+02 4.7448806854e+02 1.0000000000e+02 0.0000e+00 0.0000e+00
</event>
<event>
 5      1 +8.5651000e-08 1.96618400e+02 7.95774700e-02 5.10394900e-01
       13 -1    0    0    0    0 +0.0000000000e+00 +0.0000000000e+00 +4.9999998884e+02 5.0000000000e+02 1.0566000000e-01 0.0000e+00 1.0000e+00
      994 -1    0    0    0    0 -0.0000000000e+00 -0.0000000000e+00 +0.0000000000e+00 1.3100000000e+02 1.3100000000e+02 0.0000e+00 0.0000e+00
       13  1    1    2    0    0 -1.2453259386e+01 -1.2756864087e+00 +1.6177076493e+00 1.2622962696e+01 1.0566000000e-01 0.0000e+00 -1.0000e+00
      994  1    1    2    0    0 +2.4820644745e+01 -1.3270987939e+01 +2.7715900113e+01 1.3682600135e+02 1.3100000000e+02 0.0000e+00 0.0000e+00
      997  1    1    2    0    0 -1.2367385359e+01 +1.4546674348e+01 +4.7066638107e+02 4.8155103595e+02 1.0000000000e+02 0.0000e+00 0.0000e+00
</event>
<event>
 5      1 +8.5651000e-08 2.04952000e+02 7.95774700e-02 4.95016300e-01
       13 -1    0    0    0    0 +0.0000000000e+00 +0.0000000000e+00 +4.9999998884e+02 5.0000000000e+02 1.0566000000e-01 0.0000e+00 -1.0000e+00
      994 -1    0    0    0    0 -0.0000000000e+00 -0.0000000000e+00 +0.0000000000e+00 1.3100000000e+02 1.3100000000e+02 0.0000e+00 0.0000e+00
       13  1    1    2    0    0 +2.1680377674e+01 +9.6847162946e+00 +8.7953201674e+00 2.5321953453e+01 1.0566000000e-01 0.0000e+00 1.0000e+00
      994  1    1    2    0    0 -2.4535446917e+00 -2.7484121759e-01 +3.1528042035e+01 1.3476317321e+02 1.3100000000e+02 0.0000e+00 0.0000e+00
      997  1    1    2    0    0 -1.9226832983e+01 -9.4098750771e+00 +4.5967662663e+02 4.7091487334e+02 1.0000000000e+02 0.0000e+00 0.0000e+00
</event>
<event>
 5      1 +8.5651000e-08 1.98779100e+02 7.95774700e-02 5.06246300e-01
       13 -1    0    0    0    0 +0.0000000000e+00 +0.0000000000e+00 +4.9999998884e+02 5.0000000000e+02 1.0566000000e-01 0.0000e+00 1.0000e+00
      994 -1    0    0    0    0 -0.0000000000e+00 -0.0000000000e+00 +0.0000000000e+00 1.3100000000e+02 1.3100000000e+02 0.0000e+00 0.0000e+00
       13  1    1    2    0    0 -6.7150877028e+00 -8.8933150625e+00 +3.0181371136e+01 3.2173122064e+01 1.0566000000e-01 0.0000e+00 -1.0000e+00
      994  1    1    2    0    0 +2.5338639424e+01 +8.0283775275e+00 +1.7026993934e+01 1.3474947130e+02 1.3100000000e+02 0.0000e+00 0.0000e+00
      997  1    1    2    0    0 -1.8623551722e+01 +8.6493753505e-01 +4.5279162377e+02 4.6407740663e+02 1.0000000000e+02 0.0000e+00 0.0000e+00
</event>
<event>
 5      1 +8.5651000e-08 1.94353400e+02 7.95774700e-02 5.14874600e-01
       13 -1    0    0    0    0 +0.0000000000e+00 +0.0000000000e+00 +4.9999998884e+02 5.0000000000e+02 1.0566000000e-01 0.0000e+00 -1.0000e+00
      994 -1    0    0    0    0 -0.0000000000e+00 -0.0000000000e+00 +0.0000000000e+00 1.3100000000e+02 1.3100000000e+02 0.0000e+00 0.0000e+00
       13  1    1    2    0    0 -1.7835958755e+01 +4.3033456316e+00 +2.4352781436e+01 3.0491135368e+01 1.0566000000e-01 0.0000e+00 1.0000e+00
      994  1    1    2    0    0 +2.9657431819e+01 -1.6980261950e+01 +2.3870482355e+01 1.3747251538e+02 1.3100000000e+02 0.0000e+00 0.0000e+00
      997  1    1    2    0    0 -1.1821473064e+01 +1.2676916318e+01 +4.5177672505e+02 4.6303634925e+02 1.0000000000e+02 0.0000e+00 0.0000e+00
</event>
<event>
 5      1 +8.5651000e-08 1.95806200e+02 7.95774700e-02 5.11985700e-01
       13 -1    0    0    0    0 +0.0000000000e+00 +0.0000000000e+00 +4.9999998884e+02 5.0000000000e+02 1.0566000000e-01 0.0000e+00 1.0000e+00
      994 -1    0    0    0    0 -0.0000000000e+00 -0.0000000000e+00 +0.0000000000e+00 1.3100000000e+02 1.3100000000e+02 0.0000e+00 0.0000e+00
       13  1    1    2    0    0 +1.9619462039e+01 -1.8597910575e+01 +7.2449608223e+01 7.7328923853e+01 1.0566000000e-01 0.0000e+00 -1.0000e+00
      994  1    1    2    0    0 -4.0626124362e+01 +3.1965229643e+01 +3.1336726704e+01 1.4427490540e+02 1.3100000000e+02 0.0000e+00 0.0000e+00
      997  1    1    2    0    0 +2.1006662323e+01 -1.3367319068e+01 +3.9621365391e+02 4.0939617075e+02 1.0000000000e+02 0.0000e+00 0.0000e+00
</event>
<event>
 5      1 +8.5651000e-08 1.99140800e+02 7.95774700e-02 5.05563200e-01
       13 -1    0    0    0    0 +0.0000000000e+00 +0.0000000000e+00 +4.9999998884e+02 5.0000000000e+02 1.0566000000e-01 0.0000e+00 -1.0000e+00
      994 -1    0    0    0    0 -0.0000000000e+00 -0.0000000000e+00 +0.0000000000e+00 1.3100000000e+02 1.3100000000e+02 0.0000e+00 0.0000e+00
       13  1    1    2    0    0 -2.0369552197e+01 +1.6611493985e+01 +1.8198462094e+01 3.1969603935e+01 1.0566000000e-01 0.0000e+00 1.0000e+00
      994  1    1    2    0    0 +1.7919990875e+01 -3.9982977123e+01 +3.7674884500e+01 1.4317877446e+02 1.3100000000e+02 0.0000e+00 0.0000e+00
      997  1    1    2    0    0 +2.4495613228e+00 +2.3371483138e+01 +4.4412664224e+02 4.5585162161e+02 1.0000000000e+02 0.0000e+00 0.0000e+00
</event>
<event>
 5      1 +8.5651000e-08 1.95820700e+02 7.95774700e-02 5.11957100e-01
       13 -1    0    0    0    0 +0.0000000000e+00 +0.0000000000e+00 +4.9999998884e+02 5.0000000000e+02 1.0566000000e-01 0.0000e+00 -1.0000e+00
      994 -1    0    0    0    0 -0.0000000000e+00 -0.0000000000e+00 +0.0000000000e+00 1.3100000000e+02 1.3100000000e+02 0.0000e+00 0.0000e+00
       13  1    1    2    0    0 -1.0022472847e+01 -1.5389182836e+01 +3.4321826658e+01 3.8926544407e+01 1.0566000000e-01 0.0000e+00 1.0000e+00
      994  1    1    2    0    0 +1.7917613040e+01 +2.3250528916e+01 +2.0668140304e+01 1.3583004077e+02 1.3100000000e+02 0.0000e+00 0.0000e+00
      997  1    1    2    0    0 -7.8951401929e+00 -7.8613460804e+00 +4.4501002187e+02 4.5624341482e+02 1.0000000000e+02 0.0000e+00 0.0000e+00
</event>
<event>
 5      1 +8.5651000e-08 1.94322500e+02 7.95774700e-02 5.14936700e-01
       13 -1    0    0    0    0 +0.0000000000e+00 +0.0000000000e+00 +4.9999998884e+02 5.0000000000e+02 1.0566000000e-01 0.0000e+00 1.0000e+00
      994 -1    0    0    0    0 -0.0000000000e+00 -0.0000000000e+00 +0.0000000000e+00 1.3100000000e+02 1.3100000000e+02 0.0000e+00 0.0000e+00
       13  1    1    2    0    0 -2.9824434132e+01 +1.2749063688e+01 +5.8016276667e+01 6.6467548612e+01 1.0566000000e-01 0.0000e+00 -1.0000e+00
      994  1    1    2    0    0 +4.2772356278e+01 +1.5009782828e+01 +3.3144867480e+01 1.4252841921e+02 1.3100000000e+02 0.0000e+00 0.0000e+00
      997  1    1    2    0    0 -1.2947922146e+01 -2.7758846516e+01 +4.0883884469e+02 4.2200403218e+02 1.0000000000e+02 0.0000e+00 0.0000e+00
</event>
<event>
 5      1 +8.5651000e-08 2.07585400e+02 7.95774700e-02 4.90485800e-01
       13 -1    0    0    0    0 +0.0000000000e+00 +0.0000000000e+00 +4.9999998884e+02 5.0000000000e+02 1.0566000000e-01 0.0000e+00 1.0000e+00
      994 -1    0    0    0    0 -0.0000000000e+00 -0.0000000000e+00 +0.0000000000e+00 1.3100000000e+02 1.3100000000e+02 0.0000e+00 0.0000e+00
       13  1    1    2    0    0 -6.5968553310e+01 -2.3403589071e+01 +1.6862574954e+02 1.8257664850e+02 1.0566000000e-01 0.0000e+00 -1.0000e+00
      994  1    1    2    0    0 +3.6128207856e+01 +8.9069821984e+01 +1.1389246989e+02 1.9842171073e+02 1.3100000000e+02 0.0000e+00 0.0000e+00
      997  1    1    2    0    0 +2.9840345454e+01 -6.5666232913e+01 +2.1748176941e+02 2.5000164077e+02 1.0000000000e+02 0.0000e+00 0.0000e+00
</event>
<event>
 5      1 +8.5651000e-08 1.92727800e+02 7.95774700e-02 5.18175900e-01
       13 -1    0    0    0    0 +0.0000000000e+00 +0.0000000000e+00 +4.9999998884e+02 5.0000000000e+02 1.0566000000e-01 0.0000e+00 1.0000e+00
      994 -1    0    0    0    0 -0.0000000000e+00 -0.0000000000e+00 +0.0000000000e+00 1.3100000000e+02 1.3100000000e+02 0.0000e+00 0.0000e+00
       13  1    1    2    0    0 +1.1373080235e+01 -2.6586784432e+01 +6.3318340637e+01 6.9609104904e+01 1.0566000000e-01 0.0000e+00 -1.0000e+00
      994  1    1    2    0    0 -1.0639877429e+01 +2.5213425888e+01 +2.2998253828e+01 1.3578970328e+02 1.3100000000e+02 0.0000e+00 0.0000e+00
      997  1    1    2    0    0 -7.3320280526e-01 +1.3733585445e+00 +4.1368339437e+02 4.2560119182e+02 1.0000000000e+02 0.0000e+00 0.0000e+00
</event>
<event>
 5      1 +8.5651000e-08 2.08349500e+02 7.95774700e-02 4.89198700e-01
       13 -1    0    0    0    0 +0.0000000000e+00 +0.0000000000e+00 +4.9999998884e+02 5.0000000000e+02 1.0566000000e-01 0.0000e+00 1.0000e+00
      994 -1    0    0    0    0 -0.0000000000e+00 -0.0000000000e+00 +0.0000000000e+00 1.3100000000e+02 1.3100000000e+02 0.0000e+00 0.0000e+00
       13  1    1    2    0    0 -3.2366958487e+01 -4.6043564651e+01 +1.4630057700e+02 1.5675298990e+02 1.0566000000e-01 0.0000e+00 -1.0000e+00
      994  1    1    2    0    0 -1.9366877385e+01 +1.4723544036e+01 +3.9429252917e+01 1.3895151915e+02 1.3100000000e+02 0.0000e+00 0.0000e+00
      997  1    1    2    0    0 +5.1733835872e+01 +3.1320020615e+01 +3.1427015892e+02 3.3529549095e+02 1.0000000000e+02 0.0000e+00 0.0000e+00
</event>
<event>
 5      1 +8.5651000e-08 1.94496700e+02 7.95774700e-02 5.14587200e-01
       13 -1    0    0    0    0 +0.0000000000e+00 +0.0000000000e+00 +4.9999998884e+02 5.0000000000e+02 1.0566000000e-01 0.0000e+00 -1.0000e+00
      994 -1    0    0    0    0 -0.0000000000e+00 -0.0000000000e+00 +0.0000000000e+00 1.3100000000e+02 1.3100000000e+02 0.0000e+00 0.0000e+00
       13  1    1    2    0    0 +1.2480874787e+01 +2.8542822579e+01 +1.3078239152e+02 1.3444147445e+02 1.0566000000e-01 0.0000e+00 1.0000e+00
      994  1    1    2    0    0 -9.7952063729e+01 -1.4033932884e+01 +8.9200538817e+01 1.8684029059e+02 1.3100000000e+02 0.0000e+00 0.0000e+00
      997  1    1    2    0    0 +8.5471188942e+01 -1.4508889695e+01 +2.8001705850e+02 3.0971823496e+02 1.0000000000e+02 0.0000e+00 0.0000e+00
</event>
<event>
 5      1 +8.5651000e-08 1.93787100e+02 7.95774700e-02 5.16016400e-01
       13 -1    0    0    0    0 +0.0000000000e+00 +0.0000000000e+00 +4.9999998884e+02 5.0000000000e+02 1.0566000000e-01 0.0000e+00 1.0000e+00
      994 -1    0    0    0    0 -0.0000000000e+00 -0.0000000000e+00 +0.0000000000e+00 1.3100000000e+02 1.3100000000e+02 0.0000e+00 0.0000e+00
       13  1    1    2    0    0 -1.1245345764e+01 -1.2234542700e+01 +1.6910427612e+01 2.3708976411e+01 1.0566000000e-01 0.0000e+00 -1.0000e+00
      994  1    1    2    0    0 +4.6429342299e+01 +4.4207487558e+00 +3.0465689698e+01 1.4235302980e+02 1.3100000000e+02 0.0000e+00 0.0000e+00
      997  1    1    2    0    0 -3.5183996535e+01 +7.8137939443e+00 +4.5262387153e+02 4.6493799378e+02 1.0000000000e+02 0.0000e+00 0.0000e+00
</event>
<event>
 5      1 +8.5651000e-08 1.93191300e+02 7.95774700e-02 5.17227000e-01
       13 -1    0    0    0    0 +0.0000000000e+00 +0.0000000000e+00 +4.9999998884e+02 5.0000000000e+02 1.0566000000e-01 0.0000e+00 1.0000e+00
      994 -1    0    0    0    0 -0.0000000000e+00 -0.0000000000e+00 +0.0000000000e+00 1.3100000000e+02 1.3100000000e+02 0.0000e+00 0.0000e+00
       13  1    1    2    0    0 +2.7166777584e+01 +1.4088985289e+01 +9.8835053380e+01 1.0346454587e+02 1.0566000000e-01 0.0000e+00 -1.0000e+00
      994  1    1    2    0    0 -1.2647081856e+01 +6.3124189861e+00 +2.0730242429e+01 1.3338117657e+02 1.3100000000e+02 0.0000e+00 0.0000e+00
      997  1    1    2    0    0 -1.4519695729e+01 -2.0401404275e+01 +3.8043469303e+02 3.9415427756e+02 1.0000000000e+02 0.0000e+00 0.0000e+00
</event>
<event>
 5      1 +8.5651000e-08 2.09605800e+02 7.95774700e-02 4.87108200e-01
       13 -1    0    0    0    0 +0.0000000000e+00 +0.0000000000e+00 +4.9999998884e+02 5.0000000000e+02 1.0566000000e-01 0.0000e+00 1.0000e+00
      994 -1    0    0    0    0 -0.0000000000e+00 -0.0000000000e+00 +0.0000000000e+00 1.3100000000e+02 1.3100000000e+02 0.0000e+00 0.0000e+00
       13  1    1    2    0    0 +4.1298258099e+01 +2.9970995064e+01 +8.1000635850e+01 9.5733593055e+01 1.0566000000e-01 0.0000e+00 -1.0000e+00
      994  1    1    2    0    0 -1.8282867399e+01 +3.4085791221e+01 +4.7573723462e+01 1.4463873467e+02 1.3100000000e+02 0.0000e+00 0.0000e+00
      997  1    1    2    0    0 -2.3015390700e+01 -6.4056786285e+01 +3.7142562952e+02 3.9062767227e+02 1.0000000000e+02 0.0000e+00 0.0000e+00
</event>
<event>
 5      1 +8.5651000e-08 1.95438500e+02 7.95774700e-02 5.12711400e-01
       13 -1    0    0    0    0 +0.0000000000e+00 +0.0000000000e+00 +4.9999998884e+02 5.0000000000e+02 1.0566000000e-01 0.0000e+00 1.0000e+00
      994 -1    0    0    0    0 -0.0000000000e+00 -0.0000000000e+00 +0.0000000000e+00 1.3100000000e+02 1.3100000000e+02 0.0000e+00 0.0000e+00
       13  1    1    2    0    0 -2.3402657294e+01 +4.4833081795e+00 +2.7009991484e+01 3.6018540013e+01 1.0566000000e-01 0.0000e+00 -1.0000e+00
      994  1    1    2    0    0 +5.9221176770e+00 -3.3335332645e+01 +2.8681755545e+01 1.3831109493e+02 1.3100000000e+02 0.0000e+00 0.0000e+00
      997  1    1    2    0    0 +1.7480539617e+01 +2.8852024466e+01 +4.4430824181e+02 4.5667036505e+02 1.0000000000e+02 0.0000e+00 0.0000e+00
</event>
<event>
 5      1 +8.5651000e-08 2.10613200e+02 7.95774700e-02 4.85454900e-01
       13 -1    0    0    0    0 +0.0000000000e+00 +0.0000000000e+00 +4.9999998884e+02 5.0000000000e+02 1.0566000000e-01 0.0000e+00 -1.0000e+00
      994 -1    0    0    0    0 -0.0000000000e+00 -0.0000000000e+00 +0.0000000000e+00 1.3100000000e+02 1.3100000000e+02 0.0000e+00 0.0000e+00
       13  1    1    2    0    0 -3.1077201420e+01 -4.2257396561e+01 +8.7082850527e+01 1.0166077922e+02 1.0566000000e-01 0.0000e+00 1.0000e+00
      994  1    1    2    0    0 -1.4864328310e+01 -1.2171758273e+00 +3.9518470903e+01 1.3764134305e+02 1.3100000000e+02 0.0000e+00 0.0000e+00
      997  1    1    2    0    0 +4.5941529730e+01 +4.3474572389e+01 +3.7339866741e+02 3.9169787773e+02 1.0000000000e+02 0.0000e+00 0.0000e+00
</event>
<event>
 5      1 +8.5651000e-08 1.97456300e+02 7.95774700e-02 5.08772100e-01
       13 -1    0    0    0    0 +0.0000000000e+00 +0.0000000000e+00 +4.9999998884e+02 5.0000000000e+02 1.0566000000e-01 0.0000e+00 -1.0000e+00
      994 -1    0    0    0    0 -0.0000000000e+00 -0.0000000000e+00 +0.0000000000e+00 1.3100000000e+02 1.3100000000e+02 0.0000e+00 0.0000e+00
       13  1    1    2    0    0 -4.9754929994e+00 +1.3667642978e+01 +3.7684464342e+01 4.0394182897e+01 1.0566000000e-01 0.0000e+00 1.0000e+00
      994  1    1    2    0    0 -3.1312929889e+00 -1.6845163802e+01 +1.5929044418e+01 1.3307253284e+02 1.3100000000e+02 0.0000e+00 0.0000e+00
      997  1    1    2    0    0 +8.1067859883e+00 +3.1775208236e+00 +4.4638648008e+02 4.5753328427e+02 1.0000000000e+02 0.0000e+00 0.0000e+00
</event>
<event>
 5      1 +8.5651000e-08 1.95269400e+02 7.95774700e-02 5.13046600e-01
       13 -1    0    0    0    0 +0.0000000000e+00 +0.0000000000e+00 +4.9999998884e+02 5.0000000000e+02 1.0566000000e-01 0.0000e+00 -1.0000e+00
      994 -1    0    0    0    0 -0.0000000000e+00 -0.0000000000e+00 +0.0000000000e+00 1.3100000000e+02 1.3100000000e+02 0.0000e+00 0.0000e+00
       13  1    1    2    0    0 +6.0201906864e+00 +1.1812669126e+01 +4.7538632988e+00 1.4085177602e+01 1.0566000000e-01 0.0000e+00 1.0000e+00
      994  1    1    2    0    0 -6.5896169542e+00 -3.3067815338e+00 +2.1871282297e+01 1.3301770876e+02 1.3100000000e+02 0.0000e+00 0.0000e+00
      997  1    1    2    0    0 +5.6942626776e-01 -8.5058875922e+00 +4.7337484324e+02 4.8389711363e+02 1.0000000000e+02 0.0000e+00 0.0000e+00
</event>
<event>
 5      1 +8.5651000e-08 1.97379100e+02 7.95774700e-02 5.08920800e-01
       13 -1    0    0    0    0 +0.0000000000e+00 +0.0000000000e+00 +4.9999998884e+02 5.0000000000e+02 1.0566000000e-01 0.0000e+00 1.0000e+00
      994 -1    0    0    0    0 -0.0000000000e+00 -0.0000000000e+00 +0.0000000000e+00 1.3100000000e+02 1.3100000000e+02 0.0000e+00 0.0000e+00
       13  1    1    2    0    0 -3.8951468824e-01 +1.0169706816e+01 +2.2311926929e+01 2.4523619344e+01 1.0566000000e-01 0.0000e+00 -1.0000e+00
      994  1    1    2    0    0 -6.9307719929e+00 +2.6055224734e+01 +1.8433564992e+01 1.3501002427e+02 1.3100000000e+02 0.0000e+00 0.0000e+00
      997  1    1    2    0    0 +7.3202866812e+00 -3.6224931550e+01 +4.5925449692e+02 4.7146635638e+02 1.0000000000e+02 0.0000e+00 0.0000e+00
</event>
<event>
 5      1 +8.5651000e-08 2.11751400e+02 7.95774700e-02 4.83610600e-01
       13 -1    0    0    0    0 +0.0000000000e+00 +0.0000000000e+00 +4.9999998884e+02 5.0000000000e+02 1.0566000000e-01 0.0000e+00 -1.0000e+00
      994 -1    0    0    0    0 -0.0000000000e+00 -0.0000000000e+00 +0.0000000000e+00 1.3100000000e+02 1.3100000000e+02 0.0000e+00 0.0000e+00
       13  1    1    2    0    0 -3.8969108776e+01 +3.3097667568e+01 +9.5636516188e+01 1.0844538455e+02 1.0566000000e-01 0.0000e+00 1.0000e+00
      994  1    1    2    0    0 -1.5642374996e+01 +2.4204762253e+01 +4.5400283342e+01 1.4160769802e+02 1.3100000000e+02 0.0000e+00 0.0000e+00
      997  1    1    2    0    0 +5.4611483772e+01 -5.7302429821e+01 +3.5896318931e+02 3.8094691743e+02 1.0000000000e+02 0.0000e+00 0.0000e+00
</event>
<event>
 5      1 +8.5651000e-08 2.09455600e+02 7.95774700e-02 4.87356500e-01
       13 -1    0    0    0    0 +0.0000000000e+00 +0.0000000000e+00 +4.9999998884e+02 5.0000000000e+02 1.0566000000e-01 0.0000e+00 -1.0000e+00
      994 -1    0    0    0    0 -0.0000000000e+00 -0.0000000000e+00 +0.0000000000e+00 1.3100000000e+02 1.3100000000e+02 0.0000e+00 0.0000e+00
       13  1    1    2    0    0 -5.2719048850e+01 -5.0329337620e+00 +4.0242224935e+01 6.6513730655e+01 1.0566000000e-01 0.0000e+00 1.0000e+00
      994  1    1    2    0    0 +6.9483896263e+01 -4.6718981703e+01 +9.4591330181e+01 1.8198679852e+02 1.3100000000e+02 0.0000e+00 0.0000e+00
      997  1    1    2    0    0 -1.6764847413e+01 +5.1751915465e+01 +3.6516643372e+02 3.8249947082e+02 1.0000000000e+02 0.0000e+00 0.0000e+00
</event>
<event>
 5      1 +8.5651000e-08 1.98504700e+02 7.95774700e-02 5.06766500e-01
       13 -1    0    0    0    0 +0.0000000000e+00 +0.0000000000e+00 +4.9999998884e+02 5.0000000000e+02 1.0566000000e-01 0.0000e+00 1.0000e+00
      994 -1    0    0    0    0 -0.0000000000e+00 -0.0000000000e+00 +0.0000000000e+00 1.3100000000e+02 1.3100000000e+02 0.0000e+00 0.0000e+00
       13  1    1    2    0    0 +8.8210894223e+00 -6.7818443909e+00 +3.1848055305e+01 3.3735957414e+01 1.0566000000e-01 0.0000e+00 -1.0000e+00
      994  1    1    2    0    0 +4.6051348503e+00 +2.1847144163e+01 +1.6119703927e+01 1.3386317578e+02 1.3100000000e+02 0.0000e+00 0.0000e+00
      997  1    1    2    0    0 -1.3426224273e+01 -1.5065299772e+01 +4.5203222960e+02 4.6340086681e+02 1.0000000000e+02 0.0000e+00 0.0000e+00
</event>
<event>
 5      1 +8.5651000e-08 1.98755700e+02 7.95774700e-02 5.06290500e-01
       13 -1    0    0    0    0 +0.0000000000e+00 +0.0000000000e+00 +4.9999998884e+02 5.0000000000e+02 1.0566000000e-01 0.0000e+00 1.0000e+00
      994 -1    0    0    0    0 -0.0000000000e+00 -0.0000000000e+00 +0.0000000000e+00 1.3100000000e+02 1.3100000000e+02 0.0000e+00 0.0000e+00
       13  1    1    2    0    0 +1.1698793374e+01 +7.3392296369e+00 +2.6568777588e+00 1.4064004463e+01 1.0566000000e-01 0.0000e+00 -1.0000e+00
      994  1    1    2    0    0 +2.3238069840e+01 +3.4184225612e+00 +2.8436252567e+01 1.3609303422e+02 1.3100000000e+02 0.0000e+00 0.0000e+00
      997  1    1    2    0    0 -3.4936863214e+01 -1.0757652198e+01 +4.6890685851e+02 4.8084296132e+02 1.0000000000e+02 0.0000e+00 0.0000e+00
</event>
<event>
 5      1 +8.5651000e-08 2.11451100e+02 7.95774700e-02 4.84094700e-01
       13 -1    0    0    0    0 +0.0000000000e+00 +0.0000000000e+00 +4.9999998884e+02 5.0000000000e+02 1.0566000000e-01 0.0000e+00 1.0000e+00
      994 -1    0    0    0    0 -0.0000000000e+00 -0.0000000000e+00 +0.0000000000e+00 1.3100000000e+02 1.3100000000e+02 0.0000e+00 0.0000e+00
       13  1    1    2    0    0 -4.3945351490e+01 -3.1215685113e+01 +6.4691189707e+01 8.4205546755e+01 1.0566000000e-01 0.0000e+00 -1.0000e+00
      994  1    1    2    0    0 -2.8576102306e+01 +6.6524872664e+01 +8.1599004135e+01 1.7047448425e+02 1.3100000000e+02 0.0000e+00 0.0000e+00
      997  1    1    2    0    0 +7.2521453796e+01 -3.5309187550e+01 +3.5370979499e+02 3.7631996899e+02 1.0000000000e+02 0.0000e+00 0.0000e+00
</event>
<event>
 5      1 +8.5651000e-08 2.02057700e+02 7.95774700e-02 5.00171100e-01
       13 -1    0    0    0    0 +0.0000000000e+00 +0.0000000000e+00 +4.9999998884e+02 5.0000000000e+02 1.0566000000e-01 0.0000e+00 1.0000e+00
      994 -1    0    0    0    0 -0.0000000000e+00 -0.0000000000e+00 +0.0000000000e+00 1.3100000000e+02 1.3100000000e+02 0.0000e+00 0.0000e+00
       13  1    1    2    0    0 +1.7099327197e+01 -1.8433160986e+01 +1.7633458069e+01 3.0710233181e+01 1.0566000000e-01 0.0000e+00 -1.0000e+00
      994  1    1    2    0    0 +1.1264545396e+01 -7.8858666062e+00 +2.9606311920e+01 1.3500596498e+02 1.3100000000e+02 0.0000e+00 0.0000e+00
      997  1    1    2    0    0 -2.8363872592e+01 +2.6319027592e+01 +4.5276021885e+02 4.6528380184e+02 1.0000000000e+02 0.0000e+00 0.0000e+00
</event>
<event>
 5      1 +8.5651000e-08 1.96641200e+02 7.95774700e-02 5.10350600e-01
       13 -1    0    0    0    0 +0.0000000000e+00 +0.0000000000e+00 +4.9999998884e+02 5.0000000000e+02 1.0566000000e-01 0.0000e+00 1.0000e+00
      994 -1    0    0    0    0 -0.0000000000e+00 -0.0000000000e+00 +0.0000000000e+00 1.3100000000e+02 1.3100000000e+02 0.0000e+00 0.0000e+00
       13  1    1    2    0    0 -1.3808182985e+01 -6.7292081107e+00 +3.0549751151e+01 3.4194248325e+01 1.0566000000e-01 0.0000e+00 -1.0000e+00
      994  1    1    2    0    0 +2.2794403206e+01 -3.4242672295e+00 +1.8012933046e+01 1.3422658522e+02 1.3100000000e+02 0.0000e+00 0.0000e+00
      997  1    1    2    0    0 -8.9862202203e+00 +1.0153475340e+01 +4.5143730464e+02 4.6257916645e+02 1.0000000000e+02 0.0000e+00 0.0000e+00
</event>
<event>
 5      1 +8.5651000e-08 1.94457400e+02 7.95774700e-02 5.14666000e-01
       13 -1    0    0    0    0 +0.0000000000e+00 +0.0000000000e+00 +4.9999998884e+02 5.0000000000e+02 1.0566000000e-01 0.0000e+00 -1.0000e+00
      994 -1    0    0    0    0 -0.0000000000e+00 -0.0000000000e+00 +0.0000000000e+00 1.3100000000e+02 1.3100000000e+02 0.0000e+00 0.0000e+00
       13  1    1    2    0    0 +6.0017584946e-01 -2.2034733531e+01 +4.6385352965e+01 5.1356614244e+01 1.0566000000e-01 0.0000e+00 1.0000e+00
      994  1    1    2    0    0 -1.5431619912e+01 +1.8940299304e+01 +2.0439221759e+01 1.3481703014e+02 1.3100000000e+02 0.0000e+00 0.0000e+00
      997  1    1    2    0    0 +1.4831444062e+01 +3.0944342264e+00 +4.3317541411e+02 4.4482635561e+02 1.0000000000e+02 0.0000e+00 0.0000e+00
</event>
<event>
 5      1 +8.5651000e-08 2.11018800e+02 7.95774700e-02 4.84794700e-01
       13 -1    0    0    0    0 +0.0000000000e+00 +0.0000000000e+00 +4.9999998884e+02 5.0000000000e+02 1.0566000000e-01 0.0000e+00 -1.0000e+00
      994 -1    0    0    0    0 -0.0000000000e+00 -0.0000000000e+00 +0.0000000000e+00 1.3100000000e+02 1.3100000000e+02 0.0000e+00 0.0000e+00
       13  1    1    2    0    0 +3.9334254404e+01 -9.1238963059e+00 +2.2107431736e+01 4.6034538722e+01 1.0566000000e-01 0.0000e+00 1.0000e+00
      994  1    1    2    0    0 -3.3674199670e+01 +3.1095535229e+01 +5.4124536543e+01 1.4896761222e+02 1.3100000000e+02 0.0000e+00 0.0000e+00
      997  1    1    2    0    0 -5.6600547342e+00 -2.1971638923e+01 +4.2376802056e+02 4.3599784906e+02 1.0000000000e+02 0.0000e+00 0.0000e+00
</event>
<event>
 5      1 +8.5651000e-08 1.99490600e+02 7.95774700e-02 5.04905700e-01
       13 -1    0    0    0    0 +0.0000000000e+00 +0.0000000000e+00 +4.9999998884e+02 5.0000000000e+02 1.0566000000e-01 0.0000e+00 1.0000e+00
      994 -1    0    0    0    0 -0.0000000000e+00 -0.0000000000e+00 +0.0000000000e+00 1.3100000000e+02 1.3100000000e+02 0.0000e+00 0.0000e+00
       13  1    1    2    0    0 -1.2805902546e+01 +6.9539104793e+00 +2.3807622678e+00 1.4765744275e+01 1.0566000000e-01 0.0000e+00 -1.0000e+00
      994  1    1    2    0    0 +1.6989599521e+00 +1.5246234862e+01 +2.7209269886e+01 1.3467248609e+02 1.3100000000e+02 0.0000e+00 0.0000e+00
      997  1    1    2    0    0 +1.1106942594e+01 -2.2200145341e+01 +4.7040995668e+02 4.8156176963e+02 1.0000000000e+02 0.0000e+00 0.0000e+00
</event>
<event>
 5      1 +8.5651000e-08 1.92696200e+02 7.95774700e-02 5.18240800e-01
       13 -1    0    0    0    0 +0.0000000000e+00 +0.0000000000e+00 +4.9999998884e+02 5.0000000000e+02 1.0566000000e-01 0.0000e+00 -1.0000e+00
      994 -1    0    0    0    0 -0.0000000000e+00 -0.0000000000e+00 +0.0000000000e+00 1.3100000000e+02 1.3100000000e+02 0.0000e+00 0.0000e+00
       13  1    1    2    0    0 +8.1113344850e+00 +7.8317722344e+00 +5.5532610101e+00 1.2569020461e+01 1.0566000000e-01 0.0000e+00 1.0000e+00
      994  1    1    2    0    0 -1.2778551356e+01 +2.5691124718e-01 +1.9593305688e+01 1.3307236755e+02 1.3100000000e+02 0.0000e+00 0.0000e+00
      997  1    1    2    0    0 +4.6672168705e+00 -8.0886834816e+00 +4.7485342214e+02 4.8535861199e+02 1.0000000000e+02 0.0000e+00 0.0000e+00
</event>
<event>
 5      1 +8.5651000e-08 1.98882800e+02 7.95774700e-02 5.06050000e-01
       13 -1    0    0    0    0 +0.0000000000e+00 +0.0000000000e+00 +4.9999998884e+02 5.0000000000e+02 1.0566000000e-01 0.0000e+00 -1.0000e+00
      994 -1    0    0    0    0 -0.0000000000e+00 -0.0000000000e+00 +0.0000000000e+00 1.3100000000e+02 1.3100000000e+02 0.0000e+00 0.0000e+00
       13  1    1    2    0    0 -1.5353570229e+00 -1.8801077389e+01 +6.6077981931e+00 1.9987796106e+01 1.0566000000e-01 0.0000e+00 1.0000e+00
      994  1    1    2    0    0 +6.5808061784e+00 +3.5555238396e+01 +3.3389606569e+01 1.3994051527e+02 1.3100000000e+02 0.0000e+00 0.0000e+00
      997  1    1    2    0    0 -5.0454491555e+00 -1.6754161007e+01 +4.6000258407e+02 4.7107168862e+02 1.0000000000e+02 0.0000e+00 0.0000e+00
</event>
<event>
 5      1 +8.5651000e-08 2.07963000e+02 7.95774700e-02 4.89848300e-01
       13 -1    0    0    0    0 +0.0000000000e+00 +0.0000000000e+00 +4.9999998884e+02 5.0000000000e+02 1.0566000000e-01 0.0000e+00 1.0000e+00
      994 -1    0    0    0    0 -0.0000000000e+00 -0.0000000000e+00 +0.0000000000e+00 1.3100000000e+02 1.3100000000e+02 0.0000e+00 0.0000e+00
       13  1    1    2    0    0 +2.7161999308e+01 -6.7280735571e+01 +1.2993638284e+02 1.4882186108e+02 1.0566000000e-01 0.0000e+00 -1.0000e+00
      994  1    1    2    0    0 -8.5465376252e+00 +5.6473453479e+01 +5.8793662640e+01 1.5453151465e+02 1.3100000000e+02 0.0000e+00 0.0000e+00
      997  1    1    2    0    0 -1.8615461682e+01 +1.0807282091e+01 +3.1126994335e+02 3.2764662427e+02 1.0000000000e+02 0.0000e+00 0.0000e+00
</event>
<event>
 5      1 +8.5651000e-08 1.93554300e+02 7.95774700e-02 5.16488100e-01
       13 -1    0    0    0    0 +0.0000000000e+00 +0.0000000000e+00 +4.9999998884e+02 5.0000000000e+02 1.0566000000e-01 0.0000e+00 1.0000e+00
      994 -1    0    0    0    0 -0.0000000000e+00 -0.0000000000e+00 +0.0000000000e+00 1.3100000000e+02 1.3100000000e+02 0.0000e+00 0.0000e+00
       13  1    1    2    0    0 +2.2163321788e+01 -6.1655319508e+00 +6.1315334592e+01 6.5488991725e+01 1.0566000000e-01 0.0000e+00 -1.0000e+00
      994  1    1    2    0    0 +9.2057724113e-01 -5.6417784222e+00 +1.8032038244e+01 1.3235872291e+02 1.3100000000e+02 0.0000e+00 0.0000e+00
      997  1    1    2    0    0 -2.3083899029e+01 +1.1807310373e+01 +4.2065261600e+02 4.3315228537e+02 1.0000000000e+02 0.0000e+00 0.0000e+00
</event>
<event>
 5      1 +8.5651000e-08 1.99753700e+02 7.95774700e-02 5.04413300e-01
       13 -1    0    0    0    0 +0.0000000000e+00 +0.0000000000e+00 +4.9999998884e+02 5.0000000000e+02 1.0566000000e-01 0.0000e+00 -1.0000e+00
      994 -1    0    0    0    0 -0.0000000000e+00 -0.0000000000e+00 +0.0000000000e+00 1.3100000000e+02 1.3100000000e+02 0.0000e+00 0.0000e+00
       13  1    1    2    0    0 -1.0132523021e+01 +1.6551838687e+01 +5.6084151095e+00 2.0201407643e+01 1.0566000000e-01 0.0000e+00 1.0000e+00
      994  1    1    2    0    0 +3.0913419605e+01 -3.3250093684e+01 +3.9326782960e+01 1.4411385811e+02 1.3100000000e+02 0.0000e+00 0.0000e+00
      997  1    1    2    0    0 -2.0780896584e+01 +1.6698254998e+01 +4.5506479077e+02 4.6668473425e+02 1.0000000000e+02 0.0000e+00 0.0000e+00
</event>
<event>
 5      1 +8.5651000e-08 2.23485500e+02 7.95774700e-02 4.65956000e-01
       13 -1    0    0    0    0 +0.0000000000e+00 +0.0000000000e+00 +4.9999998884e+02 5.0000000000e+02 1.0566000000e-01 0.0000e+00 1.0000e+00
      994 -1    0    0    0    0 -0.0000000000e+00 -0.0000000000e+00 +0.0000000000e+00 1.3100000000e+02 1.3100000000e+02 0.0000e+00 0.0000e+00
       13  1    1    2    0    0 +2.1299669248e+01 -8.9918037284e-01 -9.8875507240e+00 2.3500196994e+01 1.0566000000e-01 0.0000e+00 -1.0000e+00
      994  1    1    2    0    0 -3.7514751204e+00 -3.4918919285e+01 +6.6167933363e+01 1.5090593062e+02 1.3100000000e+02 0.0000e+00 0.0000e+00
      997  1    1    2    0    0 -1.7548194127e+01 +3.5818099658e+01 +4.4371960620e+02 4.5659387239e+02 1.0000000000e+02 0.0000e+00 0.0000e+00
</event>
<event>
 5      1 +8.5651000e-08 1.98070800e+02 7.95774700e-02 5.07593100e-01
       13 -1    0    0    0    0 +0.0000000000e+00 +0.0000000000e+00 +4.9999998884e+02 5.0000000000e+02 1.0566000000e-01 0.0000e+00 1.0000e+00
      994 -1    0    0    0    0 -0.0000000000e+00 -0.0000000000e+00 +0.0000000000e+00 1.3100000000e+02 1.3100000000e+02 0.0000e+00 0.0000e+00
       13  1    1    2    0    0 -1.1559192862e+01 +1.6431237596e+01 +1.0658778874e+01 2.2742498536e+01 1.0566000000e-01 0.0000e+00 -1.0000e+00
      994  1    1    2    0    0 +2.1402628837e+01 -1.4108073783e+01 +2.8383116557e+01 1.3646872012e+02 1.3100000000e+02 0.0000e+00 0.0000e+00
      997  1    1    2    0    0 -9.8434359756e+00 -2.3231638123e+00 +4.6095809340e+02 4.7178878134e+02 1.0000000000e+02 0.0000e+00 0.0000e+00
</event>
<event>
 5      1 +8.5651000e-08 1.99392700e+02 7.95774700e-02 5.05089400e-01
       13 -1    0    0    0    0 +0.0000000000e+00 +0.0000000000e+00 +4.9999998884e+02 5.0000000000e+02 1.0566000000e-01 0.0000e+00 1.0000e+00
      994 -1    0    0    0    0 -0.0000000000e+00 -0.0000000000e+00 +0.0000000000e+00 1.3100000000e+02 1.3100000000e+02 0.0000e+00 0.0000e+00
       13  1    1    2    0    0 +7.1203591949e+00 +7.7590236246e+00 +5.8813500460e+01 5.9748982946e+01 1.0566000000e-01 0.0000e+00 -1.0000e+00
      994  1    1    2    0    0 -1.7233052351e+01 -2.5440408234e+01 +1.7787078110e+01 1.3572609407e+02 1.3100000000e+02 0.0000e+00 0.0000e+00
      997  1    1    2    0    0 +1.0112693156e+01 +1.7681384609e+01 +4.2339941027e+02 4.3552492298e+02 1.0000000000e+02 0.0000e+00 0.0000e+00
</event>
<event>
 5      1 +8.5651000e-08 1.93005500e+02 7.95774700e-02 5.17606600e-01
       13 -1    0    0    0    0 +0.0000000000e+00 +0.0000000000e+00 +4.9999998884e+02 5.0000000000e+02 1.0566000000e-01 0.0000e+00 1.0000e+00
      994 -1    0    0    0    0 -0.0000000000e+00 -0.0000000000e+00 +0.0000000000e+00 1.3100000000e+02 1.3100000000e+02 0.0000e+00 0.0000e+00
       13  1    1    2    0    0 +1.6951038125e+01 +1.5971432123e+01 +4.1941067012e+01 4.7973832489e+01 1.0566000000e-01 0.0000e+00 -1.0000e+00
      994  1    1    2    0    0 +1.8407734509e+01 -1.8639208967e+01 +2.3428245461e+01 1.3563239836e+02 1.3100000000e+02 0.0000e+00 0.0000e+00
      997  1    1    2    0    0 -3.5358772635e+01 +2.6677768438e+00 +4.3463067636e+02 4.4739376915e+02 1.0000000000e+02 0.0000e+00 0.0000e+00
</event>
<event>
 5      1 +8.5651000e-08 1.92844200e+02 7.95774700e-02 5.17936900e-01
       13 -1    0    0    0    0 +0.0000000000e+00 +0.0000000000e+00 +4.9999998884e+02 5.0000000000e+02 1.0566000000e-01 0.0000e+00 1.0000e+00
      994 -1    0    0    0    0 -0.0000000000e+00 -0.0000000000e+00 +0.0000000000e+00 1.3100000000e+02 1.3100000000e+02 0.0000e+00 0.0000e+00
       13  1    1    2    0    0 +2.0429156111e+01 +4.5746825433e+00 +4.6149647144e+01 5.0676219624e+01 1.0566000000e-01 0.0000e+00 -1.0000e+00
      994  1    1    2    0    0 +2.3017766313e+01 -3.1237668757e+01 +2.7395933187e+01 1.3934542214e+02 1.3100000000e+02 0.0000e+00 0.0000e+00
      997  1    1    2    0    0 -4.3446922424e+01 +2.6662986214e+01 +4.2645440850e+02 4.4097835824e+02 1.0000000000e+02 0.0000e+00 0.0000e+00
</event>
<event>
 5      1 +8.5651000e-08 1.99428100e+02 7.95774700e-02 5.05022900e-01
       13 -1    0    0    0    0 +0.0000000000e+00 +0.0000000000e+00 +4.9999998884e+02 5.0000000000e+02 1.0566000000e-01 0.0000e+00 1.0000e+00
      994 -1    0    0    0    0 -0.0000000000e+00 -0.0000000000e+00 +0.0000000000e+00 1.3100000000e+02 1.3100000000e+02 0.0000e+00 0.0000e+00
       13  1    1    2    0    0 +3.9785563003e+01 -2.4911137403e+01 +5.5915160982e+01 7.3006658476e+01 1.0566000000e-01 0.0000e+00 -1.0000e+00
      994  1    1    2    0    0 -8.8338173331e+01 -3.4976813677e+00 +8.1762264509e+01 1.7793800758e+02 1.3100000000e+02 0.0000e+00 0.0000e+00
      997  1    1    2    0    0 +4.8552610328e+01 +2.8408818771e+01 +3.6232256334e+02 3.8005533395e+02 1.0000000000e+02 0.0000e+00 0.0000e+00
</event>
<event>
 5      1 +8.5651000e-08 1.96160000e+02 7.95774700e-02 5.11290500e-01
       13 -1    0    0    0    0 +0.0000000000e+00 +0.0000000000e+00 +4.9999998884e+02 5.0000000000e+02 1.0566000000e-01 0.0000e+00 1.0000e+00
      994 -1    0    0    0    0 -0.0000000000e+00 -0.0000000000e+00 +0.0000000000e+00 1.3100000000e+02 1.3100000000e+02 0.0000e+00 0.0000e+00
       13  1    1    2    0    0 +3.4939081598e+01 -2.5889338743e+00 +6.8186840264e+01 7.6660931058e+01 1.0566000000e-01 0.0000e+00 -1.0000e+00
      994  1    1    2    0    0 -1.9931781342e+01 -1.8710762264e+01 +2.6967044607e+01 1.3651223398e+02 1.3100000000e+02 0.0000e+00 0.0000e+00
      997  1    1    2    0    0 -1.5007300255e+01 +2.1299696139e+01 +4.0484610397e+02 4.1782683496e+02 1.0000000000e+02 0.0000e+00 0.0000e+00
</event>
<event>
 5      1 +8.5651000e-08 2.03119500e+02 7.95774700e-02 4.98257900e-01
       13 -1    0    0    0    0 +0.0000000000e+00 +0.0000000000e+00 +4.9999998884e+02 5.0000000000e+02 1.0566000000e-01 0.0000e+00 -1.0000e+00
      994 -1    0    0    0    0 -0.0000000000e+00 -0.0000000000e+00 +0.0000000000e+00 1.3100000000e+02 1.3100000000e+02 0.0000e+00 0.0000e+00
       13  1    1    2    0    0 -3.5150176977e+01 -4.7144682778e+00 +2.5968653083e+01 4.3956151556e+01 1.0566000000e-01 0.0000e+00 1.0000e+00
      994  1    1    2    0    0 +5.0526102204e+01 +4.4819814398e-01 +4.6839375418e+01 1.4801356348e+02 1.3100000000e+02 0.0000e+00 0.0000e+00
      997  1    1    2    0    0 -1.5375925227e+01 +4.2662701338e+00 +4.2719196034e+02 4.3903028496e+02 1.0000000000e+02 0.0000e+00 0.0000e+00
</event>
<event>
 5      1 +8.5651000e-08 1.94939800e+02 7.95774700e-02 5.13701600e-01
       13 -1    0    0    0    0 +0.0000000000e+00 +0.0000000000e+00 +4.9999998884e+02 5.0000000000e+02 1.0566000000e-01 0.0000e+00 -1.0000e+00
      994 -1    0    0    0    0 -0.0000000000e+00 -0.0000000000e+00 +0.0000000000e+00 1.3100000000e+02 1.3100000000e+02 0.0000e+00 0.0000e+00
       13  1    1    2    0    0 -1.6824123165e+01 +1.3614715701e+01 +4.8941432359e+01 5.3513424197e+01 1.0566000000e-01 0.0000e+00 1.0000e+00
      994  1    1    2    0    0 +2.4859882791e+01 -1.5116162038e+00 +2.0116137035e+01 1.3485532146e+02 1.3100000000e+02 0.0000e+00 0.0000e+00
      997  1    1    2    0    0 -8.0357596261e+00 -1.2103099497e+01 +4.3094241944e+02 4.4263125435e+02 1.0000000000e+02 0.0000e+00 0.0000e+00
</event>
<event>
 5      1 +8.5651000e-08 1.92694800e+02 7.95774700e-02 5.18243600e-01
       13 -1    0    0    0    0 +0.0000000000e+00 +0.0000000000e+00 +4.9999998884e+02 5.0000000000e+02 1.0566000000e-01 0.0000e+00 -1.0000e+00
      994 -1    0    0    0    0 -0.0000000000e+00 -0.0000000000e+00 +0.0000000000e+00 1.3100000000e+02 1.3100000000e+02 0.0000e+00 0.0000e+00
       13  1    1    2    0    0 -6.2760008966e+00 -1.7267857918e+01 +2.2840405512e+01 2.9313177793e+01 1.0566000000e-01 0.0000e+00 1.0000e+00
      994  1    1    2    0    0 +2.9920464957e+01 -3.2330275165e+00 +2.3959267263e+01 1.3653107038e+02 1.3100000000e+02 0.0000e+00 0.0000e+00
      997  1    1    2    0    0 -2.3644464060e+01 +2.0500885434e+01 +4.5320031606e+02 4.6515575183e+02 1.0000000000e+02 0.0000e+00 0.0000e+00
</event>
<event>
 5      1 +8.5651000e-08 2.03084600e+02 7.95774700e-02 4.98320500e-01
       13 -1    0    0    0    0 +0.0000000000e+00 +0.0000000000e+00 +4.9999998884e+02 5.0000000000e+02 1.0566000000e-01 0.0000e+00 1.0000e+00
      994 -1    0    0    0    0 -0.0000000000e+00 -0.0000000000e+00 +0.0000000000e+00 1.3100000000e+02 1.3100000000e+02 0.0000e+00 0.0000e+00
       13  1    1    2    0    0 +2.0902847454e+01 +3.3498095506e+01 +4.5552989645e+01 6.0283807642e+01 1.0566000000e-01 0.0000e+00 -1.0000e+00
      994  1    1    2    0    0 -4.3602967353e+01 +2.9810911311e+00 +4.2286690904e+01 1.4442738623e+02 1.3100000000e+02 0.0000e+00 0.0000e+00
      997  1    1    2    0    0 +2.2700119899e+01 -3.6479186637e+01 +4.1216030829e+02 4.2628880613e+02 1.0000000000e+02 0.0000e+00 0.0000e+00
</event>
<event>
 5      1 +8.5651000e-08 1.99623000e+02 7.95774700e-02 5.04657700e-01
       13 -1    0    0    0    0 +0.0000000000e+00 +0.0000000000e+00 +4.9999998884e+02 5.0000000000e+02 1.0566000000e-01 0.0000e+00 1.0000e+00
      994 -1    0    0    0    0 -0.0000000000e+00 -0.0000000000e+00 +0.0000000000e+00 1.3100000000e+02 1.3100000000e+02 0.0000e+00 0.0000e+00
       13  1    1    2    0    0 +1.1124720381e-01 +3.3807024425e+01 +3.5609182738e+01 4.9101449426e+01 1.0566000000e-01 0.0000e+00 -1.0000e+00
      994  1    1    2    0    0 +2.0509219658e+01 -3.4690612631e+01 +3.6279509901e+01 1.4177894602e+02 1.3100000000e+02 0.0000e+00 0.0000e+00
      997  1    1    2    0    0 -2.0620466862e+01 +8.8358820642e-01 +4.2811129620e+02 4.4011960456e+02 1.0000000000e+02 0.0000e+00 0.0000e+00
</event>
<event>
 5      1 +8.5651000e-08 1.97481700e+02 7.95774700e-02 5.08723100e-01
       13 -1    0    0    0    0 +0.0000000000e+00 +0.0000000000e+00 +4.9999998884e+02 5.0000000000e+02 1.0566000000e-01 0.0000e+00 -1.0000e+00
      994 -1    0    0    0    0 -0.0000000000e+00 -0.0000000000e+00 +0.0000000000e+00 1.3100000000e+02 1.3100000000e+02 0.0000e+00 0.0000e+00
       13  1    1    2    0    0 -4.2941432590e+01 -5.6278017907e+00 +7.0370238613e+01 8.2629416266e+01 1.0566000000e-01 0.0000e+00 1.0000e+00
      994  1    1    2    0    0 +5.0036521412e+01 +6.9503842404e+00 +3.9915876021e+01 1.4596656629e+02 1.3100000000e+02 0.0000e+00 0.0000e+00
      997  1    1    2    0    0 -7.0950888212e+00 -1.3225824497e+00 +3.8971387420e+02 4.0240401744e+02 1.0000000000e+02 0.0000e+00 0.0000e+00
</event>
<event>
 5      1 +8.5651000e-08 2.13871400e+02 7.95774700e-02 4.80241500e-01
       13 -1    0    0    0    0 +0.0000000000e+00 +0.0000000000e+00 +4.9999998884e+02 5.0000000000e+02 1.0566000000e-01 0.0000e+00 -1.0000e+00
      994 -1    0    0    0    0 -0.0000000000e+00 -0.0000000000e+00 +0.0000000000e+00 1.3100000000e+02 1.3100000000e+02 0.0000e+00 0.0000e+00
       13  1    1    2    0    0 +3.7367436867e+01 -6.5716482624e+01 +1.7448251173e+02 1.9015556655e+02 1.0566000000e-01 0.0000e+00 1.0000e+00
      994  1    1    2    0    0 -1.4513682768e+01 +2.5822278004e+01 +4.8555868869e+01 1.4281494820e+02 1.3100000000e+02 0.0000e+00 0.0000e+00
      997  1    1    2    0    0 -2.2853754099e+01 +3.9894204620e+01 +2.7696160823e+02 2.9802948524e+02 1.0000000000e+02 0.0000e+00 0.0000e+00
</event>
<event>
 5      1 +8.5651000e-08 1.93169500e+02 7.95774700e-02 5.17271500e-01
       13 -1    0    0    0    0 +0.0000000000e+00 +0.0000000000e+00 +4.9999998884e+02 5.0000000000e+02 1.0566000000e-01 0.0000e+00 1.0000e+00
      994 -1    0    0    0    0 -0.0000000000e+00 -0.0000000000e+00 +0.0000000000e+00 1.3100000000e+02 1.3100000000e+02 0.0000e+00 0.0000e+00
       13  1    1    2    0    0 +2.8027789422e+01 -7.4064373248e+00 +1.2165781991e+02 1.2506417794e+02 1.0566000000e-01 0.0000e+00 -1.0000e+00
      994  1    1    2    0    0 -1.8541582821e+01 -2.7466331235e+00 +2.0239213955e+01 1.3387292508e+02 1.3100000000e+02 0.0000e+00 0.0000e+00
      997  1    1    2    0    0 -9.4862066013e+00 +1.0153070448e+01 +3.5810295497e+02 3.7206289699e+02 1.0000000000e+02 0.0000e+00 0.0000e+00
</event>
<event>
 5      1 +8.5651000e-08 1.96303400e+02 7.95774700e-02 5.11009800e-01
       13 -1    0    0    0    0 +0.0000000000e+00 +0.0000000000e+00 +4.9999998884e+02 5.0000000000e+02 1.0566000000e-01 0.0000e+00 -1.0000e+00
      994 -1    0    0    0    0 -0.0000000000e+00 -0.0000000000e+00 +0.0000000000e+00 1.3100000000e+02 1.3100000000e+02 0.0000e+00 0.0000e+00
       13  1    1    2    0    0 -3.0446534439e+00 +1.2648881045e+01 +2.3250865997e+01 2.6643536550e+01 1.0566000000e-01 0.0000e+00 1.0000e+00
      994  1    1    2    0    0 +1.0299151040e+01 +7.9760473461e+00 +1.6282228730e+01 1.3264916440e+02 1.3100000000e+02 0.0000e+00 0.0000e+00
      997  1    1    2    0    0 -7.2544975961e+00 -2.0624928391e+01 +4.6046689411e+02 4.7170729905e+02 1.0000000000e+02 0.0000e+00 0.0000e+00
</event>
<event>
 5      1 +8.5651000e-08 1.99281200e+02 7.95774700e-02 5.05298900e-01
       13 -1    0    0    0    0 +0.0000000000e+00 +0.0000000000e+00 +4.9999998884e+02 5.0000000000e+02 1.0566000000e-01 0.0000e+00 1.0000e+00
      994 -1    0    0    0    0 -0.0000000000e+00 -0.0000000000e+00 +0.0000000000e+00 1.3100000000e+02 1.3100000000e+02 0.0000e+00 0.0000e+00
       13  1    1    2    0    0 -1.5916363295e+01 +1.0161179659e+01 +7.6818050752e+00 2.0386306332e+01 1.0566000000e-01 0.0000e+00 -1.0000e+00
      994  1    1    2    0    0 +1.1248487615e+01 -9.8876748384e+00 +2.6923923827e+01 1.3457411438e+02 1.3100000000e+02 0.0000e+00 0.0000e+00
      997  1    1    2    0    0 +4.6678756803e+00 -2.7350482010e-01 +4.6539425993e+02 4.7603957929e+02 1.0000000000e+02 0.0000e+00 0.0000e+00
</event>
<event>
 5      1 +8.5651000e-08 2.29799600e+02 7.95774700e-02 4.57368700e-01
       13 -1    0    0    0    0 +0.0000000000e+00 +0.0000000000e+00 +4.9999998884e+02 5.0000000000e+02 1.0566000000e-01 0.0000e+00 -1.0000e+00
      994 -1    0    0    0    0 -0.0000000000e+00 -0.0000000000e+00 +0.0000000000e+00 1.3100000000e+02 1.3100000000e+02 0.0000e+00 0.0000e+00
       13  1    1    2    0    0 -2.7965632215e+00 +1.0045368810e+01 -2.1214696161e+01 2.3639050269e+01 1.0566000000e-01 0.0000e+00 1.0000e+00
      994  1    1    2    0    0 +3.7680611258e+01 -5.3398852056e+01 +1.1743908816e+02 1.8768112663e+02 1.3100000000e+02 0.0000e+00 0.0000e+00
      997  1    1    2    0    0 -3.4884048037e+01 +4.3353483246e+01 +4.0377559683e+02 4.1967982310e+02 1.0000000000e+02 0.0000e+00 0.0000e+00
</event>
<event>
 5      1 +8.5651000e-08 1.93471200e+02 7.95774700e-02 5.16656900e-01
       13 -1    0    0    0    0 +0.0000000000e+00 +0.0000000000e+00 +4.9999998884e+02 5.0000000000e+02 1.0566000000e-01 0.0000e+00 1.0000e+00
      994 -1    0    0    0    0 -0.0000000000e+00 -0.0000000000e+00 +0.0000000000e+00 1.3100000000e+02 1.3100000000e+02 0.0000e+00 0.0000e+00
       13  1    1    2    0    0 +6.9742054211e+00 -8.5241219685e+00 +3.7267332859e+00 1.1627549252e+01 1.0566000000e-01 0.0000e+00 -1.0000e+00
      994  1    1    2    0    0 +1.5383987000e+01 +1.5111395866e+01 +2.2569353304e+01 1.3466772832e+02 1.3100000000e+02 0.0000e+00 0.0000e+00
      997  1    1    2    0    0 -2.2358192421e+01 -6.5872738973e+00 +4.7370390225e+02 4.8470472243e+02 1.0000000000e+02 0.0000e+00 0.0000e+00
</event>
<event>
 5      1 +8.5651000e-08 2.09375500e+02 7.95774700e-02 4.87489000e-01
       13 -1    0    0    0    0 +0.0000000000e+00 +0.0000000000e+00 +4.9999998884e+02 5.0000000000e+02 1.0566000000e-01 0.0000e+00 1.0000e+00
      994 -1    0    0    0    0 -0.0000000000e+00 -0.0000000000e+00 +0.0000000000e+00 1.3100000000e+02 1.3100000000e+02 0.0000e+00 0.0000e+00
       13  1    1    2    0    0 +1.9545727507e+01 -1.0704918969e+01 +2.0467969391e-01 2.2286404190e+01 1.0566000000e-01 0.0000e+00 -1.0000e+00
      994  1    1    2    0    0 -4.2331132185e+01 -4.1263290634e+01 +6.2793873099e+01 1.5683958175e+02 1.3100000000e+02 0.0000e+00 0.0000e+00
      997  1    1    2    0    0 +2.2785404678e+01 +5.1968209603e+01 +4.3700143604e+02 4.5187401406e+02 1.0000000000e+02 0.0000e+00 0.0000e+00
</event>
<event>
 5      1 +8.5651000e-08 1.92599200e+02 7.95774700e-02 5.18440000e-01
       13 -1    0    0    0    0 +0.0000000000e+00 +0.0000000000e+00 +4.9999998884e+02 5.0000000000e+02 1.0566000000e-01 0.0000e+00 -1.0000e+00
      994 -1    0    0    0    0 -0.0000000000e+00 -0.0000000000e+00 +0.0000000000e+00 1.3100000000e+02 1.3100000000e+02 0.0000e+00 0.0000e+00
       13  1    1    2    0    0 +1.8964224945e+01 +2.0328158382e+01 +6.0912808210e+01 6.6957129710e+01 1.0566000000e-01 0.0000e+00 1.0000e+00
      994  1    1    2    0    0 +3.7504484469e+00 -2.7536923389e+01 +2.3539798331e+01 1.3596863653e+02 1.3100000000e+02 0.0000e+00 0.0000e+00
      997  1    1    2    0    0 -2.2714673392e+01 +7.2087650074e+00 +4.1554738230e+02 4.2807423376e+02 1.0000000000e+02 0.0000e+00 0.0000e+00
</event>
<event>
 5      1 +8.5651000e-08 1.98044300e+02 7.95774700e-02 5.07643700e-01
       13 -1    0    0    0    0 +0.0000000000e+00 +0.0000000000e+00 +4.9999998884e+02 5.0000000000e+02 1.0566000000e-01 0.0000e+00 1.0000e+00
      994 -1    0    0    0    0 -0.0000000000e+00 -0.0000000000e+00 +0.0000000000e+00 1.3100000000e+02 1.3100000000e+02 0.0000e+00 0.0000e+00
       13  1    1    2    0    0 -8.9218726870e+00 -8.3191330469e+00 +3.0730597076e+01 3.3063401936e+01 1.0566000000e-01 0.0000e+00 -1.0000e+00
      994  1    1    2    0    0 +6.4877696111e+00 +9.7231751546e+00 +1.4527016583e+01 1.3232031401e+02 1.3100000000e+02 0.0000e+00 0.0000e+00
      997  1    1    2    0    0 +2.4341030759e+00 -1.4040421077e+00 +4.5474237518e+02 4.6561628405e+02 1.0000000000e+02 0.0000e+00 0.0000e+00
</event>
<event>
 5      1 +8.5651000e-08 1.95811200e+02 7.95774700e-02 5.11975800e-01
       13 -1    0    0    0    0 +0.0000000000e+00 +0.0000000000e+00 +4.9999998884e+02 5.0000000000e+02 1.0566000000e-01 0.0000e+00 1.0000e+00
      994 -1    0    0    0    0 -0.0000000000e+00 -0.0000000000e+00 +0.0000000000e+00 1.3100000000e+02 1.3100000000e+02 0.0000e+00 0.0000e+00
       13  1    1    2    0    0 -2.0382978883e+01 -6.1865339553e+00 +5.5001305329e+01 5.8982147999e+01 1.0566000000e-01 0.0000e+00 -1.0000e+00
      994  1    1    2    0    0 +3.7048148065e+01 -2.4184075810e+01 +2.7065550566e+01 1.4089350171e+02 1.3100000000e+02 0.0000e+00 0.0000e+00
      997  1    1    2    0    0 -1.6665169182e+01 +3.0370609765e+01 +4.1793313294e+02 4.3112435029e+02 1.0000000000e+02 0.0000e+00 0.0000e+00
</event>
<event>
 5      1 +8.5651000e-08 2.01821400e+02 7.95774700e-02 5.00600300e-01
       13 -1    0    0    0    0 +0.0000000000e+00 +0.0000000000e+00 +4.9999998884e+02 5.0000000000e+02 1.0566000000e-01 0.0000e+00 1.0000e+00
      994 -1    0    0    0    0 -0.0000000000e+00 -0.0000000000e+00 +0.0000000000e+00 1.3100000000e+02 1.3100000000e+02 0.0000e+00 0.0000e+00
       13  1    1    2    0    0 -9.4754677265e+00 +1.8779761711e+01 +9.0737470100e+00 2.2908688033e+01 1.0566000000e-01 0.0000e+00 -1.0000e+00
      994  1    1    2    0    0 -1.4885691086e+01 -2.5352309582e+00 +2.9606343215e+01 1.3515008973e+02 1.3100000000e+02 0.0000e+00 0.0000e+00
      997  1    1    2    0    0 +2.4361158812e+01 -1.6244530753e+01 +4.6131989861e+02 4.7294122224e+02 1.0000000000e+02 0.0000e+00 0.0000e+00
</event>
<event>
 5      1 +8.5651000e-08 1.94577400e+02 7.95774700e-02 5.14425500e-01
       13 -1    0    0    0    0 +0.0000000000e+00 +0.0000000000e+00 +4.9999998884e+02 5.0000000000e+02 1.0566000000e-01 0.0000e+00 1.0000e+00
      994 -1    0    0    0    0 -0.0000000000e+00 -0.0000000000e+00 +0.0000000000e+00 1.3100000000e+02 1.3100000000e+02 0.0000e+00 0.0000e+00
       13  1    1    2    0    0 -4.2591675194e+00 +1.4800317711e+01 +2.0086520657e+01 2.5311447775e+01 1.0566000000e-01 0.0000e+00 -1.0000e+00
      994  1    1    2    0    0 +1.1154392022e+01 -7.5721912518e+00 +1.7937561677e+01 1.3290791798e+02 1.3100000000e+02 0.0000e+00 0.0000e+00
      997  1    1    2    0    0 -6.8952245029e+00 -7.2281264592e+00 +4.6197590650e+02 4.7278063425e+02 1.0000000000e+02 0.0000e+00 0.0000e+00
</event>
<event>
 5      1 +8.5651000e-08 1.94981700e+02 7.95774700e-02 5.13618200e-01
       13 -1    0    0    0    0 +0.0000000000e+00 +0.0000000000e+00 +4.9999998884e+02 5.0000000000e+02 1.0566000000e-01 0.0000e+00 -1.0000e+00
      994 -1    0    0    0    0 -0.0000000000e+00 -0.0000000000e+00 +0.0000000000e+00 1.3100000000e+02 1.3100000000e+02 0.0000e+00 0.0000e+00
       13  1    1    2    0    0 -4.8195701451e+00 -2.1454700562e+01 +7.9186336347e+01 8.2182841644e+01 1.0566000000e-01 0.0000e+00 1.0000e+00
      994  1    1    2    0    0 +1.1577604832e+01 +3.1818187831e+00 +1.7348952941e+01 1.3268817232e+02 1.3100000000e+02 0.0000e+00 0.0000e+00
      997  1    1    2    0    0 -6.7580346865e+00 +1.8272881779e+01 +4.0346469955e+02 4.1612898604e+02 1.0000000000e+02 0.0000e+00 0.0000e+00
</event>
<event>
 5      1 +8.5651000e-08 1.93875400e+02 7.95774700e-02 5.15837700e-01
       13 -1    0    0    0    0 +0.0000000000e+00 +0.0000000000e+00 +4.9999998884e+02 5.0000000000e+02 1.0566000000e-01 0.0000e+00 -1.0000e+00
      994 -1    0    0    0    0 -0.0000000000e+00 -0.0000000000e+00 +0.0000000000e+00 1.3100000000e+02 1.3100000000e+02 0.0000e+00 0.0000e+00
       13  1    1    2    0    0 -2.4907899824e+01 -5.2696738436e-01 +3.9049054495e+01 4.6319768881e+01 1.0566000000e-01 0.0000e+00 1.0000e+00
      994  1    1    2    0    0 +9.1180172009e+00 +1.5378562892e+00 +2.0711646484e+01 1.3294914644e+02 1.3100000000e+02 0.0000e+00 0.0000e+00
      997  1    1    2    0    0 +1.5789882623e+01 -1.0108889048e+00 +4.4023928786e+02 4.5173108468e+02 1.0000000000e+02 0.0000e+00 0.0000e+00
</event>
<event>
 5      1 +8.5651000e-08 1.94956300e+02 7.95774700e-02 5.13668800e-01
       13 -1    0    0    0    0 +0.0000000000e+00 +0.0000000000e+00 +4.9999998884e+02 5.0000000000e+02 1.0566000000e-01 0.0000e+00 1.0000e+00
      994 -1    0    0    0    0 -0.0000000000e+00 -0.0000000000e+00 +0.0000000000e+00 1.3100000000e+02 1.3100000000e+02 0.0000e+00 0.0000e+00
       13  1    1    2    0    0 -5.8476115924e+00 +8.9388725850e+00 +7.7805265983e+00 1.3215360858e+01 1.0566000000e-01 0.0000e+00 -1.0000e+00
      994  1    1    2    0    0 +2.9081066294e+01 -3.3702808627e+00 +2.1469086683e+01 1.3593744478e+02 1.3100000000e+02 0.0000e+00 0.0000e+00
      997  1    1    2    0    0 -2.3233454702e+01 -5.5685917223e+00 +4.7075037555e+02 4.8184719436e+02 1.0000000000e+02 0.0000e+00 0.0000e+00
</event>
<event>
 5      1 +8.5651000e-08 1.96100600e+02 7.95774700e-02 5.11407000e-01
       13 -1    0    0    0    0 +0.0000000000e+00 +0.0000000000e+00 +4.9999998884e+02 5.0000000000e+02 1.0566000000e-01 0.0000e+00 1.0000e+00
      994 -1    0    0    0    0 -0.0000000000e+00 -0.0000000000e+00 +0.0000000000e+00 1.3100000000e+02 1.3100000000e+02 0.0000e+00 0.0000e+00
       13  1    1    2    0    0 +3.8705432619e+00 +2.4395266052e+01 +2.5109517674e+01 3.5222282049e+01 1.0566000000e-01 0.0000e+00 -1.0000e+00
      994  1    1    2    0    0 +5.8175492586e+00 -2.3809807487e+01 +2.6005795105e+01 1.3578678946e+02 1.3100000000e+02 0.0000e+00 0.0000e+00
      997  1    1    2    0    0 -9.6880925205e+00 -5.8545856503e-01 +4.4888467606e+02 4.5999092849e+02 1.0000000000e+02 0.0000e+00 0.0000e+00
</event>
<event>
 5      1 +8.5651000e-08 1.96369900e+02 7.95774700e-02 5.10879900e-01
       13 -1    0    0    0    0 +0.0000000000e+00 +0.0000000000e+00 +4.9999998884e+02 5.0000000000e+02 1.0566000000e-01 0.0000e+00 -1.0000e+00
      994 -1    0    0    0    0 -0.0000000000e+00 -0.0000000000e+00 +0.0000000000e+00 1.3100000000e+02 1.3100000000e+02 0.0000e+00 0.0000e+00
       13  1    1    2    0    0 +1.1026895746e+01 +6.4130607849e-01 +1.3937346369e+01 1.7783826673e+01 1.0566000000e-01 0.0000e+00 1.0000e+00
      994  1    1    2    0    0 -5.1638207978e+00 +1.8581416938e+01 +1.7362157035e+01 1.3354541773e+02 1.3100000000e+02 0.0000e+00 0.0000e+00
      997  1    1    2    0    0 -5.8630749487e+00 -1.9222723016e+01 +4.6870048543e+02 4.7967075559e+02 1.0000000000e+02 0.0000e+00 0.0000e+00
</event>
<event>
 5      1 +8.5651000e-08 1.92622500e+02 7.95774700e-02 5.18392100e-01
       13 -1    0    0    0    0 +0.0000000000e+00 +0.0000000000e+00 +4.9999998884e+02 5.0000000000e+02 1.0566000000e-01 0.0000e+00 -1.0000e+00
      994 -1    0    0    0    0 -0.0000000000e+00 -0.0000000000e+00 +0.0000000000e+00 1.3100000000e+02 1.3100000000e+02 0.0000e+00 0.0000e+00
       13  1    1    2    0    0 +9.9945046145e+00 +1.0830681906e+00 +3.5053496373e+00 1.0647149821e+01 1.0566000000e-01 0.0000e+00 1.0000e+00
      994  1    1    2    0    0 -9.6193878083e+00 -5.0481344760e+00 +1.9398859902e+01 1.3287336847e+02 1.3100000000e+02 0.0000e+00 0.0000e+00
      997  1    1    2    0    0 -3.7511680623e-01 +3.9650662854e+00 +4.7709577930e+02 4.8747948171e+02 1.0000000000e+02 0.0000e+00 0.0000e+00
</event>
<event>
 5      1 +8.5651000e-08 1.34364800e+02 7.95774700e-02 7.23464800e-01
       13 -1    0    0    0    0 +0.0000000000e+00 +0.0000000000e+00 +4.9999998884e+02 5.0000000000e+02 1.0566000000e-01 0.0000e+00 -1.0000e+00
      994 -1    0    0    0    0 -0.0000000000e+00 -0.0000000000e+00 +0.0000000000e+00 1.3100000000e+02 1.3100000000e+02 0.0000e+00 0.0000e+00
       13  1    1    2    0    0 +2.7871303276e+01 +7.3465791969e+01 +1.3054618614e+02 1.5236912422e+02 1.0566000000e-01 0.0000e+00 1.0000e+00
      994  1    1    2    0    0 +7.9092220603e+00 +2.8178447583e+01 +8.6270178633e+01 1.5956229010e+02 1.3100000000e+02 0.0000e+00 0.0000e+00
      997  1    1    2    0    0 -3.5780525337e+01 -1.0164423955e+02 +2.8318362406e+02 3.1906858568e+02 1.0000000000e+02 0.0000e+00 0.0000e+00
</event>
<event>
 5      1 +8.5651000e-08 1.96500500e+02 7.95774700e-02 5.10624800e-01
       13 -1    0    0    0    0 +0.0000000000e+00 +0.0000000000e+00 +4.9999998884e+02 5.0000000000e+02 1.0566000000e-01 0.0000e+00 -1.0000e+00
      994 -1    0    0    0    0 -0.0000000000e+00 -0.0000000000e+00 +0.0000000000e+00 1.3100000000e+02 1.3100000000e+02 0.0000e+00 0.0000e+00
       13  1    1    2    0    0 +1.7158806556e+01 -3.0632491544e+00 +9.7086481684e+00 1.9951870867e+01 1.0566000000e-01 0.0000e+00 1.0000e+00
      994  1    1    2    0    0 -1.0195902657e+01 -4.0540510378e+00 +2.3476254447e+01 1.3353848241e+02 1.3100000000e+02 0.0000e+00 0.0000e+00
      997  1    1    2    0    0 -6.9629038990e+00 +7.1173001922e+00 +4.6681508622e+02 4.7750964673e+02 1.0000000000e+02 0.0000e+00 0.0000e+00
</event>
<event>
 5      1 +8.5651000e-08 1.93530300e+02 7.95774700e-02 5.16537000e-01
       13 -1    0    0    0    0 +0.0000000000e+00 +0.0000000000e+00 +4.9999998884e+02 5.0000000000e+02 1.0566000000e-01 0.0000e+00 1.0000e+00
      994 -1    0    0    0    0 -0.0000000000e+00 -0.0000000000e+00 +0.0000000000e+00 1.3100000000e+02 1.3100000000e+02 0.0000e+00 0.0000e+00
       13  1    1    2    0    0 +1.4489412763e+00 +1.0925630890e+01 +3.4735748616e+00 1.1556198662e+01 1.0566000000e-01 0.0000e+00 -1.0000e+00
      994  1    1    2    0    0 +2.9004003787e+01 -6.9713589985e+01 +5.3369071092e+01 1.6034486151e+02 1.3100000000e+02 0.0000e+00 0.0000e+00
      997  1    1    2    0    0 -3.0452945064e+01 +5.8787959095e+01 +4.4315734288e+02 4.5909893983e+02 1.0000000000e+02 0.0000e+00 0.0000e+00
</event>
<event>
 5      1 +8.5651000e-08 2.01616200e+02 7.95774700e-02 5.00974200e-01
       13 -1    0    0    0    0 +0.0000000000e+00 +0.0000000000e+00 +4.9999998884e+02 5.0000000000e+02 1.0566000000e-01 0.0000e+00 -1.0000e+00
      994 -1    0    0    0    0 -0.0000000000e+00 -0.0000000000e+00 +0.0000000000e+00 1.3100000000e+02 1.3100000000e+02 0.0000e+00 0.0000e+00
       13  1    1    2    0    0 -2.2032369352e+01 -3.3123572064e+01 +1.7000863036e+02 1.7460109360e+02 1.0566000000e-01 0.0000e+00 1.0000e+00
      994  1    1    2    0    0 -2.3540273350e+01 +1.7138701325e+00 +3.1517642233e+01 1.3678977883e+02 1.3100000000e+02 0.0000e+00 0.0000e+00
      997  1    1    2    0    0 +4.5572642702e+01 +3.1409701931e+01 +2.9847371624e+02 3.1960912757e+02 1.0000000000e+02 0.0000e+00 0.0000e+00
</event>
<event>
 5      1 +8.5651000e-08 1.93783800e+02 7.95774700e-02 5.16023000e-01
       13 -1    0    0    0    0 +0.0000000000e+00 +0.0000000000e+00 +4.9999998884e+02 5.0000000000e+02 1.0566000000e-01 0.0000e+00 -1.0000e+00
      994 -1    0    0    0    0 -0.0000000000e+00 -0.0000000000e+00 +0.0000000000e+00 1.3100000000e+02 1.3100000000e+02 0.0000e+00 0.0000e+00
       13  1    1    2    0    0 +1.1348357272e+01 +3.3035056566e+00 +5.0414389276e+00 1.2850121902e+01 1.0566000000e-01 0.0000e+00 1.0000e+00
      994  1    1    2    0    0 +2.2155914592e+01 -3.0921706157e+01 +2.8807106034e+01 1.3941981861e+02 1.3100000000e+02 0.0000e+00 0.0000e+00
      997  1    1    2    0    0 -3.3504271864e+01 +2.7618200500e+01 +4.6615144387e+02 4.7873005949e+02 1.0000000000e+02 0.0000e+00 0.0000e+00
</event>
<event>
 5      1 +8.5651000e-08 1.93782900e+02 7.95774700e-02 5.16024900e-01
       13 -1    0    0    0    0 +0.0000000000e+00 +0.0000000000e+00 +4.9999998884e+02 5.0000000000e+02 1.0566000000e-01 0.0000e+00 -1.0000e+00
      994 -1    0    0    0    0 -0.0000000000e+00 -0.0000000000e+00 +0.0000000000e+00 1.3100000000e+02 1.3100000000e+02 0.0000e+00 0.0000e+00
       13  1    1    2    0    0 +2.2491599148e+01 -2.2625259322e+01 +5.0389199474e+01 5.9639391171e+01 1.0566000000e-01 0.0000e+00 1.0000e+00
      994  1    1    2    0    0 -2.2474353511e+01 +4.4119870214e+01 +3.5045411595e+01 1.4436357015e+02 1.3100000000e+02 0.0000e+00 0.0000e+00
      997  1    1    2    0    0 -1.7245636631e-02 -2.1494610892e+01 +4.1456537777e+02 4.2699703868e+02 1.0000000000e+02 0.0000e+00 0.0000e+00
</event>
<event>
 5      1 +8.5651000e-08 2.12108700e+02 7.95774700e-02 4.83036900e-01
       13 -1    0    0    0    0 +0.0000000000e+00 +0.0000000000e+00 +4.9999998884e+02 5.0000000000e+02 1.0566000000e-01 0.0000e+00 -1.0000e+00
      994 -1    0    0    0    0 -0.0000000000e+00 -0.0000000000e+00 +0.0000000000e+00 1.3100000000e+02 1.3100000000e+02 0.0000e+00 0.0000e+00
       13  1    1    2    0    0 -2.8696738117e+01 +9.8221696500e+00 +5.1688031094e+00 3.0768579506e+01 1.0566000000e-01 0.0000e+00 1.0000e+00
      994  1    1    2    0    0 +2.9419609989e+01 -4.3473840509e+01 +6.0984855827e+01 1.5373887245e+02 1.3100000000e+02 0.0000e+00 0.0000e+00
      997  1    1    2    0    0 -7.2287187201e-01 +3.3651670859e+01 +4.3384632990e+02 4.4649254805e+02 1.0000000000e+02 0.0000e+00 0.0000e+00
</event>
<event>
 5      1 +8.5651000e-08 1.98411600e+02 7.95774700e-02 5.06943500e-01
       13 -1    0    0    0    0 +0.0000000000e+00 +0.0000000000e+00 +4.9999998884e+02 5.0000000000e+02 1.0566000000e-01 0.0000e+00 -1.0000e+00
      994 -1    0    0    0    0 -0.0000000000e+00 -0.0000000000e+00 +0.0000000000e+00 1.3100000000e+02 1.3100000000e+02 0.0000e+00 0.0000e+00
       13  1    1    2    0    0 +9.3693873517e+00 +1.3259626723e+01 +8.1603377639e+01 8.3202917776e+01 1.0566000000e-01 0.0000e+00 1.0000e+00
      994  1    1    2    0    0 -4.2498004958e+01 -2.9443760224e+01 +2.8620696292e+01 1.4371207221e+02 1.3100000000e+02 0.0000e+00 0.0000e+00
      997  1    1    2    0    0 +3.3128617606e+01 +1.6184133502e+01 +3.8977591490e+02 4.0408501002e+02 1.0000000000e+02 0.0000e+00 0.0000e+00
</event>
<event>
 5      1 +8.5651000e-08 1.96573400e+02 7.95774700e-02 5.10482600e-01
       13 -1    0    0    0    0 +0.0000000000e+00 +0.0000000000e+00 +4.9999998884e+02 5.0000000000e+02 1.0566000000e-01 0.0000e+00 -1.0000e+00
      994 -1    0    0    0    0 -0.0000000000e+00 -0.0000000000e+00 +0.0000000000e+00 1.3100000000e+02 1.3100000000e+02 0.0000e+00 0.0000e+00
       13  1    1    2    0    0 +1.6179572985e+00 +1.7542841994e+01 +7.0394773361e+01 7.2565862302e+01 1.0566000000e-01 0.0000e+00 1.0000e+00
      994  1    1    2    0    0 +2.6344071357e+01 -1.0817305275e+01 +1.9665113127e+01 1.3549443112e+02 1.3100000000e+02 0.0000e+00 0.0000e+00
      997  1    1    2    0    0 -2.7962028656e+01 -6.7255367193e+00 +4.0994010235e+02 4.2293970658e+02 1.0000000000e+02 0.0000e+00 0.0000e+00
</event>
<event>
 5      1 +8.5651000e-08 1.93561100e+02 7.95774700e-02 5.16474400e-01
       13 -1    0    0    0    0 +0.0000000000e+00 +0.0000000000e+00 +4.9999998884e+02 5.0000000000e+02 1.0566000000e-01 0.0000e+00 -1.0000e+00
      994 -1    0    0    0    0 -0.0000000000e+00 -0.0000000000e+00 +0.0000000000e+00 1.3100000000e+02 1.3100000000e+02 0.0000e+00 0.0000e+00
       13  1    1    2    0    0 -1.7819104540e+01 -2.7543638982e+01 +1.0286922231e+02 1.0797342543e+02 1.0566000000e-01 0.0000e+00 1.0000e+00
      994  1    1    2    0    0 +2.6903073108e+01 +1.0068736132e+00 +2.4207485241e+01 1.3591096894e+02 1.3100000000e+02 0.0000e+00 0.0000e+00
      997  1    1    2    0    0 -9.0839685678e+00 +2.6536765369e+01 +3.7292328128e+02 3.8711560563e+02 1.0000000000e+02 0.0000e+00 0.0000e+00
</event>
<event>
 5      1 +8.5651000e-08 1.49331900e+02 7.95774700e-02 6.46640900e-01
       13 -1    0    0    0    0 +0.0000000000e+00 +0.0000000000e+00 +4.9999998884e+02 5.0000000000e+02 1.0566000000e-01 0.0000e+00 -1.0000e+00
      994 -1    0    0    0    0 -0.0000000000e+00 -0.0000000000e+00 +0.0000000000e+00 1.3100000000e+02 1.3100000000e+02 0.0000e+00 0.0000e+00
       13  1    1    2    0    0 -3.8682717818e+01 +7.2470327660e+01 +1.5304619665e+02 1.7369931066e+02 1.0566000000e-01 0.0000e+00 1.0000e+00
      994  1    1    2    0    0 -5.6710814457e+01 -4.6891618958e+01 +1.2939082581e+02 1.9828748374e+02 1.3100000000e+02 0.0000e+00 0.0000e+00
      997  1    1    2    0    0 +9.5393532275e+01 -2.5578708702e+01 +2.1756296637e+02 2.5901320560e+02 1.0000000000e+02 0.0000e+00 0.0000e+00
</event>
<event>
 5      1 +8.5651000e-08 1.98172500e+02 7.95774700e-02 5.07399000e-01
       13 -1    0    0    0    0 +0.0000000000e+00 +0.0000000000e+00 +4.9999998884e+02 5.0000000000e+02 1.0566000000e-01 0.0000e+00 -1.0000e+00
      994 -1    0    0    0    0 -0.0000000000e+00 -0.0000000000e+00 +0.0000000000e+00 1.3100000000e+02 1.3100000000e+02 0.0000e+00 0.0000e+00
       13  1    1    2    0    0 -6.6799973222e+00 +1.1863919982e+01 +6.3152383414e+01 6.4603480220e+01 1.0566000000e-01 0.0000e+00 1.0000e+00
      994  1    1    2    0    0 +8.4929215782e+00 -9.7307220036e+00 +1.4579514116e+01 1.3244009551e+02 1.3100000000e+02 0.0000e+00 0.0000e+00
      997  1    1    2    0    0 -1.8129242560e+00 -2.1331979779e+00 +4.2226809131e+02 4.3395642427e+02 1.0000000000e+02 0.0000e+00 0.0000e+00
</event>
<event>
 5      1 +8.5651000e-08 2.00193200e+02 7.95774700e-02 5.03594200e-01
       13 -1    0    0    0    0 +0.0000000000e+00 +0.0000000000e+00 +4.9999998884e+02 5.0000000000e+02 1.0566000000e-01 0.0000e+00 1.0000e+00
      994 -1    0    0    0    0 -0.0000000000e+00 -0.0000000000e+00 +0.0000000000e+00 1.3100000000e+02 1.3100000000e+02 0.0000e+00 0.0000e+00
       13  1    1    2    0    0 +1.0448592756e+01 -1.5979619057e+01 +1.1624320755e+01 2.2353015744e+01 1.0566000000e-01 0.0000e+00 -1.0000e+00
      994  1    1    2    0    0 +4.8649976200e+01 -3.6802001393e+01 +5.1320077380e+01 1.5334913705e+02 1.3100000000e+02 0.0000e+00 0.0000e+00
      997  1    1    2    0    0 -5.9098568957e+01 +5.2781620451e+01 +4.3705559070e+02 4.5529784721e+02 1.0000000000e+02 0.0000e+00 0.0000e+00
</event>
<event>
 5      1 +8.5651000e-08 1.95798400e+02 7.95774700e-02 5.12001000e-01
       13 -1    0    0    0    0 +0.0000000000e+00 +0.0000000000e+00 +4.9999998884e+02 5.0000000000e+02 1.0566000000e-01 0.0000e+00 -1.0000e+00
      994 -1    0    0    0    0 -0.0000000000e+00 -0.0000000000e+00 +0.0000000000e+00 1.3100000000e+02 1.3100000000e+02 0.0000e+00 0.0000e+00
       13  1    1    2    0    0 +6.1352981098e+00 -1.8976436843e+01 +1.7662918632e+01 2.6640887688e+01 1.0566000000e-01 0.0000e+00 1.0000e+00
      994  1    1    2    0    0 -3.3342540190e+00 -3.0298727625e+00 +2.2181840683e+01 1.3294108257e+02 1.3100000000e+02 0.0000e+00 0.0000e+00
      997  1    1    2    0    0 -2.8010440908e+00 +2.2006309606e+01 +4.6015522952e+02 4.7141802974e+02 1.0000000000e+02 0.0000e+00 0.0000e+00
</event>
<event>
 5      1 +8.5651000e-08 1.94865400e+02 7.95774700e-02 5.13849900e-01
       13 -1    0    0    0    0 +0.0000000000e+00 +0.0000000000e+00 +4.9999998884e+02 5.0000000000e+02 1.0566000000e-01 0.0000e+00 -1.0000e+00
      994 -1    0    0    0    0 -0.0000000000e+00 -0.0000000000e+00 +0.0000000000e+00 1.3100000000e+02 1.3100000000e+02 0.0000e+00 0.0000e+00
       13  1    1    2    0    0 +5.3972608204e+00 -1.3492562688e+01 +4.9811627909e+00 1.5362383247e+01 1.0566000000e-01 0.0000e+00 1.0000e+00
      994  1    1    2    0    0 +1.1197324758e+01 +5.1765836091e+01 +3.8522482308e+01 1.4645840198e+02 1.3100000000e+02 0.0000e+00 0.0000e+00
      997  1    1    2    0    0 -1.6594585579e+01 -3.8273273403e+01 +4.5649634374e+02 4.6917921477e+02 1.0000000000e+02 0.0000e+00 0.0000e+00
</event>
<event>
 5      1 +8.5651000e-08 1.94817100e+02 7.95774700e-02 5.13946400e-01
       13 -1    0    0    0    0 +0.0000000000e+00 +0.0000000000e+00 +4.9999998884e+02 5.0000000000e+02 1.0566000000e-01 0.0000e+00 1.0000e+00
      994 -1    0    0    0    0 -0.0000000000e+00 -0.0000000000e+00 +0.0000000000e+00 1.3100000000e+02 1.3100000000e+02 0.0000e+00 0.0000e+00
       13  1    1    2    0    0 -2.2399524612e+01 +1.6734548805e+01 +1.0976929436e+02 1.1327441448e+02 1.0566000000e-01 0.0000e+00 -1.0000e+00
      994  1    1    2    0    0 +2.0272028276e+01 -2.8630746600e+01 +2.3782196611e+01 1.3768539377e+02 1.3100000000e+02 0.0000e+00 0.0000e+00
      997  1    1    2    0    0 +2.1274963351e+00 +1.1896197796e+01 +3.6644849786e+02 3.8004019175e+02 1.0000000000e+02 0.0000e+00 0.0000e+00
</event>
<event>
 5      1 +8.5651000e-08 1.94350700e+02 7.95774700e-02 5.14880000e-01
       13 -1    0    0    0    0 +0.0000000000e+00 +0.0000000000e+00 +4.9999998884e+02 5.0000000000e+02 1.0566000000e-01 0.0000e+00 1.0000e+00
      994 -1    0    0    0    0 -0.0000000000e+00 -0.0000000000e+00 +0.0000000000e+00 1.3100000000e+02 1.3100000000e+02 0.0000e+00 0.0000e+00
       13  1    1    2    0    0 +1.1631858392e+01 +5.5612087666e+00 +1.0369192203e+01 1.6545648479e+01 1.0566000000e-01 0.0000e+00 -1.0000e+00
      994  1    1    2    0    0 -2.3482384463e+01 -1.9296967954e+01 +2.2442765094e+01 1.3633955060e+02 1.3100000000e+02 0.0000e+00 0.0000e+00
      997  1    1    2    0    0 +1.1850526071e+01 +1.3735759187e+01 +4.6718803154e+02 4.7811480092e+02 1.0000000000e+02 0.0000e+00 0.0000e+00
</event>
<event>
 5      1 +8.5651000e-08 1.95628100e+02 7.95774700e-02 5.12336800e-01
       13 -1    0    0    0    0 +0.0000000000e+00 +0.0000000000e+00 +4.9999998884e+02 5.0000000000e+02 1.0566000000e-01 0.0000e+00 1.0000e+00
      994 -1    0    0    0    0 -0.0000000000e+00 -0.0000000000e+00 +0.0000000000e+00 1.3100000000e+02 1.3100000000e+02 0.0000e+00 0.0000e+00
       13  1    1    2    0    0 -1.3017487296e+01 -2.2078138363e-01 +1.3866931898e+01 1.9021216686e+01 1.0566000000e-01 0.0000e+00 -1.0000e+00
      994  1    1    2    0    0 +3.1788883107e+01 -8.9448137643e+00 +2.2174191201e+01 1.3690594413e+02 1.3100000000e+02 0.0000e+00 0.0000e+00
      997  1    1    2    0    0 -1.8771395810e+01 +9.1655951479e+00 +4.6395886574e+02 4.7507283918e+02 1.0000000000e+02 0.0000e+00 0.0000e+00
</event>
<event>
 5      1 +8.5651000e-08 1.93331800e+02 7.95774700e-02 5.16940700e-01
       13 -1    0    0    0    0 +0.0000000000e+00 +0.0000000000e+00 +4.9999998884e+02 5.0000000000e+02 1.0566000000e-01 0.0000e+00 1.0000e+00
      994 -1    0    0    0    0 -0.0000000000e+00 -0.0000000000e+00 +0.0000000000e+00 1.3100000000e+02 1.3100000000e+02 0.0000e+00 0.0000e+00
       13  1    1    2    0    0 +1.8787581256e+01 +1.3999861917e+01 +4.5305089643e+01 5.1005212035e+01 1.0566000000e-01 0.0000e+00 -1.0000e+00
      994  1    1    2    0    0 -1.7303691805e+01 -3.1447546119e+00 +1.9840714442e+01 1.3365613035e+02 1.3100000000e+02 0.0000e+00 0.0000e+00
      997  1    1    2    0    0 -1.4838894510e+00 -1.0855107305e+01 +4.3485418475e+02 4.4633865761e+02 1.0000000000e+02 0.0000e+00 0.0000e+00
</event>
<event>
 5      1 +8.5651000e-08 1.98504500e+02 7.95774700e-02 5.06766900e-01
       13 -1    0    0    0    0 +0.0000000000e+00 +0.0000000000e+00 +4.9999998884e+02 5.0000000000e+02 1.0566000000e-01 0.0000e+00 1.0000e+00
      994 -1    0    0    0    0 -0.0000000000e+00 -0.0000000000e+00 +0.0000000000e+00 1.3100000000e+02 1.3100000000e+02 0.0000e+00 0.0000e+00
       13  1    1    2    0    0 -2.6818225365e+01 -4.6272138628e-01 +1.6970075562e+01 3.1739974030e+01 1.0566000000e-01 0.0000e+00 -1.0000e+00
      994  1    1    2    0    0 +5.8450647282e+01 -3.9914092559e+01 +5.8287273753e+01 1.5990002887e+02 1.3100000000e+02 0.0000e+00 0.0000e+00
      997  1    1    2    0    0 -3.1632421917e+01 +4.0376813945e+01 +4.2474263952e+02 4.3935999710e+02 1.0000000000e+02 0.0000e+00 0.0000e+00
</event>
<event>
 5      1 +8.5651000e-08 1.96185500e+02 7.95774700e-02 5.11240600e-01
       13 -1    0    0    0    0 +0.0000000000e+00 +0.0000000000e+00 +4.9999998884e+02 5.0000000000e+02 1.0566000000e-01 0.0000e+00 1.0000e+00
      994 -1    0    0    0    0 -0.0000000000e+00 -0.0000000000e+00 +0.0000000000e+00 1.3100000000e+02 1.3100000000e+02 0.0000e+00 0.0000e+00
       13  1    1    2    0    0 -1.5684993423e+01 -9.2702374174e+00 +5.6625482081e+01 5.9484558546e+01 1.0566000000e-01 0.0000e+00 -1.0000e+00
      994  1    1    2    0    0 +1.3834685687e+01 -1.0476322603e+01 +1.7131647769e+01 1.3325031039e+02 1.3100000000e+02 0.0000e+00 0.0000e+00
      997  1    1    2    0    0 +1.8503077357e+00 +1.9746560020e+01 +4.2624285899e+02 4.3826513107e+02 1.0000000000e+02 0.0000e+00 0.0000e+00
</event>
<event>
 5      1 +8.5651000e-08 1.96047800e+02 7.95774700e-02 5.11510700e-01
       13 -1    0    0    0    0 +0.0000000000e+00 +0.0000000000e+00 +4.9999998884e+02 5.0000000000e+02 1.0566000000e-01 0.0000e+00 1.0000e+00
      994 -1    0    0    0    0 -0.0000000000e+00 -0.0000000000e+00 +0.0000000000e+00 1.3100000000e+02 1.3100000000e+02 0.0000e+00 0.0000e+00
       13  1    1    2    0    0 -3.8406826466e+00 +4.8106179910e+01 +1.0004704179e+02 1.1107824775e+02 1.0566000000e-01 0.0000e+00 -1.0000e+00
      994  1    1    2    0    0 +1.4989532987e+01 -5.8047204795e+01 +4.5123667054e+01 1.5096790855e+02 1.3100000000e+02 0.0000e+00 0.0000e+00
      997  1    1    2    0    0 -1.1148850341e+01 +9.9410248843e+00 +3.5482927999e+02 3.6895384370e+02 1.0000000000e+02 0.0000e+00 0.0000e+00
</event>
<event>
 5      1 +8.5651000e-08 1.96682400e+02 7.95774700e-02 5.10270300e-01
       13 -1    0    0    0    0 +0.0000000000e+00 +0.0000000000e+00 +4.9999998884e+02 5.0000000000e+02 1.0566000000e-01 0.0000e+00 -1.0000e+00
      994 -1    0    0    0    0 -0.0000000000e+00 -0.0000000000e+00 +0.0000000000e+00 1.3100000000e+02 1.3100000000e+02 0.0000e+00 0.0000e+00
       13  1    1    2    0    0 +9.7888292380e+00 +1.2973373933e+01 +3.3612317961e+01 3.7335354449e+01 1.0566000000e-01 0.0000e+00 1.0000e+00
      994  1    1    2    0    0 -1.6080448829e+01 -1.8085542377e+01 +1.8282403977e+01 1.3446528910e+02 1.3100000000e+02 0.0000e+00 0.0000e+00
      997  1    1    2    0    0 +6.2916195909e+00 +5.1121684438e+00 +4.4810526690e+02 4.5919935645e+02 1.0000000000e+02 0.0000e+00 0.0000e+00
</event>
<event>
 5      1 +8.5651000e-08 1.95759400e+02 7.95774700e-02 5.12077800e-01
       13 -1    0    0    0    0 +0.0000000000e+00 +0.0000000000e+00 +4.9999998884e+02 5.0000000000e+02 1.0566000000e-01 0.0000e+00 1.0000e+00
      994 -1    0    0    0    0 -0.0000000000e+00 -0.0000000000e+00 +0.0000000000e+00 1.3100000000e+02 1.3100000000e+02 0.0000e+00 0.0000e+00
       13  1    1    2    0    0 -8.6199672432e-01 +1.4423541374e+01 +2.5665605090e+01 2.9453625121e+01 1.0566000000e-01 0.0000e+00 -1.0000e+00
      994  1    1    2    0    0 +1.5116997731e+01 +3.3115009871e+00 +1.7174401312e+01 1.3302424486e+02 1.3100000000e+02 0.0000e+00 0.0000e+00
      997  1    1    2    0    0 -1.4255001007e+01 -1.7735042361e+01 +4.5715998243e+02 4.6852213002e+02 1.0000000000e+02 0.0000e+00 0.0000e+00
</event>
<event>
 5      1 +8.5651000e-08 2.00112300e+02 7.95774700e-02 5.03744500e-01
       13 -1    0    0    0    0 +0.0000000000e+00 +0.0000000000e+00 +4.9999998884e+02 5.0000000000e+02 1.0566000000e-01 0.0000e+00 1.0000e+00
      994 -1    0    0    0    0 -0.0000000000e+00 -0.0000000000e+00 +0.0000000000e+00 1.3100000000e+02 1.3100000000e+02 0.0000e+00 0.0000e+00
       13  1    1    2    0    0 +1.1701695692e+01 +3.2021504256e+01 +3.9287734254e+01 5.2017724323e+01 1.0566000000e-01 0.0000e+00 -1.0000e+00
      994  1    1    2    0    0 -2.6821170630e+00 -2.1871606562e+01 +2.9444597164e+01 1.3606448922e+02 1.3100000000e+02 0.0000e+00 0.0000e+00
      997  1    1    2    0    0 -9.0195786288e+00 -1.0149897695e+01 +4.3126765742e+02 4.4291778645e+02 1.0000000000e+02 0.0000e+00 0.0000e+00
</event>
<event>
 5      1 +8.5651000e-08 1.94186300e+02 7.95774700e-02 5.15210600e-01
       13 -1    0    0    0    0 +0.0000000000e+00 +0.0000000000e+00 +4.9999998884e+02 5.0000000000e+02 1.0566000000e-01 0.0000e+00 -1.0000e+00
      994 -1    0    0    0    0 -0.0000000000e+00 -0.0000000000e+00 +0.0000000000e+00 1.3100000000e+02 1.3100000000e+02 0.0000e+00 0.0000e+00
       13  1    1    2    0    0 -1.3974356301e+01 -3.5379015642e+00 +7.3052777906e+00 1.6160990970e+01 1.0566000000e-01 0.0000e+00 1.0000e+00
      994  1    1    2    0    0 +1.6109638757e+01 +1.7648709529e+01 +2.3905568150e+01 1.3529033076e+02 1.3100000000e+02 0.0000e+00 0.0000e+00
      997  1    1    2    0    0 -2.1352824557e+00 -1.4110807964e+01 +4.6878914290e+02 4.7954867827e+02 1.0000000000e+02 0.0000e+00 0.0000e+00
</event>
<event>
 5      1 +8.5651000e-08 1.92722700e+02 7.95774700e-02 5.18186300e-01
       13 -1    0    0    0    0 +0.0000000000e+00 +0.0000000000e+00 +4.9999998884e+02 5.0000000000e+02 1.0566000000e-01 0.0000e+00 -1.0000e+00
      994 -1    0    0    0    0 -0.0000000000e+00 -0.0000000000e+00 +0.0000000000e+00 1.3100000000e+02 1.3100000000e+02 0.0000e+00 0.0000e+00
       13  1    1    2    0    0 -1.0576011126e+01 -4.4236135931e+00 +5.5751241961e+00 1.2748079949e+01 1.0566000000e-01 0.0000e+00 1.0000e+00
      994  1    1    2    0    0 -7.1279334865e+00 +1.4011405580e+01 +2.0560037089e+01 1.3353217607e+02 1.3100000000e+02 0.0000e+00 0.0000e+00
      997  1    1    2    0    0 +1.7703944613e+01 -9.5877919871e+00 +4.7386482755e+02 4.8471974398e+02 1.0000000000e+02 0.0000e+00 0.0000e+00
</event>
<event>
 5      1 +8.5651000e-08 1.68025700e+02 7.95774700e-02 5.79474200e-01
       13 -1    0    0    0    0 +0.0000000000e+00 +0.0000000000e+00 +4.9999998884e+02 5.0000000000e+02 1.0566000000e-01 0.0000e+00 1.0000e+00
      994 -1    0    0    0    0 -0.0000000000e+00 -0.0000000000e+00 +0.0000000000e+00 1.3100000000e+02 1.3100000000e+02 0.0000e+00 0.0000e+00
       13  1    1    2    0    0 +1.0266026157e+02 +5.2249559132e+01 +1.5119389782e+02 1.9007564714e+02 1.0566000000e-01 0.0000e+00 -1.0000e+00
      994  1    1    2    0    0 -7.9415826562e+01 -3.8105511192e+01 +1.5547575560e+02 2.2156853132e+02 1.3100000000e+02 0.0000e+00 0.0000e+00
      997  1    1    2    0    0 -2.3244435006e+01 -1.4144047940e+01 +1.9333033541e+02 2.1935582153e+02 1.0000000000e+02 0.0000e+00 0.0000e+00
</event>
<event>
 5      1 +8.5651000e-08 1.93535500e+02 7.95774700e-02 5.16526400e-01
       13 -1    0    0    0    0 +0.0000000000e+00 +0.0000000000e+00 +4.9999998884e+02 5.0000000000e+02 1.0566000000e-01 0.0000e+00 1.0000e+00
      994 -1    0    0    0    0 -0.0000000000e+00 -0.0000000000e+00 +0.0000000000e+00 1.3100000000e+02 1.3100000000e+02 0.0000e+00 0.0000e+00
       13  1    1    2    0    0 -1.0718947740e+01 +1.4430468639e+01 +3.4497623545e+01 3.8900275835e+01 1.0566000000e-01 0.0000e+00 -1.0000e+00
      994  1    1    2    0    0 +3.4961192528e+01 +4.7974948599e+01 +3.9102364432e+01 1.4904320038e+02 1.3100000000e+02 0.0000e+00 0.0000e+00
      997  1    1    2    0    0 -2.4242244788e+01 -6.2405417238e+01 +4.2640000086e+02 4.4305652378e+02 1.0000000000e+02 0.0000e+00 0.0000e+00
</event>
<event>
 5      1 +8.5651000e-08 1.92941600e+02 7.95774700e-02 5.17737400e-01
       13 -1    0    0    0    0 +0.0000000000e+00 +0.0000000000e+00 +4.9999998884e+02 5.0000000000e+02 1.0566000000e-01 0.0000e+00 1.0000e+00
      994 -1    0    0    0    0 -0.0000000000e+00 -0.0000000000e+00 +0.0000000000e+00 1.3100000000e+02 1.3100000000e+02 0.0000e+00 0.0000e+00
       13  1    1    2    0    0 +8.0266769292e+00 -1.9682771574e+01 +3.3616188627e+01 3.9773085639e+01 1.0566000000e-01 0.0000e+00 -1.0000e+00
      994  1    1    2    0    0 -1.7549378655e+01 -1.1698580927e+01 +2.1934505258e+01 1.3448776899e+02 1.3100000000e+02 0.0000e+00 0.0000e+00
      997  1    1    2    0    0 +9.5227017260e+00 +3.1381352501e+01 +4.4444929495e+02 4.5673914537e+02 1.0000000000e+02 0.0000e+00 0.0000e+00
</event>
<event>
 5      1 +8.5651000e-08 2.18570300e+02 7.95774700e-02 4.73064500e-01
       13 -1    0    0    0    0 +0.0000000000e+00 +0.0000000000e+00 +4.9999998884e+02 5.0000000000e+02 1.0566000000e-01 0.0000e+00 1.0000e+00
      994 -1    0    0    0    0 -0.0000000000e+00 -0.0000000000e+00 +0.0000000000e+00 1.3100000000e+02 1.3100000000e+02 0.0000e+00 0.0000e+00
       13  1    1    2    0    0 +9.1013219164e+00 -3.1271767670e+01 -2.0745801235e+00 3.2635449446e+01 1.0566000000e-01 0.0000e+00 -1.0000e+00
      994  1    1    2    0    0 +4.6727374148e+01 +6.4697555597e+01 +1.1059064638e+02 1.8910450091e+02 1.3100000000e+02 0.0000e+00 0.0000e+00
      997  1    1    2    0    0 -5.5828696065e+01 -3.3425787927e+01 +3.9148392258e+02 4.0926004965e+02 1.0000000000e+02 0.0000e+00 0.0000e+00
</event>
<event>
 5      1 +8.5651000e-08 1.93374900e+02 7.95774700e-02 5.16852900e-01
       13 -1    0    0    0    0 +0.0000000000e+00 +0.0000000000e+00 +4.9999998884e+02 5.0000000000e+02 1.0566000000e-01 0.0000e+00 -1.0000e+00
      994 -1    0    0    0    0 -0.0000000000e+00 -0.0000000000e+00 +0.0000000000e+00 1.3100000000e+02 1.3100000000e+02 0.0000e+00 0.0000e+00
       13  1    1    2    0    0 -2.8669663872e+00 -2.1944877375e+01 +4.2124690466e+01 4.7584638804e+01 1.0566000000e-01 0.0000e+00 1.0000e+00
      994  1    1    2    0    0 +1.0162911177e+01 +8.0863114423e+00 +1.8984631357e+01 1.3300409552e+02 1.3100000000e+02 0.0000e+00 0.0000e+00
      997  1    1    2    0    0 -7.2959447896e+00 +1.3858565933e+01 +4.3889066701e+02 4.5041126568e+02 1.0000000000e+02 0.0000e+00 0.0000e+00
</event>
<event>
 5      1 +8.5651000e-08 1.93316700e+02 7.95774700e-02 5.16971400e-01
       13 -1    0    0    0    0 +0.0000000000e+00 +0.0000000000e+00 +4.9999998884e+02 5.0000000000e+02 1.0566000000e-01 0.0000e+00 -1.0000e+00
      994 -1    0    0    0    0 -0.0000000000e+00 -0.0000000000e+00 +0.0000000000e+00 1.3100000000e+02 1.3100000000e+02 0.0000e+00 0.0000e+00
       13  1    1    2    0    0 +9.6655333653e+00 +2.4489603231e+01 +3.2879565600e+01 4.2121730731e+01 1.0566000000e-01 0.0000e+00 1.0000e+00
      994  1    1    2    0    0 +3.7492571499e+01 -6.6924708869e+01 +5.7253350756e+01 1.6224535663e+02 1.3100000000e+02 0.0000e+00 0.0000e+00
      997  1    1    2    0    0 -4.7158104865e+01 +4.2435105638e+01 +4.0986707248e+02 4.2663291264e+02 1.0000000000e+02 0.0000e+00 0.0000e+00
</event>
<event>
 5      1 +8.5651000e-08 1.99290200e+02 7.95774700e-02 5.05282100e-01
       13 -1    0    0    0    0 +0.0000000000e+00 +0.0000000000e+00 +4.9999998884e+02 5.0000000000e+02 1.0566000000e-01 0.0000e+00 -1.0000e+00
      994 -1    0    0    0    0 -0.0000000000e+00 -0.0000000000e+00 +0.0000000000e+00 1.3100000000e+02 1.3100000000e+02 0.0000e+00 0.0000e+00
       13  1    1    2    0    0 +1.7270915413e+01 -2.1767090476e+01 +2.9075843338e+01 4.0218236869e+01 1.0566000000e-01 0.0000e+00 1.0000e+00
      994  1    1    2    0    0 -1.4031666838e+01 -1.1197161433e+01 +2.7548614323e+01 1.3506365258e+02 1.3100000000e+02 0.0000e+00 0.0000e+00
      997  1    1    2    0    0 -3.2392485747e+00 +3.2964251909e+01 +4.4337553117e+02 4.5571811055e+02 1.0000000000e+02 0.0000e+00 0.0000e+00
</event>
<event>
 5      1 +8.5651000e-08 2.15844800e+02 7.95774700e-02 4.77179800e-01
       13 -1    0    0    0    0 +0.0000000000e+00 +0.0000000000e+00 +4.9999998884e+02 5.0000000000e+02 1.0566000000e-01 0.0000e+00 1.0000e+00
      994 -1    0    0    0    0 -0.0000000000e+00 -0.0000000000e+00 +0.0000000000e+00 1.3100000000e+02 1.3100000000e+02 0.0000e+00 0.0000e+00
       13  1    1    2    0    0 +4.9570332676e+01 +1.6856951754e+01 +2.9791518299e+01 6.0240521501e+01 1.0566000000e-01 0.0000e+00 -1.0000e+00
      994  1    1    2    0    0 -4.2479627812e+01 -4.7431932859e+01 +7.8887879004e+01 1.6564602165e+02 1.3100000000e+02 0.0000e+00 0.0000e+00
      997  1    1    2    0    0 -7.0907048645e+00 +3.0574981105e+01 +3.9132059153e+02 4.0511345685e+02 1.0000000000e+02 0.0000e+00 0.0000e+00
</event>
<event>
 5      1 +8.5651000e-08 2.03213900e+02 7.95774700e-02 4.98089100e-01
       13 -1    0    0    0    0 +0.0000000000e+00 +0.0000000000e+00 +4.9999998884e+02 5.0000000000e+02 1.0566000000e-01 0.0000e+00 1.0000e+00
      994 -1    0    0    0    0 -0.0000000000e+00 -0.0000000000e+00 +0.0000000000e+00 1.3100000000e+02 1.3100000000e+02 0.0000e+00 0.0000e+00
       13  1    1    2    0    0 +2.3446225219e+01 -9.7739112532e+00 +1.5334367163e+01 2.9671683446e+01 1.0566000000e-01 0.0000e+00 -1.0000e+00
      994  1    1    2    0    0 +2.7900934089e+01 +3.5438990273e+01 +4.3309315481e+01 1.4515881290e+02 1.3100000000e+02 0.0000e+00 0.0000e+00
      997  1    1    2    0    0 -5.1347159308e+01 -2.5665079020e+01 +4.4135630619e+02 4.5616950366e+02 1.0000000000e+02 0.0000e+00 0.0000e+00
</event>
<event>
 5      1 +8.5651000e-08 1.94802500e+02 7.95774700e-02 5.13975600e-01
       13 -1    0    0    0    0 +0.0000000000e+00 +0.0000000000e+00 +4.9999998884e+02 5.0000000000e+02 1.0566000000e-01 0.0000e+00 1.0000e+00
      994 -1    0    0    0    0 -0.0000000000e+00 -0.0000000000e+00 +0.0000000000e+00 1.3100000000e+02 1.3100000000e+02 0.0000e+00 0.0000e+00
       13  1    1    2    0    0 +1.0105143839e+01 -1.9390209127e+01 +7.8743690030e+01 8.1723154770e+01 1.0566000000e-01 0.0000e+00 -1.0000e+00
      994  1    1    2    0    0 -1.1352334258e+01 -3.3098041484e+00 +1.7489665432e+01 1.3269031123e+02 1.3100000000e+02 0.0000e+00 0.0000e+00
      997  1    1    2    0    0 +1.2471904189e+00 +2.2700013275e+01 +4.0376663337e+02 4.1658653400e+02 1.0000000000e+02 0.0000e+00 0.0000e+00
</event>
<event>
 5      1 +8.5651000e-08 1.93359400e+02 7.95774700e-02 5.16884400e-01
       13 -1    0    0    0    0 +0.0000000000e+00 +0.0000000000e+00 +4.9999998884e+02 5.0000000000e+02 1.0566000000e-01 0.0000e+00 1.0000e+00
      994 -1    0    0    0    0 -0.0000000000e+00 -0.0000000000e+00 +0.0000000000e+00 1.3100000000e+02 1.3100000000e+02 0.0000e+00 0.0000e+00
       13  1    1    2    0    0 -1.4987469970e+00 +4.0448976879e+01 +7.8643560434e+01 8.8448780291e+01 1.0566000000e-01 0.0000e+00 -1.0000e+00
      994  1    1    2    0    0 +4.8980008491e+00 -6.4551586016e+01 +4.5777074719e+01 1.5312556364e+02 1.3100000000e+02 0.0000e+00 0.0000e+00
      997  1    1    2    0    0 -3.3992538520e+00 +2.4102609137e+01 +3.7557935368e+02 3.8942565607e+02 1.0000000000e+02 0.0000e+00 0.0000e+00
</event>
<event>
 5      1 +8.5651000e-08 1.93641600e+02 7.95774700e-02 5.16311100e-01
       13 -1    0    0    0    0 +0.0000000000e+00 +0.0000000000e+00 +4.9999998884e+02 5.0000000000e+02 1.0566000000e-01 0.0000e+00 -1.0000e+00
      994 -1    0    0    0    0 -0.0000000000e+00 -0.0000000000e+00 +0.0000000000e+00 1.3100000000e+02 1.3100000000e+02 0.0000e+00 0.0000e+00
       13  1    1    2    0    0 -1.1806587395e+01 -1.5486558751e-01 +2.3701363045e+00 1.2043595784e+01 1.0566000000e-01 0.0000e+00 1.0000e+00
      994  1    1    2    0    0 +3.3612000592e+01 -8.9558000622e+01 +8.2294138055e+01 1.8188932684e+02 1.3100000000e+02 0.0000e+00 0.0000e+00
      997  1    1    2    0    0 -2.1805413196e+01 +8.9712866210e+01 +4.1533571448e+02 4.3706707738e+02 1.0000000000e+02 0.0000e+00 0.0000e+00
</event>
<event>
 5      1 +8.5651000e-08 2.06173200e+02 7.95774700e-02 4.92897000e-01
       13 -1    0    0    0    0 +0.0000000000e+00 +0.0000000000e+00 +4.9999998884e+02 5.0000000000e+02 1.0566000000e-01 0.0000e+00 1.0000e+00
      994 -1    0    0    0    0 -0.0000000000e+00 -0.0000000000e+00 +0.0000000000e+00 1.3100000000e+02 1.3100000000e+02 0.0000e+00 0.0000e+00
       13  1    1    2    0    0 -1.6634857248e+01 -1.5497688908e+01 +3.3786177148e+00 2.2985279177e+01 1.0566000000e-01 0.0000e+00 -1.0000e+00
      994  1    1    2    0    0 +3.9674675958e+01 +8.5235640117e+00 +4.4259079184e+01 1.4410620093e+02 1.3100000000e+02 0.0000e+00 0.0000e+00
      997  1    1    2    0    0 -2.3039818710e+01 +6.9741248962e+00 +4.5236229194e+02 4.6390851989e+02 1.0000000000e+02 0.0000e+00 0.0000e+00
</event>
<event>
 5      1 +8.5651000e-08 2.13410600e+02 7.95774700e-02 4.80966700e-01
       13 -1    0    0    0    0 +0.0000000000e+00 +0.0000000000e+00 +4.9999998884e+02 5.0000000000e+02 1.0566000000e-01 0.0000e+00 -1.0000e+00
      994 -1    0    0    0    0 -0.0000000000e+00 -0.0000000000e+00 +0.0000000000e+00 1.3100000000e+02 1.3100000000e+02 0.0000e+00 0.0000e+00
       13  1    1    2    0    0 +5.1165511588e+01 -6.5129965871e+00 +3.9253107755e+01 6.4816250532e+01 1.0566000000e-01 0.0000e+00 1.0000e+00
      994  1    1    2    0    0 -4.0948730887e+01 +1.2302638527e+01 +5.5402674937e+01 1.4852141215e+02 1.3100000000e+02 0.0000e+00 0.0000e+00
      997  1    1    2    0    0 -1.0216780701e+01 -5.7896419398e+00 +4.0534420614e+02 4.1766233732e+02 1.0000000000e+02 0.0000e+00 0.0000e+00
</event>
<event>
 5      1 +8.5651000e-08 1.96966000e+02 7.95774700e-02 5.09719500e-01
       13 -1    0    0    0    0 +0.0000000000e+00 +0.0000000000e+00 +4.9999998884e+02 5.0000000000e+02 1.0566000000e-01 0.0000e+00 1.0000e+00
      994 -1    0    0    0    0 -0.0000000000e+00 -0.0000000000e+00 +0.0000000000e+00 1.3100000000e+02 1.3100000000e+02 0.0000e+00 0.0000e+00
       13  1    1    2    0    0 -1.3701912521e+01 -4.5782655928e+00 +3.7688718747e+00 1.4930454843e+01 1.0566000000e-01 0.0000e+00 -1.0000e+00
      994  1    1    2    0    0 +2.0436828503e+01 +4.5074295782e+00 +2.5884535693e+01 1.3516282798e+02 1.3100000000e+02 0.0000e+00 0.0000e+00
      997  1    1    2    0    0 -6.7349159822e+00 +7.0836014638e-02 +4.7034658127e+02 4.8090671717e+02 1.0000000000e+02 0.0000e+00 0.0000e+00
</event>
<event>
 5      1 +8.5651000e-08 1.39876600e+02 7.95774700e-02 6.91936800e-01
       13 -1    0    0    0    0 +0.0000000000e+00 +0.0000000000e+00 +4.9999998884e+02 5.0000000000e+02 1.0566000000e-01 0.0000e+00 -1.0000e+00
      994 -1    0    0    0    0 -0.0000000000e+00 -0.0000000000e+00 +0.0000000000e+00 1.3100000000e+02 1.3100000000e+02 0.0000e+00 0.0000e+00
       13  1    1    2    0    0 +2.8898977420e+01 -1.8743868475e+01 -1.3740769872e+01 3.7085083552e+01 1.0566000000e-01 0.0000e+00 1.0000e+00
      994  1    1    2    0    0 +2.7620818967e+01 -6.0203945089e+00 +1.0986722377e+02 1.7329443629e+02 1.3100000000e+02 0.0000e+00 0.0000e+00
      997  1    1    2    0    0 -5.6519796388e+01 +2.4764262984e+01 +4.0387353494e+02 4.2062048016e+02 1.0000000000e+02 0.0000e+00 0.0000e+00
</event>
<event>
 5      1 +8.5651000e-08 2.03313300e+02 7.95774700e-02 4.97911600e-01
       13 -1    0    0    0    0 +0.0000000000e+00 +0.0000000000e+00 +4.9999998884e+02 5.0000000000e+02 1.0566000000e-01 0.0000e+00 1.0000e+00
      994 -1    0    0    0    0 -0.0000000000e+00 -0.0000000000e+00 +0.0000000000e+00 1.3100000000e+02 1.3100000000e+02 0.0000e+00 0.0000e+00
       13  1    1    2    0    0 +4.4706980336e+01 -1.8107782204e+00 +5.8567018825e+01 7.3702780589e+01 1.0566000000e-01 0.0000e+00 -1.0000e+00
      994  1    1    2    0    0 -2.8161288323e+01 +2.5932041225e+01 +3.9500910713e+01 1.4208043802e+02 1.3100000000e+02 0.0000e+00 0.0000e+00
      997  1    1    2    0    0 -1.6545692013e+01 -2.4121263005e+01 +4.0193205930e+02 4.1521678139e+02 1.0000000000e+02 0.0000e+00 0.0000e+00
</event>
<event>
 5      1 +8.5651000e-08 2.03816500e+02 7.95774700e-02 4.97016100e-01
       13 -1    0    0    0    0 +0.0000000000e+00 +0.0000000000e+00 +4.9999998884e+02 5.0000000000e+02 1.0566000000e-01 0.0000e+00 -1.0000e+00
      994 -1    0    0    0    0 -0.0000000000e+00 -0.0000000000e+00 +0.0000000000e+00 1.3100000000e+02 1.3100000000e+02 0.0000e+00 0.0000e+00
       13  1    1    2    0    0 -1.1802104832e+01 +1.1726492679e+01 -3.1559683341e-01 1.6640645253e+01 1.0566000000e-01 0.0000e+00 1.0000e+00
      994  1    1    2    0    0 +7.6405496453e+00 -2.5873544456e+01 +3.5084932754e+01 1.3827425938e+02 1.3100000000e+02 0.0000e+00 0.0000e+00
      997  1    1    2    0    0 +4.1615551870e+00 +1.4147051777e+01 +4.6523065292e+02 4.7608509536e+02 1.0000000000e+02 0.0000e+00 0.0000e+00
</event>
<event>
 5      1 +8.5651000e-08 1.95116600e+02 7.95774700e-02 5.13349900e-01
       13 -1    0    0    0    0 +0.0000000000e+00 +0.0000000000e+00 +4.9999998884e+02 5.0000000000e+02 1.0566000000e-01 0.0000e+00 -1.0000e+00
      994 -1    0    0    0    0 -0.0000000000e+00 -0.0000000000e+00 +0.0000000000e+00 1.3100000000e+02 1.3100000000e+02 0.0000e+00 0.0000e+00
       13  1    1    2    0    0 -3.4705525362e+00 -1.8062630884e+01 +2.4975046165e+01 3.1017212388e+01 1.0566000000e-01 0.0000e+00 1.0000e+00
      994  1    1    2    0    0 -1.5613780257e+01 +4.9955158934e+01 +3.2478470551e+01 1.4475896894e+02 1.3100000000e+02 0.0000e+00 0.0000e+00
      997  1    1    2    0    0 +1.9084332793e+01 -3.1892528050e+01 +4.4254647212e+02 4.5522381868e+02 1.0000000000e+02 0.0000e+00 0.0000e+00
</event>
<event>
 5      1 +8.5651000e-08 2.07742600e+02 7.95774700e-02 4.90220000e-01
       13 -1    0    0    0    0 +0.0000000000e+00 +0.0000000000e+00 +4.9999998884e+02 5.0000000000e+02 1.0566000000e-01 0.0000e+00 1.0000e+00
      994 -1    0    0    0    0 -0.0000000000e+00 -0.0000000000e+00 +0.0000000000e+00 1.3100000000e+02 1.3100000000e+02 0.0000e+00 0.0000e+00
       13  1    1    2    0    0 -6.4452195668e+01 +2.2839547172e+01 +1.7021299104e+02 1.8343446765e+02 1.0566000000e-01 0.0000e+00 -1.0000e+00
      994  1    1    2    0    0 +6.6103933529e+01 +3.9448201507e+01 +8.0763021580e+01 1.7207427549e+02 1.3100000000e+02 0.0000e+00 0.0000e+00
      997  1    1    2    0    0 -1.6517378609e+00 -6.2287748679e+01 +2.4902397622e+02 2.7549125686e+02 1.0000000000e+02 0.0000e+00 0.0000e+00
</event>
<event>
 5      1 +8.5651000e-08 2.28833600e+02 7.95774700e-02 4.58645100e-01
       13 -1    0    0    0    0 +0.0000000000e+00 +0.0000000000e+00 +4.9999998884e+02 5.0000000000e+02 1.0566000000e-01 0.0000e+00 -1.0000e+00
      994 -1    0    0    0    0 -0.0000000000e+00 -0.0000000000e+00 +0.0000000000e+00 1.3100000000e+02 1.3100000000e+02 0.0000e+00 0.0000e+00
       13  1    1    2    0    0 -5.5904309691e+00 -3.8803863084e+01 -6.1914991471e+00 3.9690534569e+01 1.0566000000e-01 0.0000e+00 1.0000e+00
      994  1    1    2    0    0 +1.4240312084e+00 +6.4844328163e+01 +1.1304764404e+02 1.8479065069e+02 1.3100000000e+02 0.0000e+00 0.0000e+00
      997  1    1    2    0    0 +4.1663997607e+00 -2.6040465079e+01 +3.9314384394e+02 4.0651881474e+02 1.0000000000e+02 0.0000e+00 0.0000e+00
</event>
<event>
 5      1 +8.5651000e-08 1.98954600e+02 7.95774700e-02 5.05914400e-01
       13 -1    0    0    0    0 +0.0000000000e+00 +0.0000000000e+00 +4.9999998884e+02 5.0000000000e+02 1.0566000000e-01 0.0000e+00 -1.0000e+00
      994 -1    0    0    0    0 -0.0000000000e+00 -0.0000000000e+00 +0.0000000000e+00 1.3100000000e+02 1.3100000000e+02 0.0000e+00 0.0000e+00
       13  1    1    2    0    0 -2.4610788341e+01 +8.8975157362e+00 +2.0813224190e+01 3.3437376606e+01 1.0566000000e-01 0.0000e+00 1.0000e+00
      994  1    1    2    0    0 +2.7726236936e+01 +3.9573110362e+00 +3.0118109745e+01 1.3730442476e+02 1.3100000000e+02 0.0000e+00 0.0000e+00
      997  1    1    2    0    0 -3.1154485948e+00 -1.2854826772e+01 +4.4906865490e+02 4.6025819863e+02 1.0000000000e+02 0.0000e+00 0.0000e+00
</event>
<event>
 5      1 +8.5651000e-08 1.97562000e+02 7.95774700e-02 5.08568400e-01
       13 -1    0    0    0    0 +0.0000000000e+00 +0.0000000000e+00 +4.9999998884e+02 5.0000000000e+02 1.0566000000e-01 0.0000e+00 1.0000e+00
      994 -1    0    0    0    0 -0.0000000000e+00 -0.0000000000e+00 +0.0000000000e+00 1.3100000000e+02 1.3100000000e+02 0.0000e+00 0.0000e+00
       13  1    1    2    0    0 +1.5096384646e+01 -1.0447104518e+01 +5.0557902829e+01 5.3788061172e+01 1.0566000000e-01 0.0000e+00 -1.0000e+00
      994  1    1    2    0    0 -1.6306522295e+01 +5.6092684103e+01 +3.3914982680e+01 1.4738900206e+02 1.3100000000e+02 0.0000e+00 0.0000e+00
      997  1    1    2    0    0 +1.2101376498e+00 -4.5645579585e+01 +4.1552710333e+02 4.2982293676e+02 1.0000000000e+02 0.0000e+00 0.0000e+00
</event>
<event>
 5      1 +8.5651000e-08 1.98019700e+02 7.95774700e-02 5.07690900e-01
       13 -1    0    0    0    0 +0.0000000000e+00 +0.0000000000e+00 +4.9999998884e+02 5.0000000000e+02 1.0566000000e-01 0.0000e+00 1.0000e+00
      994 -1    0    0    0    0 -0.0000000000e+00 -0.0000000000e+00 +0.0000000000e+00 1.3100000000e+02 1.3100000000e+02 0.0000e+00 0.0000e+00
       13  1    1    2    0    0 +9.2283503129e+00 +2.5588413459e+01 +2.3212005560e+01 3.5759442375e+01 1.0566000000e-01 0.0000e+00 -1.0000e+00
      994  1    1    2    0    0 -5.1337096976e+01 -1.8152789470e+01 +4.3314151838e+01 1.4833117353e+02 1.3100000000e+02 0.0000e+00 0.0000e+00
      997  1    1    2    0    0 +4.2108746664e+01 -7.4356239888e+00 +4.3347383144e+02 4.4690938409e+02 1.0000000000e+02 0.0000e+00 0.0000e+00
</event>
<event>
 5      1 +8.5651000e-08 2.01300200e+02 7.95774700e-02 5.01551800e-01
       13 -1    0    0    0    0 +0.0000000000e+00 +0.0000000000e+00 +4.9999998884e+02 5.0000000000e+02 1.0566000000e-01 0.0000e+00 -1.0000e+00
      994 -1    0    0    0    0 -0.0000000000e+00 -0.0000000000e+00 +0.0000000000e+00 1.3100000000e+02 1.3100000000e+02 0.0000e+00 0.0000e+00
       13  1    1    2    0    0 +6.9062322700e+00 -3.0619001953e+01 +4.8242428432e+01 5.7554864172e+01 1.0566000000e-01 0.0000e+00 1.0000e+00
      994  1    1    2    0    0 +1.5283460272e+01 -3.3728455395e+01 +3.6520165965e+01 1.4094649830e+02 1.3100000000e+02 0.0000e+00 0.0000e+00
      997  1    1    2    0    0 -2.2189692542e+01 +6.4347457348e+01 +4.1523739444e+02 4.3249863753e+02 1.0000000000e+02 0.0000e+00 0.0000e+00
</event>
<event>
 5      1 +8.5651000e-08 1.97018000e+02 7.95774700e-02 5.09618600e-01
       13 -1    0    0    0    0 +0.0000000000e+00 +0.0000000000e+00 +4.9999998884e+02 5.0000000000e+02 1.0566000000e-01 0.0000e+00 -1.0000e+00
      994 -1    0    0    0    0 -0.0000000000e+00 -0.0000000000e+00 +0.0000000000e+00 1.3100000000e+02 1.3100000000e+02 0.0000e+00 0.0000e+00
       13  1    1    2    0    0 +1.0629368458e+01 -1.1826094498e+01 +5.2335208454e+01 5.4697579406e+01 1.0566000000e-01 0.0000e+00 1.0000e+00
      994  1    1    2    0    0 -7.6241786903e+00 +1.1471034319e-01 +1.5010632831e+01 1.3207747861e+02 1.3100000000e+02 0.0000e+00 0.0000e+00
      997  1    1    2    0    0 -3.0051897676e+00 +1.1711384154e+01 +4.3265414755e+02 4.4422494198e+02 1.0000000000e+02 0.0000e+00 0.0000e+00
</event>
<event>
 5      1 +8.5651000e-08 1.94816400e+02 7.95774700e-02 5.13947800e-01
       13 -1    0    0    0    0 +0.0000000000e+00 +0.0000000000e+00 +4.9999998884e+02 5.0000000000e+02 1.0566000000e-01 0.0000e+00 1.0000e+00
      994 -1    0    0    0    0 -0.0000000000e+00 -0.0000000000e+00 +0.0000000000e+00 1.3100000000e+02 1.3100000000e+02 0.0000e+00 0.0000e+00
       13  1    1    2    0    0 +1.8847184539e+01 -5.2632973805e+00 +3.6202680414e+01 4.1152933037e+01 1.0566000000e-01 0.0000e+00 -1.0000e+00
      994  1    1    2    0    0 -1.5960407369e+01 +1.3434100602e+01 +1.9167596597e+01 1.3402837917e+02 1.3100000000e+02 0.0000e+00 0.0000e+00
      997  1    1    2    0    0 -2.8867771698e+00 -8.1708032220e+00 +4.4462971183e+02 4.5581868780e+02 1.0000000000e+02 0.0000e+00 0.0000e+00
</event>
<event>
 5      1 +8.5651000e-08 1.93109900e+02 7.95774700e-02 5.17393200e-01
       13 -1    0    0    0    0 +0.0000000000e+00 +0.0000000000e+00 +4.9999998884e+02 5.0000000000e+02 1.0566000000e-01 0.0000e+00 1.0000e+00
      994 -1    0    0    0    0 -0.0000000000e+00 -0.0000000000e+00 +0.0000000000e+00 1.3100000000e+02 1.3100000000e+02 0.0000e+00 0.0000e+00
       13  1    1    2    0    0 -2.0751680281e+00 +2.0043982010e+01 +2.6740541186e+01 3.3483357719e+01 1.0566000000e-01 0.0000e+00 -1.0000e+00
      994  1    1    2    0    0 +3.1558716213e+01 +2.5652822186e+00 +2.5422480165e+01 1.3714895457e+02 1.3100000000e+02 0.0000e+00 0.0000e+00
      997  1    1    2    0    0 -2.9483548185e+01 -2.2609264228e+01 +4.4783696748e+02 4.6036768771e+02 1.0000000000e+02 0.0000e+00 0.0000e+00
</event>
<event>
 5      1 +8.5651000e-08 1.93030800e+02 7.95774700e-02 5.17555000e-01
       13 -1    0    0    0    0 +0.0000000000e+00 +0.0000000000e+00 +4.9999998884e+02 5.0000000000e+02 1.0566000000e-01 0.0000e+00 1.0000e+00
      994 -1    0    0    0    0 -0.0000000000e+00 -0.0000000000e+00 +0.0000000000e+00 1.3100000000e+02 1.3100000000e+02 0.0000e+00 0.0000e+00
       13  1    1    2    0    0 -1.0366147764e+01 +4.8709001182e+00 +4.0075795517e+00 1.2134848385e+01 1.0566000000e-01 0.0000e+00 -1.0000e+00
      994  1    1    2    0    0 +2.3898409921e+01 -1.0830493789e+01 +2.3465982545e+01 1.3564691640e+02 1.3100000000e+02 0.0000e+00 0.0000e+00
      997  1    1    2    0    0 -1.3532262157e+01 +5.9595936710e+00 +4.7252642674e+02 4.8321823521e+02 1.0000000000e+02 0.0000e+00 0.0000e+00
</event>
<event>
 5      1 +8.5651000e-08 2.18444800e+02 7.95774700e-02 4.73251100e-01
       13 -1    0    0    0    0 +0.0000000000e+00 +0.0000000000e+00 +4.9999998884e+02 5.0000000000e+02 1.0566000000e-01 0.0000e+00 1.0000e+00
      994 -1    0    0    0    0 -0.0000000000e+00 -0.0000000000e+00 +0.0000000000e+00 1.3100000000e+02 1.3100000000e+02 0.0000e+00 0.0000e+00
       13  1    1    2    0    0 +3.2499503201e+00 -1.4903631069e+01 -1.0050734966e+01 1.8267699185e+01 1.0566000000e-01 0.0000e+00 -1.0000e+00
      994  1    1    2    0    0 +2.3978487197e+01 -7.0964895697e+00 +5.2915238838e+01 1.4347944283e+02 1.3100000000e+02 0.0000e+00 0.0000e+00
      997  1    1    2    0    0 -2.7228437517e+01 +2.2000120639e+01 +4.5713548496e+02 4.6925285799e+02 1.0000000000e+02 0.0000e+00 0.0000e+00
</event>
<event>
 5      1 +8.5651000e-08 1.99627900e+02 7.95774700e-02 5.04648500e-01
       13 -1    0    0    0    0 +0.0000000000e+00 +0.0000000000e+00 +4.9999998884e+02 5.0000000000e+02 1.0566000000e-01 0.0000e+00 -1.0000e+00
      994 -1    0    0    0    0 -0.0000000000e+00 -0.0000000000e+00 +0.0000000000e+00 1.3100000000e+02 1.3100000000e+02 0.0000e+00 0.0000e+00
       13  1    1    2    0    0 +1.7721671972e+01 +5.0725205260e+01 +9.8324240069e+01 1.1204807654e+02 1.0566000000e-01 0.0000e+00 1.0000e+00
      994  1    1    2    0    0 -2.6365443526e+01 -4.9528479919e+01 +4.6562758624e+01 1.4992430565e+02 1.3100000000e+02 0.0000e+00 0.0000e+00
      997  1    1    2    0    0 +8.6437715546e+00 -1.1967253413e+00 +3.5511299014e+02 3.6902761781e+02 1.0000000000e+02 0.0000e+00 0.0000e+00
</event>
<event>
 5      1 +8.5651000e-08 1.96252200e+02 7.95774700e-02 5.11110000e-01
       13 -1    0    0    0    0 +0.0000000000e+00 +0.0000000000e+00 +4.9999998884e+02 5.0000000000e+02 1.0566000000e-01 0.0000e+00 1.0000e+00
      994 -1    0    0    0    0 -0.0000000000e+00 -0.0000000000e+00 +0.0000000000e+00 1.3100000000e+02 1.3100000000e+02 0.0000e+00 0.0000e+00
       13  1    1    2    0    0 +1.2114995818e+01 +1.3140469053e+01 +1.1749855066e+01 2.1389607493e+01 1.0566000000e-01 0.0000e+00 -1.0000e+00
      994  1    1    2    0    0 +2.6157632797e+01 -2.1518097686e+01 +2.9540337548e+01 1.3849506065e+02 1.3100000000e+02 0.0000e+00 0.0000e+00
      997  1    1    2    0    0 -3.8272628614e+01 +8.3776286323e+00 +4.5870979622e+02 4.7111533186e+02 1.0000000000e+02 0.0000e+00 0.0000e+00
</event>
<event>
 5      1 +8.5651000e-08 1.96399400e+02 7.95774700e-02 5.10822200e-01
       13 -1    0    0    0    0 +0.0000000000e+00 +0.0000000000e+00 +4.9999998884e+02 5.0000000000e+02 1.0566000000e-01 0.0000e+00 1.0000e+00
      994 -1    0    0    0    0 -0.0000000000e+00 -0.0000000000e+00 +0.0000000000e+00 1.3100000000e+02 1.3100000000e+02 0.0000e+00 0.0000e+00
       13  1    1    2    0    0 +1.5327633840e+01 +9.2529030876e+00 +1.2178821481e+01 2.1653808704e+01 1.0566000000e-01 0.0000e+00 -1.0000e+00
      994  1    1    2    0    0 +2.2590359764e+01 -2.0689051244e+01 +2.8395044052e+01 1.3749778079e+02 1.3100000000e+02 0.0000e+00 0.0000e+00
      997  1    1    2    0    0 -3.7917993605e+01 +1.1436148156e+01 +4.5942612330e+02 4.7184841050e+02 1.0000000000e+02 0.0000e+00 0.0000e+00
</event>
<event>
 5      1 +8.5651000e-08 1.95357200e+02 7.95774700e-02 5.12872400e-01
       13 -1    0    0    0    0 +0.0000000000e+00 +0.0000000000e+00 +4.9999998884e+02 5.0000000000e+02 1.0566000000e-01 0.0000e+00 -1.0000e+00
      994 -1    0    0    0    0 -0.0000000000e+00 -0.0000000000e+00 +0.0000000000e+00 1.3100000000e+02 1.3100000000e+02 0.0000e+00 0.0000e+00
       13  1    1    2    0    0 +3.1318612246e+01 +4.1202623787e+00 +7.5745303431e+01 8.2068228877e+01 1.0566000000e-01 0.0000e+00 1.0000e+00
      994  1    1    2    0    0 +3.3365575548e+00 -3.6679826521e+01 +2.9898859776e+01 1.3932510221e+02 1.3100000000e+02 0.0000e+00 0.0000e+00
      997  1    1    2    0    0 -3.4655169801e+01 +3.2559564142e+01 +3.9435582563e+02 4.0960666891e+02 1.0000000000e+02 0.0000e+00 0.0000e+00
</event>
<event>
 5      1 +8.5651000e-08 2.18497300e+02 7.95774700e-02 4.73173000e-01
       13 -1    0    0    0    0 +0.0000000000e+00 +0.0000000000e+00 +4.9999998884e+02 5.0000000000e+02 1.0566000000e-01 0.0000e+00 -1.0000e+00
      994 -1    0    0    0    0 -0.0000000000e+00 -0.0000000000e+00 +0.0000000000e+00 1.3100000000e+02 1.3100000000e+02 0.0000e+00 0.0000e+00
       13  1    1    2    0    0 +3.9345880452e+01 -2.1641158565e+01 +2.0236392644e+01 4.9254043528e+01 1.0566000000e-01 0.0000e+00 1.0000e+00
      994  1    1    2    0    0 -1.5875341624e+01 +3.0171389573e+01 +5.7474245936e+01 1.4705994753e+02 1.3100000000e+02 0.0000e+00 0.0000e+00
      997  1    1    2    0    0 -2.3470538828e+01 -8.5302310071e+00 +4.2228935026e+02 4.3468600895e+02 1.0000000000e+02 0.0000e+00 0.0000e+00
</event>
<event>
 5      1 +8.5651000e-08 1.95018500e+02 7.95774700e-02 5.13544900e-01
       13 -1    0    0    0    0 +0.0000000000e+00 +0.0000000000e+00 +4.9999998884e+02 5.0000000000e+02 1.0566000000e-01 0.0000e+00 -1.0000e+00
      994 -1    0    0    0    0 -0.0000000000e+00 -0.0000000000e+00 +0.0000000000e+00 1.3100000000e+02 1.3100000000e+02 0.0000e+00 0.0000e+00
       13  1    1    2    0    0 -1.2086755305e+01 +4.1717760250e+00 +4.4006244815e+00 1.3522944534e+01 1.0566000000e-01 0.0000e+00 1.0000e+00
      994  1    1    2    0    0 -1.9241518796e-01 -1.4424984824e+01 +2.2547892815e+01 1.3370686101e+02 1.3100000000e+02 0.0000e+00 0.0000e+00
      997  1    1    2    0    0 +1.2279170493e+01 +1.0253208799e+01 +4.7305147154e+02 4.8377019446e+02 1.0000000000e+02 0.0000e+00 0.0000e+00
</event>
<event>
 5      1 +8.5651000e-08 1.95295300e+02 7.95774700e-02 5.12995200e-01
       13 -1    0    0    0    0 +0.0000000000e+00 +0.0000000000e+00 +4.9999998884e+02 5.0000000000e+02 1.0566000000e-01 0.0000e+00 1.0000e+00
      994 -1    0    0    0    0 -0.0000000000e+00 -0.0000000000e+00 +0.0000000000e+00 1.3100000000e+02 1.3100000000e+02 0.0000e+00 0.0000e+00
       13  1    1    2    0    0 -2.1450630130e+01 +3.7653969371e-01 +7.6277419555e+01 7.9237158033e+01 1.0566000000e-01 0.0000e+00 -1.0000e+00
      994  1    1    2    0    0 +7.2415277226e+00 -6.0604912968e+00 +1.6748252126e+01 1.3240344870e+02 1.3100000000e+02 0.0000e+00 0.0000e+00
      997  1    1    2    0    0 +1.4209102408e+01 +5.6839516030e+00 +4.0697431716e+02 4.1935939327e+02 1.0000000000e+02 0.0000e+00 0.0000e+00
</event>
<event>
 5      1 +8.5651000e-08 1.96162600e+02 7.95774700e-02 5.11285600e-01
       13 -1    0    0    0    0 +0.0000000000e+00 +0.0000000000e+00 +4.9999998884e+02 5.0000000000e+02 1.0566000000e-01 0.0000e+00 1.0000e+00
      994 -1    0    0    0    0 -0.0000000000e+00 -0.0000000000e+00 +0.0000000000e+00 1.3100000000e+02 1.3100000000e+02 0.0000e+00 0.0000e+00
       13  1    1    2    0    0 -1.8573988861e+01 +2.9267691904e+00 +1.3867535570e+01 2.3364048171e+01 1.0566000000e-01 0.0000e+00 -1.0000e+00
      994  1    1    2    0    0 +1.2704111673e+00 +5.5213703468e+00 +2.2608942140e+01 1.3305737011e+02 1.3100000000e+02 0.0000e+00 0.0000e+00
      997  1    1    2    0    0 +1.7303577694e+01 -8.4481395373e+00 +4.6352351113e+02 4.7457858172e+02 1.0000000000e+02 0.0000e+00 0.0000e+00
</event>
<event>
 5      1 +8.5651000e-08 1.94845200e+02 7.95774700e-02 5.13890300e-01
       13 -1    0    0    0    0 +0.0000000000e+00 +0.0000000000e+00 +4.9999998884e+02 5.0000000000e+02 1.0566000000e-01 0.0000e+00 1.0000e+00
      994 -1    0    0    0    0 -0.0000000000e+00 -0.0000000000e+00 +0.0000000000e+00 1.3100000000e+02 1.3100000000e+02 0.0000e+00 0.0000e+00
       13  1    1    2    0    0 -6.0820803783e+00 -1.6139732528e+01 +6.2098241997e+01 6.4449092243e+01 1.0566000000e-01 0.0000e+00 -1.0000e+00
      994  1    1    2    0    0 -3.4541366812e+01 -1.3750364246e+01 +2.4643856644e+01 1.3838532512e+02 1.3100000000e+02 0.0000e+00 0.0000e+00
      997  1    1    2    0    0 +4.0623447190e+01 +2.9890096775e+01 +4.1325789019e+02 4.2816558264e+02 1.0000000000e+02 0.0000e+00 0.0000e+00
</event>
<event>
 5      1 +8.5651000e-08 2.06245000e+02 7.95774700e-02 4.92773400e-01
       13 -1    0    0    0    0 +0.0000000000e+00 +0.0000000000e+00 +4.9999998884e+02 5.0000000000e+02 1.0566000000e-01 0.0000e+00 1.0000e+00
      994 -1    0    0    0    0 -0.0000000000e+00 -0.0000000000e+00 +0.0000000000e+00 1.3100000000e+02 1.3100000000e+02 0.0000e+00 0.0000e+00
       13  1    1    2    0    0 -3.2462720979e+00 -2.1188007286e+01 +3.3498543618e+00 2.1695682141e+01 1.0566000000e-01 0.0000e+00 -1.0000e+00
      994  1    1    2    0    0 -1.4454164298e+01 +1.4831297281e+01 +3.5826702365e+01 1.3738064946e+02 1.3100000000e+02 0.0000e+00 0.0000e+00
      997  1    1    2    0    0 +1.7700436396e+01 +6.3567100054e+00 +4.6082343211e+02 4.7192366840e+02 1.0000000000e+02 0.0000e+00 0.0000e+00
</event>
<event>
 5      1 +8.5651000e-08 1.96824600e+02 7.95774700e-02 5.09993800e-01
       13 -1    0    0    0    0 +0.0000000000e+00 +0.0000000000e+00 +4.9999998884e+02 5.0000000000e+02 1.0566000000e-01 0.0000e+00 -1.0000e+00
      994 -1    0    0    0    0 -0.0000000000e+00 -0.0000000000e+00 +0.0000000000e+00 1.3100000000e+02 1.3100000000e+02 0.0000e+00 0.0000e+00
       13  1    1    2    0    0 -1.2293272556e+01 +7.3537592985e+00 +3.2521999782e+01 3.5537219359e+01 1.0566000000e-01 0.0000e+00 1.0000e+00
      994  1    1    2    0    0 +1.6948472285e+01 +1.7982224205e+01 +1.8291518827e+01 1.3455924629e+02 1.3100000000e+02 0.0000e+00 0.0000e+00
      997  1    1    2    0    0 -4.6551997286e+00 -2.5335983504e+01 +4.4918647023e+02 4.6090353435e+02 1.0000000000e+02 0.0000e+00 0.0000e+00
</event>
<event>
 5      1 +8.5651000e-08 2.10597400e+02 7.95774700e-02 4.85480600e-01
       13 -1    0    0    0    0 +0.0000000000e+00 +0.0000000000e+00 +4.9999998884e+02 5.0000000000e+02 1.0566000000e-01 0.0000e+00 1.0000e+00
      994 -1    0    0    0    0 -0.0000000000e+00 -0.0000000000e+00 +0.0000000000e+00 1.3100000000e+02 1.3100000000e+02 0.0000e+00 0.0000e+00
       13  1    1    2    0    0 -1.4198042263e+01 -1.5794668303e+01 -1.4180057726e+00 2.1285625556e+01 1.0566000000e-01 0.0000e+00 -1.0000e+00
      994  1    1    2    0    0 +1.3953141555e+01 +2.1350783284e+01 +4.2602389605e+01 1.4009464553e+02 1.3100000000e+02 0.0000e+00 0.0000e+00
      997  1    1    2    0    0 +2.4490070830e-01 -5.5561149809e+00 +4.5881560500e+02 4.6961972891e+02 1.0000000000e+02 0.0000e+00 0.0000e+00
</event>
<event>
 5      1 +8.5651000e-08 2.01967300e+02 7.95774700e-02 5.00335200e-01
       13 -1    0    0    0    0 +0.0000000000e+00 +0.0000000000e+00 +4.9999998884e+02 5.0000000000e+02 1.0566000000e-01 0.0000e+00 1.0000e+00
      994 -1    0    0    0    0 -0.0000000000e+00 -0.0000000000e+00 +0.0000000000e+00 1.3100000000e+02 1.3100000000e+02 0.0000e+00 0.0000e+00
       13  1    1    2    0    0 -1.4715080936e+01 -2.1271207249e+01 +1.5855619602e+01 3.0338254758e+01 1.0566000000e-01 0.0000e+00 -1.0000e+00
      994  1    1    2    0    0 -1.5276388551e+01 +2.5207745973e+01 +3.3945517860e+01 1.3849944652e+02 1.3100000000e+02 0.0000e+00 0.0000e+00
      997  1    1    2    0    0 +2.9991469487e+01 -3.9365387243e+00 +4.5019885137e+02 4.6216229872e+02 1.0000000000e+02 0.0000e+00 0.0000e+00
</event>
<event>
 5      1 +8.5651000e-08 1.97599500e+02 7.95774700e-02 5.08496300e-01
       13 -1    0    0    0    0 +0.0000000000e+00 +0.0000000000e+00 +4.9999998884e+02 5.0000000000e+02 1.0566000000e-01 0.0000e+00 1.0000e+00
      994 -1    0    0    0    0 -0.0000000000e+00 -0.0000000000e+00 +0.0000000000e+00 1.3100000000e+02 1.3100000000e+02 0.0000e+00 0.0000e+00
       13  1    1    2    0    0 +8.1023065311e+00 +1.0418643361e+01 +3.2824538347e+01 3.5378764568e+01 1.0566000000e-01 0.0000e+00 -1.0000e+00
      994  1    1    2    0    0 +4.5908442349e+01 -6.3538708994e+01 +5.1012249959e+01 1.6095962930e+02 1.3100000000e+02 0.0000e+00 0.0000e+00
      997  1    1    2    0    0 -5.4010748880e+01 +5.3120065634e+01 +4.1616320053e+02 4.3466160613e+02 1.0000000000e+02 0.0000e+00 0.0000e+00
</event>
<event>
 5      1 +8.5651000e-08 1.96809700e+02 7.95774700e-02 5.10022800e-01
       13 -1    0    0    0    0 +0.0000000000e+00 +0.0000000000e+00 +4.9999998884e+02 5.0000000000e+02 1.0566000000e-01 0.0000e+00 -1.0000e+00
      994 -1    0    0    0    0 -0.0000000000e+00 -0.0000000000e+00 +0.0000000000e+00 1.3100000000e+02 1.3100000000e+02 0.0000e+00 0.0000e+00
       13  1    1    2    0    0 -1.2552985929e+01 +9.8920591967e+00 +7.6261353013e+01 7.7918132795e+01 1.0566000000e-01 0.0000e+00 1.0000e+00
      994  1    1    2    0    0 +8.5578929153e+00 +1.0259231545e+01 +1.5871512858e+01 1.3263255363e+02 1.3100000000e+02 0.0000e+00 0.0000e+00
      997  1    1    2    0    0 +3.9950930135e+00 -2.0151290742e+01 +4.0786712296e+02 4.2044931357e+02 1.0000000000e+02 0.0000e+00 0.0000e+00
</event>
<event>
 5      1 +8.5651000e-08 1.93837800e+02 7.95774700e-02 5.15913700e-01
       13 -1    0    0    0    0 +0.0000000000e+00 +0.0000000000e+00 +4.9999998884e+02 5.0000000000e+02 1.0566000000e-01 0.0000e+00 1.0000e+00
      994 -1    0    0    0    0 -0.0000000000e+00 -0.0000000000e+00 +0.0000000000e+00 1.3100000000e+02 1.3100000000e+02 0.0000e+00 0.0000e+00
       13  1    1    2    0    0 +3.0315040593e+01 +5.4814089833e+00 +5.7628397307e+01 6.5345932320e+01 1.0566000000e-01 0.0000e+00 -1.0000e+00
      994  1    1    2    0    0 -3.2955823697e+01 +2.4009380278e+01 +3.0187495627e+01 1.4048068034e+02 1.3100000000e+02 0.0000e+00 0.0000e+00
      997  1    1    2    0    0 +2.6407831044e+00 -2.9490789261e+01 +4.1218409590e+02 4.2517338734e+02 1.0000000000e+02 0.0000e+00 0.0000e+00
</event>
<event>
 5      1 +8.5651000e-08 1.97369000e+02 7.95774700e-02 5.08940200e-01
       13 -1    0    0    0    0 +0.0000000000e+00 +0.0000000000e+00 +4.9999998884e+02 5.0000000000e+02 1.0566000000e-01 0.0000e+00 -1.0000e+00
      994 -1    0    0    0    0 -0.0000000000e+00 -0.0000000000e+00 +0.0000000000e+00 1.3100000000e+02 1.3100000000e+02 0.0000e+00 0.0000e+00
       13  1    1    2    0    0 +1.3942212038e+01 -2.7261020616e+01 +4.5884902821e+01 5.5163248567e+01 1.0566000000e-01 0.0000e+00 1.0000e+00
      994  1    1    2    0    0 -1.6823751160e+01 -3.5007264995e+00 +2.5414246244e+01 1.3454433322e+02 1.3100000000e+02 0.0000e+00 0.0000e+00
      997  1    1    2    0    0 +2.8815391228e+00 +3.0761747116e+01 +4.2870083977e+02 4.4129241821e+02 1.0000000000e+02 0.0000e+00 0.0000e+00
</event>
<event>
 5      1 +8.5651000e-08 1.94033300e+02 7.95774700e-02 5.15518900e-01
       13 -1    0    0    0    0 +0.0000000000e+00 +0.0000000000e+00 +4.9999998884e+02 5.0000000000e+02 1.0566000000e-01 0.0000e+00 1.0000e+00
      994 -1    0    0    0    0 -0.0000000000e+00 -0.0000000000e+00 +0.0000000000e+00 1.3100000000e+02 1.3100000000e+02 0.0000e+00 0.0000e+00
       13  1    1    2    0    0 +2.1520596453e+01 -2.5324213551e+01 +7.4238365094e+01 8.1337555161e+01 1.0566000000e-01 0.0000e+00 -1.0000e+00
      994  1    1    2    0    0 -2.7556030406e+01 +7.9511835918e+00 +2.5266826212e+01 1.3646233414e+02 1.3100000000e+02 0.0000e+00 0.0000e+00
      997  1    1    2    0    0 +6.0354339536e+00 +1.7373029959e+01 +4.0049479753e+02 4.1320011070e+02 1.0000000000e+02 0.0000e+00 0.0000e+00
</event>
<event>
 5      1 +8.5651000e-08 1.94680700e+02 7.95774700e-02 5.14218700e-01
       13 -1    0    0    0    0 +0.0000000000e+00 +0.0000000000e+00 +4.9999998884e+02 5.0000000000e+02 1.0566000000e-01 0.0000e+00 -1.0000e+00
      994 -1    0    0    0    0 -0.0000000000e+00 -0.0000000000e+00 +0.0000000000e+00 1.3100000000e+02 1.3100000000e+02 0.0000e+00 0.0000e+00
       13  1    1    2    0    0 +2.2469808171e+01 +1.3923756423e+01 +4.3637746943e+01 5.1019872545e+01 1.0566000000e-01 0.0000e+00 1.0000e+00
      994  1    1    2    0    0 +6.6721123558e+00 -1.7380665729e+01 +2.3047121476e+01 1.3430850469e+02 1.3100000000e+02 0.0000e+00 0.0000e+00
      997  1    1    2    0    0 -2.9141920527e+01 +3.4569093060e+00 +4.3331512042e+02 4.4567162276e+02 1.0000000000e+02 0.0000e+00 0.0000e+00
</event>
<event>
 5      1 +8.5651000e-08 1.97320700e+02 7.95774700e-02 5.09033400e-01
       13 -1    0    0    0    0 +0.0000000000e+00 +0.0000000000e+00 +4.9999998884e+02 5.0000000000e+02 1.0566000000e-01 0.0000e+00 -1.0000e+00
      994 -1    0    0    0    0 -0.0000000000e+00 -0.0000000000e+00 +0.0000000000e+00 1.3100000000e+02 1.3100000000e+02 0.0000e+00 0.0000e+00
       13  1    1    2    0    0 -2.2554553275e+01 +2.3953681920e+00 +1.7219284993e+01 2.8477369996e+01 1.0566000000e-01 0.0000e+00 1.0000e+00
      994  1    1    2    0    0 +2.0440647132e+01 -1.6344888920e+01 +2.7777128997e+01 1.3644612250e+02 1.3100000000e+02 0.0000e+00 0.0000e+00
      997  1    1    2    0    0 +2.1139061427e+00 +1.3949520728e+01 +4.5500357485e+02 4.6607650751e+02 1.0000000000e+02 0.0000e+00 0.0000e+00
</event>
<event>
 5      1 +8.5651000e-08 1.96930400e+02 7.95774700e-02 5.09788500e-01
       13 -1    0    0    0    0 +0.0000000000e+00 +0.0000000000e+00 +4.9999998884e+02 5.0000000000e+02 1.0566000000e-01 0.0000e+00 -1.0000e+00
      994 -1    0    0    0    0 -0.0000000000e+00 -0.0000000000e+00 +0.0000000000e+00 1.3100000000e+02 1.3100000000e+02 0.0000e+00 0.0000e+00
       13  1    1    2    0    0 -2.6249623662e+01 +1.0725695334e+01 +5.3828818026e+01 6.0841072450e+01 1.0566000000e-01 0.0000e+00 1.0000e+00
      994  1    1    2    0    0 -2.3864885043e+01 +2.4210406626e+00 +2.6695708756e+01 1.3582729859e+02 1.3100000000e+02 0.0000e+00 0.0000e+00
      997  1    1    2    0    0 +5.0114508705e+01 -1.3146735996e+01 +4.1947546205e+02 4.3433162896e+02 1.0000000000e+02 0.0000e+00 0.0000e+00
</event>
<event>
 5      1 +8.5651000e-08 1.96550000e+02 7.95774700e-02 5.10528300e-01
       13 -1    0    0    0    0 +0.0000000000e+00 +0.0000000000e+00 +4.9999998884e+02 5.0000000000e+02 1.0566000000e-01 0.0000e+00 1.0000e+00
      994 -1    0    0    0    0 -0.0000000000e+00 -0.0000000000e+00 +0.0000000000e+00 1.3100000000e+02 1.3100000000e+02 0.0000e+00 0.0000e+00
       13  1    1    2    0    0 -1.2911595993e+01 +9.3565052322e+00 +3.8421757053e+01 4.1599231728e+01 1.0566000000e-01 0.0000e+00 -1.0000e+00
      994  1    1    2    0    0 +1.1947420897e+01 +2.3811835844e+00 +1.5938467452e+01 1.3252715060e+02 1.3100000000e+02 0.0000e+00 0.0000e+00
      997  1    1    2    0    0 +9.6417509599e-01 -1.1737688817e+01 +4.4563976433e+02 4.5687361767e+02 1.0000000000e+02 0.0000e+00 0.0000e+00
</event>
<event>
 5      1 +8.5651000e-08 1.93003300e+02 7.95774700e-02 5.17611200e-01
       13 -1    0    0    0    0 +0.0000000000e+00 +0.0000000000e+00 +4.9999998884e+02 5.0000000000e+02 1.0566000000e-01 0.0000e+00 -1.0000e+00
      994 -1    0    0    0    0 -0.0000000000e+00 -0.0000000000e+00 +0.0000000000e+00 1.3100000000e+02 1.3100000000e+02 0.0000e+00 0.0000e+00
       13  1    1    2    0    0 -2.3094219603e+01 -1.2268218066e+01 +7.5681921684e+01 8.0072570756e+01 1.0566000000e-01 0.0000e+00 1.0000e+00
      994  1    1    2    0    0 -2.4414279465e-01 -1.7503690130e+01 +2.1177649545e+01 1.3385040760e+02 1.3100000000e+02 0.0000e+00 0.0000e+00
      997  1    1    2    0    0 +2.3338362398e+01 +2.9771908196e+01 +4.0314041761e+02 4.1707702165e+02 1.0000000000e+02 0.0000e+00 0.0000e+00
</event>
<event>
 5      1 +8.5651000e-08 1.95221600e+02 7.95774700e-02 5.13141400e-01
       13 -1    0    0    0    0 +0.0000000000e+00 +0.0000000000e+00 +4.9999998884e+02 5.0000000000e+02 1.0566000000e-01 0.0000e+00 -1.0000e+00
      994 -1    0    0    0    0 -0.0000000000e+00 -0.0000000000e+00 +0.0000000000e+00 1.3100000000e+02 1.3100000000e+02 0.0000e+00 0.0000e+00
       13  1    1    2    0    0 -4.7335410987e+00 +2.0125694150e+01 +2.3583453313e+01 3.1363042112e+01 1.0566000000e-01 0.0000e+00 1.0000e+00
      994  1    1    2    0    0 -8.9867152461e+00 +1.2996614134e+01 +2.2996464935e+01 1.3393845762e+02 1.3100000000e+02 0.0000e+00 0.0000e+00
      997  1    1    2    0    0 +1.3720256345e+01 -3.3122308284e+01 +4.5342007059e+02 4.6569850027e+02 1.0000000000e+02 0.0000e+00 0.0000e+00
</event>
<event>
 5      1 +8.5651000e-08 1.95422400e+02 7.95774700e-02 5.12743300e-01
       13 -1    0    0    0    0 +0.0000000000e+00 +0.0000000000e+00 +4.9999998884e+02 5.0000000000e+02 1.0566000000e-01 0.0000e+00 -1.0000e+00
      994 -1    0    0    0    0 -0.0000000000e+00 -0.0000000000e+00 +0.0000000000e+00 1.3100000000e+02 1.3100000000e+02 0.0000e+00 0.0000e+00
       13  1    1    2    0    0 -8.1294005470e+00 -3.1327358750e+01 +7.2918714818e+01 7.9778698249e+01 1.0566000000e-01 0.0000e+00 1.0000e+00
      994  1    1    2    0    0 +2.2412416995e+01 -1.4776482045e-01 +2.4722040783e+01 1.3518327400e+02 1.3100000000e+02 0.0000e+00 0.0000e+00
      997  1    1    2    0    0 -1.4283016448e+01 +3.1475123570e+01 +4.0235923323e+02 4.1603802775e+02 1.0000000000e+02 0.0000e+00 0.0000e+00
</event>
<event>
 5      1 +8.5651000e-08 1.98774900e+02 7.95774700e-02 5.06254100e-01
       13 -1    0    0    0    0 +0.0000000000e+00 +0.0000000000e+00 +4.9999998884e+02 5.0000000000e+02 1.0566000000e-01 0.0000e+00 1.0000e+00
      994 -1    0    0    0    0 -0.0000000000e+00 -0.0000000000e+00 +0.0000000000e+00 1.3100000000e+02 1.3100000000e+02 0.0000e+00 0.0000e+00
       13  1    1    2    0    0 +1.9433551999e+00 +1.1314608580e+01 +3.6259159426e+01 3.8033338048e+01 1.0566000000e-01 0.0000e+00 -1.0000e+00
      994  1    1    2    0    0 -9.2753147870e+00 -1.6133826626e+01 +1.5032409176e+01 1.3316645656e+02 1.3100000000e+02 0.0000e+00 0.0000e+00
      997  1    1    2    0    0 +7.3319595870e+00 +4.8192180462e+00 +4.4870842023e+02 4.5980020540e+02 1.0000000000e+02 0.0000e+00 0.0000e+00
</event>
<event>
 5      1 +8.5651000e-08 1.94079200e+02 7.95774700e-02 5.15426400e-01
       13 -1    0    0    0    0 +0.0000000000e+00 +0.0000000000e+00 +4.9999998884e+02 5.0000000000e+02 1.0566000000e-01 0.0000e+00 1.0000e+00
      994 -1    0    0    0    0 -0.0000000000e+00 -0.0000000000e+00 +0.0000000000e+00 1.3100000000e+02 1.3100000000e+02 0.0000e+00 0.0000e+00
       13  1    1    2    0    0 +1.7681345611e+01 +1.4795591071e+01 +4.2114839879e+01 4.8012606676e+01 1.0566000000e-01 0.0000e+00 -1.0000e+00
      994  1    1    2    0    0 -2.4953611206e+01 -1.6788329984e+01 +2.2594192824e+01 1.3629390406e+02 1.3100000000e+02 0.0000e+00 0.0000e+00
      997  1    1    2    0    0 +7.2722655944e+00 +1.9927389130e+00 +4.3529095613e+02 4.4669348926e+02 1.0000000000e+02 0.0000e+00 0.0000e+00
</event>
<event>
 5      1 +8.5651000e-08 1.93650800e+02 7.95774700e-02 5.16292400e-01
       13 -1    0    0    0    0 +0.0000000000e+00 +0.0000000000e+00 +4.9999998884e+02 5.0000000000e+02 1.0566000000e-01 0.0000e+00 1.0000e+00
      994 -1    0    0    0    0 -0.0000000000e+00 -0.0000000000e+00 +0.0000000000e+00 1.3100000000e+02 1.3100000000e+02 0.0000e+00 0.0000e+00
       13  1    1    2    0    0 +1.9872091058e+01 -4.6426897450e+00 +2.0379659630e+01 2.8840878311e+01 1.0566000000e-01 0.0000e+00 -1.0000e+00
      994  1    1    2    0    0 -2.5501324446e+01 +8.0923662747e+00 +2.4242780029e+01 1.3588420189e+02 1.3100000000e+02 0.0000e+00 0.0000e+00
      997  1    1    2    0    0 +5.6292333875e+00 -3.4496765296e+00 +4.5537754918e+02 4.6627491980e+02 1.0000000000e+02 0.0000e+00 0.0000e+00
</event>
<event>
 5      1 +8.5651000e-08 1.96679900e+02 7.95774700e-02 5.10275200e-01
       13 -1    0    0    0    0 +0.0000000000e+00 +0.0000000000e+00 +4.9999998884e+02 5.0000000000e+02 1.0566000000e-01 0.0000e+00 1.0000e+00
      994 -1    0    0    0    0 -0.0000000000e+00 -0.0000000000e+00 +0.0000000000e+00 1.3100000000e+02 1.3100000000e+02 0.0000e+00 0.0000e+00
       13  1    1    2    0    0 -2.6762804772e+01 -8.6238984506e+00 +3.2265620362e+01 4.2798373393e+01 1.0566000000e-01 0.0000e+00 -1.0000e+00
      994  1    1    2    0    0 +3.1910285761e+01 -1.7643324815e+01 +3.1136976570e+01 1.3949933533e+02 1.3100000000e+02 0.0000e+00 0.0000e+00
      997  1    1    2    0    0 -5.1474809888e+00 +2.6267223266e+01 +4.3659739190e+02 4.4870229128e+02 1.0000000000e+02 0.0000e+00 0.0000e+00
</event>
<event>
 5      1 +8.5651000e-08 2.31531900e+02 7.95774700e-02 4.55111900e-01
       13 -1    0    0    0    0 +0.0000000000e+00 +0.0000000000e+00 +4.9999998884e+02 5.0000000000e+02 1.0566000000e-01 0.0000e+00 -1.0000e+00
      994 -1    0    0    0    0 -0.0000000000e+00 -0.0000000000e+00 +0.0000000000e+00 1.3100000000e+02 1.3100000000e+02 0.0000e+00 0.0000e+00
       13  1    1    2    0    0 +3.4217524539e+01 -2.0793609820e+01 -4.0082061384e+00 4.0240403519e+01 1.0566000000e-01 0.0000e+00 1.0000e+00
      994  1    1    2    0    0 -4.3428968834e+01 +1.1916975974e+01 +9.1275038275e+01 1.6589220073e+02 1.3100000000e+02 0.0000e+00 0.0000e+00
      997  1    1    2    0    0 +9.2114442955e+00 +8.8766338463e+00 +4.1273315670e+02 4.2486739575e+02 1.0000000000e+02 0.0000e+00 0.0000e+00
</event>
<event>
 5      1 +8.5651000e-08 1.98672200e+02 7.95774700e-02 5.06448600e-01
       13 -1    0    0    0    0 +0.0000000000e+00 +0.0000000000e+00 +4.9999998884e+02 5.0000000000e+02 1.0566000000e-01 0.0000e+00 1.0000e+00
      994 -1    0    0    0    0 -0.0000000000e+00 -0.0000000000e+00 +0.0000000000e+00 1.3100000000e+02 1.3100000000e+02 0.0000e+00 0.0000e+00
       13  1    1    2    0    0 +4.2690189458e+00 -1.1131184860e+01 +4.0206474423e+01 4.1936851917e+01 1.0566000000e-01 0.0000e+00 -1.0000e+00
      994  1    1    2    0    0 -2.3859910666e+01 +9.2897336843e+00 +1.6841176755e+01 1.3453705706e+02 1.3100000000e+02 0.0000e+00 0.0000e+00
      997  1    1    2    0    0 +1.9590891720e+01 +1.8414511756e+00 +4.4295233766e+02 4.5452609102e+02 1.0000000000e+02 0.0000e+00 0.0000e+00
</event>
<event>
 5      1 +8.5651000e-08 1.93394700e+02 7.95774700e-02 5.16812600e-01
       13 -1    0    0    0    0 +0.0000000000e+00 +0.0000000000e+00 +4.9999998884e+02 5.0000000000e+02 1.0566000000e-01 0.0000e+00 -1.0000e+00
      994 -1    0    0    0    0 -0.0000000000e+00 -0.0000000000e+00 +0.0000000000e+00 1.3100000000e+02 1.3100000000e+02 0.0000e+00 0.0000e+00
       13  1    1    2    0    0 +7.0795550090e-01 -4.2440349231e+01 +1.3288796021e+02 1.3950234972e+02 1.0566000000e-01 0.0000e+00 1.0000e+00
      994  1    1    2    0    0 +2.0442772787e+01 +5.2693059306e+01 +3.9327846805e+01 1.4799373295e+02 1.3100000000e+02 0.0000e+00 0.0000e+00
      997  1    1    2    0    0 -2.1150728288e+01 -1.0252710075e+01 +3.2778418182e+02 3.4350391733e+02 1.0000000000e+02 0.0000e+00 0.0000e+00
</event>
<event>
 5      1 +8.5651000e-08 1.95767700e+02 7.95774700e-02 5.12061400e-01
       13 -1    0    0    0    0 +0.0000000000e+00 +0.0000000000e+00 +4.9999998884e+02 5.0000000000e+02 1.0566000000e-01 0.0000e+00 1.0000e+00
      994 -1    0    0    0    0 -0.0000000000e+00 -0.0000000000e+00 +0.0000000000e+00 1.3100000000e+02 1.3100000000e+02 0.0000e+00 0.0000e+00
       13  1    1    2    0    0 -1.6020386867e+01 +3.0033098055e+00 +2.4480232002e+01 2.9410297313e+01 1.0566000000e-01 0.0000e+00 -1.0000e+00
      994  1    1    2    0    0 +3.0329225335e+01 -1.2947962785e+01 +2.2021650111e+01 1.3687024777e+02 1.3100000000e+02 0.0000e+00 0.0000e+00
      997  1    1    2    0    0 -1.4308838468e+01 +9.9446529797e+00 +4.5349810672e+02 4.6471945492e+02 1.0000000000e+02 0.0000e+00 0.0000e+00
</event>
<event>
 5      1 +8.5651000e-08 2.19030500e+02 7.95774700e-02 4.72382200e-01
       13 -1    0    0    0    0 +0.0000000000e+00 +0.0000000000e+00 +4.9999998884e+02 5.0000000000e+02 1.0566000000e-01 0.0000e+00 1.0000e+00
      994 -1    0    0    0    0 -0.0000000000e+00 -0.0000000000e+00 +0.0000000000e+00 1.3100000000e+02 1.3100000000e+02 0.0000e+00 0.0000e+00
       13  1    1    2    0    0 -4.8749720260e+01 +3.8499636374e+00 +2.9516324102e+01 5.7119016080e+01 1.0566000000e-01 0.0000e+00 -1.0000e+00
      994  1    1    2    0    0 +1.6393361151e+01 +4.4386283195e+01 +6.7777387624e+01 1.5489886603e+02 1.3100000000e+02 0.0000e+00 0.0000e+00
      997  1    1    2    0    0 +3.2356359110e+01 -4.8236246832e+01 +4.0270627711e+02 4.1898211789e+02 1.0000000000e+02 0.0000e+00 0.0000e+00
</event>
<event>
 5      1 +8.5651000e-08 1.97396100e+02 7.95774700e-02 5.08888000e-01
       13 -1    0    0    0    0 +0.0000000000e+00 +0.0000000000e+00 +4.9999998884e+02 5.0000000000e+02 1.0566000000e-01 0.0000e+00 1.0000e+00
      994 -1    0    0    0    0 -0.0000000000e+00 -0.0000000000e+00 +0.0000000000e+00 1.3100000000e+02 1.3100000000e+02 0.0000e+00 0.0000e+00
       13  1    1    2    0    0 -3.6819564572e+01 +1.2800095294e+01 +7.6167994985e+01 8.5563411566e+01 1.0566000000e-01 0.0000e+00 -1.0000e+00
      994  1    1    2    0    0 +1.2981123274e+01 -3.3072911718e+01 +3.1481770754e+01 1.3933567002e+02 1.3100000000e+02 0.0000e+00 0.0000e+00
      997  1    1    2    0    0 +2.3838441298e+01 +2.0272816424e+01 +3.9235022310e+02 4.0610091841e+02 1.0000000000e+02 0.0000e+00 0.0000e+00
</event>
<event>
 5      1 +8.5651000e-08 2.04645600e+02 7.95774700e-02 4.95553000e-01
       13 -1    0    0    0    0 +0.0000000000e+00 +0.0000000000e+00 +4.9999998884e+02 5.0000000000e+02 1.0566000000e-01 0.0000e+00 1.0000e+00
      994 -1    0    0    0    0 -0.0000000000e+00 -0.0000000000e+00 +0.0000000000e+00 1.3100000000e+02 1.3100000000e+02 0.0000e+00 0.0000e+00
       13  1    1    2    0    0 +1.8063472843e+01 +1.6333056325e+01 +3.8274010300e+00 2.4651935882e+01 1.0566000000e-01 0.0000e+00 -1.0000e+00
      994  1    1    2    0    0 -6.6866723637e+01 -2.3695027774e+01 +6.7763581907e+01 1.6366281222e+02 1.3100000000e+02 0.0000e+00 0.0000e+00
      997  1    1    2    0    0 +4.8803250794e+01 +7.3619714487e+00 +4.2840900590e+02 4.4268525190e+02 1.0000000000e+02 0.0000e+00 0.0000e+00
</event>
<event>
 5      1 +8.5651000e-08 2.18673900e+02 7.95774700e-02 4.72910600e-01
       13 -1    0    0    0    0 +0.0000000000e+00 +0.0000000000e+00 +4.9999998884e+02 5.0000000000e+02 1.0566000000e-01 0.0000e+00 -1.0000e+00
      994 -1    0    0    0    0 -0.0000000000e+00 -0.0000000000e+00 +0.0000000000e+00 1.3100000000e+02 1.3100000000e+02 0.0000e+00 0.0000e+00
       13  1    1    2    0    0 +3.8555067687e+01 +2.3347748762e+01 +2.1207843890e+01 4.9813596769e+01 1.0566000000e-01 0.0000e+00 1.0000e+00
      994  1    1    2    0    0 -1.6894596303e+01 -2.0193565161e+01 +5.3807426421e+01 1.4404668200e+02 1.3100000000e+02 0.0000e+00 0.0000e+00
      997  1    1    2    0    0 -2.1660471384e+01 -3.1541836011e+00 +4.2498471853e+02 4.3713972123e+02 1.0000000000e+02 0.0000e+00 0.0000e+00
</event>
<event>
 5      1 +8.5651000e-08 1.94134800e+02 7.95774700e-02 5.15314300e-01
       13 -1    0    0    0    0 +0.0000000000e+00 +0.0000000000e+00 +4.9999998884e+02 5.0000000000e+02 1.0566000000e-01 0.0000e+00 -1.0000e+00
      994 -1    0    0    0    0 -0.0000000000e+00 -0.0000000000e+00 +0.0000000000e+00 1.3100000000e+02 1.3100000000e+02 0.0000e+00 0.0000e+00
       13  1    1    2    0    0 +2.1843522888e-01 -2.5837595856e+01 +1.0446675002e+02 1.0761478568e+02 1.0566000000e-01 0.0000e+00 1.0000e+00
      994  1    1    2    0    0 +2.5898455590e+01 +1.6879558673e+01 +2.2839363891e+01 1.3652210827e+02 1.3100000000e+02 0.0000e+00 0.0000e+00
      997  1    1    2    0    0 -2.6116890819e+01 +8.9580371830e+00 +3.7269387493e+02 3.8686310605e+02 1.0000000000e+02 0.0000e+00 0.0000e+00
</event>
<event>
 5      1 +8.5651000e-08 1.95851700e+02 7.95774700e-02 5.11896100e-01
       13 -1    0    0    0    0 +0.0000000000e+00 +0.0000000000e+00 +4.9999998884e+02 5.0000000000e+02 1.0566000000e-01 0.0000e+00 -1.0000e+00
      994 -1    0    0    0    0 -0.0000000000e+00 -0.0000000000e+00 +0.0000000000e+00 1.3100000000e+02 1.3100000000e+02 0.0000e+00 0.0000e+00
       13  1    1    2    0    0 -3.9853700195e+01 +3.1695876345e+01 +5.8213029058e+01 7.7341540666e+01 1.0566000000e-01 0.0000e+00 1.0000e+00
      994  1    1    2    0    0 +7.5823091620e+01 -7.9495248547e+01 +1.1326373138e+02 2.0508122442e+02 1.3100000000e+02 0.0000e+00 0.0000e+00
      997  1    1    2    0    0 -3.5969391424e+01 +4.7799372202e+01 +3.2852322839e+02 3.4857723491e+02 1.0000000000e+02 0.0000e+00 0.0000e+00
</event>
<event>
 5      1 +8.5651000e-08 1.97792700e+02 7.95774700e-02 5.08125500e-01
       13 -1    0    0    0    0 +0.0000000000e+00 +0.0000000000e+00 +4.9999998884e+02 5.0000000000e+02 1.0566000000e-01 0.0000e+00 -1.0000e+00
      994 -1    0    0    0    0 -0.0000000000e+00 -0.0000000000e+00 +0.0000000000e+00 1.3100000000e+02 1.3100000000e+02 0.0000e+00 0.0000e+00
       13  1    1    2    0    0 -1.1719186459e+01 +3.7093417609e+00 +6.0554423809e+01 6.1789545673e+01 1.0566000000e-01 0.0000e+00 1.0000e+00
      994  1    1    2    0    0 -6.3311185197e+00 +7.5194777173e+00 +1.4530320537e+01 1.3216942090e+02 1.3100000000e+02 0.0000e+00 0.0000e+00
      997  1    1    2    0    0 +1.8050304978e+01 -1.1228819478e+01 +4.2491524449e+02 4.3704103342e+02 1.0000000000e+02 0.0000e+00 0.0000e+00
</event>
<event>
 5      1 +8.5651000e-08 2.10578000e+02 7.95774700e-02 4.85512300e-01
       13 -1    0    0    0    0 +0.0000000000e+00 +0.0000000000e+00 +4.9999998884e+02 5.0000000000e+02 1.0566000000e-01 0.0000e+00 1.0000e+00
      994 -1    0    0    0    0 -0.0000000000e+00 -0.0000000000e+00 +0.0000000000e+00 1.3100000000e+02 1.3100000000e+02 0.0000e+00 0.0000e+00
       13  1    1    2    0    0 -1.1724448511e+01 -3.4489923858e+01 +3.0943783320e+01 4.7796929094e+01 1.0566000000e-01 0.0000e+00 -1.0000e+00
      994  1    1    2    0    0 -9.2483646876e+00 -3.3821236478e+01 +4.6857823214e+01 1.4347844397e+02 1.3100000000e+02 0.0000e+00 0.0000e+00
      997  1    1    2    0    0 +2.0972813198e+01 +6.8311160336e+01 +4.2219838230e+02 4.3972462694e+02 1.0000000000e+02 0.0000e+00 0.0000e+00
</event>
<event>
 5      1 +8.5651000e-08 1.96190800e+02 7.95774700e-02 5.11230200e-01
       13 -1    0    0    0    0 +0.0000000000e+00 +0.0000000000e+00 +4.9999998884e+02 5.0000000000e+02 1.0566000000e-01 0.0000e+00 -1.0000e+00
      994 -1    0    0    0    0 -0.0000000000e+00 -0.0000000000e+00 +0.0000000000e+00 1.3100000000e+02 1.3100000000e+02 0.0000e+00 0.0000e+00
       13  1    1    2    0    0 -2.2795292460e+01 -1.1541940992e+01 +2.9426547461e+01 3.8971459040e+01 1.0566000000e-01 0.0000e+00 1.0000e+00
      994  1    1    2    0    0 +3.2443255641e+00 +2.2761075340e+01 +2.5655233103e+01 1.3545398918e+02 1.3100000000e+02 0.0000e+00 0.0000e+00
      997  1    1    2    0    0 +1.9550966896e+01 -1.1219134348e+01 +4.4491820827e+02 4.5657455178e+02 1.0000000000e+02 0.0000e+00 0.0000e+00
</event>
<event>
 5      1 +8.5651000e-08 1.39172100e+02 7.95774700e-02 6.95728600e-01
       13 -1    0    0    0    0 +0.0000000000e+00 +0.0000000000e+00 +4.9999998884e+02 5.0000000000e+02 1.0566000000e-01 0.0000e+00 1.0000e+00
      994 -1    0    0    0    0 -0.0000000000e+00 -0.0000000000e+00 +0.0000000000e+00 1.3100000000e+02 1.3100000000e+02 0.0000e+00 0.0000e+00
       13  1    1    2    0    0 -2.0114041773e+01 -1.1739510333e+00 -2.2897352982e+01 3.0500045494e+01 1.0566000000e-01 0.0000e+00 -1.0000e+00
      994  1    1    2    0    0 -2.2222599022e+01 -3.3178140272e+01 +1.2090740792e+02 1.8268616310e+02 1.3100000000e+02 0.0000e+00 0.0000e+00
      997  1    1    2    0    0 +4.2336640795e+01 +3.4352091305e+01 +4.0198993390e+02 4.1781379141e+02 1.0000000000e+02 0.0000e+00 0.0000e+00
</event>
<event>
 5      1 +8.5651000e-08 2.06590400e+02 7.95774700e-02 4.92180200e-01
       13 -1    0    0    0    0 +0.0000000000e+00 +0.0000000000e+00 +4.9999998884e+02 5.0000000000e+02 1.0566000000e-01 0.0000e+00 -1.0000e+00
      994 -1    0    0    0    0 -0.0000000000e+00 -0.0000000000e+00 +0.0000000000e+00 1.3100000000e+02 1.3100000000e+02 0.0000e+00 0.0000e+00
       13  1    1    2    0    0 +9.1676020376e+00 -1.4018371828e+01 -1.8961183800e+00 1.6857227079e+01 1.0566000000e-01 0.0000e+00 1.0000e+00
      994  1    1    2    0    0 -1.1817550988e+01 +6.8155268944e+00 +3.4561832269e+01 1.3616763994e+02 1.3100000000e+02 0.0000e+00 0.0000e+00
      997  1    1    2    0    0 +2.6499489502e+00 +7.2028449337e+00 +4.6733427495e+02 4.7797513298e+02 1.0000000000e+02 0.0000e+00 0.0000e+00
</event>
<event>
 5      1 +8.5651000e-08 1.95833900e+02 7.95774700e-02 5.11931100e-01
       13 -1    0    0    0    0 +0.0000000000e+00 +0.0000000000e+00 +4.9999998884e+02 5.0000000000e+02 1.0566000000e-01 0.0000e+00 1.0000e+00
      994 -1    0    0    0    0 -0.0000000000e+00 -0.0000000000e+00 +0.0000000000e+00 1.3100000000e+02 1.3100000000e+02 0.0000e+00 0.0000e+00
       13  1    1    2    0    0 -8.5300406514e+00 -6.1696755844e+00 +1.0695962842e+01 1.5008040361e+01 1.0566000000e-01 0.0000e+00 -1.0000e+00
      994  1    1    2    0    0 +3.6492244254e+00 -3.3790765385e-01 +1.5829213933e+01 1.3200376902e+02 1.3100000000e+02 0.0000e+00 0.0000e+00
      997  1    1    2    0    0 +4.8808162259e+00 +6.5075832383e+00 +4.7347481206e+02 4.8398819062e+02 1.0000000000e+02 0.0000e+00 0.0000e+00
</event>
<event>
 5      1 +8.5651000e-08 2.21821800e+02 7.95774700e-02 4.68318600e-01
       13 -1    0    0    0    0 +0.0000000000e+00 +0.0000000000e+00 +4.9999998884e+02 5.0000000000e+02 1.0566000000e-01 0.0000e+00 -1.0000e+00
      994 -1    0    0    0    0 -0.0000000000e+00 -0.0000000000e+00 +0.0000000000e+00 1.3100000000e+02 1.3100000000e+02 0.0000e+00 0.0000e+00
       13  1    1    2    0    0 +4.3945585131e+01 -2.4320105628e+01 +3.1756346234e+01 5.9423553246e+01 1.0566000000e-01 0.0000e+00 1.0000e+00
      994  1    1    2    0    0 -2.8202670128e+00 -4.5554561618e+00 +5.2832955939e+01 1.4135426177e+02 1.3100000000e+02 0.0000e+00 0.0000e+00
      997  1    1    2    0    0 -4.1125318118e+01 +2.8875561790e+01 +4.1541068666e+02 4.3022218499e+02 1.0000000000e+02 0.0000e+00 0.0000e+00
</event>
<event>
 5      1 +8.5651000e-08 1.97121000e+02 7.95774700e-02 5.09419300e-01
       13 -1    0    0    0    0 +0.0000000000e+00 +0.0000000000e+00 +4.9999998884e+02 5.0000000000e+02 1.0566000000e-01 0.0000e+00 1.0000e+00
      994 -1    0    0    0    0 -0.0000000000e+00 -0.0000000000e+00 +0.0000000000e+00 1.3100000000e+02 1.3100000000e+02 0.0000e+00 0.0000e+00
       13  1    1    2    0    0 -8.4558851291e+00 +1.1151804904e+01 +3.0072860153e+00 1.4315015863e+01 1.0566000000e-01 0.0000e+00 -1.0000e+00
      994  1    1    2    0    0 -1.0746772802e+00 -2.6270933686e+01 +2.7609886729e+01 1.3643541598e+02 1.3100000000e+02 0.0000e+00 0.0000e+00
      997  1    1    2    0    0 +9.5305624093e+00 +1.5119128782e+01 +4.6938281609e+02 4.8024956816e+02 1.0000000000e+02 0.0000e+00 0.0000e+00
</event>
<event>
 5      1 +8.5651000e-08 2.34950500e+02 7.95774700e-02 4.50776000e-01
       13 -1    0    0    0    0 +0.0000000000e+00 +0.0000000000e+00 +4.9999998884e+02 5.0000000000e+02 1.0566000000e-01 0.0000e+00 1.0000e+00
      994 -1    0    0    0    0 -0.0000000000e+00 -0.0000000000e+00 +0.0000000000e+00 1.3100000000e+02 1.3100000000e+02 0.0000e+00 0.0000e+00
       13  1    1    2    0    0 -8.8163612931e+00 +5.5884461212e+01 +1.8481684355e+01 5.9517938909e+01 1.0566000000e-01 0.0000e+00 -1.0000e+00
      994  1    1    2    0    0 -3.6271100225e+01 -1.0767973931e+01 +9.2462753714e+01 1.6474799786e+02 1.3100000000e+02 0.0000e+00 0.0000e+00
      997  1    1    2    0    0 +4.5087461518e+01 -4.5116487281e+01 +3.8905555077e+02 4.0673406323e+02 1.0000000000e+02 0.0000e+00 0.0000e+00
</event>
<event>
 5      1 +8.5651000e-08 2.06751300e+02 7.95774700e-02 4.91904800e-01
       13 -1    0    0    0    0 +0.0000000000e+00 +0.0000000000e+00 +4.9999998884e+02 5.0000000000e+02 1.0566000000e-01 0.0000e+00 -1.0000e+00
      994 -1    0    0    0    0 -0.0000000000e+00 -0.0000000000e+00 +0.0000000000e+00 1.3100000000e+02 1.3100000000e+02 0.0000e+00 0.0000e+00
       13  1    1    2    0    0 +6.4717820948e+00 -3.9018645817e+01 +3.2802151777e+01 5.1384151351e+01 1.0566000000e-01 0.0000e+00 1.0000e+00
      994  1    1    2    0    0 -3.5157821308e+01 +1.9814028825e+01 +4.4859125616e+01 1.4422901680e+02 1.3100000000e+02 0.0000e+00 0.0000e+00
      997  1    1    2    0    0 +2.8686039213e+01 +1.9204616993e+01 +4.2233871144e+02 4.3538683184e+02 1.0000000000e+02 0.0000e+00 0.0000e+00
</event>
<event>
 5      1 +8.5651000e-08 2.04059300e+02 7.95774700e-02 4.96586100e-01
       13 -1    0    0    0    0 +0.0000000000e+00 +0.0000000000e+00 +4.9999998884e+02 5.0000000000e+02 1.0566000000e-01 0.0000e+00 1.0000e+00
      994 -1    0    0    0    0 -0.0000000000e+00 -0.0000000000e+00 +0.0000000000e+00 1.3100000000e+02 1.3100000000e+02 0.0000e+00 0.0000e+00
       13  1    1    2    0    0 -2.4252121839e+01 -2.0549985921e+01 +1.9481370233e+01 3.7282734412e+01 1.0566000000e-01 0.0000e+00 -1.0000e+00
      994  1    1    2    0    0 +3.8070489071e+01 +1.3809948732e+01 +4.1599984006e+01 1.4328864397e+02 1.3100000000e+02 0.0000e+00 0.0000e+00
      997  1    1    2    0    0 -1.3818367232e+01 +6.7400371892e+00 +4.3891863460e+02 4.5042862162e+02 1.0000000000e+02 0.0000e+00 0.0000e+00
</event>
<event>
 5      1 +8.5651000e-08 1.97851600e+02 7.95774700e-02 5.08012600e-01
       13 -1    0    0    0    0 +0.0000000000e+00 +0.0000000000e+00 +4.9999998884e+02 5.0000000000e+02 1.0566000000e-01 0.0000e+00 1.0000e+00
      994 -1    0    0    0    0 -0.0000000000e+00 -0.0000000000e+00 +0.0000000000e+00 1.3100000000e+02 1.3100000000e+02 0.0000e+00 0.0000e+00
       13  1    1    2    0    0 -3.6857121415e+00 -1.0266724695e+01 -1.1302448384e+00 1.0967165878e+01 1.0566000000e-01 0.0000e+00 -1.0000e+00
      994  1    1    2    0    0 -4.7364430470e+01 +3.0623303481e+01 +4.4567842557e+01 1.4942713468e+02 1.3100000000e+02 0.0000e+00 0.0000e+00
      997  1    1    2    0    0 +5.1050142611e+01 -2.0356578785e+01 +4.5656239112e+02 4.7060569944e+02 1.0000000000e+02 0.0000e+00 0.0000e+00
</event>
<event>
 5      1 +8.5651000e-08 1.95910400e+02 7.95774700e-02 5.11780500e-01
       13 -1    0    0    0    0 +0.0000000000e+00 +0.0000000000e+00 +4.9999998884e+02 5.0000000000e+02 1.0566000000e-01 0.0000e+00 -1.0000e+00
      994 -1    0    0    0    0 -0.0000000000e+00 -0.0000000000e+00 +0.0000000000e+00 1.3100000000e+02 1.3100000000e+02 0.0000e+00 0.0000e+00
       13  1    1    2    0    0 -1.3646817258e+01 +3.0046731433e+00 +1.7185268803e+01 2.2149679678e+01 1.0566000000e-01 0.0000e+00 1.0000e+00
      994  1    1    2    0    0 +3.3725082591e+01 -5.5119078752e+00 +2.2347960946e+01 1.3721586527e+02 1.3100000000e+02 0.0000e+00 0.0000e+00
      997  1    1    2    0    0 -2.0078265333e+01 +2.5072347319e+00 +4.6046675909e+02 4.7163445505e+02 1.0000000000e+02 0.0000e+00 0.0000e+00
</event>
<event>
 5      1 +8.5651000e-08 1.98230000e+02 7.95774700e-02 5.07289300e-01
       13 -1    0    0    0    0 +0.0000000000e+00 +0.0000000000e+00 +4.9999998884e+02 5.0000000000e+02 1.0566000000e-01 0.0000e+00 -1.0000e+00
      994 -1    0    0    0    0 -0.0000000000e+00 -0.0000000000e+00 +0.0000000000e+00 1.3100000000e+02 1.3100000000e+02 0.0000e+00 0.0000e+00
       13  1    1    2    0    0 +1.0030386046e+01 +6.9859835426e+00 +5.6011130736e-01 1.2236727463e+01 1.0566000000e-01 0.0000e+00 1.0000e+00
      994  1    1    2    0    0 -7.1077770182e+00 +7.9399929376e+00 +2.5162631294e+01 1.3381973694e+02 1.3100000000e+02 0.0000e+00 0.0000e+00
      997  1    1    2    0    0 -2.9226090282e+00 -1.4925976480e+01 +4.7427724624e+02 4.8494353559e+02 1.0000000000e+02 0.0000e+00 0.0000e+00
</event>
<event>
 5      1 +8.5651000e-08 1.93961500e+02 7.95774700e-02 5.15663700e-01
       13 -1    0    0    0    0 +0.0000000000e+00 +0.0000000000e+00 +4.9999998884e+02 5.0000000000e+02 1.0566000000e-01 0.0000e+00 -1.0000e+00
      994 -1    0    0    0    0 -0.0000000000e+00 -0.0000000000e+00 +0.0000000000e+00 1.3100000000e+02 1.3100000000e+02 0.0000e+00 0.0000e+00
       13  1    1    2    0    0 +7.5272852766e-01 -4.4431283503e+01 +5.4606996434e+01 7.0403414530e+01 1.0566000000e-01 0.0000e+00 1.0000e+00
      994  1    1    2    0    0 +1.0798503473e+01 +1.0469864448e+02 +9.9379347567e+01 1.9523234506e+02 1.3100000000e+02 0.0000e+00 0.0000e+00
      997  1    1    2    0    0 -1.1551232001e+01 -6.0267360979e+01 +3.4601364484e+02 3.6536424041e+02 1.0000000000e+02 0.0000e+00 0.0000e+00
</event>
<event>
 5      1 +8.5651000e-08 1.96954100e+02 7.95774700e-02 5.09742500e-01
       13 -1    0    0    0    0 +0.0000000000e+00 +0.0000000000e+00 +4.9999998884e+02 5.0000000000e+02 1.0566000000e-01 0.0000e+00 1.0000e+00
      994 -1    0    0    0    0 -0.0000000000e+00 -0.0000000000e+00 +0.0000000000e+00 1.3100000000e+02 1.3100000000e+02 0.0000e+00 0.0000e+00
       13  1    1    2    0    0 +1.6631481538e+01 -1.1824010451e+01 +5.4977097330e+01 5.8642184442e+01 1.0566000000e-01 0.0000e+00 -1.0000e+00
      994  1    1    2    0    0 -2.6643835283e+01 +3.2814963624e+01 +2.4916182636e+01 1.3988756897e+02 1.3100000000e+02 0.0000e+00 0.0000e+00
      997  1    1    2    0    0 +1.0012353745e+01 -2.0990953173e+01 +4.2010670887e+02 4.3247024658e+02 1.0000000000e+02 0.0000e+00 0.0000e+00
</event>
<event>
 5      1 +8.5651000e-08 1.98042800e+02 7.95774700e-02 5.07646600e-01
       13 -1    0    0    0    0 +0.0000000000e+00 +0.0000000000e+00 +4.9999998884e+02 5.0000000000e+02 1.0566000000e-01 0.0000e+00 1.0000e+00
      994 -1    0    0    0    0 -0.0000000000e+00 -0.0000000000e+00 +0.0000000000e+00 1.3100000000e+02 1.3100000000e+02 0.0000e+00 0.0000e+00
       13  1    1    2    0    0 -3.1258741909e+01 -4.2585581678e+01 +1.0584783665e+02 1.1829799829e+02 1.0566000000e-01 0.0000e+00 -1.0000e+00
      994  1    1    2    0    0 +5.2777033665e+01 +3.4405013896e+01 +5.0227358273e+01 1.5379501872e+02 1.3100000000e+02 0.0000e+00 0.0000e+00
      997  1    1    2    0    0 -2.1518291755e+01 +8.1805677824e+00 +3.4392479392e+02 3.5890698299e+02 1.0000000000e+02 0.0000e+00 0.0000e+00
</event>
<event>
 5      1 +8.5651000e-08 1.97268700e+02 7.95774700e-02 5.09133700e-01
       13 -1    0    0    0    0 +0.0000000000e+00 +0.0000000000e+00 +4.9999998884e+02 5.0000000000e+02 1.0566000000e-01 0.0000e+00 -1.0000e+00
      994 -1    0    0    0    0 -0.0000000000e+00 -0.0000000000e+00 +0.0000000000e+00 1.3100000000e+02 1.3100000000e+02 0.0000e+00 0.0000e+00
       13  1    1    2    0    0 +1.2009688254e+01 +1.2066146434e+01 +8.5863199605e+01 8.7534705758e+01 1.0566000000e-01 0.0000e+00 1.0000e+00
      994  1    1    2    0    0 -2.3457603010e+01 -4.1064007439e+00 +1.7634766463e+01 1.3430974147e+02 1.3100000000e+02 0.0000e+00 0.0000e+00
      997  1    1    2    0    0 +1.1447914756e+01 -7.9597456903e+00 +3.9650202277e+02 4.0915555277e+02 1.0000000000e+02 0.0000e+00 0.0000e+00
</event>
<event>
 5      1 +8.5651000e-08 2.03426100e+02 7.95774700e-02 4.97710400e-01
       13 -1    0    0    0    0 +0.0000000000e+00 +0.0000000000e+00 +4.9999998884e+02 5.0000000000e+02 1.0566000000e-01 0.0000e+00 -1.0000e+00
      994 -1    0    0    0    0 -0.0000000000e+00 -0.0000000000e+00 +0.0000000000e+00 1.3100000000e+02 1.3100000000e+02 0.0000e+00 0.0000e+00
       13  1    1    2    0    0 +2.2286282132e+01 +1.5561242647e+01 +1.5258347568e+01 3.1171444922e+01 1.0566000000e-01 0.0000e+00 1.0000e+00
      994  1    1    2    0    0 +7.4300383355e+00 -3.7251248669e+01 +3.9479566468e+01 1.4199470823e+02 1.3100000000e+02 0.0000e+00 0.0000e+00
      997  1    1    2    0    0 -2.9716320468e+01 +2.1690006022e+01 +4.4526207480e+02 4.5783384685e+02 1.0000000000e+02 0.0000e+00 0.0000e+00
</event>
<event>
 5      1 +8.5651000e-08 1.94313800e+02 7.95774700e-02 5.14954300e-01
       13 -1    0    0    0    0 +0.0000000000e+00 +0.0000000000e+00 +4.9999998884e+02 5.0000000000e+02 1.0566000000e-01 0.0000e+00 1.0000e+00
      994 -1    0    0    0    0 -0.0000000000e+00 -0.0000000000e+00 +0.0000000000e+00 1.3100000000e+02 1.3100000000e+02 0.0000e+00 0.0000e+00
       13  1    1    2    0    0 -1.2461483072e+01 -7.3987933062e-01 +1.1537118112e+01 1.6998595240e+01 1.0566000000e-01 0.0000e+00 -1.0000e+00
      994  1    1    2    0    0 +3.5196269519e+00 -1.1519535563e+00 +1.7220472176e+01 1.3217889178e+02 1.3100000000e+02 0.0000e+00 0.0000e+00
      997  1    1    2    0    0 +8.9418561198e+00 +1.8918328869e+00 +4.7124239855e+02 4.8182251298e+02 1.0000000000e+02 0.0000e+00 0.0000e+00
</event>
<event>
 5      1 +8.5651000e-08 1.51253200e+02 7.95774700e-02 6.38539000e-01
       13 -1    0    0    0    0 +0.0000000000e+00 +0.0000000000e+00 +4.9999998884e+02 5.0000000000e+02 1.0566000000e-01 0.0000e+00 1.0000e+00
      994 -1    0    0    0    0 -0.0000000000e+00 -0.0000000000e+00 +0.0000000000e+00 1.3100000000e+02 1.3100000000e+02 0.0000e+00 0.0000e+00
       13  1    1    2    0    0 +2.7240758814e+01 -6.4909810264e+01 +1.8724614747e+02 2.0004117905e+02 1.0566000000e-01 0.0000e+00 -1.0000e+00
      994  1    1    2    0    0 +3.3083410382e+01 +2.9068235993e+00 +6.4631312458e+01 1.4980376569e+02 1.3100000000e+02 0.0000e+00 0.0000e+00
      997  1    1    2    0    0 -6.0324169195e+01 +6.2002986665e+01 +2.4812252890e+02 2.8115505525e+02 1.0000000000e+02 0.0000e+00 0.0000e+00
</event>
<event>
 5      1 +8.5651000e-08 1.94001000e+02 7.95774700e-02 5.15584100e-01
       13 -1    0    0    0    0 +0.0000000000e+00 +0.0000000000e+00 +4.9999998884e+02 5.0000000000e+02 1.0566000000e-01 0.0000e+00 1.0000e+00
      994 -1    0    0    0    0 -0.0000000000e+00 -0.0000000000e+00 +0.0000000000e+00 1.3100000000e+02 1.3100000000e+02 0.0000e+00 0.0000e+00
       13  1    1    2    0    0 +2.1314605759e+01 -6.6514571170e+00 +1.9474678787e+01 2.9628172039e+01 1.0566000000e-01 0.0000e+00 -1.0000e+00
      994  1    1    2    0    0 -1.0739121175e+02 -4.1234422271e+01 +1.1249594235e+02 2.0748370294e+02 1.3100000000e+02 0.0000e+00 0.0000e+00
      997  1    1    2    0    0 +8.6076605991e+01 +4.7885879388e+01 +3.6802936770e+02 3.9388812502e+02 1.0000000000e+02 0.0000e+00 0.0000e+00
</event>
<event>
 5      1 +8.5651000e-08 1.97825400e+02 7.95774700e-02 5.08062900e-01
       13 -1    0    0    0    0 +0.0000000000e+00 +0.0000000000e+00 +4.9999998884e+02 5.0000000000e+02 1.0566000000e-01 0.0000e+00 1.0000e+00
      994 -1    0    0    0    0 -0.0000000000e+00 -0.0000000000e+00 +0.0000000000e+00 1.3100000000e+02 1.3100000000e+02 0.0000e+00 0.0000e+00
       13  1    1    2    0    0 +1.4862069597e+01 -2.1454563230e+00 +5.7125250746e+01 5.9065976097e+01 1.0566000000e-01 0.0000e+00 -1.0000e+00
      994  1    1    2    0    0 -1.9102808418e+01 -1.7044381566e+01 +1.7617819015e+01 1.3463586364e+02 1.3100000000e+02 0.0000e+00 0.0000e+00
      997  1    1    2    0    0 +4.2407388204e+00 +1.9189837889e+01 +4.2525691908e+02 4.3729816026e+02 1.0000000000e+02 0.0000e+00 0.0000e+00
</event>
<event>
 5      1 +8.5651000e-08 1.93417800e+02 7.95774700e-02 5.16765700e-01
       13 -1    0    0    0    0 +0.0000000000e+00 +0.0000000000e+00 +4.9999998884e+02 5.0000000000e+02 1.0566000000e-01 0.0000e+00 -1.0000e+00
      994 -1    0    0    0    0 -0.0000000000e+00 -0.0000000000e+00 +0.0000000000e+00 1.3100000000e+02 1.3100000000e+02 0.0000e+00 0.0000e+00
       13  1    1    2    0    0 -1.3901802506e+01 +2.9612296608e+01 +6.0919223847e+01 6.9147026122e+01 1.0566000000e-01 0.0000e+00 1.0000e+00
      994  1    1    2    0    0 +1.0627178900e+01 -3.9880380164e+01 +2.9995677579e+01 1.4058492923e+02 1.3100000000e+02 0.0000e+00 0.0000e+00
      997  1    1    2    0    0 +3.2746236055e+00 +1.0268083556e+01 +4.0908508741e+02 4.2126804465e+02 1.0000000000e+02 0.0000e+00 0.0000e+00
</event>
<event>
 5      1 +8.5651000e-08 2.08557200e+02 7.95774700e-02 4.88850800e-01
       13 -1    0    0    0    0 +0.0000000000e+00 +0.0000000000e+00 +4.9999998884e+02 5.0000000000e+02 1.0566000000e-01 0.0000e+00 1.0000e+00
      994 -1    0    0    0    0 -0.0000000000e+00 -0.0000000000e+00 +0.0000000000e+00 1.3100000000e+02 1.3100000000e+02 0.0000e+00 0.0000e+00
       13  1    1    2    0    0 +5.1178822512e+01 +1.3469613964e+01 +1.5977652610e+02 1.6831295800e+02 1.0566000000e-01 0.0000e+00 -1.0000e+00
      994  1    1    2    0    0 +9.6005548689e+00 -7.3271625725e+01 +7.8121125807e+01 1.6948395820e+02 1.3100000000e+02 0.0000e+00 0.0000e+00
      997  1    1    2    0    0 -6.0779377381e+01 +5.9802011761e+01 +2.6210233693e+02 2.9320308380e+02 1.0000000000e+02 0.0000e+00 0.0000e+00
</event>
<event>
 5      1 +8.5651000e-08 1.94487100e+02 7.95774700e-02 5.14606300e-01
       13 -1    0    0    0    0 +0.0000000000e+00 +0.0000000000e+00 +4.9999998884e+02 5.0000000000e+02 1.0566000000e-01 0.0000e+00 -1.0000e+00
      994 -1    0    0    0    0 -0.0000000000e+00 -0.0000000000e+00 +0.0000000000e+00 1.3100000000e+02 1.3100000000e+02 0.0000e+00 0.0000e+00
       13  1    1    2    0    0 -1.1756445885e+01 -5.2361766611e+00 +1.0545592956e+01 1.6638877988e+01 1.0566000000e-01 0.0000e+00 1.0000e+00
      994  1    1    2    0    0 +2.9263390164e+01 +9.4412951695e+00 +2.2436883462e+01 1.3641809923e+02 1.3100000000e+02 0.0000e+00 0.0000e+00
      997  1    1    2    0    0 -1.7506944279e+01 -4.2051185084e+00 +4.6701751242e+02 4.7794302278e+02 1.0000000000e+02 0.0000e+00 0.0000e+00
</event>
<event>
 5      1 +8.5651000e-08 1.97237900e+02 7.95774700e-02 5.09193200e-01
       13 -1    0    0    0    0 +0.0000000000e+00 +0.0000000000e+00 +4.9999998884e+02 5.0000000000e+02 1.0566000000e-01 0.0000e+00 -1.0000e+00
      994 -1    0    0    0    0 -0.0000000000e+00 -0.0000000000e+00 +0.0000000000e+00 1.3100000000e+02 1.3100000000e+02 0.0000e+00 0.0000e+00
       13  1    1    2    0    0 +1.3854698980e+00 -4.2943367216e+01 +1.9511615892e+02 1.9979083801e+02 1.0566000000e-01 0.0000e+00 1.0000e+00
      994  1    1    2    0    0 -3.2891971290e+01 +3.7643171473e+01 +3.9280840549e+01 1.4561206876e+02 1.3100000000e+02 0.0000e+00 0.0000e+00
      997  1    1    2    0    0 +3.1506501392e+01 +5.3001957429e+00 +2.6560298936e+02 2.8559709324e+02 1.0000000000e+02 0.0000e+00 0.0000e+00
</event>
<event>
 5      1 +8.5651000e-08 1.99038400e+02 7.95774700e-02 5.05756300e-01
       13 -1    0    0    0    0 +0.0000000000e+00 +0.0000000000e+00 +4.9999998884e+02 5.0000000000e+02 1.0566000000e-01 0.0000e+00 -1.0000e+00
      994 -1    0    0    0    0 -0.0000000000e+00 -0.0000000000e+00 +0.0000000000e+00 1.3100000000e+02 1.3100000000e+02 0.0000e+00 0.0000e+00
       13  1    1    2    0    0 -2.5969336565e+01 +9.0398272190e+00 +1.2899724519e+01 3.0373326694e+01 1.0566000000e-01 0.0000e+00 1.0000e+00
      994  1    1    2    0    0 +6.7484717858e+01 -5.6322758412e+01 +8.0304023932e+01 1.7702027149e+02 1.3100000000e+02 0.0000e+00 0.0000e+00
      997  1    1    2    0    0 -4.1515381293e+01 +4.7282931193e+01 +4.0679624038e+02 4.2360640181e+02 1.0000000000e+02 0.0000e+00 0.0000e+00
</event>
<event>
 5      1 +8.5651000e-08 2.05183100e+02 7.95774700e-02 4.94612600e-01
       13 -1    0    0    0    0 +0.0000000000e+00 +0.0000000000e+00 +4.9999998884e+02 5.0000000000e+02 1.0566000000e-01 0.0000e+00 -1.0000e+00
      994 -1    0    0    0    0 -0.0000000000e+00 -0.0000000000e+00 +0.0000000000e+00 1.3100000000e+02 1.3100000000e+02 0.0000e+00 0.0000e+00
       13  1    1    2    0    0 -1.1845047215e+01 +5.9270727967e+01 +2.5668787702e+02 2.6370817528e+02 1.0566000000e-01 0.0000e+00 1.0000e+00
      994  1    1    2    0    0 +1.5273075672e+01 -4.7889933189e+01 +4.9337690058e+01 1.4873439482e+02 1.3100000000e+02 0.0000e+00 0.0000e+00
      997  1    1    2    0    0 -3.4280284577e+00 -1.1380794778e+01 +1.9397442176e+02 2.1855742990e+02 1.0000000000e+02 0.0000e+00 0.0000e+00
</event>
<event>
 5      1 +8.5651000e-08 1.97242100e+02 7.95774700e-02 5.09185100e-01
       13 -1    0    0    0    0 +0.0000000000e+00 +0.0000000000e+00 +4.9999998884e+02 5.0000000000e+02 1.0566000000e-01 0.0000e+00 -1.0000e+00
      994 -1    0    0    0    0 -0.0000000000e+00 -0.0000000000e+00 +0.0000000000e+00 1.3100000000e+02 1.3100000000e+02 0.0000e+00 0.0000e+00
       13  1    1    2    0    0 -3.6999407292e+00 +9.7044923212e+00 +1.5097706046e+01 1.8325354690e+01 1.0566000000e-01 0.0000e+00 1.0000e+00
      994  1    1    2    0    0 +1.6672387942e+01 -1.8474610769e+00 +1.6055258567e+01 1.3304192181e+02 1.3100000000e+02 0.0000e+00 0.0000e+00
      997  1    1    2    0    0 -1.2972447213e+01 -7.8570312444e+00 +4.6884702422e+02 4.7963272350e+02 1.0000000000e+02 0.0000e+00 0.0000e+00
</event>
<event>
 5      1 +8.5651000e-08 1.96342900e+02 7.95774700e-02 5.10932600e-01
       13 -1    0    0    0    0 +0.0000000000e+00 +0.0000000000e+00 +4.9999998884e+02 5.0000000000e+02 1.0566000000e-01 0.0000e+00 1.0000e+00
      994 -1    0    0    0    0 -0.0000000000e+00 -0.0000000000e+00 +0.0000000000e+00 1.3100000000e+02 1.3100000000e+02 0.0000e+00 0.0000e+00
       13  1    1    2    0    0 +2.1962123416e+01 -1.3304143285e+00 +1.4691899537e+01 2.6456907288e+01 1.0566000000e-01 0.0000e+00 -1.0000e+00
      994  1    1    2    0    0 -4.5340023728e+01 +7.1546869965e+00 +3.5710236995e+01 1.4332874214e+02 1.3100000000e+02 0.0000e+00 0.0000e+00
      997  1    1    2    0    0 +2.3377900312e+01 -5.8242726681e+00 +4.4959785230e+02 4.6121435057e+02 1.0000000000e+02 0.0000e+00 0.0000e+00
</event>
<event>
 5      1 +8.5651000e-08 2.04747900e+02 7.95774700e-02 4.95373600e-01
       13 -1    0    0    0    0 +0.0000000000e+00 +0.0000000000e+00 +4.9999998884e+02 5.0000000000e+02 1.0566000000e-01 0.0000e+00 -1.0000e+00
      994 -1    0    0    0    0 -0.0000000000e+00 -0.0000000000e+00 +0.0000000000e+00 1.3100000000e+02 1.3100000000e+02 0.0000e+00 0.0000e+00
       13  1    1    2    0    0 +9.3106374339e+00 -1.5528432533e+01 -3.3266876582e-02 1.8106144180e+01 1.0566000000e-01 0.0000e+00 1.0000e+00
      994  1    1    2    0    0 -1.3218354160e+01 +2.9902918504e+01 +3.8476501807e+01 1.4039355617e+02 1.3100000000e+02 0.0000e+00 0.0000e+00
      997  1    1    2    0    0 +3.9077167257e+00 -1.4374485971e+01 +4.6155675391e+02 4.7250029965e+02 1.0000000000e+02 0.0000e+00 0.0000e+00
</event>
<event>
 5      1 +8.5651000e-08 1.97205600e+02 7.95774700e-02 5.09255700e-01
       13 -1    0    0    0    0 +0.0000000000e+00 +0.0000000000e+00 +4.9999998884e+02 5.0000000000e+02 1.0566000000e-01 0.0000e+00 1.0000e+00
      994 -1    0    0    0    0 -0.0000000000e+00 -0.0000000000e+00 +0.0000000000e+00 1.3100000000e+02 1.3100000000e+02 0.0000e+00 0.0000e+00
       13  1    1    2    0    0 +4.5795247155e+00 -1.3399215198e+01 +6.2041894468e+01 6.3637401327e+01 1.0566000000e-01 0.0000e+00 -1.0000e+00
      994  1    1    2    0    0 +1.1223412069e+01 -3.3941582576e+00 +1.5284428105e+01 1.3240883290e+02 1.3100000000e+02 0.0000e+00 0.0000e+00
      997  1    1    2    0    0 -1.5802936785e+01 +1.6793373456e+01 +4.2267366626e+02 4.3495376577e+02 1.0000000000e+02 0.0000e+00 0.0000e+00
</event>
<event>
 5      1 +8.5651000e-08 1.99025900e+02 7.95774700e-02 5.05779800e-01
       13 -1    0    0    0    0 +0.0000000000e+00 +0.0000000000e+00 +4.9999998884e+02 5.0000000000e+02 1.0566000000e-01 0.0000e+00 1.0000e+00
      994 -1    0    0    0    0 -0.0000000000e+00 -0.0000000000e+00 +0.0000000000e+00 1.3100000000e+02 1.3100000000e+02 0.0000e+00 0.0000e+00
       13  1    1    2    0    0 +2.0494633007e+01 -3.1041851549e+01 +9.1570639152e+01 9.8837339343e+01 1.0566000000e-01 0.0000e+00 -1.0000e+00
      994  1    1    2    0    0 +2.0761410744e+01 +1.9730907964e+00 +2.7983028320e+01 1.3556909359e+02 1.3100000000e+02 0.0000e+00 0.0000e+00
      997  1    1    2    0    0 -4.1256043751e+01 +2.9068760753e+01 +3.8044632136e+02 3.9659356707e+02 1.0000000000e+02 0.0000e+00 0.0000e+00
</event>
<event>
 5      1 +8.5651000e-08 1.95580800e+02 7.95774700e-02 5.12430200e-01
       13 -1    0    0    0    0 +0.0000000000e+00 +0.0000000000e+00 +4.9999998884e+02 5.0000000000e+02 1.0566000000e-01 0.0000e+00 -1.0000e+00
      994 -1    0    0    0    0 -0.0000000000e+00 -0.0000000000e+00 +0.0000000000e+00 1.3100000000e+02 1.3100000000e+02 0.0000e+00 0.0000e+00
       13  1    1    2    0    0 -1.6250149122e+01 -5.7832503646e+00 +2.1437567422e+01 2.7515337401e+01 1.0566000000e-01 0.0000e+00 1.0000e+00
      994  1    1    2    0    0 +5.2585753584e+01 +1.9853141158e+01 +3.4538007706e+01 1.4667406952e+02 1.3100000000e+02 0.0000e+00 0.0000e+00
      997  1    1    2    0    0 -3.6335604461e+01 -1.4069890794e+01 +4.4402441371e+02 4.5681059308e+02 1.0000000000e+02 0.0000e+00 0.0000e+00
</event>
<event>
 5      1 +8.5651000e-08 1.98022900e+02 7.95774700e-02 5.07684800e-01
       13 -1    0    0    0    0 +0.0000000000e+00 +0.0000000000e+00 +4.9999998884e+02 5.0000000000e+02 1.0566000000e-01 0.0000e+00 -1.0000e+00
      994 -1    0    0    0    0 -0.0000000000e+00 -0.0000000000e+00 +0.0000000000e+00 1.3100000000e+02 1.3100000000e+02 0.0000e+00 0.0000e+00
       13  1    1    2    0    0 +4.8718106182e-01 +1.4550683833e+01 +6.0335066361e+01 6.2066828034e+01 1.0566000000e-01 0.0000e+00 1.0000e+00
      994  1    1    2    0    0 -8.7806463414e+00 -1.5829225327e+01 +1.5606236430e+01 1.3316237734e+02 1.3100000000e+02 0.0000e+00 0.0000e+00
      997  1    1    2    0    0 +8.2934652796e+00 +1.2785414940e+00 +4.2405868604e+02 4.3577079462e+02 1.0000000000e+02 0.0000e+00 0.0000e+00
</event>
<event>
 5      1 +8.5651000e-08 1.95646400e+02 7.95774700e-02 5.12300600e-01
       13 -1    0    0    0    0 +0.0000000000e+00 +0.0000000000e+00 +4.9999998884e+02 5.0000000000e+02 1.0566000000e-01 0.0000e+00 -1.0000e+00
      994 -1    0    0    0    0 -0.0000000000e+00 -0.0000000000e+00 +0.0000000000e+00 1.3100000000e+02 1.3100000000e+02 0.0000e+00 0.0000e+00
       13  1    1    2    0    0 -1.6467055777e+01 +2.4958820764e+01 +4.9521600075e+01 5.7848999109e+01 1.0566000000e-01 0.0000e+00 1.0000e+00
      994  1    1    2    0    0 +2.2549369487e+01 +9.6407710222e-01 +2.4989496627e+01 1.3525856147e+02 1.3100000000e+02 0.0000e+00 0.0000e+00
      997  1    1    2    0    0 -6.0823137106e+00 -2.5922897866e+01 +4.2548889213e+02 4.3789243942e+02 1.0000000000e+02 0.0000e+00 0.0000e+00
</event>
<event>
 5      1 +8.5651000e-08 1.96160400e+02 7.95774700e-02 5.11289800e-01
       13 -1    0    0    0    0 +0.0000000000e+00 +0.0000000000e+00 +4.9999998884e+02 5.0000000000e+02 1.0566000000e-01 0.0000e+00 -1.0000e+00
      994 -1    0    0    0    0 -0.0000000000e+00 -0.0000000000e+00 +0.0000000000e+00 1.3100000000e+02 1.3100000000e+02 0.0000e+00 0.0000e+00
       13  1    1    2    0    0 +8.0070860255e+00 +1.4122223230e+01 +7.9289440265e+00 1.8067372055e+01 1.0566000000e-01 0.0000e+00 1.0000e+00
      994  1    1    2    0    0 -1.5137789529e+01 -5.3749180852e+00 +2.3974963341e+01 1.3414112450e+02 1.3100000000e+02 0.0000e+00 0.0000e+00
      997  1    1    2    0    0 +7.1307035040e+00 -8.7473051447e+00 +4.6809608147e+02 4.7879150344e+02 1.0000000000e+02 0.0000e+00 0.0000e+00
</event>
<event>
 5      1 +8.5651000e-08 2.20458600e+02 7.95774700e-02 4.70287200e-01
       13 -1    0    0    0    0 +0.0000000000e+00 +0.0000000000e+00 +4.9999998884e+02 5.0000000000e+02 1.0566000000e-01 0.0000e+00 -1.0000e+00
      994 -1    0    0    0    0 -0.0000000000e+00 -0.0000000000e+00 +0.0000000000e+00 1.3100000000e+02 1.3100000000e+02 0.0000e+00 0.0000e+00
       13  1    1    2    0    0 +5.4320946333e+01 -4.9845331791e+01 +1.0332310496e+02 1.2692910421e+02 1.0566000000e-01 0.0000e+00 1.0000e+00
      994  1    1    2    0    0 -3.3022280319e+01 -5.8141200393e+00 +6.0185926196e+01 1.4801223159e+02 1.3100000000e+02 0.0000e+00 0.0000e+00
      997  1    1    2    0    0 -2.1298666013e+01 +5.5659451831e+01 +3.3649095768e+02 3.5605866420e+02 1.0000000000e+02 0.0000e+00 0.0000e+00
</event>
<event>
 5      1 +8.5651000e-08 1.99050200e+02 7.95774700e-02 5.05733900e-01
       13 -1    0    0    0    0 +0.0000000000e+00 +0.0000000000e+00 +4.9999998884e+02 5.0000000000e+02 1.0566000000e-01 0.0000e+00 1.0000e+00
      994 -1    0    0    0    0 -0.0000000000e+00 -0.0000000000e+00 +0.0000000000e+00 1.3100000000e+02 1.3100000000e+02 0.0000e+00 0.0000e+00
       13  1    1    2    0    0 +5.0136278630e+00 -2.7472410434e+01 +2.5174125556e+01 3.7598105816e+01 1.0566000000e-01 0.0000e+00 -1.0000e+00
      994  1    1    2    0    0 -4.7163095135e+01 +1.2115104565e+01 +4.0567585599e+01 1.4552615676e+02 1.3100000000e+02 0.0000e+00 0.0000e+00
      997  1    1    2    0    0 +4.2149467272e+01 +1.5357305869e+01 +4.3425827768e+02 4.4787573742e+02 1.0000000000e+02 0.0000e+00 0.0000e+00
</event>
<event>
 5      1 +8.5651000e-08 1.96372800e+02 7.95774700e-02 5.10874200e-01
       13 -1    0    0    0    0 +0.0000000000e+00 +0.0000000000e+00 +4.9999998884e+02 5.0000000000e+02 1.0566000000e-01 0.0000e+00 1.0000e+00
      994 -1    0    0    0    0 -0.0000000000e+00 -0.0000000000e+00 +0.0000000000e+00 1.3100000000e+02 1.3100000000e+02 0.0000e+00 0.0000e+00
       13  1    1    2    0    0 -1.6907485407e+01 -1.5775517834e+01 +1.9407005403e+01 3.0188955737e+01 1.0566000000e-01 0.0000e+00 -1.0000e+00
      994  1    1    2    0    0 +3.5459584856e+01 +3.1395197631e+00 +3.0417743205e+01 1.3911677772e+02 1.3100000000e+02 0.0000e+00 0.0000e+00
      997  1    1    2    0    0 -1.8552099449e+01 +1.2635998071e+01 +4.5017524023e+02 4.6169426654e+02 1.0000000000e+02 0.0000e+00 0.0000e+00
</event>
<event>
 5      1 +8.5651000e-08 1.94235300e+02 7.95774700e-02 5.15112000e-01
       13 -1    0    0    0    0 +0.0000000000e+00 +0.0000000000e+00 +4.9999998884e+02 5.0000000000e+02 1.0566000000e-01 0.0000e+00 -1.0000e+00
      994 -1    0    0    0    0 -0.0000000000e+00 -0.0000000000e+00 +0.0000000000e+00 1.3100000000e+02 1.3100000000e+02 0.0000e+00 0.0000e+00
       13  1    1    2    0    0 +1.8720187434e+01 +7.0828740123e-01 +2.4869606737e+01 3.1136081832e+01 1.0566000000e-01 0.0000e+00 1.0000e+00
      994  1    1    2    0    0 -3.4180306359e+01 +1.2164633500e+01 +2.4861877882e+01 1.3818605075e+02 1.3100000000e+02 0.0000e+00 0.0000e+00
      997  1    1    2    0    0 +1.5460118925e+01 -1.2872920901e+01 +4.5026850422e+02 4.6167786741e+02 1.0000000000e+02 0.0000e+00 0.0000e+00
</event>
<event>
 5      1 +8.5651000e-08 1.95870900e+02 7.95774700e-02 5.11858200e-01
       13 -1    0    0    0    0 +0.0000000000e+00 +0.0000000000e+00 +4.9999998884e+02 5.0000000000e+02 1.0566000000e-01 0.0000e+00 -1.0000e+00
      994 -1    0    0    0    0 -0.0000000000e+00 -0.0000000000e+00 +0.0000000000e+00 1.3100000000e+02 1.3100000000e+02 0.0000e+00 0.0000e+00
       13  1    1    2    0    0 +2.1738577971e+01 -2.6497857101e+01 +3.9724112441e+01 5.2466355661e+01 1.0566000000e-01 0.0000e+00 1.0000e+00
      994  1    1    2    0    0 -7.2858559618e+01 +2.2796633486e+01 +6.0467472435e+01 1.6323410009e+02 1.3100000000e+02 0.0000e+00 0.0000e+00
      997  1    1    2    0    0 +5.1119981647e+01 +3.7012236153e+00 +3.9980840396e+02 4.1529954425e+02 1.0000000000e+02 0.0000e+00 0.0000e+00
</event>
<event>
 5      1 +8.5651000e-08 1.92558000e+02 7.95774700e-02 5.18524900e-01
       13 -1    0    0    0    0 +0.0000000000e+00 +0.0000000000e+00 +4.9999998884e+02 5.0000000000e+02 1.0566000000e-01 0.0000e+00 1.0000e+00
      994 -1    0    0    0    0 -0.0000000000e+00 -0.0000000000e+00 +0.0000000000e+00 1.3100000000e+02 1.3100000000e+02 0.0000e+00 0.0000e+00
       13  1    1    2    0    0 +4.2048302791e+00 -1.4453424328e+01 +1.1509781454e+01 1.8949097753e+01 1.0566000000e-01 0.0000e+00 -1.0000e+00
      994  1    1    2    0    0 -1.4261150211e+01 +2.0443590969e+01 +2.2410446929e+01 1.3522037180e+02 1.3100000000e+02 0.0000e+00 0.0000e+00
      997  1    1    2    0    0 +1.0056319932e+01 -5.9901666408e+00 +4.6607976045e+02 4.7683053045e+02 1.0000000000e+02 0.0000e+00 0.0000e+00
</event>
<event>
 5      1 +8.5651000e-08 1.96565500e+02 7.95774700e-02 5.10498100e-01
       13 -1    0    0    0    0 +0.0000000000e+00 +0.0000000000e+00 +4.9999998884e+02 5.0000000000e+02 1.0566000000e-01 0.0000e+00 1.0000e+00
      994 -1    0    0    0    0 -0.0000000000e+00 -0.0000000000e+00 +0.0000000000e+00 1.3100000000e+02 1.3100000000e+02 0.0000e+00 0.0000e+00
       13  1    1    2    0    0 +5.6839011722e-01 -1.8796076554e+01 +5.5126552778e+01 5.8245716978e+01 1.0566000000e-01 0.0000e+00 -1.0000e+00
      994  1    1    2    0    0 -1.7603126383e+01 +1.9492426325e+01 +1.8982575954e+01 1.3494874187e+02 1.3100000000e+02 0.0000e+00 0.0000e+00
      997  1    1    2    0    0 +1.7034736266e+01 -6.9634977183e-01 +4.2589086010e+02 4.3780554115e+02 1.0000000000e+02 0.0000e+00 0.0000e+00
</event>
<event>
 5      1 +8.5651000e-08 1.94748500e+02 7.95774700e-02 5.14083300e-01
       13 -1    0    0    0    0 +0.0000000000e+00 +0.0000000000e+00 +4.9999998884e+02 5.0000000000e+02 1.0566000000e-01 0.0000e+00 -1.0000e+00
      994 -1    0    0    0    0 -0.0000000000e+00 -0.0000000000e+00 +0.0000000000e+00 1.3100000000e+02 1.3100000000e+02 0.0000e+00 0.0000e+00
       13  1    1    2    0    0 -1.5927333378e+01 +2.7383382358e+01 +6.7032581949e+01 7.4141134228e+01 1.0566000000e-01 0.0000e+00 1.0000e+00
      994  1    1    2    0    0 -1.0636776717e+01 -2.1009208005e+01 +2.4364942962e+01 1.3531141225e+02 1.3100000000e+02 0.0000e+00 0.0000e+00
      997  1    1    2    0    0 +2.6564110096e+01 -6.3741743538e+00 +4.0860246392e+02 4.2154745352e+02 1.0000000000e+02 0.0000e+00 0.0000e+00
</event>
<event>
 5      1 +8.5651000e-08 2.09308600e+02 7.95774700e-02 4.87600000e-01
       13 -1    0    0    0    0 +0.0000000000e+00 +0.0000000000e+00 +4.9999998884e+02 5.0000000000e+02 1.0566000000e-01 0.0000e+00 1.0000e+00
      994 -1    0    0    0    0 -0.0000000000e+00 -0.0000000000e+00 +0.0000000000e+00 1.3100000000e+02 1.3100000000e+02 0.0000e+00 0.0000e+00
       13  1    1    2    0    0 +4.7934432537e+01 -1.3302199985e+01 +4.7344612502e+01 6.8674462824e+01 1.0566000000e-01 0.0000e+00 -1.0000e+00
      994  1    1    2    0    0 -3.5645399182e+01 +1.4758520554e+01 +4.7126315241e+01 1.4446555991e+02 1.3100000000e+02 0.0000e+00 0.0000e+00
      997  1    1    2    0    0 -1.2289033356e+01 -1.4563205695e+00 +4.0552906109e+02 4.1785997727e+02 1.0000000000e+02 0.0000e+00 0.0000e+00
</event>
<event>
 5      1 +8.5651000e-08 1.98435200e+02 7.95774700e-02 5.06898600e-01
       13 -1    0    0    0    0 +0.0000000000e+00 +0.0000000000e+00 +4.9999998884e+02 5.0000000000e+02 1.0566000000e-01 0.0000e+00 1.0000e+00
      994 -1    0    0    0    0 -0.0000000000e+00 -0.0000000000e+00 +0.0000000000e+00 1.3100000000e+02 1.3100000000e+02 0.0000e+00 0.0000e+00
       13  1    1    2    0    0 -1.2073651021e+01 +4.9921867768e+00 +9.0374846037e-01 1.3096675269e+01 1.0566000000e-01 0.0000e+00 -1.0000e+00
      994  1    1    2    0    0 +1.4439337305e+01 -4.0118274155e+00 +2.6059003287e+01 1.3440483947e+02 1.3100000000e+02 0.0000e+00 0.0000e+00
      997  1    1    2    0    0 -2.3656862840e+00 -9.8035936132e-01 +4.7303723709e+02 4.8349848526e+02 1.0000000000e+02 0.0000e+00 0.0000e+00
</event>
<event>
 5      1 +8.5651000e-08 1.98041400e+02 7.95774700e-02 5.07649400e-01
       13 -1    0    0    0    0 +0.0000000000e+00 +0.0000000000e+00 +4.9999998884e+02 5.0000000000e+02 1.0566000000e-01 0.0000e+00 1.0000e+00
      994 -1    0    0    0    0 -0.0000000000e+00 -0.0000000000e+00 +0.0000000000e+00 1.3100000000e+02 1.3100000000e+02 0.0000e+00 0.0000e+00
       13  1    1    2    0    0 +3.5280985469e+01 -1.3204424972e+01 +6.7493390763e+01 7.7294719970e+01 1.0566000000e-01 0.0000e+00 -1.0000e+00
      994  1    1    2    0    0 -4.2634729866e+00 +4.2242403673e+01 +3.5655845803e+01 1.4224955961e+02 1.3100000000e+02 0.0000e+00 0.0000e+00
      997  1    1    2    0    0 -3.1017512482e+01 -2.9037978701e+01 +3.9685075227e+02 4.1145572042e+02 1.0000000000e+02 0.0000e+00 0.0000e+00
</event>
<event>
 5      1 +8.5651000e-08 1.97716400e+02 7.95774700e-02 5.08271800e-01
       13 -1    0    0    0    0 +0.0000000000e+00 +0.0000000000e+00 +4.9999998884e+02 5.0000000000e+02 1.0566000000e-01 0.0000e+00 -1.0000e+00
      994 -1    0    0    0    0 -0.0000000000e+00 -0.0000000000e+00 +0.0000000000e+00 1.3100000000e+02 1.3100000000e+02 0.0000e+00 0.0000e+00
       13  1    1    2    0    0 -6.8222129485e+00 -1.3752551145e+01 +7.6988426462e+01 7.8504166932e+01 1.0566000000e-01 0.0000e+00 1.0000e+00
      994  1    1    2    0    0 +3.7399150226e+00 +1.6132196404e+01 +1.5585713702e+01 1.3295920125e+02 1.3100000000e+02 0.0000e+00 0.0000e+00
      997  1    1    2    0    0 +3.0822979259e+00 -2.3796452592e+00 +4.0742584867e+02 4.1953663182e+02 1.0000000000e+02 0.0000e+00 0.0000e+00
</event>
<event>
 5      1 +8.5651000e-08 1.93634900e+02 7.95774700e-02 5.16324800e-01
       13 -1    0    0    0    0 +0.0000000000e+00 +0.0000000000e+00 +4.9999998884e+02 5.0000000000e+02 1.0566000000e-01 0.0000e+00 -1.0000e+00
      994 -1    0    0    0    0 -0.0000000000e+00 -0.0000000000e+00 +0.0000000000e+00 1.3100000000e+02 1.3100000000e+02 0.0000e+00 0.0000e+00
       13  1    1    2    0    0 -1.1091652851e+01 +1.7777815561e+01 +1.8224724794e+01 2.7770978502e+01 1.0566000000e-01 0.0000e+00 1.0000e+00
      994  1    1    2    0    0 +7.9481552714e+01 -1.4609716882e+00 +6.0783798210e+01 1.6484878460e+02 1.3100000000e+02 0.0000e+00 0.0000e+00
      997  1    1    2    0    0 -6.8389899863e+01 -1.6316843873e+01 +4.2099146583e+02 4.3838023690e+02 1.0000000000e+02 0.0000e+00 0.0000e+00
</event>
<event>
 5      1 +8.5651000e-08 1.55520500e+02 7.95774700e-02 6.21655600e-01
       13 -1    0    0    0    0 +0.0000000000e+00 +0.0000000000e+00 +4.9999998884e+02 5.0000000000e+02 1.0566000000e-01 0.0000e+00 1.0000e+00
      994 -1    0    0    0    0 -0.0000000000e+00 -0.0000000000e+00 +0.0000000000e+00 1.3100000000e+02 1.3100000000e+02 0.0000e+00 0.0000e+00
       13  1    1    2    0    0 +1.7438621864e+01 -5.5459539455e+01 +2.2738916411e+02 2.3470344942e+02 1.0566000000e-01 0.0000e+00 -1.0000e+00
      994  1    1    2    0    0 -3.0722254922e+01 -2.4824124174e+01 +6.3981556608e+01 1.5104546890e+02 1.3100000000e+02 0.0000e+00 0.0000e+00
      997  1    1    2    0    0 +1.3283633058e+01 +8.0283663629e+01 +2.0862926812e+02 2.4525108169e+02 1.0000000000e+02 0.0000e+00 0.0000e+00
</event>
<event>
 5      1 +8.5651000e-08 1.97245600e+02 7.95774700e-02 5.09178500e-01
       13 -1    0    0    0    0 +0.0000000000e+00 +0.0000000000e+00 +4.9999998884e+02 5.0000000000e+02 1.0566000000e-01 0.0000e+00 -1.0000e+00
      994 -1    0    0    0    0 -0.0000000000e+00 -0.0000000000e+00 +0.0000000000e+00 1.3100000000e+02 1.3100000000e+02 0.0000e+00 0.0000e+00
       13  1    1    2    0    0 -6.2147192240e+00 +1.2172791188e+01 +3.5512373091e+01 3.8051798735e+01 1.0566000000e-01 0.0000e+00 1.0000e+00
      994  1    1    2    0    0 -1.7855387461e+01 -1.1525880084e+01 +1.7006694370e+01 1.3379793880e+02 1.3100000000e+02 0.0000e+00 0.0000e+00
      997  1    1    2    0    0 +2.4070106685e+01 -6.4691110446e-01 +4.4748092137e+02 4.5915026247e+02 1.0000000000e+02 0.0000e+00 0.0000e+00
</event>
<event>
 5      1 +8.5651000e-08 2.15242100e+02 7.95774700e-02 4.78107500e-01
       13 -1    0    0    0    0 +0.0000000000e+00 +0.0000000000e+00 +4.9999998884e+02 5.0000000000e+02 1.0566000000e-01 0.0000e+00 -1.0000e+00
      994 -1    0    0    0    0 -0.0000000000e+00 -0.0000000000e+00 +0.0000000000e+00 1.3100000000e+02 1.3100000000e+02 0.0000e+00 0.0000e+00
       13  1    1    2    0    0 +1.2838599113e+00 -1.8481657164e+01 -6.4460700463e+00 1.9615884657e+01 1.0566000000e-01 0.0000e+00 1.0000e+00
      994  1    1    2    0    0 +2.5767512914e+01 +9.0394723982e+00 +4.9389542352e+01 1.4263941838e+02 1.3100000000e+02 0.0000e+00 0.0000e+00
      997  1    1    2    0    0 -2.7051372825e+01 +9.4421847659e+00 +4.5705651653e+02 4.6874469696e+02 1.0000000000e+02 0.0000e+00 0.0000e+00
</event>
<event>
 5      1 +8.5651000e-08 1.92586900e+02 7.95774700e-02 5.18465400e-01
       13 -1    0    0    0    0 +0.0000000000e+00 +0.0000000000e+00 +4.9999998884e+02 5.0000000000e+02 1.0566000000e-01 0.0000e+00 -1.0000e+00
      994 -1    0    0    0    0 -0.0000000000e+00 -0.0000000000e+00 +0.0000000000e+00 1.3100000000e+02 1.3100000000e+02 0.0000e+00 0.0000e+00
       13  1    1    2    0    0 +1.0135178794e+01 +2.5312226606e+01 +4.0713218248e+01 4.9000081317e+01 1.0566000000e-01 0.0000e+00 1.0000e+00
      994  1    1    2    0    0 +2.1035062146e+00 -5.3912640791e+01 +3.6315006009e+01 1.4625586223e+02 1.3100000000e+02 0.0000e+00 0.0000e+00
      997  1    1    2    0    0 -1.2238685009e+01 +2.8600414186e+01 +4.2297176458e+02 4.3574405645e+02 1.0000000000e+02 0.0000e+00 0.0000e+00
</event>
<event>
 5      1 +8.5651000e-08 1.95656100e+02 7.95774700e-02 5.12281500e-01
       13 -1    0    0    0    0 +0.0000000000e+00 +0.0000000000e+00 +4.9999998884e+02 5.0000000000e+02 1.0566000000e-01 0.0000e+00 1.0000e+00
      994 -1    0    0    0    0 -0.0000000000e+00 -0.0000000000e+00 +0.0000000000e+00 1.3100000000e+02 1.3100000000e+02 0.0000e+00 0.0000e+00
       13  1    1    2    0    0 +2.3429451959e+01 +2.5793407254e+01 +5.8147630830e+01 6.7789359136e+01 1.0566000000e-01 0.0000e+00 -1.0000e+00
      994  1    1    2    0    0 -2.1866062385e+01 -2.6368148368e+01 +2.9076786200e+01 1.3849138395e+02 1.3100000000e+02 0.0000e+00 0.0000e+00
      997  1    1    2    0    0 -1.5633895743e+00 +5.7474111355e-01 +4.1277557181e+02 4.2471925691e+02 1.0000000000e+02 0.0000e+00 0.0000e+00
</event>
<event>
 5      1 +8.5651000e-08 2.07328700e+02 7.95774700e-02 4.90921100e-01
       13 -1    0    0    0    0 +0.0000000000e+00 +0.0000000000e+00 +4.9999998884e+02 5.0000000000e+02 1.0566000000e-01 0.0000e+00 -1.0000e+00
      994 -1    0    0    0    0 -0.0000000000e+00 -0.0000000000e+00 +0.0000000000e+00 1.3100000000e+02 1.3100000000e+02 0.0000e+00 0.0000e+00
       13  1    1    2    0    0 +4.8877720478e+01 +1.1331649589e+01 +5.9656298207e+01 7.7950772423e+01 1.0566000000e-01 0.0000e+00 1.0000e+00
      994  1    1    2    0    0 +1.3694640246e+00 -1.1517776257e+02 +1.7609720623e+02 2.4786895421e+02 1.3100000000e+02 0.0000e+00 0.0000e+00
      997  1    1    2    0    0 -5.0247184503e+01 +1.0384611298e+02 +2.6424648440e+02 3.0518027336e+02 1.0000000000e+02 0.0000e+00 0.0000e+00
</event>
<event>
 5      1 +8.5651000e-08 1.35610500e+02 7.95774700e-02 7.15947800e-01
       13 -1    0    0    0    0 +0.0000000000e+00 +0.0000000000e+00 +4.9999998884e+02 5.0000000000e+02 1.0566000000e-01 0.0000e+00 1.0000e+00
      994 -1    0    0    0    0 -0.0000000000e+00 -0.0000000000e+00 +0.0000000000e+00 1.3100000000e+02 1.3100000000e+02 0.0000e+00 0.0000e+00
       13  1    1    2    0    0 +2.0819051692e+01 -5.4233726522e+01 +1.6667301904e+01 6.0436248416e+01 1.0566000000e-01 0.0000e+00 -1.0000e+00
      994  1    1    2    0    0 +6.6231826050e+01 -5.0452464165e+00 +1.6646348362e+02 2.2199819970e+02 1.3100000000e+02 0.0000e+00 0.0000e+00
      997  1    1    2    0    0 -8.7050877743e+01 +5.9278972939e+01 +3.1686920331e+02 3.4856555188e+02 1.0000000000e+02 0.0000e+00 0.0000e+00
</event>
<event>
 5      1 +8.5651000e-08 2.06002100e+02 7.95774700e-02 4.93191900e-01
       13 -1    0    0    0    0 +0.0000000000e+00 +0.0000000000e+00 +4.9999998884e+02 5.0000000000e+02 1.0566000000e-01 0.0000e+00 1.0000e+00
      994 -1    0    0    0    0 -0.0000000000e+00 -0.0000000000e+00 +0.0000000000e+00 1.3100000000e+02 1.3100000000e+02 0.0000e+00 0.0000e+00
       13  1    1    2    0    0 +2.7597303569e+00 +5.9123973524e+01 +1.1231479226e+02 1.2695622900e+02 1.0566000000e-01 0.0000e+00 -1.0000e+00
      994  1    1    2    0    0 +4.5363140323e+01 -3.5291532311e+01 +5.6257362993e+01 1.5371791582e+02 1.3100000000e+02 0.0000e+00 0.0000e+00
      997  1    1    2    0    0 -4.8122870680e+01 -2.3832441212e+01 +3.3142783358e+02 3.5032585518e+02 1.0000000000e+02 0.0000e+00 0.0000e+00
</event>
<event>
 5      1 +8.5651000e-08 1.93825100e+02 7.95774700e-02 5.15939500e-01
       13 -1    0    0    0    0 +0.0000000000e+00 +0.0000000000e+00 +4.9999998884e+02 5.0000000000e+02 1.0566000000e-01 0.0000e+00 1.0000e+00
      994 -1    0    0    0    0 -0.0000000000e+00 -0.0000000000e+00 +0.0000000000e+00 1.3100000000e+02 1.3100000000e+02 0.0000e+00 0.0000e+00
       13  1    1    2    0    0 -1.9025118686e+00 +2.1584538814e+01 +2.0675544098e+01 2.9949977546e+01 1.0566000000e-01 0.0000e+00 -1.0000e+00
      994  1    1    2    0    0 +8.6983774693e+00 -3.9588458684e+01 +3.0053112523e+01 1.4038196965e+02 1.3100000000e+02 0.0000e+00 0.0000e+00
      997  1    1    2    0    0 -6.7958656007e+00 +1.8003919870e+01 +4.4927133222e+02 4.6066805280e+02 1.0000000000e+02 0.0000e+00 0.0000e+00
</event>
<event>
 5      1 +8.5651000e-08 1.94331200e+02 7.95774700e-02 5.14919200e-01
       13 -1    0    0    0    0 +0.0000000000e+00 +0.0000000000e+00 +4.9999998884e+02 5.0000000000e+02 1.0566000000e-01 0.0000e+00 1.0000e+00
      994 -1    0    0    0    0 -0.0000000000e+00 -0.0000000000e+00 +0.0000000000e+00 1.3100000000e+02 1.3100000000e+02 0.0000e+00 0.0000e+00
       13  1    1    2    0    0 -2.0586559066e+01 -2.0848033521e+00 +3.2986859434e+01 3.8939656888e+01 1.0566000000e-01 0.0000e+00 -1.0000e+00
      994  1    1    2    0    0 +3.0025904006e+01 +1.6652402171e+01 +2.3956842004e+01 1.3752740704e+02 1.3100000000e+02 0.0000e+00 0.0000e+00
      997  1    1    2    0    0 -9.4393449401e+00 -1.4567598819e+01 +4.4305628740e+02 4.5453293607e+02 1.0000000000e+02 0.0000e+00 0.0000e+00
</event>
<event>
 5      1 +8.5651000e-08 2.32083300e+02 7.95774700e-02 4.54402100e-01
       13 -1    0    0    0    0 +0.0000000000e+00 +0.0000000000e+00 +4.9999998884e+02 5.0000000000e+02 1.0566000000e-01 0.0000e+00 1.0000e+00
      994 -1    0    0    0    0 -0.0000000000e+00 -0.0000000000e+00 +0.0000000000e+00 1.3100000000e+02 1.3100000000e+02 0.0000e+00 0.0000e+00
       13  1    1    2    0    0 +3.9891110136e+01 -3.9273879309e+01 +2.6242442382e+01 6.1825684065e+01 1.0566000000e-01 0.0000e+00 -1.0000e+00
      994  1    1    2    0    0 +2.1081358168e+01 +1.0671061505e+01 +7.5428659119e+01 1.5299927396e+02 1.3100000000e+02 0.0000e+00 0.0000e+00
      997  1    1    2    0    0 -6.0972468304e+01 +2.8602817804e+01 +3.9832888733e+02 4.1617504197e+02 1.0000000000e+02 0.0000e+00 0.0000e+00
</event>
<event>
 5      1 +8.5651000e-08 1.99108500e+02 7.95774700e-02 5.05624100e-01
       13 -1    0    0    0    0 +0.0000000000e+00 +0.0000000000e+00 +4.9999998884e+02 5.0000000000e+02 1.0566000000e-01 0.0000e+00 -1.0000e+00
      994 -1    0    0    0    0 -0.0000000000e+00 -0.0000000000e+00 +0.0000000000e+00 1.3100000000e+02 1.3100000000e+02 0.0000e+00 0.0000e+00
       13  1    1    2    0    0 +1.5202276426e+00 -4.9401718420e+01 +1.2225722972e+02 1.3186994448e+02 1.0566000000e-01 0.0000e+00 1.0000e+00
      994  1    1    2    0    0 -1.6335754166e+01 +3.1626005124e+01 +3.3377267662e+01 1.3979307229e+02 1.3100000000e+02 0.0000e+00 0.0000e+00
      997  1    1    2    0    0 +1.4815526524e+01 +1.7775713295e+01 +3.4436549145e+02 3.5933698323e+02 1.0000000000e+02 0.0000e+00 0.0000e+00
</event>
<event>
 5      1 +8.5651000e-08 1.93906500e+02 7.95774700e-02 5.15775000e-01
       13 -1    0    0    0    0 +0.0000000000e+00 +0.0000000000e+00 +4.9999998884e+02 5.0000000000e+02 1.0566000000e-01 0.0000e+00 1.0000e+00
      994 -1    0    0    0    0 -0.0000000000e+00 -0.0000000000e+00 +0.0000000000e+00 1.3100000000e+02 1.3100000000e+02 0.0000e+00 0.0000e+00
       13  1    1    2    0    0 -9.1681260861e+00 -1.8752789993e+01 +2.3462130404e+01 3.1403891408e+01 1.0566000000e-01 0.0000e+00 -1.0000e+00
      994  1    1    2    0    0 +1.7538763924e+00 +1.2878581365e+01 +2.1234960179e+01 1.3334488169e+02 1.3100000000e+02 0.0000e+00 0.0000e+00
      997  1    1    2    0    0 +7.4142496937e+00 +5.8742086280e+00 +4.5530289825e+02 4.6625122690e+02 1.0000000000e+02 0.0000e+00 0.0000e+00
</event>
<event>
 5      1 +8.5651000e-08 1.94104700e+02 7.95774700e-02 5.15374800e-01
       13 -1    0    0    0    0 +0.0000000000e+00 +0.0000000000e+00 +4.9999998884e+02 5.0000000000e+02 1.0566000000e-01 0.0000e+00 -1.0000e+00
      994 -1    0    0    0    0 -0.0000000000e+00 -0.0000000000e+00 +0.0000000000e+00 1.3100000000e+02 1.3100000000e+02 0.0000e+00 0.0000e+00
       13  1    1    2    0    0 -2.2696875946e+01 +7.7972859755e-01 +3.1829896807e+01 3.9101274265e+01 1.0566000000e-01 0.0000e+00 1.0000e+00
      994  1    1    2    0    0 +5.4167284872e+01 +2.0988531749e+01 +3.7513181897e+01 1.4813119871e+02 1.3100000000e+02 0.0000e+00 0.0000e+00
      997  1    1    2    0    0 -3.1470408926e+01 -2.1768260346e+01 +4.3065691013e+02 4.4376752702e+02 1.0000000000e+02 0.0000e+00 0.0000e+00
</event>
<event>
 5      1 +8.5651000e-08 1.98136300e+02 7.95774700e-02 5.07468100e-01
       13 -1    0    0    0    0 +0.0000000000e+00 +0.0000000000e+00 +4.9999998884e+02 5.0000000000e+02 1.0566000000e-01 0.0000e+00 -1.0000e+00
      994 -1    0    0    0    0 -0.0000000000e+00 -0.0000000000e+00 +0.0000000000e+00 1.3100000000e+02 1.3100000000e+02 0.0000e+00 0.0000e+00
       13  1    1    2    0    0 +1.7124523659e+01 +5.0041025364e+00 +8.7070579218e+00 1.9852314082e+01 1.0566000000e-01 0.0000e+00 1.0000e+00
      994  1    1    2    0    0 +1.4769274428e+00 +1.2326199538e-01 +2.4381356344e+01 1.3325782170e+02 1.3100000000e+02 0.0000e+00 0.0000e+00
      997  1    1    2    0    0 -1.8601451101e+01 -5.1273645318e+00 +4.6691157457e+02 4.7788986421e+02 1.0000000000e+02 0.0000e+00 0.0000e+00
</event>
<event>
 5      1 +8.5651000e-08 1.93195500e+02 7.95774700e-02 5.17218400e-01
       13 -1    0    0    0    0 +0.0000000000e+00 +0.0000000000e+00 +4.9999998884e+02 5.0000000000e+02 1.0566000000e-01 0.0000e+00 1.0000e+00
      994 -1    0    0    0    0 -0.0000000000e+00 -0.0000000000e+00 +0.0000000000e+00 1.3100000000e+02 1.3100000000e+02 0.0000e+00 0.0000e+00
       13  1    1    2    0    0 +1.1926826124e+01 +2.6077005563e+01 +5.7700322534e+01 6.4432893657e+01 1.0566000000e-01 0.0000e+00 -1.0000e+00
      994  1    1    2    0    0 -1.9973876541e+01 -1.2290469252e+01 +2.2804803600e+01 1.3502248126e+02 1.3100000000e+02 0.0000e+00 0.0000e+00
      997  1    1    2    0    0 +8.0470504169e+00 -1.3786536311e+01 +4.1949486270e+02 4.3154462508e+02 1.0000000000e+02 0.0000e+00 0.0000e+00
</event>
<event>
 5      1 +8.5651000e-08 1.96961800e+02 7.95774700e-02 5.09727600e-01
       13 -1    0    0    0    0 +0.0000000000e+00 +0.0000000000e+00 +4.9999998884e+02 5.0000000000e+02 1.0566000000e-01 0.0000e+00 1.0000e+00
      994 -1    0    0    0    0 -0.0000000000e+00 -0.0000000000e+00 +0.0000000000e+00 1.3100000000e+02 1.3100000000e+02 0.0000e+00 0.0000e+00
       13  1    1    2    0    0 -4.4975876737e+01 +1.8530843273e+01 +1.2171577627e+02 1.3107617251e+02 1.0566000000e-01 0.0000e+00 -1.0000e+00
      994  1    1    2    0    0 +4.7743465178e+01 -1.7116525079e+00 +3.7546187609e+01 1.4440597088e+02 1.3100000000e+02 0.0000e+00 0.0000e+00
      997  1    1    2    0    0 -2.7675884402e+00 -1.6819190765e+01 +3.4073802495e+02 3.5551785662e+02 1.0000000000e+02 0.0000e+00 0.0000e+00
</event>
<event>
 5      1 +8.5651000e-08 2.16462100e+02 7.95774700e-02 4.76236500e-01
       13 -1    0    0    0    0 +0.0000000000e+00 +0.0000000000e+00 +4.9999998884e+02 5.0000000000e+02 1.0566000000e-01 0.0000e+00 1.0000e+00
      994 -1    0    0    0    0 -0.0000000000e+00 -0.0000000000e+00 +0.0000000000e+00 1.3100000000e+02 1.3100000000e+02 0.0000e+00 0.0000e+00
       13  1    1    2    0    0 -1.7055211596e+01 -2.0924696467e+01 -1.4493576683e+00 2.7033959504e+01 1.0566000000e-01 0.0000e+00 -1.0000e+00
      994  1    1    2    0    0 -4.6264509772e+01 +4.9171027911e+01 +8.5058948199e+01 1.7015939445e+02 1.3100000000e+02 0.0000e+00 0.0000e+00
      997  1    1    2    0    0 +6.3319721367e+01 -2.8246331444e+01 +4.1639039831e+02 4.3380664605e+02 1.0000000000e+02 0.0000e+00 0.0000e+00
</event>
<event>
 5      1 +8.5651000e-08 1.99602000e+02 7.95774700e-02 5.04696900e-01
       13 -1    0    0    0    0 +0.0000000000e+00 +0.0000000000e+00 +4.9999998884e+02 5.0000000000e+02 1.0566000000e-01 0.0000e+00 1.0000e+00
      994 -1    0    0    0    0 -0.0000000000e+00 -0.0000000000e+00 +0.0000000000e+00 1.3100000000e+02 1.3100000000e+02 0.0000e+00 0.0000e+00
       13  1    1    2    0    0 +4.2683936448e+01 +5.6495944894e+00 +9.3256022911e+01 1.0271578906e+02 1.0566000000e-01 0.0000e+00 -1.0000e+00
      994  1    1    2    0    0 -1.7308340750e+01 +2.2548630707e+01 +3.0961455120e+01 1.3757772752e+02 1.3100000000e+02 0.0000e+00 0.0000e+00
      997  1    1    2    0    0 -2.5375595698e+01 -2.8198225197e+01 +3.7578251080e+02 3.9070648342e+02 1.0000000000e+02 0.0000e+00 0.0000e+00
</event>
<event>
 5      1 +8.5651000e-08 2.05456300e+02 7.95774700e-02 4.94137200e-01
       13 -1    0    0    0    0 +0.0000000000e+00 +0.0000000000e+00 +4.9999998884e+02 5.0000000000e+02 1.0566000000e-01 0.0000e+00 -1.0000e+00
      994 -1    0    0    0    0 -0.0000000000e+00 -0.0000000000e+00 +0.0000000000e+00 1.3100000000e+02 1.3100000000e+02 0.0000e+00 0.0000e+00
       13  1    1    2    0    0 +1.2285165186e+01 -1.0746387704e+01 -2.6843440906e+00 1.6541674630e+01 1.0566000000e-01 0.0000e+00 1.0000e+00
      994  1    1    2    0    0 -3.5932596125e+01 +2.2538656366e+01 +4.4445404016e+01 1.4469117607e+02 1.3100000000e+02 0.0000e+00 0.0000e+00
      997  1    1    2    0    0 +2.3647430940e+01 -1.1792268662e+01 +4.5823892891e+02 4.6976714930e+02 1.0000000000e+02 0.0000e+00 0.0000e+00
</event>
<event>
 5      1 +8.5651000e-08 2.01395300e+02 7.95774700e-02 5.01377800e-01
       13 -1    0    0    0    0 +0.0000000000e+00 +0.0000000000e+00 +4.9999998884e+02 5.0000000000e+02 1.0566000000e-01 0.0000e+00 -1.0000e+00
      994 -1    0    0    0    0 -0.0000000000e+00 -0.0000000000e+00 +0.0000000000e+00 1.3100000000e+02 1.3100000000e+02 0.0000e+00 0.0000e+00
       13  1    1    2    0    0 +2.4514373820e+01 -4.3119502031e+01 +7.5576803336e+01 9.0399725363e+01 1.0566000000e-01 0.0000e+00 1.0000e+00
      994  1    1    2    0    0 -4.8515938963e+01 +2.5807887239e+01 +4.7924710313e+01 1.4992538556e+02 1.3100000000e+02 0.0000e+00 0.0000e+00
      997  1    1    2    0    0 +2.4001565142e+01 +1.7311614792e+01 +3.7649847519e+02 3.9067488908e+02 1.0000000000e+02 0.0000e+00 0.0000e+00
</event>
<event>
 5      1 +8.5651000e-08 1.95493700e+02 7.95774700e-02 5.12602300e-01
       13 -1    0    0    0    0 +0.0000000000e+00 +0.0000000000e+00 +4.9999998884e+02 5.0000000000e+02 1.0566000000e-01 0.0000e+00 1.0000e+00
      994 -1    0    0    0    0 -0.0000000000e+00 -0.0000000000e+00 +0.0000000000e+00 1.3100000000e+02 1.3100000000e+02 0.0000e+00 0.0000e+00
       13  1    1    2    0    0 -2.5378244899e+00 +2.1757535879e+01 +7.5255130661e+01 7.8378420343e+01 1.0566000000e-01 0.0000e+00 -1.0000e+00
      994  1    1    2    0    0 -6.6692629211e+00 -1.4590209564e+01 +1.7520594604e+01 1.3313648831e+02 1.3100000000e+02 0.0000e+00 0.0000e+00
      997  1    1    2    0    0 +9.2070874109e+00 -7.1673263145e+00 +4.0722426357e+02 4.1948509135e+02 1.0000000000e+02 0.0000e+00 0.0000e+00
</event>
<event>
 5      1 +8.5651000e-08 2.14435300e+02 7.95774700e-02 4.79359500e-01
       13 -1    0    0    0    0 +0.0000000000e+00 +0.0000000000e+00 +4.9999998884e+02 5.0000000000e+02 1.0566000000e-01 0.0000e+00 -1.0000e+00
      994 -1    0    0    0    0 -0.0000000000e+00 -0.0000000000e+00 +0.0000000000e+00 1.3100000000e+02 1.3100000000e+02 0.0000e+00 0.0000e+00
       13  1    1    2    0    0 -1.7351983521e+01 +1.2212546409e+01 -4.0449094365e+00 2.1601159189e+01 1.0566000000e-01 0.0000e+00 1.0000e+00
      994  1    1    2    0    0 -3.0457079190e+00 -3.0186095654e+01 +4.9656463257e+01 1.4334308860e+02 1.3100000000e+02 0.0000e+00 0.0000e+00
      997  1    1    2    0    0 +2.0397691440e+01 +1.7973549244e+01 +4.5438843502e+02 4.6605575221e+02 1.0000000000e+02 0.0000e+00 0.0000e+00
</event>
<event>
 5      1 +8.5651000e-08 1.98417300e+02 7.95774700e-02 5.06932600e-01
       13 -1    0    0    0    0 +0.0000000000e+00 +0.0000000000e+00 +4.9999998884e+02 5.0000000000e+02 1.0566000000e-01 0.0000e+00 1.0000e+00
      994 -1    0    0    0    0 -0.0000000000e+00 -0.0000000000e+00 +0.0000000000e+00 1.3100000000e+02 1.3100000000e+02 0.0000e+00 0.0000e+00
       13  1    1    2    0    0 +4.8819309871e+00 -1.2121101436e+01 +4.5254873630e+01 4.7103811963e+01 1.0566000000e-01 0.0000e+00 -1.0000e+00
      994  1    1    2    0    0 -3.0835166232e+01 +8.9515924326e+00 +1.9179337655e+01 1.3623430360e+02 1.3100000000e+02 0.0000e+00 0.0000e+00
      997  1    1    2    0    0 +2.5953235244e+01 +3.1695090032e+00 +4.3556577755e+02 4.4766188444e+02 1.0000000000e+02 0.0000e+00 0.0000e+00
</event>
<event>
 5      1 +8.5651000e-08 1.97897500e+02 7.95774700e-02 5.07924700e-01
       13 -1    0    0    0    0 +0.0000000000e+00 +0.0000000000e+00 +4.9999998884e+02 5.0000000000e+02 1.0566000000e-01 0.0000e+00 1.0000e+00
      994 -1    0    0    0    0 -0.0000000000e+00 -0.0000000000e+00 +0.0000000000e+00 1.3100000000e+02 1.3100000000e+02 0.0000e+00 0.0000e+00
       13  1    1    2    0    0 +1.0278427602e+01 +1.2779371121e+01 +5.5233197528e+00 1.7305392955e+01 1.0566000000e-01 0.0000e+00 -1.0000e+00
      994  1    1    2    0    0 -2.2050818297e+01 -4.6727781597e+00 +2.7271779308e+01 1.3569385907e+02 1.3100000000e+02 0.0000e+00 0.0000e+00
      997  1    1    2    0    0 +1.1772390695e+01 -8.1065929609e+00 +4.6720488978e+02 4.7800074797e+02 1.0000000000e+02 0.0000e+00 0.0000e+00
</event>
<event>
 5      1 +8.5651000e-08 1.99204400e+02 7.95774700e-02 5.05443400e-01
       13 -1    0    0    0    0 +0.0000000000e+00 +0.0000000000e+00 +4.9999998884e+02 5.0000000000e+02 1.0566000000e-01 0.0000e+00 -1.0000e+00
      994 -1    0    0    0    0 -0.0000000000e+00 -0.0000000000e+00 +0.0000000000e+00 1.3100000000e+02 1.3100000000e+02 0.0000e+00 0.0000e+00
       13  1    1    2    0    0 +9.2311360622e+00 -5.7557798455e+00 +3.1087283814e+01 3.2935896126e+01 1.0566000000e-01 0.0000e+00 1.0000e+00
      994  1    1    2    0    0 -2.3829728540e+01 +2.1730700700e+01 +1.8496589305e+01 1.3617343034e+02 1.3100000000e+02 0.0000e+00 0.0000e+00
      997  1    1    2    0    0 +1.4598592478e+01 -1.5974920855e+01 +4.5041611572e+02 4.6189067353e+02 1.0000000000e+02 0.0000e+00 0.0000e+00
</event>
<event>
 5      1 +8.5651000e-08 1.94052900e+02 7.95774700e-02 5.15479400e-01
       13 -1    0    0    0    0 +0.0000000000e+00 +0.0000000000e+00 +4.9999998884e+02 5.0000000000e+02 1.0566000000e-01 0.0000e+00 1.0000e+00
      994 -1    0    0    0    0 -0.0000000000e+00 -0.0000000000e+00 +0.0000000000e+00 1.3100000000e+02 1.3100000000e+02 0.0000e+00 0.0000e+00
       13  1    1    2    0    0 +1.6058884013e+01 -3.5798266446e+01 +9.0857835069e+01 9.8967474423e+01 1.0566000000e-01 0.0000e+00 -1.0000e+00
      994  1    1    2    0    0 -3.0470752840e+01 +3.4230693578e+01 +3.3135678451e+01 1.4268559965e+02 1.3100000000e+02 0.0000e+00 0.0000e+00
      997  1    1    2    0    0 +1.4411868827e+01 +1.5675728679e+00 +3.7600647532e+02 3.8934692593e+02 1.0000000000e+02 0.0000e+00 0.0000e+00
</event>
<event>
 5      1 +8.5651000e-08 2.01542500e+02 7.95774700e-02 5.01108700e-01
       13 -1    0    0    0    0 +0.0000000000e+00 +0.0000000000e+00 +4.9999998884e+02 5.0000000000e+02 1.0566000000e-01 0.0000e+00 -1.0000e+00
      994 -1    0    0    0    0 -0.0000000000e+00 -0.0000000000e+00 +0.0000000000e+00 1.3100000000e+02 1.3100000000e+02 0.0000e+00 0.0000e+00
       13  1    1    2    0    0 -2.4672024162e+01 +3.8784826285e+00 +1.4152380449e+01 2.8706313594e+01 1.0566000000e-01 0.0000e+00 1.0000e+00
      994  1    1    2    0    0 +1.9085120569e+01 -4.5900665288e+00 +3.0324379763e+01 1.3588921424e+02 1.3100000000e+02 0.0000e+00 0.0000e+00
      997  1    1    2    0    0 +5.5869035935e+00 +7.1158390030e-01 +4.5552322862e+02 4.6640447217e+02 1.0000000000e+02 0.0000e+00 0.0000e+00
</event>
<event>
 5      1 +8.5651000e-08 2.12538100e+02 7.95774700e-02 4.82350500e-01
       13 -1    0    0    0    0 +0.0000000000e+00 +0.0000000000e+00 +4.9999998884e+02 5.0000000000e+02 1.0566000000e-01 0.0000e+00 1.0000e+00
      994 -1    0    0    0    0 -0.0000000000e+00 -0.0000000000e+00 +0.0000000000e+00 1.3100000000e+02 1.3100000000e+02 0.0000e+00 0.0000e+00
       13  1    1    2    0    0 -7.3698660824e+01 -6.4705903314e+00 +1.7685812678e+02 1.9170855307e+02 1.0566000000e-01 0.0000e+00 -1.0000e+00
      994  1    1    2    0    0 +3.0254777202e+01 +2.5724740711e+00 +4.7117895630e+01 1.4248882502e+02 1.3100000000e+02 0.0000e+00 0.0000e+00
      997  1    1    2    0    0 +4.3443883622e+01 +3.8981162603e+00 +2.7602396642e+02 2.9680262191e+02 1.0000000000e+02 0.0000e+00 0.0000e+00
</event>
<event>
 5      1 +8.5651000e-08 2.05518300e+02 7.95774700e-02 4.94029400e-01
       13 -1    0    0    0    0 +0.0000000000e+00 +0.0000000000e+00 +4.9999998884e+02 5.0000000000e+02 1.0566000000e-01 0.0000e+00 -1.0000e+00
      994 -1    0    0    0    0 -0.0000000000e+00 -0.0000000000e+00 +0.0000000000e+00 1.3100000000e+02 1.3100000000e+02 0.0000e+00 0.0000e+00
       13  1    1    2    0    0 +1.1075580110e+01 -3.1057190716e+01 +2.4402371496e+01 4.1020780936e+01 1.0566000000e-01 0.0000e+00 1.0000e+00
      994  1    1    2    0    0 -2.4552675562e+01 +6.8384136167e-01 +3.6184199082e+01 1.3810719670e+02 1.3100000000e+02 0.0000e+00 0.0000e+00
      997  1    1    2    0    0 +1.3477095452e+01 +3.0373349355e+01 +4.3941341826e+02 4.5187202237e+02 1.0000000000e+02 0.0000e+00 0.0000e+00
</event>
<event>
 5      1 +8.5651000e-08 1.92921300e+02 7.95774700e-02 5.17779000e-01
       13 -1    0    0    0    0 +0.0000000000e+00 +0.0000000000e+00 +4.9999998884e+02 5.0000000000e+02 1.0566000000e-01 0.0000e+00 -1.0000e+00
      994 -1    0    0    0    0 -0.0000000000e+00 -0.0000000000e+00 +0.0000000000e+00 1.3100000000e+02 1.3100000000e+02 0.0000e+00 0.0000e+00
       13  1    1    2    0    0 +1.8117590906e+00 -2.7076585957e+01 +1.0397848347e+02 1.0746143572e+02 1.0566000000e-01 0.0000e+00 1.0000e+00
      994  1    1    2    0    0 -2.0523390136e+01 -5.5174684229e+00 +2.1955062480e+01 1.3451645538e+02 1.3100000000e+02 0.0000e+00 0.0000e+00
      997  1    1    2    0    0 +1.8711631046e+01 +3.2594054380e+01 +3.7406644289e+02 3.8902210890e+02 1.0000000000e+02 0.0000e+00 0.0000e+00
</event>
<event>
 5      1 +8.5651000e-08 1.97774800e+02 7.95774700e-02 5.08159800e-01
       13 -1    0    0    0    0 +0.0000000000e+00 +0.0000000000e+00 +4.9999998884e+02 5.0000000000e+02 1.0566000000e-01 0.0000e+00 -1.0000e+00
      994 -1    0    0    0    0 -0.0000000000e+00 -0.0000000000e+00 +0.0000000000e+00 1.3100000000e+02 1.3100000000e+02 0.0000e+00 0.0000e+00
       13  1    1    2    0    0 +1.3627024558e+01 -7.4886978270e+00 +6.8296647991e+01 7.0044412228e+01 1.0566000000e-01 0.0000e+00 1.0000e+00
      994  1    1    2    0    0 -6.4663985709e+00 +2.9658738578e+01 +1.9163281189e+01 1.3582962280e+02 1.3100000000e+02 0.0000e+00 0.0000e+00
      997  1    1    2    0    0 -7.1606259871e+00 -2.2170040751e+01 +4.1254005966e+02 4.2512596497e+02 1.0000000000e+02 0.0000e+00 0.0000e+00
</event>
<event>
 5      1 +8.5651000e-08 1.99248000e+02 7.95774700e-02 5.05361400e-01
       13 -1    0    0    0    0 +0.0000000000e+00 +0.0000000000e+00 +4.9999998884e+02 5.0000000000e+02 1.0566000000e-01 0.0000e+00 -1.0000e+00
      994 -1    0    0    0    0 -0.0000000000e+00 -0.0000000000e+00 +0.0000000000e+00 1.3100000000e+02 1.3100000000e+02 0.0000e+00 0.0000e+00
       13  1    1    2    0    0 -5.0827774168e+00 -1.0849635234e+01 +4.3129575335e+01 4.4762938282e+01 1.0566000000e-01 0.0000e+00 1.0000e+00
      994  1    1    2    0    0 -5.9641428222e+00 +4.5081303536e+01 +2.4272172965e+01 1.4077653678e+02 1.3100000000e+02 0.0000e+00 0.0000e+00
      997  1    1    2    0    0 +1.1046920239e+01 -3.4231668302e+01 +4.3259824054e+02 4.4546052494e+02 1.0000000000e+02 0.0000e+00 0.0000e+00
</event>
<event>
 5      1 +8.5651000e-08 2.15720200e+02 7.95774700e-02 4.77371100e-01
       13 -1    0    0    0    0 +0.0000000000e+00 +0.0000000000e+00 +4.9999998884e+02 5.0000000000e+02 1.0566000000e-01 0.0000e+00 1.0000e+00
      994 -1    0    0    0    0 -0.0000000000e+00 -0.0000000000e+00 +0.0000000000e+00 1.3100000000e+02 1.3100000000e+02 0.0000e+00 0.0000e+00
       13  1    1    2    0    0 +5.4700940638e+00 +2.2528007271e+01 -4.2549874261e+00 2.3570089577e+01 1.0566000000e-01 0.0000e+00 -1.0000e+00
      994  1    1    2    0    0 -9.1720806196e+00 -3.3388781021e+01 +5.3673081760e+01 1.4574202368e+02 1.3100000000e+02 0.0000e+00 0.0000e+00
      997  1    1    2    0    0 +3.7019865557e+00 +1.0860773751e+01 +4.5058189450e+02 4.6168788674e+02 1.0000000000e+02 0.0000e+00 0.0000e+00
</event>
<event>
 5      1 +8.5651000e-08 2.04692700e+02 7.95774700e-02 4.95470400e-01
       13 -1    0    0    0    0 +0.0000000000e+00 +0.0000000000e+00 +4.9999998884e+02 5.0000000000e+02 1.0566000000e-01 0.0000e+00 1.0000e+00
      994 -1    0    0    0    0 -0.0000000000e+00 -0.0000000000e+00 +0.0000000000e+00 1.3100000000e+02 1.3100000000e+02 0.0000e+00 0.0000e+00
       13  1    1    2    0    0 -4.5695530221e+01 +1.7446045194e+01 +8.3989855957e+01 9.7194408495e+01 1.0566000000e-01 0.0000e+00 -1.0000e+00
      994  1    1    2    0    0 +1.6496165610e+01 +9.1709519978e+00 +3.3577885818e+01 1.3654561237e+02 1.3100000000e+02 0.0000e+00 0.0000e+00
      997  1    1    2    0    0 +2.9199364610e+01 -2.6616997192e+01 +3.8243224706e+02 3.9725997914e+02 1.0000000000e+02 0.0000e+00 0.0000e+00
</event>
<event>
 5      1 +8.5651000e-08 1.97713500e+02 7.95774700e-02 5.08277400e-01
       13 -1    0    0    0    0 +0.0000000000e+00 +0.0000000000e+00 +4.9999998884e+02 5.0000000000e+02 1.0566000000e-01 0.0000e+00 1.0000e+00
      994 -1    0    0    0    0 -0.0000000000e+00 -0.0000000000e+00 +0.0000000000e+00 1.3100000000e+02 1.3100000000e+02 0.0000e+00 0.0000e+00
       13  1    1    2    0    0 -3.0832366059e+01 -2.2350749029e+01 +5.5124200571e+01 6.6999100230e+01 1.0566000000e-01 0.0000e+00 -1.0000e+00
      994  1    1    2    0    0 +5.8825627874e+01 -1.1528124700e+01 +4.7203584828e+01 1.5159990295e+02 1.3100000000e+02 0.0000e+00 0.0000e+00
      997  1    1    2    0    0 -2.7993261815e+01 +3.3878873729e+01 +3.9767220344e+02 4.1240099682e+02 1.0000000000e+02 0.0000e+00 0.0000e+00
</event>
<event>
 5      1 +8.5651000e-08 1.93107000e+02 7.95774700e-02 5.17399200e-01
       13 -1    0    0    0    0 +0.0000000000e+00 +0.0000000000e+00 +4.9999998884e+02 5.0000000000e+02 1.0566000000e-01 0.0000e+00 -1.0000e+00
      994 -1    0    0    0    0 -0.0000000000e+00 -0.0000000000e+00 +0.0000000000e+00 1.3100000000e+02 1.3100000000e+02 0.0000e+00 0.0000e+00
       13  1    1    2    0    0 +1.9085748209e+00 +1.2803432992e+01 +8.8179138799e+00 1.5663247539e+01 1.0566000000e-01 0.0000e+00 1.0000e+00
      994  1    1    2    0    0 -1.1942197905e+01 +2.3070083522e+01 +2.3460162032e+01 1.3559581132e+02 1.3100000000e+02 0.0000e+00 0.0000e+00
      997  1    1    2    0    0 +1.0033623084e+01 -3.5873516514e+01 +4.6772191292e+02 4.7974094114e+02 1.0000000000e+02 0.0000e+00 0.0000e+00
</event>
<event>
 5      1 +8.5651000e-08 1.95896800e+02 7.95774700e-02 5.11807300e-01
       13 -1    0    0    0    0 +0.0000000000e+00 +0.0000000000e+00 +4.9999998884e+02 5.0000000000e+02 1.0566000000e-01 0.0000e+00 -1.0000e+00
      994 -1    0    0    0    0 -0.0000000000e+00 -0.0000000000e+00 +0.0000000000e+00 1.3100000000e+02 1.3100000000e+02 0.0000e+00 0.0000e+00
       13  1    1    2    0    0 +1.0614631830e+01 -7.1654691321e+01 +1.4572450395e+02 1.6273508354e+02 1.0566000000e-01 0.0000e+00 1.0000e+00
      994  1    1    2    0    0 -1.0401633113e+01 +1.1275427252e+02 +1.2127108908e+02 2.1139866837e+02 1.3100000000e+02 0.0000e+00 0.0000e+00
      997  1    1    2    0    0 -2.1299871696e-01 -4.1099581202e+01 +2.3300439581e+02 2.5686624809e+02 1.0000000000e+02 0.0000e+00 0.0000e+00
</event>
<event>
 5      1 +8.5651000e-08 1.97852900e+02 7.95774700e-02 5.08010000e-01
       13 -1    0    0    0    0 +0.0000000000e+00 +0.0000000000e+00 +4.9999998884e+02 5.0000000000e+02 1.0566000000e-01 0.0000e+00 1.0000e+00
      994 -1    0    0    0    0 -0.0000000000e+00 -0.0000000000e+00 +0.0000000000e+00 1.3100000000e+02 1.3100000000e+02 0.0000e+00 0.0000e+00
       13  1    1    2    0    0 +1.0351464819e+01 +4.7821602356e+00 -2.1016964160e-01 1.1405139882e+01 1.0566000000e-01 0.0000e+00 -1.0000e+00
      994  1    1    2    0    0 -9.5156608942e+00 -3.4100320533e+00 +2.4712791711e+01 1.3369329899e+02 1.3100000000e+02 0.0000e+00 0.0000e+00
      997  1    1    2    0    0 -8.3580392465e-01 -1.3721281823e+00 +4.7549736677e+02 4.8590156113e+02 1.0000000000e+02 0.0000e+00 0.0000e+00
</event>
<event>
 5      1 +8.5651000e-08 2.03924800e+02 7.95774700e-02 4.96824100e-01
       13 -1    0    0    0    0 +0.0000000000e+00 +0.0000000000e+00 +4.9999998884e+02 5.0000000000e+02 1.0566000000e-01 0.0000e+00 1.0000e+00
      994 -1    0    0    0    0 -0.0000000000e+00 -0.0000000000e+00 +0.0000000000e+00 1.3100000000e+02 1.3100000000e+02 0.0000e+00 0.0000e+00
       13  1    1    2    0    0 +1.7071260139e+01 +1.9810872091e+01 +1.5542935026e+01 3.0421909358e+01 1.0566000000e-01 0.0000e+00 -1.0000e+00
      994  1    1    2    0    0 +3.4561435471e+01 -1.6059093286e+01 +4.0138925507e+01 1.4221294118e+02 1.3100000000e+02 0.0000e+00 0.0000e+00
      997  1    1    2    0    0 -5.1632695610e+01 -3.7517788055e+00 +4.4431812830e+02 4.5836514946e+02 1.0000000000e+02 0.0000e+00 0.0000e+00
</event>
<event>
 5      1 +8.5651000e-08 1.98022300e+02 7.95774700e-02 5.07685900e-01
       13 -1    0    0    0    0 +0.0000000000e+00 +0.0000000000e+00 +4.9999998884e+02 5.0000000000e+02 1.0566000000e-01 0.0000e+00 1.0000e+00
      994 -1    0    0    0    0 -0.0000000000e+00 -0.0000000000e+00 +0.0000000000e+00 1.3100000000e+02 1.3100000000e+02 0.0000e+00 0.0000e+00
       13  1    1    2    0    0 +8.1637100532e+00 +1.5004548379e+01 +9.9182677779e+01 1.0064292011e+02 1.0566000000e-01 0.0000e+00 -1.0000e+00
      994  1    1    2    0    0 -1.6646668474e+01 -7.2877075158e+01 +4.6885626818e+01 1.5794759149e+02 1.3100000000e+02 0.0000e+00 0.0000e+00
      997  1    1    2    0    0 +8.4829584207e+00 +5.7872526779e+01 +3.5393168424e+02 3.7240948840e+02 1.0000000000e+02 0.0000e+00 0.0000e+00
</event>
<event>
 5      1 +8.5651000e-08 1.94565900e+02 7.95774700e-02 5.14448600e-01
       13 -1    0    0    0    0 +0.0000000000e+00 +0.0000000000e+00 +4.9999998884e+02 5.0000000000e+02 1.0566000000e-01 0.0000e+00 1.0000e+00
      994 -1    0    0    0    0 -0.0000000000e+00 -0.0000000000e+00 +0.0000000000e+00 1.3100000000e+02 1.3100000000e+02 0.0000e+00 0.0000e+00
       13  1    1    2    0    0 +1.3360557656e+01 +2.5067891090e+01 +9.0728711493e+01 9.5071625198e+01 1.0566000000e-01 0.0000e+00 -1.0000e+00
      994  1    1    2    0    0 -1.0278376398e+01 -3.1691174491e+01 +2.3321818729e+01 1.3716735323e+02 1.3100000000e+02 0.0000e+00 0.0000e+00
      997  1    1    2    0    0 -3.0821812586e+00 +6.6232834010e+00 +3.8594945861e+02 3.9876102158e+02 1.0000000000e+02 0.0000e+00 0.0000e+00
</event>
<event>
 5      1 +8.5651000e-08 1.97529200e+02 7.95774700e-02 5.08631700e-01
       13 -1    0    0    0    0 +0.0000000000e+00 +0.0000000000e+00 +4.9999998884e+02 5.0000000000e+02 1.0566000000e-01 0.0000e+00 1.0000e+00
      994 -1    0    0    0    0 -0.0000000000e+00 -0.0000000000e+00 +0.0000000000e+00 1.3100000000e+02 1.3100000000e+02 0.0000e+00 0.0000e+00
       13  1    1    2    0    0 +6.5607183205e+00 +7.8646494867e+00 +1.8563542093e+01 2.1201697939e+01 1.0566000000e-01 0.0000e+00 -1.0000e+00
      994  1    1    2    0    0 +2.5089933773e+01 -1.4112048680e+01 +1.8868486162e+01 1.3544620506e+02 1.3100000000e+02 0.0000e+00 0.0000e+00
      997  1    1    2    0    0 -3.1650652093e+01 +6.2473991932e+00 +4.6256796058e+02 4.7435209700e+02 1.0000000000e+02 0.0000e+00 0.0000e+00
</event>
<event>
 5      1 +8.5651000e-08 1.99254800e+02 7.95774700e-02 5.05348600e-01
       13 -1    0    0    0    0 +0.0000000000e+00 +0.0000000000e+00 +4.9999998884e+02 5.0000000000e+02 1.0566000000e-01 0.0000e+00 1.0000e+00
      994 -1    0    0    0    0 -0.0000000000e+00 -0.0000000000e+00 +0.0000000000e+00 1.3100000000e+02 1.3100000000e+02 0.0000e+00 0.0000e+00
       13  1    1    2    0    0 -1.0898150363e+01 -7.7251337786e+00 +4.3098505621e+01 4.5121388765e+01 1.0566000000e-01 0.0000e+00 -1.0000e+00
      994  1    1    2    0    0 +6.2107136916e+01 +6.9908057885e+00 +3.5043482217e+01 1.4931581787e+02 1.3100000000e+02 0.0000e+00 0.0000e+00
      997  1    1    2    0    0 -5.1208986554e+01 +7.3432799015e-01 +4.2185800100e+02 4.3656279336e+02 1.0000000000e+02 0.0000e+00 0.0000e+00
</event>
<event>
 5      1 +8.5651000e-08 1.94696200e+02 7.95774700e-02 5.14187800e-01
       13 -1    0    0    0    0 +0.0000000000e+00 +0.0000000000e+00 +4.9999998884e+02 5.0000000000e+02 1.0566000000e-01 0.0000e+00 1.0000e+00
      994 -1    0    0    0    0 -0.0000000000e+00 -0.0000000000e+00 +0.0000000000e+00 1.3100000000e+02 1.3100000000e+02 0.0000e+00 0.0000e+00
       13  1    1    2    0    0 +1.4455428887e+01 +1.6999881804e+00 +1.5117090454e+01 2.0985399018e+01 1.0566000000e-01 0.0000e+00 -1.0000e+00
      994  1    1    2    0    0 -3.1454139275e+01 +1.0548849400e+01 +2.3139551022e+01 1.3710244317e+02 1.3100000000e+02 0.0000e+00 0.0000e+00
      997  1    1    2    0    0 +1.6998710388e+01 -1.2248837580e+01 +4.6174334736e+02 4.7291215781e+02 1.0000000000e+02 0.0000e+00 0.0000e+00
</event>
<event>
 5      1 +8.5651000e-08 2.20352300e+02 7.95774700e-02 4.70442000e-01
       13 -1    0    0    0    0 +0.0000000000e+00 +0.0000000000e+00 +4.9999998884e+02 5.0000000000e+02 1.0566000000e-01 0.0000e+00 1.0000e+00
      994 -1    0    0    0    0 -0.0000000000e+00 -0.0000000000e+00 +0.0000000000e+00 1.3100000000e+02 1.3100000000e+02 0.0000e+00 0.0000e+00
       13  1    1    2    0    0 -1.3412750222e+01 +1.6126130060e+01 -6.9986831904e+00 2.2112138514e+01 1.0566000000e-01 0.0000e+00 -1.0000e+00
      994  1    1    2    0    0 -1.8712358767e+01 +1.0216088072e+01 +5.4272036873e+01 1.4339098581e+02 1.3100000000e+02 0.0000e+00 0.0000e+00
      997  1    1    2    0    0 +3.2125108989e+01 -2.6342218132e+01 +4.5272663515e+02 4.6549687567e+02 1.0000000000e+02 0.0000e+00 0.0000e+00
</event>
<event>
 5      1 +8.5651000e-08 2.01423500e+02 7.95774700e-02 5.01326200e-01
       13 -1    0    0    0    0 +0.0000000000e+00 +0.0000000000e+00 +4.9999998884e+02 5.0000000000e+02 1.0566000000e-01 0.0000e+00 -1.0000e+00
      994 -1    0    0    0    0 -0.0000000000e+00 -0.0000000000e+00 +0.0000000000e+00 1.3100000000e+02 1.3100000000e+02 0.0000e+00 0.0000e+00
       13  1    1    2    0    0 +3.0571103515e+01 -7.0412156600e+00 +3.2043115349e+01 4.4843544612e+01 1.0566000000e-01 0.0000e+00 1.0000e+00
      994  1    1    2    0    0 -9.6624210977e+00 -2.6423977973e+01 +3.2836235988e+01 1.3795219240e+02 1.3100000000e+02 0.0000e+00 0.0000e+00
      997  1    1    2    0    0 -2.0908682417e+01 +3.3465193633e+01 +4.3512063750e+02 4.4820426299e+02 1.0000000000e+02 0.0000e+00 0.0000e+00
</event>
<event>
 5      1 +8.5651000e-08 1.96743000e+02 7.95774700e-02 5.10152500e-01
       13 -1    0    0    0    0 +0.0000000000e+00 +0.0000000000e+00 +4.9999998884e+02 5.0000000000e+02 1.0566000000e-01 0.0000e+00 -1.0000e+00
      994 -1    0    0    0    0 -0.0000000000e+00 -0.0000000000e+00 +0.0000000000e+00 1.3100000000e+02 1.3100000000e+02 0.0000e+00 0.0000e+00
       13  1    1    2    0    0 +5.6474144184e+00 +1.8936483966e+01 +8.5636511718e+01 8.7886899011e+01 1.0566000000e-01 0.0000e+00 1.0000e+00
      994  1    1    2    0    0 -1.1224152935e-01 -2.3646755829e+01 +1.8076280355e+01 1.3433887587e+02 1.3100000000e+02 0.0000e+00 0.0000e+00
      997  1    1    2    0    0 -5.5351728890e+00 +4.7102718630e+00 +3.9628719676e+02 4.0877422512e+02 1.0000000000e+02 0.0000e+00 0.0000e+00
</event>
<event>
 5      1 +8.5651000e-08 2.16108200e+02 7.95774700e-02 4.76776400e-01
       13 -1    0    0    0    0 +0.0000000000e+00 +0.0000000000e+00 +4.9999998884e+02 5.0000000000e+02 1.0566000000e-01 0.0000e+00 -1.0000e+00
      994 -1    0    0    0    0 -0.0000000000e+00 -0.0000000000e+00 +0.0000000000e+00 1.3100000000e+02 1.3100000000e+02 0.0000e+00 0.0000e+00
       13  1    1    2    0    0 -1.4020743892e+01 -3.7316634989e+01 +1.7091253260e+01 4.3373201499e+01 1.0566000000e-01 0.0000e+00 1.0000e+00
      994  1    1    2    0    0 -1.6942706826e+00 +2.2853083164e+01 +4.8836058857e+01 1.4167249065e+02 1.3100000000e+02 0.0000e+00 0.0000e+00
      997  1    1    2    0    0 +1.5715014574e+01 +1.4463551826e+01 +4.3407267672e+02 4.4595430785e+02 1.0000000000e+02 0.0000e+00 0.0000e+00
</event>
<event>
 5      1 +8.5651000e-08 1.96558300e+02 7.95774700e-02 5.10512100e-01
       13 -1    0    0    0    0 +0.0000000000e+00 +0.0000000000e+00 +4.9999998884e+02 5.0000000000e+02 1.0566000000e-01 0.0000e+00 1.0000e+00
      994 -1    0    0    0    0 -0.0000000000e+00 -0.0000000000e+00 +0.0000000000e+00 1.3100000000e+02 1.3100000000e+02 0.0000e+00 0.0000e+00
       13  1    1    2    0    0 -1.0743574497e+01 +4.8285896262e+00 +1.9930428127e+01 2.3151086370e+01 1.0566000000e-01 0.0000e+00 -1.0000e+00
      994  1    1    2    0    0 +6.3977188459e+00 +3.4919023530e+01 +2.2255093876e+01 1.3753747931e+02 1.3100000000e+02 0.0000e+00 0.0000e+00
      997  1    1    2    0    0 +4.3458556513e+00 -3.9747613156e+01 +4.5781446683e+02 4.7031143432e+02 1.0000000000e+02 0.0000e+00 0.0000e+00
</event>
<event>
 5      1 +8.5651000e-08 1.93574200e+02 7.95774700e-02 5.16447800e-01
       13 -1    0    0    0    0 +0.0000000000e+00 +0.0000000000e+00 +4.9999998884e+02 5.0000000000e+02 1.0566000000e-01 0.0000e+00 1.0000e+00
      994 -1    0    0    0    0 -0.0000000000e+00 -0.0000000000e+00 +0.0000000000e+00 1.3100000000e+02 1.3100000000e+02 0.0000e+00 0.0000e+00
       13  1    1    2    0    0 +1.1628990263e+01 +3.1044991718e+01 +8.2536685040e+01 8.8945716404e+01 1.0566000000e-01 0.0000e+00 -1.0000e+00
      994  1    1    2    0    0 +7.0733566950e+00 -2.7168047987e+01 +2.4600268384e+01 1.3621420047e+02 1.3100000000e+02 0.0000e+00 0.0000e+00
      997  1    1    2    0    0 -1.8702346958e+01 -3.8769437307e+00 +3.9286303541e+02 4.0584008312e+02 1.0000000000e+02 0.0000e+00 0.0000e+00
</event>
<event>
 5      1 +8.5651000e-08 2.14850800e+02 7.95774700e-02 4.78713200e-01
       13 -1    0    0    0    0 +0.0000000000e+00 +0.0000000000e+00 +4.9999998884e+02 5.0000000000e+02 1.0566000000e-01 0.0000e+00 -1.0000e+00
      994 -1    0    0    0    0 -0.0000000000e+00 -0.0000000000e+00 +0.0000000000e+00 1.3100000000e+02 1.3100000000e+02 0.0000e+00 0.0000e+00
       13  1    1    2    0    0 +1.3800143565e+01 +8.9576419246e+00 -8.4239922544e+00 1.8483996342e+01 1.0566000000e-01 0.0000e+00 1.0000e+00
      994  1    1    2    0    0 -3.4283987774e+01 -7.6819962902e+00 +5.2716509193e+01 1.4551438151e+02 1.3100000000e+02 0.0000e+00 0.0000e+00
      997  1    1    2    0    0 +2.0483844210e+01 -1.2756456344e+00 +4.5570747190e+02 4.6700162215e+02 1.0000000000e+02 0.0000e+00 0.0000e+00
</event>
<event>
 5      1 +8.5651000e-08 1.98367100e+02 7.95774700e-02 5.07028100e-01
       13 -1    0    0    0    0 +0.0000000000e+00 +0.0000000000e+00 +4.9999998884e+02 5.0000000000e+02 1.0566000000e-01 0.0000e+00 1.0000e+00
      994 -1    0    0    0    0 -0.0000000000e+00 -0.0000000000e+00 +0.0000000000e+00 1.3100000000e+02 1.3100000000e+02 0.0000e+00 0.0000e+00
       13  1    1    2    0    0 -1.4659303779e+01 -4.3249151303e+01 +1.1270065171e+02 1.2160111979e+02 1.0566000000e-01 0.0000e+00 -1.0000e+00
      994  1    1    2    0    0 -1.3412885245e+01 +3.2700099399e+01 +3.2450064188e+01 1.3951060410e+02 1.3100000000e+02 0.0000e+00 0.0000e+00
      997  1    1    2    0    0 +2.8072189024e+01 +1.0549051904e+01 +3.5484927294e+02 3.6988827611e+02 1.0000000000e+02 0.0000e+00 0.0000e+00
</event>
<event>
 5      1 +8.5651000e-08 1.96344800e+02 7.95774700e-02 5.10928800e-01
       13 -1    0    0    0    0 +0.0000000000e+00 +0.0000000000e+00 +4.9999998884e+02 5.0000000000e+02 1.0566000000e-01 0.0000e+00 1.0000e+00
      994 -1    0    0    0    0 -0.0000000000e+00 -0.0000000000e+00 +0.0000000000e+00 1.3100000000e+02 1.3100000000e+02 0.0000e+00 0.0000e+00
       13  1    1    2    0    0 -4.8384369560e+00 +1.4303660681e+01 +6.8781178866e+00 1.6592915680e+01 1.0566000000e-01 0.0000e+00 -1.0000e+00
      994  1    1    2    0    0 -3.1743294432e+01 -1.3336942741e+00 +2.8779470670e+01 1.3783567540e+02 1.3100000000e+02 0.0000e+00 0.0000e+00
      997  1    1    2    0    0 +3.6581731388e+01 -1.2969966407e+01 +4.6434240028e+02 4.7657140892e+02 1.0000000000e+02 0.0000e+00 0.0000e+00
</event>
<event>
 5      1 +8.5651000e-08 1.92945900e+02 7.95774700e-02 5.17728600e-01
       13 -1    0    0    0    0 +0.0000000000e+00 +0.0000000000e+00 +4.9999998884e+02 5.0000000000e+02 1.0566000000e-01 0.0000e+00 -1.0000e+00
      994 -1    0    0    0    0 -0.0000000000e+00 -0.0000000000e+00 +0.0000000000e+00 1.3100000000e+02 1.3100000000e+02 0.0000e+00 0.0000e+00
       13  1    1    2    0    0 +9.9419544609e+00 +1.6697436964e+00 +4.3277837357e+00 1.0971389092e+01 1.0566000000e-01 0.0000e+00 1.0000e+00
      994  1    1    2    0    0 +4.0505969211e+00 -1.6455974104e+01 +2.0078144445e+01 1.3360890054e+02 1.3100000000e+02 0.0000e+00 0.0000e+00
      997  1    1    2    0    0 -1.3992551382e+01 +1.4786230407e+01 +4.7559406066e+02 4.8641971037e+02 1.0000000000e+02 0.0000e+00 0.0000e+00
</event>
<event>
 5      1 +8.5651000e-08 1.93875300e+02 7.95774700e-02 5.15837900e-01
       13 -1    0    0    0    0 +0.0000000000e+00 +0.0000000000e+00 +4.9999998884e+02 5.0000000000e+02 1.0566000000e-01 0.0000e+00 -1.0000e+00
      994 -1    0    0    0    0 -0.0000000000e+00 -0.0000000000e+00 +0.0000000000e+00 1.3100000000e+02 1.3100000000e+02 0.0000e+00 0.0000e+00
       13  1    1    2    0    0 +3.5132511618e+01 +2.8288541353e+01 +1.4528185104e+02 1.5212285282e+02 1.0566000000e-01 0.0000e+00 1.0000e+00
      994  1    1    2    0    0 -3.0550299244e+01 -5.2741390841e+01 +4.3271978117e+01 1.5082585714e+02 1.3100000000e+02 0.0000e+00 0.0000e+00
      997  1    1    2    0    0 -4.5822123743e+00 +2.4452849488e+01 +3.1144615968e+02 3.2805129004e+02 1.0000000000e+02 0.0000e+00 0.0000e+00
</event>
<event>
 5      1 +8.5651000e-08 1.98893600e+02 7.95774700e-02 5.06029500e-01
       13 -1    0    0    0    0 +0.0000000000e+00 +0.0000000000e+00 +4.9999998884e+02 5.0000000000e+02 1.0566000000e-01 0.0000e+00 1.0000e+00
      994 -1    0    0    0    0 -0.0000000000e+00 -0.0000000000e+00 +0.0000000000e+00 1.3100000000e+02 1.3100000000e+02 0.0000e+00 0.0000e+00
       13  1    1    2    0    0 +3.6001146091e+01 -3.5099414459e+01 +1.2562462073e+02 1.3531299979e+02 1.0566000000e-01 0.0000e+00 -1.0000e+00
      994  1    1    2    0    0 -4.0015086487e+01 +1.0860095358e+01 +3.6075023565e+01 1.4206180396e+02 1.3100000000e+02 0.0000e+00 0.0000e+00
      997  1    1    2    0    0 +4.0139403968e+00 +2.4239319101e+01 +3.3830034454e+02 3.5362519625e+02 1.0000000000e+02 0.0000e+00 0.0000e+00
</event>
<event>
 5      1 +8.5651000e-08 2.16242500e+02 7.95774700e-02 4.76571300e-01
       13 -1    0    0    0    0 +0.0000000000e+00 +0.0000000000e+00 +4.9999998884e+02 5.0000000000e+02 1.0566000000e-01 0.0000e+00 1.0000e+00
      994 -1    0    0    0    0 -0.0000000000e+00 -0.0000000000e+00 +0.0000000000e+00 1.3100000000e+02 1.3100000000e+02 0.0000e+00 0.0000e+00
       13  1    1    2    0    0 +3.9888399141e+01 -3.4732220426e+01 +1.9880848965e+02 2.0572369393e+02 1.0566000000e-01 0.0000e+00 -1.0000e+00
      994  1    1    2    0    0 -2.5119582604e+01 -5.3184739459e+01 +7.4042300041e+01 1.6156383301e+02 1.3100000000e+02 0.0000e+00 0.0000e+00
      997  1    1    2    0    0 -1.4768816537e+01 +8.7916959885e+01 +2.2714919915e+02 2.6371247306e+02 1.0000000000e+02 0.0000e+00 0.0000e+00
</event>
<event>
 5      1 +8.5651000e-08 2.06950100e+02 7.95774700e-02 4.91565300e-01
       13 -1    0    0    0    0 +0.0000000000e+00 +0.0000000000e+00 +4.9999998884e+02 5.0000000000e+02 1.0566000000e-01 0.0000e+00 -1.0000e+00
      994 -1    0    0    0    0 -0.0000000000e+00 -0.0000000000e+00 +0.0000000000e+00 1.3100000000e+02 1.3100000000e+02 0.0000e+00 0.0000e+00
       13  1    1    2    0    0 -3.5576331180e+01 +3.0402638894e+01 +1.2721892229e+02 1.3555316722e+02 1.0566000000e-01 0.0000e+00 1.0000e+00
      994  1    1    2    0    0 -2.8315384049e-02 +3.6199751409e+01 +4.2827259028e+01 1.4249770847e+02 1.3100000000e+02 0.0000e+00 0.0000e+00
      997  1    1    2    0    0 +3.5604646564e+01 -6.6602390304e+01 +3.2995380752e+02 3.5294912431e+02 1.0000000000e+02 0.0000e+00 0.0000e+00
</event>
<event>
 5      1 +8.5651000e-08 2.06629000e+02 7.95774700e-02 4.92114200e-01
       13 -1    0    0    0    0 +0.0000000000e+00 +0.0000000000e+00 +4.9999998884e+02 5.0000000000e+02 1.0566000000e-01 0.0000e+00 1.0000e+00
      994 -1    0    0    0    0 -0.0000000000e+00 -0.0000000000e+00 +0.0000000000e+00 1.3100000000e+02 1.3100000000e+02 0.0000e+00 0.0000e+00
       13  1    1    2    0    0 +2.3949541304e+01 +3.8597900607e+01 +7.6692071390e+01 8.9135085337e+01 1.0566000000e-01 0.0000e+00 -1.0000e+00
      994  1    1    2    0    0 -5.9532805691e+00 +1.9537130938e+01 +3.6187749759e+01 1.3743250804e+02 1.3100000000e+02 0.0000e+00 0.0000e+00
      997  1    1    2    0    0 -1.7996260735e+01 -5.8135031545e+01 +3.8712016769e+02 4.0443240662e+02 1.0000000000e+02 0.0000e+00 0.0000e+00
</event>
<event>
 5      1 +8.5651000e-08 2.11824300e+02 7.95774700e-02 4.83493400e-01
       13 -1    0    0    0    0 +0.0000000000e+00 +0.0000000000e+00 +4.9999998884e+02 5.0000000000e+02 1.0566000000e-01 0.0000e+00 -1.0000e+00
      994 -1    0    0    0    0 -0.0000000000e+00 -0.0000000000e+00 +0.0000000000e+00 1.3100000000e+02 1.3100000000e+02 0.0000e+00 0.0000e+00
       13  1    1    2    0    0 -3.5762158086e+01 -1.5135058460e+00 +1.5777965366e+01 3.9117489771e+01 1.0566000000e-01 0.0000e+00 1.0000e+00
      994  1    1    2    0    0 +2.5951881077e+01 -2.3177535712e+01 +4.8365530483e+01 1.4391290016e+02 1.3100000000e+02 0.0000e+00 0.0000e+00
      997  1    1    2    0    0 +9.8102770090e+00 +2.4691041558e+01 +4.3585649299e+02 4.4796961007e+02 1.0000000000e+02 0.0000e+00 0.0000e+00
</event>
<event>
 5      1 +8.5651000e-08 1.97739900e+02 7.95774700e-02 5.08226700e-01
       13 -1    0    0    0    0 +0.0000000000e+00 +0.0000000000e+00 +4.9999998884e+02 5.0000000000e+02 1.0566000000e-01 0.0000e+00 -1.0000e+00
      994 -1    0    0    0    0 -0.0000000000e+00 -0.0000000000e+00 +0.0000000000e+00 1.3100000000e+02 1.3100000000e+02 0.0000e+00 0.0000e+00
       13  1    1    2    0    0 -2.8287548620e+01 -5.7402960319e+01 +1.1692103150e+02 1.3328849924e+02 1.0566000000e-01 0.0000e+00 1.0000e+00
      994  1    1    2    0    0 -1.5199738974e+01 +1.2905219752e+02 +1.9159295794e+02 2.6599692344e+02 1.3100000000e+02 0.0000e+00 0.0000e+00
      997  1    1    2    0    0 +4.3487287595e+01 -7.1649237199e+01 +1.9148599940e+02 2.3171457731e+02 1.0000000000e+02 0.0000e+00 0.0000e+00
</event>
<event>
 5      1 +8.5651000e-08 1.92747600e+02 7.95774700e-02 5.18135200e-01
       13 -1    0    0    0    0 +0.0000000000e+00 +0.0000000000e+00 +4.9999998884e+02 5.0000000000e+02 1.0566000000e-01 0.0000e+00 -1.0000e+00
      994 -1    0    0    0    0 -0.0000000000e+00 -0.0000000000e+00 +0.0000000000e+00 1.3100000000e+02 1.3100000000e+02 0.0000e+00 0.0000e+00
       13  1    1    2    0    0 -2.3192453033e+00 +1.1550581930e+01 +4.7118430135e+00 1.2688871909e+01 1.0566000000e-01 0.0000e+00 1.0000e+00
      994  1    1    2    0    0 +2.5159647754e+00 -2.9132097171e+01 +2.4178160239e+01 1.3638398952e+02 1.3100000000e+02 0.0000e+00 0.0000e+00
      997  1    1    2    0    0 -1.9671947207e-01 +1.7581515241e+01 +4.7110998558e+02 4.8192713857e+02 1.0000000000e+02 0.0000e+00 0.0000e+00
</event>
<event>
 5      1 +8.5651000e-08 1.95623700e+02 7.95774700e-02 5.12345400e-01
       13 -1    0    0    0    0 +0.0000000000e+00 +0.0000000000e+00 +4.9999998884e+02 5.0000000000e+02 1.0566000000e-01 0.0000e+00 -1.0000e+00
      994 -1    0    0    0    0 -0.0000000000e+00 -0.0000000000e+00 +0.0000000000e+00 1.3100000000e+02 1.3100000000e+02 0.0000e+00 0.0000e+00
       13  1    1    2    0    0 -3.9278398829e+00 -1.1725616371e+01 +3.3761186189e+00 1.2819022833e+01 1.0566000000e-01 0.0000e+00 1.0000e+00
      994  1    1    2    0    0 -3.3984526797e+00 -1.1930404873e+00 +2.1967737054e+01 1.3287796769e+02 1.3100000000e+02 0.0000e+00 0.0000e+00
      997  1    1    2    0    0 +7.3262925626e+00 +1.2918656858e+01 +4.7465613316e+02 4.8530300948e+02 1.0000000000e+02 0.0000e+00 0.0000e+00
</event>
<event>
 5      1 +8.5651000e-08 2.04583400e+02 7.95774700e-02 4.95662200e-01
       13 -1    0    0    0    0 +0.0000000000e+00 +0.0000000000e+00 +4.9999998884e+02 5.0000000000e+02 1.0566000000e-01 0.0000e+00 -1.0000e+00
      994 -1    0    0    0    0 -0.0000000000e+00 -0.0000000000e+00 +0.0000000000e+00 1.3100000000e+02 1.3100000000e+02 0.0000e+00 0.0000e+00
       13  1    1    2    0    0 +3.9602194089e+01 -1.8874312667e+01 +6.8637409400e+01 8.1459674615e+01 1.0566000000e-01 0.0000e+00 1.0000e+00
      994  1    1    2    0    0 -4.9489024583e+00 -1.0155442926e+01 +3.1932023787e+01 1.3530808845e+02 1.3100000000e+02 0.0000e+00 0.0000e+00
      997  1    1    2    0    0 -3.4653291630e+01 +2.9029755592e+01 +3.9943055565e+02 4.1423223694e+02 1.0000000000e+02 0.0000e+00 0.0000e+00
</event>
<event>
 5      1 +8.5651000e-08 1.92963600e+02 7.95774700e-02 5.17692400e-01
       13 -1    0    0    0    0 +0.0000000000e+00 +0.0000000000e+00 +4.9999998884e+02 5.0000000000e+02 1.0566000000e-01 0.0000e+00 1.0000e+00
      994 -1    0    0    0    0 -0.0000000000e+00 -0.0000000000e+00 +0.0000000000e+00 1.3100000000e+02 1.3100000000e+02 0.0000e+00 0.0000e+00
       13  1    1    2    0    0 -1.8003520120e+01 +1.7055299567e+01 +4.8006389283e+01 5.4033642817e+01 1.0566000000e-01 0.0000e+00 -1.0000e+00
      994  1    1    2    0    0 +1.2651776048e+01 +7.6594005831e+00 +2.0623635912e+01 1.3343563322e+02 1.3100000000e+02 0.0000e+00 0.0000e+00
      997  1    1    2    0    0 +5.3517440712e+00 -2.4714700150e+01 +4.3136996364e+02 4.4353072396e+02 1.0000000000e+02 0.0000e+00 0.0000e+00
</event>
<event>
 5      1 +8.5651000e-08 1.95023600e+02 7.95774700e-02 5.13534800e-01
       13 -1    0    0    0    0 +0.0000000000e+00 +0.0000000000e+00 +4.9999998884e+02 5.0000000000e+02 1.0566000000e-01 0.0000e+00 -1.0000e+00
      994 -1    0    0    0    0 -0.0000000000e+00 -0.0000000000e+00 +0.0000000000e+00 1.3100000000e+02 1.3100000000e+02 0.0000e+00 0.0000e+00
       13  1    1    2    0    0 +2.4057354664e+01 +2.4029869244e+01 +6.4627165963e+01 7.3026520345e+01 1.0566000000e-01 0.0000e+00 1.0000e+00
      994  1    1    2    0    0 -1.5547907085e+00 -3.7621607735e+01 +2.9926816361e+01 1.3955076883e+02 1.3100000000e+02 0.0000e+00 0.0000e+00
      997  1    1    2    0    0 -2.2502563955e+01 +1.3591738491e+01 +4.0544600651e+02 4.1842271083e+02 1.0000000000e+02 0.0000e+00 0.0000e+00
</event>
<event>
 5      1 +8.5651000e-08 2.15584600e+02 7.95774700e-02 4.77579400e-01
       13 -1    0    0    0    0 +0.0000000000e+00 +0.0000000000e+00 +4.9999998884e+02 5.0000000000e+02 1.0566000000e-01 0.0000e+00 1.0000e+00
      994 -1    0    0    0    0 -0.0000000000e+00 -0.0000000000e+00 +0.0000000000e+00 1.3100000000e+02 1.3100000000e+02 0.0000e+00 0.0000e+00
       13  1    1    2    0    0 -1.9841325849e+01 +6.7584197586e+00 -6.4184065580e+00 2.1921714255e+01 1.0566000000e-01 0.0000e+00 -1.0000e+00
      994  1    1    2    0    0 +4.3376350434e+01 +3.6638960475e+01 +7.0714365365e+01 1.5932809756e+02 1.3100000000e+02 0.0000e+00 0.0000e+00
      997  1    1    2    0    0 -2.3535024585e+01 -4.3397380234e+01 +4.3570403003e+02 4.4975018819e+02 1.0000000000e+02 0.0000e+00 0.0000e+00
</event>
<event>
 5      1 +8.5651000e-08 2.06026200e+02 7.95774700e-02 4.93150300e-01
       13 -1    0    0    0    0 +0.0000000000e+00 +0.0000000000e+00 +4.9999998884e+02 5.0000000000e+02 1.0566000000e-01 0.0000e+00 1.0000e+00
      994 -1    0    0    0    0 -0.0000000000e+00 -0.0000000000e+00 +0.0000000000e+00 1.3100000000e+02 1.3100000000e+02 0.0000e+00 0.0000e+00
       13  1    1    2    0    0 -2.6072021673e+01 -8.7189022372e-01 +1.2711232487e+01 2.9018909388e+01 1.0566000000e-01 0.0000e+00 -1.0000e+00
      994  1    1    2    0    0 -1.4032204042e+01 -1.4359080602e+01 +3.5399964829e+01 1.3717595801e+02 1.3100000000e+02 0.0000e+00 0.0000e+00
      997  1    1    2    0    0 +4.0104225715e+01 +1.5230970826e+01 +4.5188879152e+02 4.6480513260e+02 1.0000000000e+02 0.0000e+00 0.0000e+00
</event>
<event>
 5      1 +8.5651000e-08 1.97150000e+02 7.95774700e-02 5.09363200e-01
       13 -1    0    0    0    0 +0.0000000000e+00 +0.0000000000e+00 +4.9999998884e+02 5.0000000000e+02 1.0566000000e-01 0.0000e+00 -1.0000e+00
      994 -1    0    0    0    0 -0.0000000000e+00 -0.0000000000e+00 +0.0000000000e+00 1.3100000000e+02 1.3100000000e+02 0.0000e+00 0.0000e+00
       13  1    1    2    0    0 -3.5857335181e+00 -1.3362074342e+01 +4.2096084591e+01 4.4311330577e+01 1.0566000000e-01 0.0000e+00 1.0000e+00
      994  1    1    2    0    0 -8.9322059336e+00 -4.0245496050e+00 +1.5103018056e+01 1.3223117052e+02 1.3100000000e+02 0.0000e+00 0.0000e+00
      997  1    1    2    0    0 +1.2517939452e+01 +1.7386623947e+01 +4.4280088619e+02 4.5445749890e+02 1.0000000000e+02 0.0000e+00 0.0000e+00
</event>
<event>
 5      1 +8.5651000e-08 1.98910900e+02 7.95774700e-02 5.05997000e-01
       13 -1    0    0    0    0 +0.0000000000e+00 +0.0000000000e+00 +4.9999998884e+02 5.0000000000e+02 1.0566000000e-01 0.0000e+00 1.0000e+00
      994 -1    0    0    0    0 -0.0000000000e+00 -0.0000000000e+00 +0.0000000000e+00 1.3100000000e+02 1.3100000000e+02 0.0000e+00 0.0000e+00
       13  1    1    2    0    0 -4.2599511087e+01 +4.0567684829e+01 +1.0157150887e+02 1.1737647965e+02 1.0566000000e-01 0.0000e+00 -1.0000e+00
      994  1    1    2    0    0 +9.2147904182e+01 -1.8167182940e+01 +8.9453643213e+01 1.8434814093e+02 1.3100000000e+02 0.0000e+00 0.0000e+00
      997  1    1    2    0    0 -4.9548393095e+01 -2.2400501889e+01 +3.0897483675e+02 3.2927537941e+02 1.0000000000e+02 0.0000e+00 0.0000e+00
</event>
<event>
 5      1 +8.5651000e-08 2.24249300e+02 7.95774700e-02 4.64885700e-01
       13 -1    0    0    0    0 +0.0000000000e+00 +0.0000000000e+00 +4.9999998884e+02 5.0000000000e+02 1.0566000000e-01 0.0000e+00 -1.0000e+00
      994 -1    0    0    0    0 -0.0000000000e+00 -0.0000000000e+00 +0.0000000000e+00 1.3100000000e+02 1.3100000000e+02 0.0000e+00 0.0000e+00
       13  1    1    2    0    0 -4.9622122610e+01 +2.4461700096e+01 +2.5459359461e+01 6.0900902884e+01 1.0566000000e-01 0.0000e+00 1.0000e+00
      994  1    1    2    0    0 -3.5114379952e+01 -8.1085767184e+01 +1.6104696216e+02 2.2562146471e+02 1.3100000000e+02 0.0000e+00 0.0000e+00
      997  1    1    2    0    0 +8.4736502562e+01 +5.6624067088e+01 +3.1349366722e+02 3.4447763240e+02 1.0000000000e+02 0.0000e+00 0.0000e+00
</event>
<event>
 5      1 +8.5651000e-08 2.13191500e+02 7.95774700e-02 4.81312800e-01
       13 -1    0    0    0    0 +0.0000000000e+00 +0.0000000000e+00 +4.9999998884e+02 5.0000000000e+02 1.0566000000e-01 0.0000e+00 -1.0000e+00
      994 -1    0    0    0    0 -0.0000000000e+00 -0.0000000000e+00 +0.0000000000e+00 1.3100000000e+02 1.3100000000e+02 0.0000e+00 0.0000e+00
       13  1    1    2    0    0 -3.4292904330e+01 -1.3522217573e+01 +3.9012530046e+01 5.3673478741e+01 1.0566000000e-01 0.0000e+00 1.0000e+00
      994  1    1    2    0    0 -9.4381166903e+01 -2.4383741692e+00 +1.2727182864e+02 2.0560366898e+02 1.3100000000e+02 0.0000e+00 0.0000e+00
      997  1    1    2    0    0 +1.2867407123e+02 +1.5960591742e+01 +3.3371563015e+02 3.7172285228e+02 1.0000000000e+02 0.0000e+00 0.0000e+00
</event>
<event>
 5      1 +8.5651000e-08 2.04309900e+02 7.95774700e-02 4.96143500e-01
       13 -1    0    0    0    0 +0.0000000000e+00 +0.0000000000e+00 +4.9999998884e+02 5.0000000000e+02 1.0566000000e-01 0.0000e+00 1.0000e+00
      994 -1    0    0    0    0 -0.0000000000e+00 -0.0000000000e+00 +0.0000000000e+00 1.3100000000e+02 1.3100000000e+02 0.0000e+00 0.0000e+00
       13  1    1    2    0    0 +3.3955283895e+01 -3.1107878117e+01 +1.5176539228e+02 1.5859825611e+02 1.0566000000e-01 0.0000e+00 -1.0000e+00
      994  1    1    2    0    0 -2.9507218294e+01 -3.8545700435e+01 +4.6966771489e+01 1.4738834614e+02 1.3100000000e+02 0.0000e+00 0.0000e+00
      997  1    1    2    0    0 -4.4480656007e+00 +6.9653578552e+01 +3.0126782507e+02 3.2501339775e+02 1.0000000000e+02 0.0000e+00 0.0000e+00
</event>
<event>
 5      1 +8.5651000e-08 1.97775600e+02 7.95774700e-02 5.08158200e-01
       13 -1    0    0    0    0 +0.0000000000e+00 +0.0000000000e+00 +4.9999998884e+02 5.0000000000e+02 1.0566000000e-01 0.0000e+00 -1.0000e+00
      994 -1    0    0    0    0 -0.0000000000e+00 -0.0000000000e+00 +0.0000000000e+00 1.3100000000e+02 1.3100000000e+02 0.0000e+00 0.0000e+00
       13  1    1    2    0    0 -1.2245542274e+01 +1.5409206660e+01 +4.5721197991e+01 4.9777867223e+01 1.0566000000e-01 0.0000e+00 1.0000e+00
      994  1    1    2    0    0 +3.5004244045e+01 -5.2978519924e+01 +3.7445709358e+01 1.5031700444e+02 1.3100000000e+02 0.0000e+00 0.0000e+00
      997  1    1    2    0    0 -2.2758701771e+01 +3.7569313264e+01 +4.1683308149e+02 4.3090512834e+02 1.0000000000e+02 0.0000e+00 0.0000e+00
</event>
<event>
 5      1 +8.5651000e-08 1.93149200e+02 7.95774700e-02 5.17313000e-01
       13 -1    0    0    0    0 +0.0000000000e+00 +0.0000000000e+00 +4.9999998884e+02 5.0000000000e+02 1.0566000000e-01 0.0000e+00 1.0000e+00
      994 -1    0    0    0    0 -0.0000000000e+00 -0.0000000000e+00 +0.0000000000e+00 1.3100000000e+02 1.3100000000e+02 0.0000e+00 0.0000e+00
       13  1    1    2    0    0 +2.7530389142e+01 +9.1881393235e+00 +1.4020419539e+02 1.4317671528e+02 1.0566000000e-01 0.0000e+00 -1.0000e+00
      994  1    1    2    0    0 -3.8101353441e+01 +2.1663192111e+01 +2.9592184261e+01 1.4127173955e+02 1.3100000000e+02 0.0000e+00 0.0000e+00
      997  1    1    2    0    0 +1.0570964299e+01 -3.0851331435e+01 +3.3020360919e+02 3.4655154517e+02 1.0000000000e+02 0.0000e+00 0.0000e+00
</event>
<event>
 5      1 +8.5651000e-08 1.98417300e+02 7.95774700e-02 5.06932600e-01
       13 -1    0    0    0    0 +0.0000000000e+00 +0.0000000000e+00 +4.9999998884e+02 5.0000000000e+02 1.0566000000e-01 0.0000e+00 1.0000e+00
      994 -1    0    0    0    0 -0.0000000000e+00 -0.0000000000e+00 +0.0000000000e+00 1.3100000000e+02 1.3100000000e+02 0.0000e+00 0.0000e+00
       13  1    1    2    0    0 +1.7586631505e+01 +7.3574688902e-01 +6.1275001742e+01 6.3753179792e+01 1.0566000000e-01 0.0000e+00 -1.0000e+00
      994  1    1    2    0    0 -5.0435876930e+01 -1.1503384712e+01 +2.8632926726e+01 1.4372525886e+02 1.3100000000e+02 0.0000e+00 0.0000e+00
      997  1    1    2    0    0 +3.2849245425e+01 +1.0767637823e+01 +4.1009206037e+02 4.2352156135e+02 1.0000000000e+02 0.0000e+00 0.0000e+00
</event>
<event>
 5      1 +8.5651000e-08 2.10222700e+02 7.95774700e-02 4.86093300e-01
       13 -1    0    0    0    0 +0.0000000000e+00 +0.0000000000e+00 +4.9999998884e+02 5.0000000000e+02 1.0566000000e-01 0.0000e+00 1.0000e+00
      994 -1    0    0    0    0 -0.0000000000e+00 -0.0000000000e+00 +0.0000000000e+00 1.3100000000e+02 1.3100000000e+02 0.0000e+00 0.0000e+00
       13  1    1    2    0    0 -1.6073715196e+01 +9.5571108894e+00 -2.3257749481e+00 1.8844709653e+01 1.0566000000e-01 0.0000e+00 -1.0000e+00
      994  1    1    2    0    0 +5.4648405083e-01 +3.0434187895e+00 +3.7532250937e+01 1.3630565250e+02 1.3100000000e+02 0.0000e+00 0.0000e+00
      997  1    1    2    0    0 +1.5527231146e+01 -1.2600529679e+01 +4.6479351285e+02 4.7584963785e+02 1.0000000000e+02 0.0000e+00 0.0000e+00
</event>
<event>
 5      1 +8.5651000e-08 1.93675200e+02 7.95774700e-02 5.16242900e-01
       13 -1    0    0    0    0 +0.0000000000e+00 +0.0000000000e+00 +4.9999998884e+02 5.0000000000e+02 1.0566000000e-01 0.0000e+00 -1.0000e+00
      994 -1    0    0    0    0 -0.0000000000e+00 -0.0000000000e+00 +0.0000000000e+00 1.3100000000e+02 1.3100000000e+02 0.0000e+00 0.0000e+00
       13  1    1    2    0    0 -1.6769493116e+00 +2.5355689781e+01 +3.9981434174e+01 4.7373509538e+01 1.0566000000e-01 0.0000e+00 1.0000e+00
      994  1    1    2    0    0 -2.4830473598e+01 -1.6967649980e+01 +2.5400757121e+01 1.3678688544e+02 1.3100000000e+02 0.0000e+00 0.0000e+00
      997  1    1    2    0    0 +2.6507422910e+01 -8.3880398012e+00 +4.3461779754e+02 4.4683960503e+02 1.0000000000e+02 0.0000e+00 0.0000e+00
</event>
<event>
 5      1 +8.5651000e-08 2.05540800e+02 7.95774700e-02 4.93990400e-01
       13 -1    0    0    0    0 +0.0000000000e+00 +0.0000000000e+00 +4.9999998884e+02 5.0000000000e+02 1.0566000000e-01 0.0000e+00 1.0000e+00
      994 -1    0    0    0    0 -0.0000000000e+00 -0.0000000000e+00 +0.0000000000e+00 1.3100000000e+02 1.3100000000e+02 0.0000e+00 0.0000e+00
       13  1    1    2    0    0 +5.3258026254e+00 -5.0606115981e+01 +4.7036587218e+01 6.9294984302e+01 1.0566000000e-01 0.0000e+00 -1.0000e+00
      994  1    1    2    0    0 -7.9322154148e+00 +6.8035920391e+01 +6.6448442889e+01 1.6207468052e+02 1.3100000000e+02 0.0000e+00 0.0000e+00
      997  1    1    2    0    0 +2.6064127893e+00 -1.7429804410e+01 +3.8651495873e+02 3.9963033517e+02 1.0000000000e+02 0.0000e+00 0.0000e+00
</event>
<event>
 5      1 +8.5651000e-08 1.93774800e+02 7.95774700e-02 5.16041300e-01
       13 -1    0    0    0    0 +0.0000000000e+00 +0.0000000000e+00 +4.9999998884e+02 5.0000000000e+02 1.0566000000e-01 0.0000e+00 -1.0000e+00
      994 -1    0    0    0    0 -0.0000000000e+00 -0.0000000000e+00 +0.0000000000e+00 1.3100000000e+02 1.3100000000e+02 0.0000e+00 0.0000e+00
       13  1    1    2    0    0 -1.9564933726e+01 +1.4342207998e+01 +4.6717720244e+01 5.2640688738e+01 1.0566000000e-01 0.0000e+00 1.0000e+00
      994  1    1    2    0    0 +1.5715674406e+01 -2.5684902693e+01 +2.2903764457e+01 1.3635350775e+02 1.3100000000e+02 0.0000e+00 0.0000e+00
      997  1    1    2    0    0 +3.8492593194e+00 +1.1342694695e+01 +4.3037850413e+02 4.4200580352e+02 1.0000000000e+02 0.0000e+00 0.0000e+00
</event>
<event>
 5      1 +8.5651000e-08 1.98382900e+02 7.95774700e-02 5.06998000e-01
       13 -1    0    0    0    0 +0.0000000000e+00 +0.0000000000e+00 +4.9999998884e+02 5.0000000000e+02 1.0566000000e-01 0.0000e+00 -1.0000e+00
      994 -1    0    0    0    0 -0.0000000000e+00 -0.0000000000e+00 +0.0000000000e+00 1.3100000000e+02 1.3100000000e+02 0.0000e+00 0.0000e+00
       13  1    1    2    0    0 -1.9682324525e+01 -6.8837540236e+00 +1.3891281399e+01 2.5055115867e+01 1.0566000000e-01 0.0000e+00 1.0000e+00
      994  1    1    2    0    0 +6.7835715286e-01 -1.1539910644e+00 +2.4626094337e+01 1.3330129927e+02 1.3100000000e+02 0.0000e+00 0.0000e+00
      997  1    1    2    0    0 +1.9003967372e+01 +8.0377450879e+00 +4.6148261310e+02 4.7264358487e+02 1.0000000000e+02 0.0000e+00 0.0000e+00
</event>
<event>
 5      1 +8.5651000e-08 1.96392300e+02 7.95774700e-02 5.10836100e-01
       13 -1    0    0    0    0 +0.0000000000e+00 +0.0000000000e+00 +4.9999998884e+02 5.0000000000e+02 1.0566000000e-01 0.0000e+00 -1.0000e+00
      994 -1    0    0    0    0 -0.0000000000e+00 -0.0000000000e+00 +0.0000000000e+00 1.3100000000e+02 1.3100000000e+02 0.0000e+00 0.0000e+00
       13  1    1    2    0    0 +3.8896866576e+00 -1.3455594757e+01 +1.5108534679e+00 1.4088170030e+01 1.0566000000e-01 0.0000e+00 1.0000e+00
      994  1    1    2    0    0 +8.4229989296e+00 +6.9074294693e+01 +5.4148642426e+01 1.5790908959e+02 1.3100000000e+02 0.0000e+00 0.0000e+00
      997  1    1    2    0    0 -1.2312685587e+01 -5.5618699936e+01 +4.4434049294e+02 4.5900274038e+02 1.0000000000e+02 0.0000e+00 0.0000e+00
</event>
<event>
 5      1 +8.5651000e-08 2.19318600e+02 7.95774700e-02 4.71956800e-01
       13 -1    0    0    0    0 +0.0000000000e+00 +0.0000000000e+00 +4.9999998884e+02 5.0000000000e+02 1.0566000000e-01 0.0000e+00 1.0000e+00
      994 -1    0    0    0    0 -0.0000000000e+00 -0.0000000000e+00 +0.0000000000e+00 1.3100000000e+02 1.3100000000e+02 0.0000e+00 0.0000e+00
       13  1    1    2    0    0 +7.1659217931e+01 +1.1734562743e+01 +1.1377688842e+02 1.3497383072e+02 1.0566000000e-01 0.0000e+00 -1.0000e+00
      994  1    1    2    0    0 -9.0291964010e+00 -4.6426378120e+01 +6.8256710002e+01 1.5510291239e+02 1.3100000000e+02 0.0000e+00 0.0000e+00
      997  1    1    2    0    0 -6.2630021530e+01 +3.4691815377e+01 +3.1796639041e+02 3.4092325688e+02 1.0000000000e+02 0.0000e+00 0.0000e+00
</event>
<event>
 5      1 +8.5651000e-08 2.10607400e+02 7.95774700e-02 4.85464200e-01
       13 -1    0    0    0    0 +0.0000000000e+00 +0.0000000000e+00 +4.9999998884e+02 5.0000000000e+02 1.0566000000e-01 0.0000e+00 -1.0000e+00
      994 -1    0    0    0    0 -0.0000000000e+00 -0.0000000000e+00 +0.0000000000e+00 1.3100000000e+02 1.3100000000e+02 0.0000e+00 0.0000e+00
       13  1    1    2    0    0 -1.9180121027e+01 +3.6551435793e+01 +1.5176905145e+01 4.3979928547e+01 1.0566000000e-01 0.0000e+00 1.0000e+00
      994  1    1    2    0    0 +3.9613772713e+01 -6.6786102714e+01 +8.7390457820e+01 1.7557826352e+02 1.3100000000e+02 0.0000e+00 0.0000e+00
      997  1    1    2    0    0 -2.0433651686e+01 +3.0234666920e+01 +3.9743262587e+02 4.1144180793e+02 1.0000000000e+02 0.0000e+00 0.0000e+00
</event>
<event>
 5      1 +8.5651000e-08 1.93528700e+02 7.95774700e-02 5.16540100e-01
       13 -1    0    0    0    0 +0.0000000000e+00 +0.0000000000e+00 +4.9999998884e+02 5.0000000000e+02 1.0566000000e-01 0.0000e+00 1.0000e+00
      994 -1    0    0    0    0 -0.0000000000e+00 -0.0000000000e+00 +0.0000000000e+00 1.3100000000e+02 1.3100000000e+02 0.0000e+00 0.0000e+00
       13  1    1    2    0    0 -2.4292930246e+00 -2.3557332375e+01 +5.3158954934e+01 5.8195661582e+01 1.0566000000e-01 0.0000e+00 -1.0000e+00
      994  1    1    2    0    0 +7.5480374545e+00 +9.1893440775e+00 +1.8682865095e+01 1.3285882117e+02 1.3100000000e+02 0.0000e+00 0.0000e+00
      997  1    1    2    0    0 -5.1187444299e+00 +1.4367988298e+01 +4.2815816881e+02 4.3994551725e+02 1.0000000000e+02 0.0000e+00 0.0000e+00
</event>
<event>
 5      1 +8.5651000e-08 1.95767700e+02 7.95774700e-02 5.12061500e-01
       13 -1    0    0    0    0 +0.0000000000e+00 +0.0000000000e+00 +4.9999998884e+02 5.0000000000e+02 1.0566000000e-01 0.0000e+00 -1.0000e+00
      994 -1    0    0    0    0 -0.0000000000e+00 -0.0000000000e+00 +0.0000000000e+00 1.3100000000e+02 1.3100000000e+02 0.0000e+00 0.0000e+00
       13  1    1    2    0    0 +5.7343628483e+00 -1.5042073475e+01 +2.9187425252e+01 3.3332624388e+01 1.0566000000e-01 0.0000e+00 1.0000e+00
      994  1    1    2    0    0 -8.3902401414e+00 +9.9916727301e+00 +1.6774636042e+01 1.3271253923e+02 1.3100000000e+02 0.0000e+00 0.0000e+00
      997  1    1    2    0    0 +2.6558772931e+00 +5.0504007453e+00 +4.5403792754e+02 4.6495483639e+02 1.0000000000e+02 0.0000e+00 0.0000e+00
</event>
<event>
 5      1 +8.5651000e-08 2.03677800e+02 7.95774700e-02 4.97262300e-01
       13 -1    0    0    0    0 +0.0000000000e+00 +0.0000000000e+00 +4.9999998884e+02 5.0000000000e+02 1.0566000000e-01 0.0000e+00 1.0000e+00
      994 -1    0    0    0    0 -0.0000000000e+00 -0.0000000000e+00 +0.0000000000e+00 1.3100000000e+02 1.3100000000e+02 0.0000e+00 0.0000e+00
       13  1    1    2    0    0 +2.5958052833e+01 -1.2562846426e+00 +1.0404575199e+01 2.7994019131e+01 1.0566000000e-01 0.0000e+00 -1.0000e+00
      994  1    1    2    0    0 -3.6441489746e+01 +2.1125357572e+01 +4.2068080340e+01 1.4389227321e+02 1.3100000000e+02 0.0000e+00 0.0000e+00
      997  1    1    2    0    0 +1.0483436913e+01 -1.9869072929e+01 +4.4752733330e+02 4.5911370765e+02 1.0000000000e+02 0.0000e+00 0.0000e+00
</event>
<event>
 5      1 +8.5651000e-08 2.25883100e+02 7.95774700e-02 4.62626200e-01
       13 -1    0    0    0    0 +0.0000000000e+00 +0.0000000000e+00 +4.9999998884e+02 5.0000000000e+02 1.0566000000e-01 0.0000e+00 -1.0000e+00
      994 -1    0    0    0    0 -0.0000000000e+00 -0.0000000000e+00 +0.0000000000e+00 1.3100000000e+02 1.3100000000e+02 0.0000e+00 0.0000e+00
       13  1    1    2    0    0 +7.5878105194e+00 -9.9326278947e+00 -1.5736681298e+01 2.0096921846e+01 1.0566000000e-01 0.0000e+00 1.0000e+00
      994  1    1    2    0    0 +2.0921502029e+01 +2.0249918807e+01 +6.6682218500e+01 1.4985088162e+02 1.3100000000e+02 0.0000e+00 0.0000e+00
      997  1    1    2    0    0 -2.8509312548e+01 -1.0317290913e+01 +4.4905445163e+02 4.6105219653e+02 1.0000000000e+02 0.0000e+00 0.0000e+00
</event>
<event>
 5      1 +8.5651000e-08 1.92900200e+02 7.95774700e-02 5.17822300e-01
       13 -1    0    0    0    0 +0.0000000000e+00 +0.0000000000e+00 +4.9999998884e+02 5.0000000000e+02 1.0566000000e-01 0.0000e+00 1.0000e+00
      994 -1    0    0    0    0 -0.0000000000e+00 -0.0000000000e+00 +0.0000000000e+00 1.3100000000e+02 1.3100000000e+02 0.0000e+00 0.0000e+00
       13  1    1    2    0    0 +8.5641326856e+00 +7.3260455747e+00 +4.6798602023e+00 1.2203588323e+01 1.0566000000e-01 0.0000e+00 -1.0000e+00
      994  1    1    2    0    0 -1.1853061171e+01 +2.9376974765e+00 +2.0154693530e+01 1.3310273024e+02 1.3100000000e+02 0.0000e+00 0.0000e+00
      997  1    1    2    0    0 +3.2889284851e+00 -1.0263743051e+01 +4.7516543510e+02 4.8569368144e+02 1.0000000000e+02 0.0000e+00 0.0000e+00
</event>
<event>
 5      1 +8.5651000e-08 1.98580300e+02 7.95774700e-02 5.06622900e-01
       13 -1    0    0    0    0 +0.0000000000e+00 +0.0000000000e+00 +4.9999998884e+02 5.0000000000e+02 1.0566000000e-01 0.0000e+00 -1.0000e+00
      994 -1    0    0    0    0 -0.0000000000e+00 -0.0000000000e+00 +0.0000000000e+00 1.3100000000e+02 1.3100000000e+02 0.0000e+00 0.0000e+00
       13  1    1    2    0    0 +1.0402977030e+01 +6.6018495386e+00 +4.5076757013e+01 4.6730413387e+01 1.0566000000e-01 0.0000e+00 1.0000e+00
      994  1    1    2    0    0 -1.8867118883e+01 +1.4657402187e+00 +1.5272507180e+01 1.3323800526e+02 1.3100000000e+02 0.0000e+00 0.0000e+00
      997  1    1    2    0    0 +8.4641418536e+00 -8.0675897574e+00 +4.3965072464e+02 4.5103158136e+02 1.0000000000e+02 0.0000e+00 0.0000e+00
</event>
<event>
 5      1 +8.5651000e-08 2.16419600e+02 7.95774700e-02 4.76301100e-01
       13 -1    0    0    0    0 +0.0000000000e+00 +0.0000000000e+00 +4.9999998884e+02 5.0000000000e+02 1.0566000000e-01 0.0000e+00 1.0000e+00
      994 -1    0    0    0    0 -0.0000000000e+00 -0.0000000000e+00 +0.0000000000e+00 1.3100000000e+02 1.3100000000e+02 0.0000e+00 0.0000e+00
       13  1    1    2    0    0 +6.3046524278e+01 -2.3522824242e+01 +6.1243711488e+01 9.0988960016e+01 1.0566000000e-01 0.0000e+00 -1.0000e+00
      994  1    1    2    0    0 -4.8813202678e+01 +3.2137497297e+01 +7.3957361108e+01 1.6138847155e+02 1.3100000000e+02 0.0000e+00 0.0000e+00
      997  1    1    2    0    0 -1.4233321600e+01 -8.6146730553e+00 +3.6479891624e+02 3.7862256843e+02 1.0000000000e+02 0.0000e+00 0.0000e+00
</event>
<event>
 5      1 +8.5651000e-08 1.94509300e+02 7.95774700e-02 5.14561800e-01
       13 -1    0    0    0    0 +0.0000000000e+00 +0.0000000000e+00 +4.9999998884e+02 5.0000000000e+02 1.0566000000e-01 0.0000e+00 1.0000e+00
      994 -1    0    0    0    0 -0.0000000000e+00 -0.0000000000e+00 +0.0000000000e+00 1.3100000000e+02 1.3100000000e+02 0.0000e+00 0.0000e+00
       13  1    1    2    0    0 +1.7557240620e+01 +3.5351653338e-01 +2.0526491651e+01 2.7013509503e+01 1.0566000000e-01 0.0000e+00 -1.0000e+00
      994  1    1    2    0    0 -4.3382845222e+01 +8.0397946955e-01 +2.7951344302e+01 1.4080126168e+02 1.3100000000e+02 0.0000e+00 0.0000e+00
      997  1    1    2    0    0 +2.5825604602e+01 -1.1574960029e+00 +4.5152215288e+02 4.6318522882e+02 1.0000000000e+02 0.0000e+00 0.0000e+00
</event>
<event>
 5      1 +8.5651000e-08 2.02220800e+02 7.95774700e-02 4.99875500e-01
       13 -1    0    0    0    0 +0.0000000000e+00 +0.0000000000e+00 +4.9999998884e+02 5.0000000000e+02 1.0566000000e-01 0.0000e+00 1.0000e+00
      994 -1    0    0    0    0 -0.0000000000e+00 -0.0000000000e+00 +0.0000000000e+00 1.3100000000e+02 1.3100000000e+02 0.0000e+00 0.0000e+00
       13  1    1    2    0    0 -3.4533874402e+01 +1.2328743001e+01 +3.7043385869e+01 5.2123027405e+01 1.0566000000e-01 0.0000e+00 -1.0000e+00
      994  1    1    2    0    0 +1.9111045049e+01 -3.2405773429e+01 +3.7877529790e+01 1.4146050140e+02 1.3100000000e+02 0.0000e+00 0.0000e+00
      997  1    1    2    0    0 +1.5422829353e+01 +2.0077030428e+01 +4.2507907318e+02 4.3741647119e+02 1.0000000000e+02 0.0000e+00 0.0000e+00
</event>
<event>
 5      1 +8.5651000e-08 2.11250400e+02 7.95774700e-02 4.84419200e-01
       13 -1    0    0    0    0 +0.0000000000e+00 +0.0000000000e+00 +4.9999998884e+02 5.0000000000e+02 1.0566000000e-01 0.0000e+00 -1.0000e+00
      994 -1    0    0    0    0 -0.0000000000e+00 -0.0000000000e+00 +0.0000000000e+00 1.3100000000e+02 1.3100000000e+02 0.0000e+00 0.0000e+00
       13  1    1    2    0    0 +4.2634534721e+01 -2.4938794916e+01 +8.0134997121e+01 9.4134350639e+01 1.0566000000e-01 0.0000e+00 1.0000e+00
      994  1    1    2    0    0 +3.9385823585e+01 +2.0896763059e+01 +5.3569855952e+01 1.4838681637e+02 1.3100000000e+02 0.0000e+00 0.0000e+00
      997  1    1    2    0    0 -8.2020358305e+01 +4.0420318567e+00 +3.6629513576e+02 3.8847883299e+02 1.0000000000e+02 0.0000e+00 0.0000e+00
</event>
<event>
 5      1 +8.5651000e-08 1.92592600e+02 7.95774700e-02 5.18453700e-01
       13 -1    0    0    0    0 +0.0000000000e+00 +0.0000000000e+00 +4.9999998884e+02 5.0000000000e+02 1.0566000000e-01 0.0000e+00 1.0000e+00
      994 -1    0    0    0    0 -0.0000000000e+00 -0.0000000000e+00 +0.0000000000e+00 1.3100000000e+02 1.3100000000e+02 0.0000e+00 0.0000e+00
       13  1    1    2    0    0 +3.3166155235e+01 -1.3188552332e+01 +8.3246594470e+01 9.0575595060e+01 1.0566000000e-01 0.0000e+00 -1.0000e+00
      994  1    1    2    0    0 -4.0481204832e+01 +2.2242076214e+01 +3.1764827000e+01 1.4249014750e+02 1.3100000000e+02 0.0000e+00 0.0000e+00
      997  1    1    2    0    0 +7.3150495975e+00 -9.0535238823e+00 +3.8498856737e+02 3.9793425744e+02 1.0000000000e+02 0.0000e+00 0.0000e+00
</event>
<event>
 5      1 +8.5651000e-08 1.94188400e+02 7.95774700e-02 5.15206300e-01
       13 -1    0    0    0    0 +0.0000000000e+00 +0.0000000000e+00 +4.9999998884e+02 5.0000000000e+02 1.0566000000e-01 0.0000e+00 1.0000e+00
      994 -1    0    0    0    0 -0.0000000000e+00 -0.0000000000e+00 +0.0000000000e+00 1.3100000000e+02 1.3100000000e+02 0.0000e+00 0.0000e+00
       13  1    1    2    0    0 -1.3688123754e+01 -1.0374401357e+01 +2.4903929962e+01 3.0252435059e+01 1.0566000000e-01 0.0000e+00 -1.0000e+00
      994  1    1    2    0    0 +9.9997370052e-01 +1.3737605858e+01 +1.8344909162e+01 1.3299344891e+02 1.3100000000e+02 0.0000e+00 0.0000e+00
      997  1    1    2    0    0 +1.2688150053e+01 -3.3632045012e+00 +4.5675114971e+02 4.6775411603e+02 1.0000000000e+02 0.0000e+00 0.0000e+00
</event>
<event>
 5      1 +8.5651000e-08 2.02755400e+02 7.95774700e-02 4.98911000e-01
       13 -1    0    0    0    0 +0.0000000000e+00 +0.0000000000e+00 +4.9999998884e+02 5.0000000000e+02 1.0566000000e-01 0.0000e+00 1.0000e+00
      994 -1    0    0    0    0 -0.0000000000e+00 -0.0000000000e+00 +0.0000000000e+00 1.3100000000e+02 1.3100000000e+02 0.0000e+00 0.0000e+00
       13  1    1    2    0    0 -5.7548177977e+01 +9.6178337532e+00 +1.4368967433e+02 1.5508394239e+02 1.0566000000e-01 0.0000e+00 -1.0000e+00
      994  1    1    2    0    0 +4.3483863446e+01 -8.4816058990e+01 +1.0008617902e+02 1.9042807953e+02 1.3100000000e+02 0.0000e+00 0.0000e+00
      997  1    1    2    0    0 +1.4064314531e+01 +7.5198225237e+01 +2.5622413549e+02 2.8548797808e+02 1.0000000000e+02 0.0000e+00 0.0000e+00
</event>
<event>
 5      1 +8.5651000e-08 1.98576900e+02 7.95774700e-02 5.06629400e-01
       13 -1    0    0    0    0 +0.0000000000e+00 +0.0000000000e+00 +4.9999998884e+02 5.0000000000e+02 1.0566000000e-01 0.0000e+00 1.0000e+00
      994 -1    0    0    0    0 -0.0000000000e+00 -0.0000000000e+00 +0.0000000000e+00 1.3100000000e+02 1.3100000000e+02 0.0000e+00 0.0000e+00
       13  1    1    2    0    0 -5.8902949092e+00 -1.6066328515e+01 +6.3223705028e+00 1.8242971767e+01 1.0566000000e-01 0.0000e+00 -1.0000e+00
      994  1    1    2    0    0 +3.0913609739e+00 +7.3248317272e+00 +2.5201277517e+01 1.3363874461e+02 1.3100000000e+02 0.0000e+00 0.0000e+00
      997  1    1    2    0    0 +2.7989339352e+00 +8.7414967877e+00 +4.6847634082e+02 4.7911828362e+02 1.0000000000e+02 0.0000e+00 0.0000e+00
</event>
<event>
 5      1 +8.5651000e-08 1.98182500e+02 7.95774700e-02 5.07379900e-01
       13 -1    0    0    0    0 +0.0000000000e+00 +0.0000000000e+00 +4.9999998884e+02 5.0000000000e+02 1.0566000000e-01 0.0000e+00 1.0000e+00
      994 -1    0    0    0    0 -0.0000000000e+00 -0.0000000000e+00 +0.0000000000e+00 1.3100000000e+02 1.3100000000e+02 0.0000e+00 0.0000e+00
       13  1    1    2    0    0 -1.1960111587e+01 -1.3278445006e-01 +2.8956775827e+01 3.1329984539e+01 1.0566000000e-01 0.0000e+00 -1.0000e+00
      994  1    1    2    0    0 +1.5717977667e+01 +5.2335391731e+00 +1.5166757352e+01 1.3291153179e+02 1.3100000000e+02 0.0000e+00 0.0000e+00
      997  1    1    2    0    0 -3.7578660803e+00 -5.1007547230e+00 +4.5587645566e+02 4.6675848367e+02 1.0000000000e+02 0.0000e+00 0.0000e+00
</event>
<event>
 5      1 +8.5651000e-08 2.03756700e+02 7.95774700e-02 4.97122200e-01
       13 -1    0    0    0    0 +0.0000000000e+00 +0.0000000000e+00 +4.9999998884e+02 5.0000000000e+02 1.0566000000e-01 0.0000e+00 -1.0000e+00
      994 -1    0    0    0    0 -0.0000000000e+00 -0.0000000000e+00 +0.0000000000e+00 1.3100000000e+02 1.3100000000e+02 0.0000e+00 0.0000e+00
       13  1    1    2    0    0 +1.7740915369e+01 -1.9679802412e+01 +1.3684515990e+01 2.9821332013e+01 1.0566000000e-01 0.0000e+00 1.0000e+00
      994  1    1    2    0    0 -1.9717796091e+01 +3.7372002496e+00 +3.2848430988e+01 1.3653855707e+02 1.3100000000e+02 0.0000e+00 0.0000e+00
      997  1    1    2    0    0 +1.9768807218e+00 +1.5942602163e+01 +4.5346704186e+02 4.6464011092e+02 1.0000000000e+02 0.0000e+00 0.0000e+00
</event>
<event>
 5      1 +8.5651000e-08 1.93087200e+02 7.95774700e-02 5.17439600e-01
       13 -1    0    0    0    0 +0.0000000000e+00 +0.0000000000e+00 +4.9999998884e+02 5.0000000000e+02 1.0566000000e-01 0.0000e+00 -1.0000e+00
      994 -1    0    0    0    0 -0.0000000000e+00 -0.0000000000e+00 +0.0000000000e+00 1.3100000000e+02 1.3100000000e+02 0.0000e+00 0.0000e+00
       13  1    1    2    0    0 +8.5879984586e+00 +5.4472800543e+00 +4.9635855491e+00 1.1317019177e+01 1.0566000000e-01 0.0000e+00 1.0000e+00
      994  1    1    2    0    0 +2.1391875840e+01 -1.5107775362e+01 +2.2275970385e+01 1.3543661279e+02 1.3100000000e+02 0.0000e+00 0.0000e+00
      997  1    1    2    0    0 -2.9979874299e+01 +9.6604953080e+00 +4.7276043290e+02 4.8424636803e+02 1.0000000000e+02 0.0000e+00 0.0000e+00
</event>
<event>
 5      1 +8.5651000e-08 1.93215300e+02 7.95774700e-02 5.17178100e-01
       13 -1    0    0    0    0 +0.0000000000e+00 +0.0000000000e+00 +4.9999998884e+02 5.0000000000e+02 1.0566000000e-01 0.0000e+00 -1.0000e+00
      994 -1    0    0    0    0 -0.0000000000e+00 -0.0000000000e+00 +0.0000000000e+00 1.3100000000e+02 1.3100000000e+02 0.0000e+00 0.0000e+00
       13  1    1    2    0    0 -2.4168659424e+01 +8.3215136371e+00 +3.5394107199e+01 4.3659199214e+01 1.0566000000e-01 0.0000e+00 1.0000e+00
      994  1    1    2    0    0 +4.8672013796e+01 -3.2642310405e+01 +3.8904545856e+01 1.4869111959e+02 1.3100000000e+02 0.0000e+00 0.0000e+00
      997  1    1    2    0    0 -2.4503354372e+01 +2.4320796768e+01 +4.2570133578e+02 4.3864968120e+02 1.0000000000e+02 0.0000e+00 0.0000e+00
</event>
<event>
 5      1 +8.5651000e-08 2.07918300e+02 7.95774700e-02 4.89923600e-01
       13 -1    0    0    0    0 +0.0000000000e+00 +0.0000000000e+00 +4.9999998884e+02 5.0000000000e+02 1.0566000000e-01 0.0000e+00 -1.0000e+00
      994 -1    0    0    0    0 -0.0000000000e+00 -0.0000000000e+00 +0.0000000000e+00 1.3100000000e+02 1.3100000000e+02 0.0000e+00 0.0000e+00
       13  1    1    2    0    0 +1.7144164738e+00 +1.9915570769e+01 +3.4680997680e-01 1.9992514202e+01 1.0566000000e-01 0.0000e+00 1.0000e+00
      994  1    1    2    0    0 +5.4849732531e+00 -1.0415404429e+01 +3.5751224261e+01 1.3630009397e+02 1.3100000000e+02 0.0000e+00 0.0000e+00
      997  1    1    2    0    0 -7.1993897269e+00 -9.5001663406e+00 +4.6390195460e+02 4.7470739183e+02 1.0000000000e+02 0.0000e+00 0.0000e+00
</event>
<event>
 5      1 +8.5651000e-08 1.67076600e+02 7.95774700e-02 5.82350600e-01
       13 -1    0    0    0    0 +0.0000000000e+00 +0.0000000000e+00 +4.9999998884e+02 5.0000000000e+02 1.0566000000e-01 0.0000e+00 -1.0000e+00
      994 -1    0    0    0    0 -0.0000000000e+00 -0.0000000000e+00 +0.0000000000e+00 1.3100000000e+02 1.3100000000e+02 0.0000e+00 0.0000e+00
       13  1    1    2    0    0 +9.6041172936e+01 -5.3671847041e+01 +1.4847321116e+02 1.8479415483e+02 1.0566000000e-01 0.0000e+00 1.0000e+00
      994  1    1    2    0    0 -8.2578333101e+01 +3.5036972684e+01 +1.4244645910e+02 2.1330439344e+02 1.3100000000e+02 0.0000e+00 0.0000e+00
      997  1    1    2    0    0 -1.3462839835e+01 +1.8634874357e+01 +2.0908031859e+02 2.3290145173e+02 1.0000000000e+02 0.0000e+00 0.0000e+00
</event>
<event>
 5      1 +8.5651000e-08 2.11447900e+02 7.95774700e-02 4.84100000e-01
       13 -1    0    0    0    0 +0.0000000000e+00 +0.0000000000e+00 +4.9999998884e+02 5.0000000000e+02 1.0566000000e-01 0.0000e+00 -1.0000e+00
      994 -1    0    0    0    0 -0.0000000000e+00 -0.0000000000e+00 +0.0000000000e+00 1.3100000000e+02 1.3100000000e+02 0.0000e+00 0.0000e+00
       13  1    1    2    0    0 -4.5086908863e+01 +4.2019632716e+00 +3.5058876866e+01 5.7267982829e+01 1.0566000000e-01 0.0000e+00 1.0000e+00
      994  1    1    2    0    0 +2.5574596757e+01 -1.0538441877e+01 +4.4521897873e+01 1.4109683961e+02 1.3100000000e+02 0.0000e+00 0.0000e+00
      997  1    1    2    0    0 +1.9512312106e+01 +6.3364786056e+00 +4.2041921410e+02 4.3263517757e+02 1.0000000000e+02 0.0000e+00 0.0000e+00
</event>
<event>
 5      1 +8.5651000e-08 1.98367900e+02 7.95774700e-02 5.07026600e-01
       13 -1    0    0    0    0 +0.0000000000e+00 +0.0000000000e+00 +4.9999998884e+02 5.0000000000e+02 1.0566000000e-01 0.0000e+00 -1.0000e+00
      994 -1    0    0    0    0 -0.0000000000e+00 -0.0000000000e+00 +0.0000000000e+00 1.3100000000e+02 1.3100000000e+02 0.0000e+00 0.0000e+00
       13  1    1    2    0    0 -3.9849306173e+00 -9.6078542496e+00 +5.6179383168e+01 5.7134269860e+01 1.0566000000e-01 0.0000e+00 1.0000e+00
      994  1    1    2    0    0 -2.1204967022e+01 +1.3178510972e-01 +1.5972307707e+01 1.3366294403e+02 1.3100000000e+02 0.0000e+00 0.0000e+00
      997  1    1    2    0    0 +2.5189897640e+01 +9.4760691399e+00 +4.2784829796e+02 4.4020278611e+02 1.0000000000e+02 0.0000e+00 0.0000e+00
</event>
<event>
 5      1 +8.5651000e-08 1.93488000e+02 7.95774700e-02 5.16623000e-01
       13 -1    0    0    0    0 +0.0000000000e+00 +0.0000000000e+00 +4.9999998884e+02 5.0000000000e+02 1.0566000000e-01 0.0000e+00 1.0000e+00
      994 -1    0    0    0    0 -0.0000000000e+00 -0.0000000000e+00 +0.0000000000e+00 1.3100000000e+02 1.3100000000e+02 0.0000e+00 0.0000e+00
       13  1    1    2    0    0 +3.2394338705e+01 -7.5903602216e+00 +1.4496725998e+02 1.4873642587e+02 1.0566000000e-01 0.0000e+00 -1.0000e+00
      994  1    1    2    0    0 -1.9324558003e+01 -6.1063546248e-01 +2.2044225983e+01 1.3424142176e+02 1.3100000000e+02 0.0000e+00 0.0000e+00
      997  1    1    2    0    0 -1.3069780702e+01 +8.2009956841e+00 +3.3298850287e+02 3.4802215237e+02 1.0000000000e+02 0.0000e+00 0.0000e+00
</event>
<event>
 5      1 +8.5651000e-08 1.92764900e+02 7.95774700e-02 5.18099600e-01
       13 -1    0    0    0    0 +0.0000000000e+00 +0.0000000000e+00 +4.9999998884e+02 5.0000000000e+02 1.0566000000e-01 0.0000e+00 -1.0000e+00
      994 -1    0    0    0    0 -0.0000000000e+00 -0.0000000000e+00 +0.0000000000e+00 1.3100000000e+02 1.3100000000e+02 0.0000e+00 0.0000e+00
       13  1    1    2    0    0 -1.9423115129e+01 -6.3972822738e-01 +3.4975215034e+01 4.0011791815e+01 1.0566000000e-01 0.0000e+00 1.0000e+00
      994  1    1    2    0    0 -1.7815285542e+01 +1.9435781488e+01 +2.2644345215e+01 1.3553191643e+02 1.3100000000e+02 0.0000e+00 0.0000e+00
      997  1    1    2    0    0 +3.7238400671e+01 -1.8796053261e+01 +4.4238042859e+02 4.5545629175e+02 1.0000000000e+02 0.0000e+00 0.0000e+00
</event>
<event>
 5      1 +8.5651000e-08 1.97291900e+02 7.95774700e-02 5.09089000e-01
       13 -1    0    0    0    0 +0.0000000000e+00 +0.0000000000e+00 +4.9999998884e+02 5.0000000000e+02 1.0566000000e-01 0.0000e+00 1.0000e+00
      994 -1    0    0    0    0 -0.0000000000e+00 -0.0000000000e+00 +0.0000000000e+00 1.3100000000e+02 1.3100000000e+02 0.0000e+00 0.0000e+00
       13  1    1    2    0    0 -1.8100442494e+01 +3.1386832231e+01 +1.1310255690e+02 1.1876429933e+02 1.0566000000e-01 0.0000e+00 -1.0000e+00
      994  1    1    2    0    0 -2.9645069594e+00 +4.4939061318e+00 +2.3703906581e+01 1.3323610127e+02 1.3100000000e+02 0.0000e+00 0.0000e+00
      997  1    1    2    0    0 +2.1064949453e+01 -3.5880738362e+01 +3.6319352536e+02 3.7899959940e+02 1.0000000000e+02 0.0000e+00 0.0000e+00
</event>
<event>
 5      1 +8.5651000e-08 1.94603500e+02 7.95774700e-02 5.14373200e-01
       13 -1    0    0    0    0 +0.0000000000e+00 +0.0000000000e+00 +4.9999998884e+02 5.0000000000e+02 1.0566000000e-01 0.0000e+00 1.0000e+00
      994 -1    0    0    0    0 -0.0000000000e+00 -0.0000000000e+00 +0.0000000000e+00 1.3100000000e+02 1.3100000000e+02 0.0000e+00 0.0000e+00
       13  1    1    2    0    0 +1.1156704141e+00 +1.4738179540e+01 +1.9614612922e+01 2.4560188533e+01 1.0566000000e-01 0.0000e+00 -1.0000e+00
      994  1    1    2    0    0 -9.4347455433e+00 -8.0967589526e-01 +1.7387070197e+01 1.3248766059e+02 1.3100000000e+02 0.0000e+00 0.0000e+00
      997  1    1    2    0    0 +8.3190751292e+00 -1.3928503645e+01 +4.6299830572e+02 4.7395215088e+02 1.0000000000e+02 0.0000e+00 0.0000e+00
</event>
<event>
 5      1 +8.5651000e-08 1.95973000e+02 7.95774700e-02 5.11657600e-01
       13 -1    0    0    0    0 +0.0000000000e+00 +0.0000000000e+00 +4.9999998884e+02 5.0000000000e+02 1.0566000000e-01 0.0000e+00 -1.0000e+00
      994 -1    0    0    0    0 -0.0000000000e+00 -0.0000000000e+00 +0.0000000000e+00 1.3100000000e+02 1.3100000000e+02 0.0000e+00 0.0000e+00
       13  1    1    2    0    0 -1.2630372537e+01 +6.3349939672e+00 +3.1024681354e+01 3.4091061528e+01 1.0566000000e-01 0.0000e+00 1.0000e+00
      994  1    1    2    0    0 -2.1792307154e+01 -7.2408063708e+00 +1.8611732742e+01 1.3429344930e+02 1.3100000000e+02 0.0000e+00 0.0000e+00
      997  1    1    2    0    0 +3.4422679691e+01 +9.0581240365e-01 +4.5036357474e+02 4.6261548918e+02 1.0000000000e+02 0.0000e+00 0.0000e+00
</event>
<event>
 5      1 +8.5651000e-08 2.07538200e+02 7.95774700e-02 4.90565700e-01
       13 -1    0    0    0    0 +0.0000000000e+00 +0.0000000000e+00 +4.9999998884e+02 5.0000000000e+02 1.0566000000e-01 0.0000e+00 -1.0000e+00
      994 -1    0    0    0    0 -0.0000000000e+00 -0.0000000000e+00 +0.0000000000e+00 1.3100000000e+02 1.3100000000e+02 0.0000e+00 0.0000e+00
       13  1    1    2    0    0 +3.9763156665e+00 +1.2438651816e+01 -5.9397207520e+00 1.4346518460e+01 1.0566000000e-01 0.0000e+00 1.0000e+00
      994  1    1    2    0    0 -4.7250744338e+01 -2.0847656439e+00 +5.0346437792e+01 1.4809707251e+02 1.3100000000e+02 0.0000e+00 0.0000e+00
      997  1    1    2    0    0 +4.3274428672e+01 -1.0353886172e+01 +4.5559327180e+02 4.6855640903e+02 1.0000000000e+02 0.0000e+00 0.0000e+00
</event>
<event>
 5      1 +8.5651000e-08 2.02505300e+02 7.95774700e-02 4.99361400e-01
       13 -1    0    0    0    0 +0.0000000000e+00 +0.0000000000e+00 +4.9999998884e+02 5.0000000000e+02 1.0566000000e-01 0.0000e+00 1.0000e+00
      994 -1    0    0    0    0 -0.0000000000e+00 -0.0000000000e+00 +0.0000000000e+00 1.3100000000e+02 1.3100000000e+02 0.0000e+00 0.0000e+00
       13  1    1    2    0    0 -2.4390478567e+01 -2.8288598560e+01 +5.0308291621e+01 6.2658404249e+01 1.0566000000e-01 0.0000e+00 -1.0000e+00
      994  1    1    2    0    0 +7.1135160235e+01 -6.0395435749e+01 +9.5880857236e+01 1.8724838708e+02 1.3100000000e+02 0.0000e+00 0.0000e+00
      997  1    1    2    0    0 -4.6744681668e+01 +8.8684034309e+01 +3.5381083998e+02 3.8109320867e+02 1.0000000000e+02 0.0000e+00 0.0000e+00
</event>
<event>
 5      1 +8.5651000e-08 1.96497000e+02 7.95774700e-02 5.10631600e-01
       13 -1    0    0    0    0 +0.0000000000e+00 +0.0000000000e+00 +4.9999998884e+02 5.0000000000e+02 1.0566000000e-01 0.0000e+00 1.0000e+00
      994 -1    0    0    0    0 -0.0000000000e+00 -0.0000000000e+00 +0.0000000000e+00 1.3100000000e+02 1.3100000000e+02 0.0000e+00 0.0000e+00
       13  1    1    2    0    0 -4.3403432782e+00 +2.8844415330e+01 +4.1359041662e+01 5.0610476848e+01 1.0566000000e-01 0.0000e+00 -1.0000e+00
      994  1    1    2    0    0 -1.3166616609e+01 -1.3591157243e+01 +2.4920874653e+01 1.3468529742e+02 1.3100000000e+02 0.0000e+00 0.0000e+00
      997  1    1    2    0    0 +1.7506959888e+01 -1.5253258087e+01 +4.3372007252e+02 4.4570422573e+02 1.0000000000e+02 0.0000e+00 0.0000e+00
</event>
<event>
 5      1 +8.5651000e-08 2.03169900e+02 7.95774700e-02 4.98167800e-01
       13 -1    0    0    0    0 +0.0000000000e+00 +0.0000000000e+00 +4.9999998884e+02 5.0000000000e+02 1.0566000000e-01 0.0000e+00 -1.0000e+00
      994 -1    0    0    0    0 -0.0000000000e+00 -0.0000000000e+00 +0.0000000000e+00 1.3100000000e+02 1.3100000000e+02 0.0000e+00 0.0000e+00
       13  1    1    2    0    0 +3.6437535641e+01 +3.1186162776e+01 +5.3639148536e+01 7.1954431219e+01 1.0566000000e-01 0.0000e+00 1.0000e+00
      994  1    1    2    0    0 -8.2555517192e+01 +1.2190901203e+01 +8.1373072594e+01 1.7534710843e+02 1.3100000000e+02 0.0000e+00 0.0000e+00
      997  1    1    2    0    0 +4.6117981551e+01 -4.3377063979e+01 +3.6498776771e+02 3.8369846035e+02 1.0000000000e+02 0.0000e+00 0.0000e+00
</event>
<event>
 5      1 +8.5651000e-08 1.92704500e+02 7.95774700e-02 5.18223600e-01
       13 -1    0    0    0    0 +0.0000000000e+00 +0.0000000000e+00 +4.9999998884e+02 5.0000000000e+02 1.0566000000e-01 0.0000e+00 1.0000e+00
      994 -1    0    0    0    0 -0.0000000000e+00 -0.0000000000e+00 +0.0000000000e+00 1.3100000000e+02 1.3100000000e+02 0.0000e+00 0.0000e+00
       13  1    1    2    0    0 -7.9438674192e+00 +8.2396162158e+00 +6.5917638907e+00 1.3208286043e+01 1.0566000000e-01 0.0000e+00 -1.0000e+00
      994  1    1    2    0    0 -5.5406299372e+00 +3.5267632046e+00 +1.8886372042e+01 1.3251728826e+02 1.3100000000e+02 0.0000e+00 0.0000e+00
      997  1    1    2    0    0 +1.3484497356e+01 -1.1766379420e+01 +4.7452185290e+02 4.8527442570e+02 1.0000000000e+02 0.0000e+00 0.0000e+00
</event>
<event>
 5      1 +8.5651000e-08 1.98217300e+02 7.95774700e-02 5.07313500e-01
       13 -1    0    0    0    0 +0.0000000000e+00 +0.0000000000e+00 +4.9999998884e+02 5.0000000000e+02 1.0566000000e-01 0.0000e+00 1.0000e+00
      994 -1    0    0    0    0 -0.0000000000e+00 -0.0000000000e+00 +0.0000000000e+00 1.3100000000e+02 1.3100000000e+02 0.0000e+00 0.0000e+00
       13  1    1    2    0    0 -1.4611901792e+01 +2.9531577880e+00 +4.1898852816e+01 4.4471944484e+01 1.0566000000e-01 0.0000e+00 -1.0000e+00
      994  1    1    2    0    0 +5.8175309239e+01 +5.1082775221e+01 +4.9247121454e+01 1.5993778634e+02 1.3100000000e+02 0.0000e+00 0.0000e+00
      997  1    1    2    0    0 -4.3563407447e+01 -5.4035933009e+01 +4.0885401457e+02 4.2659026917e+02 1.0000000000e+02 0.0000e+00 0.0000e+00
</event>
<event>
 5      1 +8.5651000e-08 1.93403900e+02 7.95774700e-02 5.16793900e-01
       13 -1    0    0    0    0 +0.0000000000e+00 +0.0000000000e+00 +4.9999998884e+02 5.0000000000e+02 1.0566000000e-01 0.0000e+00 1.0000e+00
      994 -1    0    0    0    0 -0.0000000000e+00 -0.0000000000e+00 +0.0000000000e+00 1.3100000000e+02 1.3100000000e+02 0.0000e+00 0.0000e+00
       13  1    1    2    0    0 +2.2364558670e+01 -3.5407859056e+00 +2.6304167031e+01 3.4707794752e+01 1.0566000000e-01 0.0000e+00 -1.0000e+00
      994  1    1    2    0    0 -3.4305717773e+01 -1.4536071074e+01 +2.8053789433e+01 1.3905464658e+02 1.3100000000e+02 0.0000e+00 0.0000e+00
      997  1    1    2    0    0 +1.1941159103e+01 +1.8076856980e+01 +4.4564203237e+02 4.5723755867e+02 1.0000000000e+02 0.0000e+00 0.0000e+00
</event>
<event>
 5      1 +8.5651000e-08 1.94376500e+02 7.95774700e-02 5.14828300e-01
       13 -1    0    0    0    0 +0.0000000000e+00 +0.0000000000e+00 +4.9999998884e+02 5.0000000000e+02 1.0566000000e-01 0.0000e+00 -1.0000e+00
      994 -1    0    0    0    0 -0.0000000000e+00 -0.0000000000e+00 +0.0000000000e+00 1.3100000000e+02 1.3100000000e+02 0.0000e+00 0.0000e+00
       13  1    1    2    0    0 +4.7046657774e+00 -1.4923630852e+01 +2.0078146424e+01 2.5455682386e+01 1.0566000000e-01 0.0000e+00 1.0000e+00
      994  1    1    2    0    0 +7.7085555250e+00 +1.3232427925e+01 +1.8426831007e+01 1.3317307190e+02 1.3100000000e+02 0.0000e+00 0.0000e+00
      997  1    1    2    0    0 -1.2413221302e+01 +1.6912029271e+00 +4.6149501140e+02 4.7237124572e+02 1.0000000000e+02 0.0000e+00 0.0000e+00
</event>
<event>
 5      1 +8.5651000e-08 1.99488300e+02 7.95774700e-02 5.04910100e-01
       13 -1    0    0    0    0 +0.0000000000e+00 +0.0000000000e+00 +4.9999998884e+02 5.0000000000e+02 1.0566000000e-01 0.0000e+00 -1.0000e+00
      994 -1    0    0    0    0 -0.0000000000e+00 -0.0000000000e+00 +0.0000000000e+00 1.3100000000e+02 1.3100000000e+02 0.0000e+00 0.0000e+00
       13  1    1    2    0    0 -3.9741228085e+01 -7.6789479941e+01 +1.2148309970e+02 1.4911118038e+02 1.0566000000e-01 0.0000e+00 1.0000e+00
      994  1    1    2    0    0 +5.9992287690e+01 +1.0923130671e+02 +1.7343243455e+02 2.5054014110e+02 1.3100000000e+02 0.0000e+00 0.0000e+00
      997  1    1    2    0    0 -2.0251059606e+01 -3.2441826764e+01 +2.0508445459e+02 2.3134867852e+02 1.0000000000e+02 0.0000e+00 0.0000e+00
</event>
<event>
 5      1 +8.5651000e-08 1.52052100e+02 7.95774700e-02 6.35265100e-01
       13 -1    0    0    0    0 +0.0000000000e+00 +0.0000000000e+00 +4.9999998884e+02 5.0000000000e+02 1.0566000000e-01 0.0000e+00 1.0000e+00
      994 -1    0    0    0    0 -0.0000000000e+00 -0.0000000000e+00 +0.0000000000e+00 1.3100000000e+02 1.3100000000e+02 0.0000e+00 0.0000e+00
       13  1    1    2    0    0 +4.9857418806e+01 +5.5581321413e+01 +1.8019190423e+02 1.9504917076e+02 1.0566000000e-01 0.0000e+00 -1.0000e+00
      994  1    1    2    0    0 -5.1279504004e+01 +3.2922149640e+01 +9.0185982696e+01 1.7031725380e+02 1.3100000000e+02 0.0000e+00 0.0000e+00
      997  1    1    2    0    0 +1.4220851982e+00 -8.8503471053e+01 +2.2962210191e+02 2.6563357544e+02 1.0000000000e+02 0.0000e+00 0.0000e+00
</event>
<event>
 5      1 +8.5651000e-08 1.95730500e+02 7.95774700e-02 5.12134800e-01
       13 -1    0    0    0    0 +0.0000000000e+00 +0.0000000000e+00 +4.9999998884e+02 5.0000000000e+02 1.0566000000e-01 0.0000e+00 1.0000e+00
      994 -1    0    0    0    0 -0.0000000000e+00 -0.0000000000e+00 +0.0000000000e+00 1.3100000000e+02 1.3100000000e+02 0.0000e+00 0.0000e+00
       13  1    1    2    0    0 -3.0991458119e+01 -6.4216204292e+00 +3.6930497267e+01 4.8637233450e+01 1.0566000000e-01 0.0000e+00 -1.0000e+00
      994  1    1    2    0    0 +5.2184563146e+01 +1.3981534828e+01 +4.0267026689e+01 1.4731308627e+02 1.3100000000e+02 0.0000e+00 0.0000e+00
      997  1    1    2    0    0 -2.1193105027e+01 -7.5599143985e+00 +4.2280246488e+02 4.3504968028e+02 1.0000000000e+02 0.0000e+00 0.0000e+00
</event>
<event>
 5      1 +8.5651000e-08 1.92653400e+02 7.95774700e-02 5.18328700e-01
       13 -1    0    0    0    0 +0.0000000000e+00 +0.0000000000e+00 +4.9999998884e+02 5.0000000000e+02 1.0566000000e-01 0.0000e+00 -1.0000e+00
      994 -1    0    0    0    0 -0.0000000000e+00 -0.0000000000e+00 +0.0000000000e+00 1.3100000000e+02 1.3100000000e+02 0.0000e+00 0.0000e+00
       13  1    1    2    0    0 +6.1792116304e+00 -3.8785340821e+01 +1.1778450858e+02 1.2415992487e+02 1.0566000000e-01 0.0000e+00 1.0000e+00
      994  1    1    2    0    0 +1.2760017088e+01 +5.6534500848e+01 +3.9071807275e+01 1.4848088748e+02 1.3100000000e+02 0.0000e+00 0.0000e+00
      997  1    1    2    0    0 -1.8939228719e+01 -1.7749160027e+01 +3.4314367298e+02 3.5835918765e+02 1.0000000000e+02 0.0000e+00 0.0000e+00
</event>
<event>
 5      1 +8.5651000e-08 1.96364800e+02 7.95774700e-02 5.10889700e-01
       13 -1    0    0    0    0 +0.0000000000e+00 +0.0000000000e+00 +4.9999998884e+02 5.0000000000e+02 1.0566000000e-01 0.0000e+00 1.0000e+00
      994 -1    0    0    0    0 -0.0000000000e+00 -0.0000000000e+00 +0.0000000000e+00 1.3100000000e+02 1.3100000000e+02 0.0000e+00 0.0000e+00
       13  1    1    2    0    0 -1.9028698870e+01 -8.7701322571e+00 +1.6913739008e+01 2.6927538539e+01 1.0566000000e-01 0.0000e+00 -1.0000e+00
      994  1    1    2    0    0 +4.2004296795e+00 +1.8624178112e+01 +2.4827434999e+01 1.3469188969e+02 1.3100000000e+02 0.0000e+00 0.0000e+00
      997  1    1    2    0    0 +1.4828269191e+01 -9.8540458545e+00 +4.5825881483e+02 4.6938057177e+02 1.0000000000e+02 0.0000e+00 0.0000e+00
</event>
<event>
 5      1 +8.5651000e-08 1.99750100e+02 7.95774700e-02 5.04419800e-01
       13 -1    0    0    0    0 +0.0000000000e+00 +0.0000000000e+00 +4.9999998884e+02 5.0000000000e+02 1.0566000000e-01 0.0000e+00 1.0000e+00
      994 -1    0    0    0    0 -0.0000000000e+00 -0.0000000000e+00 +0.0000000000e+00 1.3100000000e+02 1.3100000000e+02 0.0000e+00 0.0000e+00
       13  1    1    2    0    0 -1.0540738652e+01 +1.0559973106e+01 +3.7481416979e+00 1.5384405531e+01 1.0566000000e-01 0.0000e+00 -1.0000e+00
      994  1    1    2    0    0 -3.2492528891e+01 +1.1352172646e+02 +1.4804442378e+02 2.3026310652e+02 1.3100000000e+02 0.0000e+00 0.0000e+00
      997  1    1    2    0    0 +4.3033267543e+01 -1.2408169957e+02 +3.4820742336e+02 3.8535248795e+02 1.0000000000e+02 0.0000e+00 0.0000e+00
</event>
<event>
 5      1 +8.5651000e-08 1.95511900e+02 7.95774700e-02 5.12566300e-01
       13 -1    0    0    0    0 +0.0000000000e+00 +0.0000000000e+00 +4.9999998884e+02 5.0000000000e+02 1.0566000000e-01 0.0000e+00 -1.0000e+00
      994 -1    0    0    0    0 -0.0000000000e+00 -0.0000000000e+00 +0.0000000000e+00 1.3100000000e+02 1.3100000000e+02 0.0000e+00 0.0000e+00
       13  1    1    2    0    0 -1.0485079869e+01 +3.7571601847e+00 +1.5616699969e+00 1.1247361012e+01 1.0566000000e-01 0.0000e+00 1.0000e+00
      994  1    1    2    0    0 -2.8103454410e+00 -2.6356250880e+01 +2.6031086575e+01 1.3616595562e+02 1.3100000000e+02 0.0000e+00 0.0000e+00
      997  1    1    2    0    0 +1.3295425310e+01 +2.2599090695e+01 +4.7240723226e+02 4.8358668337e+02 1.0000000000e+02 0.0000e+00 0.0000e+00
</event>
<event>
 5      1 +8.5651000e-08 1.93891000e+02 7.95774700e-02 5.15806200e-01
       13 -1    0    0    0    0 +0.0000000000e+00 +0.0000000000e+00 +4.9999998884e+02 5.0000000000e+02 1.0566000000e-01 0.0000e+00 1.0000e+00
      994 -1    0    0    0    0 -0.0000000000e+00 -0.0000000000e+00 +0.0000000000e+00 1.3100000000e+02 1.3100000000e+02 0.0000e+00 0.0000e+00
       13  1    1    2    0    0 +3.2117408240e+00 +2.0455178206e+01 +4.4827596456e+01 4.9378681256e+01 1.0566000000e-01 0.0000e+00 -1.0000e+00
      994  1    1    2    0    0 +1.1778214606e+01 -8.3539734954e-01 +1.8333029113e+01 1.3280257597e+02 1.3100000000e+02 0.0000e+00 0.0000e+00
      997  1    1    2    0    0 -1.4989955430e+01 -1.9619780856e+01 +4.3683936327e+02 4.4881874277e+02 1.0000000000e+02 0.0000e+00 0.0000e+00
</event>
<event>
 5      1 +8.5651000e-08 1.94502500e+02 7.95774700e-02 5.14575600e-01
       13 -1    0    0    0    0 +0.0000000000e+00 +0.0000000000e+00 +4.9999998884e+02 5.0000000000e+02 1.0566000000e-01 0.0000e+00 -1.0000e+00
      994 -1    0    0    0    0 -0.0000000000e+00 -0.0000000000e+00 +0.0000000000e+00 1.3100000000e+02 1.3100000000e+02 0.0000e+00 0.0000e+00
       13  1    1    2    0    0 -2.0604264797e+00 -2.0107453461e+01 +4.2760697749e+01 4.7297393987e+01 1.0566000000e-01 0.0000e+00 1.0000e+00
      994  1    1    2    0    0 +1.8921137126e+01 +6.0372996841e+00 +1.9228270467e+01 1.3388496855e+02 1.3100000000e+02 0.0000e+00 0.0000e+00
      997  1    1    2    0    0 -1.6860710647e+01 +1.4070153777e+01 +4.3801102062e+02 4.4981763747e+02 1.0000000000e+02 0.0000e+00 0.0000e+00
</event>
<event>
 5      1 +8.5651000e-08 1.95051900e+02 7.95774700e-02 5.13478600e-01
       13 -1    0    0    0    0 +0.0000000000e+00 +0.0000000000e+00 +4.9999998884e+02 5.0000000000e+02 1.0566000000e-01 0.0000e+00 1.0000e+00
      994 -1    0    0    0    0 -0.0000000000e+00 -0.0000000000e+00 +0.0000000000e+00 1.3100000000e+02 1.3100000000e+02 0.0000e+00 0.0000e+00
       13  1    1    2    0    0 -7.1655900940e+00 +1.1584551201e+01 +1.5692794429e+01 2.0780338518e+01 1.0566000000e-01 0.0000e+00 -1.0000e+00
      994  1    1    2    0    0 +1.5370878811e+01 -7.5152435433e+00 +1.8131451755e+01 1.3335101178e+02 1.3100000000e+02 0.0000e+00 0.0000e+00
      997  1    1    2    0    0 -8.2052887168e+00 -4.0693076573e+00 +4.6617574265e+02 4.7686864970e+02 1.0000000000e+02 0.0000e+00 0.0000e+00
</event>
<event>
 5      1 +8.5651000e-08 2.04758200e+02 7.95774700e-02 4.95355600e-01
       13 -1    0    0    0    0 +0.0000000000e+00 +0.0000000000e+00 +4.9999998884e+02 5.0000000000e+02 1.0566000000e-01 0.0000e+00 -1.0000e+00
      994 -1    0    0    0    0 -0.0000000000e+00 -0.0000000000e+00 +0.0000000000e+00 1.3100000000e+02 1.3100000000e+02 0.0000e+00 0.0000e+00
       13  1    1    2    0    0 +2.0013950828e+01 +2.3885038966e+01 +2.0177385858e+01 3.7124000031e+01 1.0566000000e-01 0.0000e+00 1.0000e+00
      994  1    1    2    0    0 -5.5996081337e+00 -2.1377367776e+01 +3.4538957353e+01 1.3726721036e+02 1.3100000000e+02 0.0000e+00 0.0000e+00
      997  1    1    2    0    0 -1.4414342695e+01 -2.5076711904e+00 +4.4528364562e+02 4.5660878961e+02 1.0000000000e+02 0.0000e+00 0.0000e+00
</event>
<event>
 5      1 +8.5651000e-08 1.93779300e+02 7.95774700e-02 5.16032100e-01
       13 -1    0    0    0    0 +0.0000000000e+00 +0.0000000000e+00 +4.9999998884e+02 5.0000000000e+02 1.0566000000e-01 0.0000e+00 1.0000e+00
      994 -1    0    0    0    0 -0.0000000000e+00 -0.0000000000e+00 +0.0000000000e+00 1.3100000000e+02 1.3100000000e+02 0.0000e+00 0.0000e+00
       13  1    1    2    0    0 +1.8263201775e+01 +6.7202273566e+00 +1.7078754833e+01 2.5892103535e+01 1.0566000000e-01 0.0000e+00 -1.0000e+00
      994  1    1    2    0    0 -2.8920867040e+01 -1.0971628452e+01 +2.5821389287e+01 1.3705669384e+02 1.3100000000e+02 0.0000e+00 0.0000e+00
      997  1    1    2    0    0 +1.0657665265e+01 +4.2514010958e+00 +4.5709984472e+02 4.6805120263e+02 1.0000000000e+02 0.0000e+00 0.0000e+00
</event>
<event>
 5      1 +8.5651000e-08 2.03155300e+02 7.95774700e-02 4.98193900e-01
       13 -1    0    0    0    0 +0.0000000000e+00 +0.0000000000e+00 +4.9999998884e+02 5.0000000000e+02 1.0566000000e-01 0.0000e+00 -1.0000e+00
      994 -1    0    0    0    0 -0.0000000000e+00 -0.0000000000e+00 +0.0000000000e+00 1.3100000000e+02 1.3100000000e+02 0.0000e+00 0.0000e+00
       13  1    1    2    0    0 -3.2895097815e+01 -7.1196512605e-01 +2.8762044205e+01 4.3701953108e+01 1.0566000000e-01 0.0000e+00 1.0000e+00
      994  1    1    2    0    0 +1.4303864671e+01 -3.5122655354e-01 +3.0885580860e+01 1.3535007577e+02 1.3100000000e+02 0.0000e+00 0.0000e+00
      997  1    1    2    0    0 +1.8591233143e+01 +1.0631916796e+00 +4.4035236377e+02 4.5194797113e+02 1.0000000000e+02 0.0000e+00 0.0000e+00
</event>
<event>
 5      1 +8.5651000e-08 1.97405000e+02 7.95774700e-02 5.08870800e-01
       13 -1    0    0    0    0 +0.0000000000e+00 +0.0000000000e+00 +4.9999998884e+02 5.0000000000e+02 1.0566000000e-01 0.0000e+00 1.0000e+00
      994 -1    0    0    0    0 -0.0000000000e+00 -0.0000000000e+00 +0.0000000000e+00 1.3100000000e+02 1.3100000000e+02 0.0000e+00 0.0000e+00
       13  1    1    2    0    0 +1.1802106848e+01 +1.0744978370e+01 +6.7068134569e+01 6.8941207741e+01 1.0566000000e-01 0.0000e+00 -1.0000e+00
      994  1    1    2    0    0 -7.8962057891e+00 -7.7394966448e+00 +1.5020064104e+01 1.3232101949e+02 1.3100000000e+02 0.0000e+00 0.0000e+00
      997  1    1    2    0    0 -3.9059010594e+00 -3.0054817249e+00 +4.1791179016e+02 4.2973777277e+02 1.0000000000e+02 0.0000e+00 0.0000e+00
</event>
<event>
 5      1 +8.5651000e-08 2.04809900e+02 7.95774700e-02 4.95264900e-01
       13 -1    0    0    0    0 +0.0000000000e+00 +0.0000000000e+00 +4.9999998884e+02 5.0000000000e+02 1.0566000000e-01 0.0000e+00 -1.0000e+00
      994 -1    0    0    0    0 -0.0000000000e+00 -0.0000000000e+00 +0.0000000000e+00 1.3100000000e+02 1.3100000000e+02 0.0000e+00 0.0000e+00
       13  1    1    2    0    0 -5.7063117174e+00 +1.1779971116e+01 -3.1765115375e+00 1.3469636316e+01 1.0566000000e-01 0.0000e+00 1.0000e+00
      994  1    1    2    0    0 -1.4371375929e+00 +1.4673156620e+01 +3.2779209072e+01 1.3584124351e+02 1.3100000000e+02 0.0000e+00 0.0000e+00
      997  1    1    2    0    0 +7.1434493103e+00 -2.6453127736e+01 +4.7039729130e+02 4.8168912018e+02 1.0000000000e+02 0.0000e+00 0.0000e+00
</event>
<event>
 5      1 +8.5651000e-08 2.08041300e+02 7.95774700e-02 4.89716400e-01
       13 -1    0    0    0    0 +0.0000000000e+00 +0.0000000000e+00 +4.9999998884e+02 5.0000000000e+02 1.0566000000e-01 0.0000e+00 1.0000e+00
      994 -1    0    0    0    0 -0.0000000000e+00 -0.0000000000e+00 +0.0000000000e+00 1.3100000000e+02 1.3100000000e+02 0.0000e+00 0.0000e+00
       13  1    1    2    0    0 +2.4478860951e+01 +1.8096839133e+01 +1.6440750785e+01 3.4597972057e+01 1.0566000000e-01 0.0000e+00 -1.0000e+00
      994  1    1    2    0    0 +1.3024031963e+01 -1.1685536207e+01 +3.7058119728e+01 1.3726063311e+02 1.3100000000e+02 0.0000e+00 0.0000e+00
      997  1    1    2    0    0 -3.7502892914e+01 -6.4113029261e+00 +4.4650111832e+02 4.5914139483e+02 1.0000000000e+02 0.0000e+00 0.0000e+00
</event>
<event>
 5      1 +8.5651000e-08 1.93468400e+02 7.95774700e-02 5.16662800e-01
       13 -1    0    0    0    0 +0.0000000000e+00 +0.0000000000e+00 +4.9999998884e+02 5.0000000000e+02 1.0566000000e-01 0.0000e+00 1.0000e+00
      994 -1    0    0    0    0 -0.0000000000e+00 -0.0000000000e+00 +0.0000000000e+00 1.3100000000e+02 1.3100000000e+02 0.0000e+00 0.0000e+00
       13  1    1    2    0    0 +2.0047070130e+01 +6.7381883867e+00 +3.3684725529e+01 3.9773862039e+01 1.0566000000e-01 0.0000e+00 -1.0000e+00
      994  1    1    2    0    0 -1.8594772050e+01 -5.9405277892e+00 +2.0128024642e+01 1.3396713326e+02 1.3100000000e+02 0.0000e+00 0.0000e+00
      997  1    1    2    0    0 -1.4522980797e+00 -7.9766059748e-01 +4.4618723867e+02 4.5725900470e+02 1.0000000000e+02 0.0000e+00 0.0000e+00
</event>
<event>
 5      1 +8.5651000e-08 1.96994700e+02 7.95774700e-02 5.09663800e-01
       13 -1    0    0    0    0 +0.0000000000e+00 +0.0000000000e+00 +4.9999998884e+02 5.0000000000e+02 1.0566000000e-01 0.0000e+00 1.0000e+00
      994 -1    0    0    0    0 -0.0000000000e+00 -0.0000000000e+00 +0.0000000000e+00 1.3100000000e+02 1.3100000000e+02 0.0000e+00 0.0000e+00
       13  1    1    2    0    0 -4.5439144272e+01 -2.6506378014e+01 +8.9309856743e+01 1.0365117261e+02 1.0566000000e-01 0.0000e+00 -1.0000e+00
      994  1    1    2    0    0 +5.5729508699e+01 +5.5589998384e+01 +6.4846150920e+01 1.6601821993e+02 1.3100000000e+02 0.0000e+00 0.0000e+00
      997  1    1    2    0    0 -1.0290364428e+01 -2.9083620370e+01 +3.4584398117e+02 3.6133060746e+02 1.0000000000e+02 0.0000e+00 0.0000e+00
</event>
<event>
 5      1 +8.5651000e-08 1.43016400e+02 7.95774700e-02 6.75794800e-01
       13 -1    0    0    0    0 +0.0000000000e+00 +0.0000000000e+00 +4.9999998884e+02 5.0000000000e+02 1.0566000000e-01 0.0000e+00 -1.0000e+00
      994 -1    0    0    0    0 -0.0000000000e+00 -0.0000000000e+00 +0.0000000000e+00 1.3100000000e+02 1.3100000000e+02 0.0000e+00 0.0000e+00
       13  1    1    2    0    0 -5.1878417865e+01 -1.3115331703e+01 -4.4573759744e+00 5.3696010377e+01 1.0566000000e-01 0.0000e+00 1.0000e+00
      994  1    1    2    0    0 -3.5737802424e+01 +1.4916698545e+01 +1.7483619769e+02 2.2187472691e+02 1.3100000000e+02 0.0000e+00 0.0000e+00
      997  1    1    2    0    0 +8.7616220289e+01 -1.8013668423e+00 +3.2962116712e+02 3.5542926272e+02 1.0000000000e+02 0.0000e+00 0.0000e+00
</event>
<event>
 5      1 +8.5651000e-08 2.22589300e+02 7.95774700e-02 4.67223200e-01
       13 -1    0    0    0    0 +0.0000000000e+00 +0.0000000000e+00 +4.9999998884e+02 5.0000000000e+02 1.0566000000e-01 0.0000e+00 -1.0000e+00
      994 -1    0    0    0    0 -0.0000000000e+00 -0.0000000000e+00 +0.0000000000e+00 1.3100000000e+02 1.3100000000e+02 0.0000e+00 0.0000e+00
       13  1    1    2    0    0 -8.4580976255e+00 -2.6969183174e+01 -2.7291579778e+00 2.8396051202e+01 1.0566000000e-01 0.0000e+00 1.0000e+00
      994  1    1    2    0    0 -5.4998403580e+01 -1.3475292531e+01 +8.4061572252e+01 1.6563138542e+02 1.3100000000e+02 0.0000e+00 0.0000e+00
      997  1    1    2    0    0 +6.3456501205e+01 +4.0444475705e+01 +4.1866757456e+02 4.3697256338e+02 1.0000000000e+02 0.0000e+00 0.0000e+00
</event>
<event>
 5      1 +8.5651000e-08 1.96434600e+02 7.95774700e-02 5.10753400e-01
       13 -1    0    0    0    0 +0.0000000000e+00 +0.0000000000e+00 +4.9999998884e+02 5.0000000000e+02 1.0566000000e-01 0.0000e+00 -1.0000e+00
      994 -1    0    0    0    0 -0.0000000000e+00 -0.0000000000e+00 +0.0000000000e+00 1.3100000000e+02 1.3100000000e+02 0.0000e+00 0.0000e+00
       13  1    1    2    0    0 -2.0434905039e+01 -1.5097907831e+01 +2.6581101884e+01 3.6770889386e+01 1.0566000000e-01 0.0000e+00 1.0000e+00
      994  1    1    2    0    0 +1.0695049728e+01 +1.9148266940e+01 +2.5610552276e+01 1.3526988062e+02 1.3100000000e+02 0.0000e+00 0.0000e+00
      997  1    1    2    0    0 +9.7398553108e+00 -4.0503591089e+00 +4.4780833468e+02 4.5895922999e+02 1.0000000000e+02 0.0000e+00 0.0000e+00
</event>
<event>
 5      1 +8.5651000e-08 1.97577300e+02 7.95774700e-02 5.08539000e-01
       13 -1    0    0    0    0 +0.0000000000e+00 +0.0000000000e+00 +4.9999998884e+02 5.0000000000e+02 1.0566000000e-01 0.0000e+00 -1.0000e+00
      994 -1    0    0    0    0 -0.0000000000e+00 -0.0000000000e+00 +0.0000000000e+00 1.3100000000e+02 1.3100000000e+02 0.0000e+00 0.0000e+00
       13  1    1    2    0    0 +2.5059275917e+01 -1.6262021744e+00 +5.5213455192e+01 6.0655986030e+01 1.0566000000e-01 0.0000e+00 1.0000e+00
      994  1    1    2    0    0 -8.6449510390e+01 +2.6312876119e+01 +6.4703002213e+01 1.7179453947e+02 1.3100000000e+02 0.0000e+00 0.0000e+00
      997  1    1    2    0    0 +6.1390234474e+01 -2.4686673944e+01 +3.8008353143e+02 3.9854947450e+02 1.0000000000e+02 0.0000e+00 0.0000e+00
</event>
<event>
 5      1 +8.5651000e-08 1.93019600e+02 7.95774700e-02 5.17577700e-01
       13 -1    0    0    0    0 +0.0000000000e+00 +0.0000000000e+00 +4.9999998884e+02 5.0000000000e+02 1.0566000000e-01 0.0000e+00 -1.0000e+00
      994 -1    0    0    0    0 -0.0000000000e+00 -0.0000000000e+00 +0.0000000000e+00 1.3100000000e+02 1.3100000000e+02 0.0000e+00 0.0000e+00
       13  1    1    2    0    0 +1.4875873402e+00 +2.0692215230e+01 +4.9073104901e+01 5.3278151956e+01 1.0566000000e-01 0.0000e+00 1.0000e+00
      994  1    1    2    0    0 -1.0159673503e+01 +2.0500440491e+01 +2.1388337235e+01 1.3469204875e+02 1.3100000000e+02 0.0000e+00 0.0000e+00
      997  1    1    2    0    0 +8.6720861629e+00 -4.1192655721e+01 +4.2953854670e+02 4.4302979930e+02 1.0000000000e+02 0.0000e+00 0.0000e+00
</event>
<event>
 5      1 +8.5651000e-08 1.93094100e+02 7.95774700e-02 5.17425600e-01
       13 -1    0    0    0    0 +0.0000000000e+00 +0.0000000000e+00 +4.9999998884e+02 5.0000000000e+02 1.0566000000e-01 0.0000e+00 -1.0000e+00
      994 -1    0    0    0    0 -0.0000000000e+00 -0.0000000000e+00 +0.0000000000e+00 1.3100000000e+02 1.3100000000e+02 0.0000e+00 0.0000e+00
       13  1    1    2    0    0 -1.6671036081e+01 +2.5549521856e+01 +1.4372498147e+02 1.4692713492e+02 1.0566000000e-01 0.0000e+00 1.0000e+00
      994  1    1    2    0    0 +3.3447963931e+01 -1.4031019645e+01 +2.6002234821e+01 1.3839346812e+02 1.3100000000e+02 0.0000e+00 0.0000e+00
      997  1    1    2    0    0 -1.6776927850e+01 -1.1518502210e+01 +3.3027277254e+02 3.4567939696e+02 1.0000000000e+02 0.0000e+00 0.0000e+00
</event>
<event>
 5      1 +8.5651000e-08 2.05361100e+02 7.95774700e-02 4.94302700e-01
       13 -1    0    0    0    0 +0.0000000000e+00 +0.0000000000e+00 +4.9999998884e+02 5.0000000000e+02 1.0566000000e-01 0.0000e+00 -1.0000e+00
      994 -1    0    0    0    0 -0.0000000000e+00 -0.0000000000e+00 +0.0000000000e+00 1.3100000000e+02 1.3100000000e+02 0.0000e+00 0.0000e+00
       13  1    1    2    0    0 +3.8835099429e+00 -1.6095311741e+01 -1.7722568853e+00 1.6652110018e+01 1.0566000000e-01 0.0000e+00 1.0000e+00
      994  1    1    2    0    0 -2.4429780939e+01 +2.1310212014e+01 +3.9077048071e+01 1.4049539145e+02 1.3100000000e+02 0.0000e+00 0.0000e+00
      997  1    1    2    0    0 +2.0546270996e+01 -5.2149002727e+00 +4.6269519765e+02 4.7385249853e+02 1.0000000000e+02 0.0000e+00 0.0000e+00
</event>
<event>
 5      1 +8.5651000e-08 2.15028000e+02 7.95774700e-02 4.78438500e-01
       13 -1    0    0    0    0 +0.0000000000e+00 +0.0000000000e+00 +4.9999998884e+02 5.0000000000e+02 1.0566000000e-01 0.0000e+00 1.0000e+00
      994 -1    0    0    0    0 -0.0000000000e+00 -0.0000000000e+00 +0.0000000000e+00 1.3100000000e+02 1.3100000000e+02 0.0000e+00 0.0000e+00
       13  1    1    2    0    0 -3.1336690806e+01 +3.6514485721e+01 +3.4076128825e+01 5.8961763694e+01 1.0566000000e-01 0.0000e+00 -1.0000e+00
      994  1    1    2    0    0 +2.0905174501e+01 -1.4316683465e+01 +4.8287418513e+01 1.4189668260e+02 1.3100000000e+02 0.0000e+00 0.0000e+00
      997  1    1    2    0    0 +1.0431516305e+01 -2.2197802256e+01 +4.1763644150e+02 4.3014155371e+02 1.0000000000e+02 0.0000e+00 0.0000e+00
</event>
<event>
 5      1 +8.5651000e-08 1.96887800e+02 7.95774700e-02 5.09871200e-01
       13 -1    0    0    0    0 +0.0000000000e+00 +0.0000000000e+00 +4.9999998884e+02 5.0000000000e+02 1.0566000000e-01 0.0000e+00 -1.0000e+00
      994 -1    0    0    0    0 -0.0000000000e+00 -0.0000000000e+00 +0.0000000000e+00 1.3100000000e+02 1.3100000000e+02 0.0000e+00 0.0000e+00
       13  1    1    2    0    0 +1.5200359915e+01 -2.8149115523e+01 +7.6938999082e+01 8.3324932583e+01 1.0566000000e-01 0.0000e+00 1.0000e+00
      994  1    1    2    0    0 -3.3514437875e+01 +8.8766697084e+01 +7.1733305962e+01 1.7694465587e+02 1.3100000000e+02 0.0000e+00 0.0000e+00
      997  1    1    2    0    0 +1.8314077960e+01 -6.0617581561e+01 +3.5132768379e+02 3.7073041155e+02 1.0000000000e+02 0.0000e+00 0.0000e+00
</event>
<event>
 5      1 +8.5651000e-08 1.93225200e+02 7.95774700e-02 5.17157800e-01
       13 -1    0    0    0    0 +0.0000000000e+00 +0.0000000000e+00 +4.9999998884e+02 5.0000000000e+02 1.0566000000e-01 0.0000e+00 1.0000e+00
      994 -1    0    0    0    0 -0.0000000000e+00 -0.0000000000e+00 +0.0000000000e+00 1.3100000000e+02 1.3100000000e+02 0.0000e+00 0.0000e+00
       13  1    1    2    0    0 -1.2629311464e+01 +9.9358268819e+00 +1.6594240772e+01 2.3099786897e+01 1.0566000000e-01 0.0000e+00 -1.0000e+00
      994  1    1    2    0    0 +9.4552638855e+00 -1.1876703941e+01 +1.9483594648e+01 1.3330817144e+02 1.3100000000e+02 0.0000e+00 0.0000e+00
      997  1    1    2    0    0 +3.1740475783e+00 +1.9408770593e+00 +4.6392215342e+02 4.7459204166e+02 1.0000000000e+02 0.0000e+00 0.0000e+00
</event>
<event>
 5      1 +8.5651000e-08 1.57955800e+02 7.95774700e-02 6.12646400e-01
       13 -1    0    0    0    0 +0.0000000000e+00 +0.0000000000e+00 +4.9999998884e+02 5.0000000000e+02 1.0566000000e-01 0.0000e+00 1.0000e+00
      994 -1    0    0    0    0 -0.0000000000e+00 -0.0000000000e+00 +0.0000000000e+00 1.3100000000e+02 1.3100000000e+02 0.0000e+00 0.0000e+00
       13  1    1    2    0    0 +4.6298109196e+00 +8.6181174385e+01 +3.6394229640e+01 9.3665260810e+01 1.0566000000e-01 0.0000e+00 -1.0000e+00
      994  1    1    2    0    0 -2.5447823067e+00 -9.7298131682e+00 +3.2247493122e+02 3.4821290390e+02 1.3100000000e+02 0.0000e+00 0.0000e+00
      997  1    1    2    0    0 -2.0850286129e+00 -7.6451361216e+01 +1.4113082798e+02 1.8912183529e+02 1.0000000000e+02 0.0000e+00 0.0000e+00
</event>
<event>
 5      1 +8.5651000e-08 2.10173600e+02 7.95774700e-02 4.86173800e-01
       13 -1    0    0    0    0 +0.0000000000e+00 +0.0000000000e+00 +4.9999998884e+02 5.0000000000e+02 1.0566000000e-01 0.0000e+00 1.0000e+00
      994 -1    0    0    0    0 -0.0000000000e+00 -0.0000000000e+00 +0.0000000000e+00 1.3100000000e+02 1.3100000000e+02 0.0000e+00 0.0000e+00
       13  1    1    2    0    0 -3.2883513638e+01 -4.9006564417e+01 +6.5340807239e+01 8.8047720469e+01 1.0566000000e-01 0.0000e+00 -1.0000e+00
      994  1    1    2    0    0 +4.0191198504e+01 +3.1219644381e+01 +5.6750262705e+01 1.5156381808e+02 1.3100000000e+02 0.0000e+00 0.0000e+00
      997  1    1    2    0    0 -7.3076848664e+00 +1.7786920037e+01 +3.7790891889e+02 3.9138846146e+02 1.0000000000e+02 0.0000e+00 0.0000e+00
</event>
<event>
 5      1 +8.5651000e-08 2.11301000e+02 7.95774700e-02 4.84337300e-01
       13 -1    0    0    0    0 +0.0000000000e+00 +0.0000000000e+00 +4.9999998884e+02 5.0000000000e+02 1.0566000000e-01 0.0000e+00 1.0000e+00
      994 -1    0    0    0    0 -0.0000000000e+00 -0.0000000000e+00 +0.0000000000e+00 1.3100000000e+02 1.3100000000e+02 0.0000e+00 0.0000e+00
       13  1    1    2    0    0 +6.7658218834e+01 +1.1381509473e+01 +7.1714360558e+01 9.9247841326e+01 1.0566000000e-01 0.0000e+00 -1.0000e+00
      994  1    1    2    0    0 -6.7095445528e+01 -2.7955763518e+01 +8.1691873969e+01 1.7063963724e+02 1.3100000000e+02 0.0000e+00 0.0000e+00
      997  1    1    2    0    0 -5.6277330596e-01 +1.6574254045e+01 +3.4659375431e+02 3.6111252143e+02 1.0000000000e+02 0.0000e+00 0.0000e+00
</event>
<event>
 5      1 +8.5651000e-08 2.03719500e+02 7.95774700e-02 4.97188300e-01
       13 -1    0    0    0    0 +0.0000000000e+00 +0.0000000000e+00 +4.9999998884e+02 5.0000000000e+02 1.0566000000e-01 0.0000e+00 1.0000e+00
      994 -1    0    0    0    0 -0.0000000000e+00 -0.0000000000e+00 +0.0000000000e+00 1.3100000000e+02 1.3100000000e+02 0.0000e+00 0.0000e+00
       13  1    1    2    0    0 +3.7414142969e+01 -7.5879971036e+00 +3.3590156361e+01 5.0849833456e+01 1.0566000000e-01 0.0000e+00 -1.0000e+00
      994  1    1    2    0    0 -3.1257945200e+01 +3.6644620974e+01 +4.5950595337e+01 1.4694333805e+02 1.3100000000e+02 0.0000e+00 0.0000e+00
      997  1    1    2    0    0 -6.1561977685e+00 -2.9056623870e+01 +4.2045923714e+02 4.3320682850e+02 1.0000000000e+02 0.0000e+00 0.0000e+00
</event>
<event>
 5      1 +8.5651000e-08 1.94048000e+02 7.95774700e-02 5.15489300e-01
       13 -1    0    0    0    0 +0.0000000000e+00 +0.0000000000e+00 +4.9999998884e+02 5.0000000000e+02 1.0566000000e-01 0.0000e+00 1.0000e+00
      994 -1    0    0    0    0 -0.0000000000e+00 -0.0000000000e+00 +0.0000000000e+00 1.3100000000e+02 1.3100000000e+02 0.0000e+00 0.0000e+00
       13  1    1    2    0    0 +1.6002079114e+01 +1.2143792773e+01 +3.1682543669e+01 3.7514436904e+01 1.0566000000e-01 0.0000e+00 -1.0000e+00
      994  1    1    2    0    0 -5.7707582120e+00 -3.0783706491e+01 +2.3072481022e+01 1.3665386060e+02 1.3100000000e+02 0.0000e+00 0.0000e+00
      997  1    1    2    0    0 -1.0231320902e+01 +1.8639913718e+01 +4.4524496415e+02 4.5683170250e+02 1.0000000000e+02 0.0000e+00 0.0000e+00
</event>
<event>
 5      1 +8.5651000e-08 1.98463400e+02 7.95774700e-02 5.06845000e-01
       13 -1    0    0    0    0 +0.0000000000e+00 +0.0000000000e+00 +4.9999998884e+02 5.0000000000e+02 1.0566000000e-01 0.0000e+00 1.0000e+00
      994 -1    0    0    0    0 -0.0000000000e+00 -0.0000000000e+00 +0.0000000000e+00 1.3100000000e+02 1.3100000000e+02 0.0000e+00 0.0000e+00
       13  1    1    2    0    0 -8.3446936600e+00 +1.0522443953e+01 +6.7050128223e+01 6.8381917184e+01 1.0566000000e-01 0.0000e+00 -1.0000e+00
      994  1    1    2    0    0 +1.9038489173e+00 -2.7127482429e+01 +1.7501147426e+01 1.3493263173e+02 1.3100000000e+02 0.0000e+00 0.0000e+00
      997  1    1    2    0    0 +6.4408447427e+00 +1.6605038475e+01 +4.1544871319e+02 4.2768545109e+02 1.0000000000e+02 0.0000e+00 0.0000e+00
</event>
<event>
 5      1 +8.5651000e-08 1.41304500e+02 7.95774700e-02 6.84446400e-01
       13 -1    0    0    0    0 +0.0000000000e+00 +0.0000000000e+00 +4.9999998884e+02 5.0000000000e+02 1.0566000000e-01 0.0000e+00 1.0000e+00
      994 -1    0    0    0    0 -0.0000000000e+00 -0.0000000000e+00 +0.0000000000e+00 1.3100000000e+02 1.3100000000e+02 0.0000e+00 0.0000e+00
       13  1    1    2    0    0 +2.6473967713e+01 +9.9059591834e+00 -2.1410219892e+01 3.5459944637e+01 1.0566000000e-01 0.0000e+00 -1.0000e+00
      994  1    1    2    0    0 -1.9999898323e+01 +4.3006054895e+00 +1.1125394645e+02 1.7308070875e+02 1.3100000000e+02 0.0000e+00 0.0000e+00
      997  1    1    2    0    0 -6.4740693894e+00 -1.4206564673e+01 +4.1015626228e+02 4.2245934662e+02 1.0000000000e+02 0.0000e+00 0.0000e+00
</event>
<event>
 5      1 +8.5651000e-08 1.97164300e+02 7.95774700e-02 5.09335600e-01
       13 -1    0    0    0    0 +0.0000000000e+00 +0.0000000000e+00 +4.9999998884e+02 5.0000000000e+02 1.0566000000e-01 0.0000e+00 -1.0000e+00
      994 -1    0    0    0    0 -0.0000000000e+00 -0.0000000000e+00 +0.0000000000e+00 1.3100000000e+02 1.3100000000e+02 0.0000e+00 0.0000e+00
       13  1    1    2    0    0 +1.6240887346e+01 +1.4578376440e+00 +6.7195350971e+01 6.9145629425e+01 1.0566000000e-01 0.0000e+00 1.0000e+00
      994  1    1    2    0    0 -9.2147919766e+00 +7.7605646095e+00 +1.5364391031e+01 1.3244698285e+02 1.3100000000e+02 0.0000e+00 0.0000e+00
      997  1    1    2    0    0 -7.0260953696e+00 -9.2184022535e+00 +4.1744024683e+02 4.2940738773e+02 1.0000000000e+02 0.0000e+00 0.0000e+00
</event>
<event>
 5      1 +8.5651000e-08 1.92810600e+02 7.95774700e-02 5.18005900e-01
       13 -1    0    0    0    0 +0.0000000000e+00 +0.0000000000e+00 +4.9999998884e+02 5.0000000000e+02 1.0566000000e-01 0.0000e+00 1.0000e+00
      994 -1    0    0    0    0 -0.0000000000e+00 -0.0000000000e+00 +0.0000000000e+00 1.3100000000e+02 1.3100000000e+02 0.0000e+00 0.0000e+00
       13  1    1    2    0    0 +1.4916332478e+01 -6.6461583774e+00 +2.8581998590e+01 3.2918235117e+01 1.0566000000e-01 0.0000e+00 -1.0000e+00
      994  1    1    2    0    0 +4.6809040517e+01 -8.7224018283e+00 +3.2066746533e+01 1.4302602141e+02 1.3100000000e+02 0.0000e+00 0.0000e+00
      997  1    1    2    0    0 -6.1725372994e+01 +1.5368560206e+01 +4.3935124371e+02 4.5505574347e+02 1.0000000000e+02 0.0000e+00 0.0000e+00
</event>
<event>
 5      1 +8.5651000e-08 1.92774800e+02 7.95774700e-02 5.18079200e-01
       13 -1    0    0    0    0 +0.0000000000e+00 +0.0000000000e+00 +4.9999998884e+02 5.0000000000e+02 1.0566000000e-01 0.0000e+00 -1.0000e+00
      994 -1    0    0    0    0 -0.0000000000e+00 -0.0000000000e+00 +0.0000000000e+00 1.3100000000e+02 1.3100000000e+02 0.0000e+00 0.0000e+00
       13  1    1    2    0    0 -4.1773654535e+00 +2.5438170308e+01 +3.4346996353e+01 4.2945060406e+01 1.0566000000e-01 0.0000e+00 1.0000e+00
      994  1    1    2    0    0 -2.8629213218e+01 -5.1950502869e+01 +4.0686755105e+01 1.4944864884e+02 1.3100000000e+02 0.0000e+00 0.0000e+00
      997  1    1    2    0    0 +3.2806578671e+01 +2.6512332561e+01 +4.2496623738e+02 4.3860629076e+02 1.0000000000e+02 0.0000e+00 0.0000e+00
</event>
<event>
 5      1 +8.5651000e-08 2.02886000e+02 7.95774700e-02 4.98676500e-01
       13 -1    0    0    0    0 +0.0000000000e+00 +0.0000000000e+00 +4.9999998884e+02 5.0000000000e+02 1.0566000000e-01 0.0000e+00 -1.0000e+00
      994 -1    0    0    0    0 -0.0000000000e+00 -0.0000000000e+00 +0.0000000000e+00 1.3100000000e+02 1.3100000000e+02 0.0000e+00 0.0000e+00
       13  1    1    2    0    0 +1.0649067222e+01 +1.4353203606e+01 +2.7949018879e+00 1.8089768573e+01 1.0566000000e-01 0.0000e+00 1.0000e+00
      994  1    1    2    0    0 -9.1635971899e+00 +1.9213913915e+00 +2.9832268894e+01 1.3467972203e+02 1.3100000000e+02 0.0000e+00 0.0000e+00
      997  1    1    2    0    0 -1.4854700317e+00 -1.6274594997e+01 +4.6737281805e+02 4.7823050940e+02 1.0000000000e+02 0.0000e+00 0.0000e+00
</event>
<event>
 5      1 +8.5651000e-08 1.93286800e+02 7.95774700e-02 5.17032300e-01
       13 -1    0    0    0    0 +0.0000000000e+00 +0.0000000000e+00 +4.9999998884e+02 5.0000000000e+02 1.0566000000e-01 0.0000e+00 -1.0000e+00
      994 -1    0    0    0    0 -0.0000000000e+00 -0.0000000000e+00 +0.0000000000e+00 1.3100000000e+02 1.3100000000e+02 0.0000e+00 0.0000e+00
       13  1    1    2    0    0 +6.3203663389e+00 +3.5402448921e+01 +1.4168157081e+02 1.4617441326e+02 1.0566000000e-01 0.0000e+00 1.0000e+00
      994  1    1    2    0    0 -7.6163035243e+00 -2.8231888788e+01 +2.4714842629e+01 1.3648029554e+02 1.3100000000e+02 0.0000e+00 0.0000e+00
      997  1    1    2    0    0 +1.2959371854e+00 -7.1705601334e+00 +3.3360357540e+02 3.4834529121e+02 1.0000000000e+02 0.0000e+00 0.0000e+00
</event>
<event>
 5      1 +8.5651000e-08 1.92487400e+02 7.95774700e-02 5.18670300e-01
       13 -1    0    0    0    0 +0.0000000000e+00 +0.0000000000e+00 +4.9999998884e+02 5.0000000000e+02 1.0566000000e-01 0.0000e+00 1.0000e+00
      994 -1    0    0    0    0 -0.0000000000e+00 -0.0000000000e+00 +0.0000000000e+00 1.3100000000e+02 1.3100000000e+02 0.0000e+00 0.0000e+00
       13  1    1    2    0    0 -1.1902288090e+01 +2.7769072912e+01 +1.4454348427e+02 1.4766724715e+02 1.0566000000e-01 0.0000e+00 -1.0000e+00
      994  1    1    2    0    0 -5.5770597425e+00 -2.4728331658e+01 +2.2604883717e+01 1.3533135169e+02 1.3100000000e+02 0.0000e+00 0.0000e+00
      997  1    1    2    0    0 +1.7479347832e+01 -3.0407412541e+00 +3.3285162085e+02 3.4800140116e+02 1.0000000000e+02 0.0000e+00 0.0000e+00
</event>
<event>
 5      1 +8.5651000e-08 1.92523600e+02 7.95774700e-02 5.18595700e-01
       13 -1    0    0    0    0 +0.0000000000e+00 +0.0000000000e+00 +4.9999998884e+02 5.0000000000e+02 1.0566000000e-01 0.0000e+00 -1.0000e+00
      994 -1    0    0    0    0 -0.0000000000e+00 -0.0000000000e+00 +0.0000000000e+00 1.3100000000e+02 1.3100000000e+02 0.0000e+00 0.0000e+00
       13  1    1    2    0    0 -9.4580349855e+00 -4.4075760718e+00 +4.0745849894e+00 1.1202435427e+01 1.0566000000e-01 0.0000e+00 1.0000e+00
      994  1    1    2    0    0 +5.2595658903e-02 +1.4459329755e+01 +2.0023498688e+01 1.3330797232e+02 1.3100000000e+02 0.0000e+00 0.0000e+00
      997  1    1    2    0    0 +9.4054393266e+00 -1.0051753683e+01 +4.7590190516e+02 4.8648959226e+02 1.0000000000e+02 0.0000e+00 0.0000e+00
</event>
<event>
 5      1 +8.5651000e-08 1.93160700e+02 7.95774700e-02 5.17289600e-01
       13 -1    0    0    0    0 +0.0000000000e+00 +0.0000000000e+00 +4.9999998884e+02 5.0000000000e+02 1.0566000000e-01 0.0000e+00 -1.0000e+00
      994 -1    0    0    0    0 -0.0000000000e+00 -0.0000000000e+00 +0.0000000000e+00 1.3100000000e+02 1.3100000000e+02 0.0000e+00 0.0000e+00
       13  1    1    2    0    0 +5.1204392864e+00 +3.1004670709e+01 +7.4272074503e+01 8.0646517093e+01 1.0566000000e-01 0.0000e+00 1.0000e+00
      994  1    1    2    0    0 +4.2360768824e+01 -5.2791132724e+01 +4.6367297156e+01 1.5457122848e+02 1.3100000000e+02 0.0000e+00 0.0000e+00
      997  1    1    2    0    0 -4.7481208110e+01 +2.1786462015e+01 +3.7936061718e+02 3.9578225442e+02 1.0000000000e+02 0.0000e+00 0.0000e+00
</event>
<event>
 5      1 +8.5651000e-08 2.03618500e+02 7.95774700e-02 4.97367800e-01
       13 -1    0    0    0    0 +0.0000000000e+00 +0.0000000000e+00 +4.9999998884e+02 5.0000000000e+02 1.0566000000e-01 0.0000e+00 -1.0000e+00
      994 -1    0    0    0    0 -0.0000000000e+00 -0.0000000000e+00 +0.0000000000e+00 1.3100000000e+02 1.3100000000e+02 0.0000e+00 0.0000e+00
       13  1    1    2    0    0 -2.2950060986e+01 -9.4466651115e+00 +1.1358228728e+01 2.7294052555e+01 1.0566000000e-01 0.0000e+00 1.0000e+00
      994  1    1    2    0    0 +1.6316193015e+01 -5.7733589606e+00 +3.2013153521e+01 1.3596099377e+02 1.3100000000e+02 0.0000e+00 0.0000e+00
      997  1    1    2    0    0 +6.6338679705e+00 +1.5220024072e+01 +4.5662860659e+02 4.6774495368e+02 1.0000000000e+02 0.0000e+00 0.0000e+00
</event>
<event>
 5      1 +8.5651000e-08 1.51583900e+02 7.95774700e-02 6.37177000e-01
       13 -1    0    0    0    0 +0.0000000000e+00 +0.0000000000e+00 +4.9999998884e+02 5.0000000000e+02 1.0566000000e-01 0.0000e+00 -1.0000e+00
      994 -1    0    0    0    0 -0.0000000000e+00 -0.0000000000e+00 +0.0000000000e+00 1.3100000000e+02 1.3100000000e+02 0.0000e+00 0.0000e+00
       13  1    1    2    0    0 -4.3660208507e+01 -5.2272977929e+01 +8.0995051716e+00 6.8587835484e+01 1.0566000000e-01 0.0000e+00 1.0000e+00
      994  1    1    2    0    0 +2.0783961326e+01 +5.6211004065e+01 +1.6141964421e+02 2.1635376485e+02 1.3100000000e+02 0.0000e+00 0.0000e+00
      997  1    1    2    0    0 +2.2876247181e+01 -3.9380261365e+00 +3.3048083945e+02 3.4605839967e+02 1.0000000000e+02 0.0000e+00 0.0000e+00
</event>
<event>
 5      1 +8.5651000e-08 2.04936000e+02 7.95774700e-02 4.95044300e-01
       13 -1    0    0    0    0 +0.0000000000e+00 +0.0000000000e+00 +4.9999998884e+02 5.0000000000e+02 1.0566000000e-01 0.0000e+00 1.0000e+00
      994 -1    0    0    0    0 -0.0000000000e+00 -0.0000000000e+00 +0.0000000000e+00 1.3100000000e+02 1.3100000000e+02 0.0000e+00 0.0000e+00
       13  1    1    2    0    0 +1.2031078053e+01 +6.2567736247e+00 -3.1700502956e+00 1.3926752608e+01 1.0566000000e-01 0.0000e+00 -1.0000e+00
      994  1    1    2    0    0 -8.8053500901e+00 +2.7752485307e+01 +3.7180732391e+01 1.3925207895e+02 1.3100000000e+02 0.0000e+00 0.0000e+00
      997  1    1    2    0    0 -3.2257279625e+00 -3.4009258931e+01 +4.6598930674e+02 4.7782116844e+02 1.0000000000e+02 0.0000e+00 0.0000e+00
</event>
<event>
 5      1 +8.5651000e-08 2.07594000e+02 7.95774700e-02 4.90471200e-01
       13 -1    0    0    0    0 +0.0000000000e+00 +0.0000000000e+00 +4.9999998884e+02 5.0000000000e+02 1.0566000000e-01 0.0000e+00 1.0000e+00
      994 -1    0    0    0    0 -0.0000000000e+00 -0.0000000000e+00 +0.0000000000e+00 1.3100000000e+02 1.3100000000e+02 0.0000e+00 0.0000e+00
       13  1    1    2    0    0 -2.9016164130e+01 -1.9835765867e+01 +2.2991845652e+01 4.2000375223e+01 1.0566000000e-01 0.0000e+00 -1.0000e+00
      994  1    1    2    0    0 +1.9716195977e+01 +5.0893947863e+00 +3.7291017110e+01 1.3771801001e+02 1.3100000000e+02 0.0000e+00 0.0000e+00
      997  1    1    2    0    0 +9.2999681525e+00 +1.4746371081e+01 +4.3971712607e+02 4.5128161477e+02 1.0000000000e+02 0.0000e+00 0.0000e+00
</event>
<event>
 5      1 +8.5651000e-08 2.02498200e+02 7.95774700e-02 4.99374200e-01
       13 -1    0    0    0    0 +0.0000000000e+00 +0.0000000000e+00 +4.9999998884e+02 5.0000000000e+02 1.0566000000e-01 0.0000e+00 -1.0000e+00
      994 -1    0    0    0    0 -0.0000000000e+00 -0.0000000000e+00 +0.0000000000e+00 1.3100000000e+02 1.3100000000e+02 0.0000e+00 0.0000e+00
       13  1    1    2    0    0 -2.0652013709e+01 -3.9569051005e+01 +3.1319200837e+01 5.4526314499e+01 1.0566000000e-01 0.0000e+00 1.0000e+00
      994  1    1    2    0    0 +5.1569918216e+00 +9.8035025138e+01 +1.0501540615e+02 1.9449086418e+02 1.3100000000e+02 0.0000e+00 0.0000e+00
      997  1    1    2    0    0 +1.5495021887e+01 -5.8465974132e+01 +3.6366538185e+02 3.8198282133e+02 1.0000000000e+02 0.0000e+00 0.0000e+00
</event>
<event>
 5      1 +8.5651000e-08 1.98263100e+02 7.95774700e-02 5.07226200e-01
       13 -1    0    0    0    0 +0.0000000000e+00 +0.0000000000e+00 +4.9999998884e+02 5.0000000000e+02 1.0566000000e-01 0.0000e+00 -1.0000e+00
      994 -1    0    0    0    0 -0.0000000000e+00 -0.0000000000e+00 +0.0000000000e+00 1.3100000000e+02 1.3100000000e+02 0.0000e+00 0.0000e+00
       13  1    1    2    0    0 +6.2870031283e+00 -4.2307368876e+01 +1.2194209624e+02 1.2922587152e+02 1.0566000000e-01 0.0000e+00 1.0000e+00
      994  1    1    2    0    0 +5.5549977530e+00 +1.3760448379e+01 +2.5856613436e+01 1.3434944138e+02 1.3100000000e+02 0.0000e+00 0.0000e+00
      997  1    1    2    0    0 -1.1842000881e+01 +2.8546920497e+01 +3.5220127916e+02 3.6742468711e+02 1.0000000000e+02 0.0000e+00 0.0000e+00
</event>
<event>
 5      1 +8.5651000e-08 1.95166300e+02 7.95774700e-02 5.13251200e-01
       13 -1    0    0    0    0 +0.0000000000e+00 +0.0000000000e+00 +4.9999998884e+02 5.0000000000e+02 1.0566000000e-01 0.0000e+00 1.0000e+00
      994 -1    0    0    0    0 -0.0000000000e+00 -0.0000000000e+00 +0.0000000000e+00 1.3100000000e+02 1.3100000000e+02 0.0000e+00 0.0000e+00
       13  1    1    2    0    0 -6.1291173554e+00 -1.8244465248e+01 +1.4250287985e+01 2.3948036735e+01 1.0566000000e-01 0.0000e+00 -1.0000e+00
      994  1    1    2    0    0 -7.4423202860e+00 +2.8037986707e+01 +2.6528400244e+01 1.3677087720e+02 1.3100000000e+02 0.0000e+00 0.0000e+00
      997  1    1    2    0    0 +1.3571437641e+01 -9.7935214584e+00 +4.5922130061e+02 4.7028108607e+02 1.0000000000e+02 0.0000e+00 0.0000e+00
</event>
<event>
 5      1 +8.5651000e-08 1.99356300e+02 7.95774700e-02 5.05157800e-01
       13 -1    0    0    0    0 +0.0000000000e+00 +0.0000000000e+00 +4.9999998884e+02 5.0000000000e+02 1.0566000000e-01 0.0000e+00 -1.0000e+00
      994 -1    0    0    0    0 -0.0000000000e+00 -0.0000000000e+00 +0.0000000000e+00 1.3100000000e+02 1.3100000000e+02 0.0000e+00 0.0000e+00
       13  1    1    2    0    0 +1.5867095726e+00 +3.2893062400e+01 +5.4044955403e+01 6.3287752132e+01 1.0566000000e-01 0.0000e+00 1.0000e+00
      994  1    1    2    0    0 -7.0773148532e+01 +1.1072569536e+01 +6.0415173829e+01 1.6106655015e+02 1.3100000000e+02 0.0000e+00 0.0000e+00
      997  1    1    2    0    0 +6.9186438960e+01 -4.3965631935e+01 +3.8553985960e+02 4.0664569772e+02 1.0000000000e+02 0.0000e+00 0.0000e+00
</event>
<event>
 5      1 +8.5651000e-08 1.94458800e+02 7.95774700e-02 5.14663200e-01
       13 -1    0    0    0    0 +0.0000000000e+00 +0.0000000000e+00 +4.9999998884e+02 5.0000000000e+02 1.0566000000e-01 0.0000e+00 1.0000e+00
      994 -1    0    0    0    0 -0.0000000000e+00 -0.0000000000e+00 +0.0000000000e+00 1.3100000000e+02 1.3100000000e+02 0.0000e+00 0.0000e+00
       13  1    1    2    0    0 -2.6147862226e+01 +5.9963007636e+00 +3.1553152105e+01 4.1415925604e+01 1.0566000000e-01 0.0000e+00 -1.0000e+00
      994  1    1    2    0    0 +1.8953090313e+01 -9.7613687024e+01 +8.9945061444e+01 1.8745336915e+02 1.3100000000e+02 0.0000e+00 0.0000e+00
      997  1    1    2    0    0 +7.1947719135e+00 +9.1617386260e+01 +3.7850177529e+02 4.0213070525e+02 1.0000000000e+02 0.0000e+00 0.0000e+00
</event>
<event>
 5      1 +8.5651000e-08 1.96483400e+02 7.95774700e-02 5.10658100e-01
       13 -1    0    0    0    0 +0.0000000000e+00 +0.0000000000e+00 +4.9999998884e+02 5.0000000000e+02 1.0566000000e-01 0.0000e+00 1.0000e+00
      994 -1    0    0    0    0 -0.0000000000e+00 -0.0000000000e+00 +0.0000000000e+00 1.3100000000e+02 1.3100000000e+02 0.0000e+00 0.0000e+00
       13  1    1    2    0    0 -1.6411802852e+00 -1.7255937297e+01 +3.9835295254e+01 4.3443328104e+01 1.0566000000e-01 0.0000e+00 -1.0000e+00
      994  1    1    2    0    0 -6.6014369363e+00 +2.1136086563e+01 +1.7926993889e+01 1.3406226253e+02 1.3100000000e+02 0.0000e+00 0.0000e+00
      997  1    1    2    0    0 +8.2426172215e+00 -3.8801492660e+00 +4.4223769969e+02 4.5349440937e+02 1.0000000000e+02 0.0000e+00 0.0000e+00
</event>
<event>
 5      1 +8.5651000e-08 1.94907400e+02 7.95774700e-02 5.13766200e-01
       13 -1    0    0    0    0 +0.0000000000e+00 +0.0000000000e+00 +4.9999998884e+02 5.0000000000e+02 1.0566000000e-01 0.0000e+00 -1.0000e+00
      994 -1    0    0    0    0 -0.0000000000e+00 -0.0000000000e+00 +0.0000000000e+00 1.3100000000e+02 1.3100000000e+02 0.0000e+00 0.0000e+00
       13  1    1    2    0    0 -1.6396505544e+01 -2.1694118785e+01 +1.2489077760e+02 1.2781704768e+02 1.0566000000e-01 0.0000e+00 1.0000e+00
      994  1    1    2    0    0 +1.3096832773e+01 +3.3422978725e+01 +2.4032862657e+01 1.3793912071e+02 1.3100000000e+02 0.0000e+00 0.0000e+00
      997  1    1    2    0    0 +3.2996727712e+00 -1.1728859939e+01 +3.5107634858e+02 3.6524383161e+02 1.0000000000e+02 0.0000e+00 0.0000e+00
</event>
<event>
 5      1 +8.5651000e-08 2.00851800e+02 7.95774700e-02 5.02375700e-01
       13 -1    0    0    0    0 +0.0000000000e+00 +0.0000000000e+00 +4.9999998884e+02 5.0000000000e+02 1.0566000000e-01 0.0000e+00 -1.0000e+00
      994 -1    0    0    0    0 -0.0000000000e+00 -0.0000000000e+00 +0.0000000000e+00 1.3100000000e+02 1.3100000000e+02 0.0000e+00 0.0000e+00
       13  1    1    2    0    0 -5.1473056796e+01 +1.2607067019e+01 +8.4095078115e+01 9.9400236629e+01 1.0566000000e-01 0.0000e+00 1.0000e+00
      994  1    1    2    0    0 +6.4599413316e+01 +2.4145319391e+01 +5.9797149303e+01 1.5966458503e+02 1.3100000000e+02 0.0000e+00 0.0000e+00
      997  1    1    2    0    0 -1.3126356520e+01 -3.6752386410e+01 +3.5610776142e+02 3.7193517834e+02 1.0000000000e+02 0.0000e+00 0.0000e+00
</event>
<event>
 5      1 +8.5651000e-08 1.98165500e+02 7.95774700e-02 5.07412300e-01
       13 -1    0    0    0    0 +0.0000000000e+00 +0.0000000000e+00 +4.9999998884e+02 5.0000000000e+02 1.0566000000e-01 0.0000e+00 -1.0000e+00
      994 -1    0    0    0    0 -0.0000000000e+00 -0.0000000000e+00 +0.0000000000e+00 1.3100000000e+02 1.3100000000e+02 0.0000e+00 0.0000e+00
       13  1    1    2    0    0 +4.5886182096e+00 +1.3048985991e+01 +4.4498563501e+01 4.6598978210e+01 1.0566000000e-01 0.0000e+00 1.0000e+00
      994  1    1    2    0    0 -4.8453337494e+00 -1.7898858706e+01 +1.5567321244e+01 1.3321857188e+02 1.3100000000e+02 0.0000e+00 0.0000e+00
      997  1    1    2    0    0 +2.5671553976e-01 +4.8498727147e+00 +4.3993410409e+02 4.5118244991e+02 1.0000000000e+02 0.0000e+00 0.0000e+00
</event>
<event>
 5      1 +8.5651000e-08 1.94365700e+02 7.95774700e-02 5.14849900e-01
       13 -1    0    0    0    0 +0.0000000000e+00 +0.0000000000e+00 +4.9999998884e+02 5.0000000000e+02 1.0566000000e-01 0.0000e+00 1.0000e+00
      994 -1    0    0    0    0 -0.0000000000e+00 -0.0000000000e+00 +0.0000000000e+00 1.3100000000e+02 1.3100000000e+02 0.0000e+00 0.0000e+00
       13  1    1    2    0    0 -1.2521711293e+01 +1.3911383446e+01 +3.8765200730e+01 4.3047320413e+01 1.0566000000e-01 0.0000e+00 -1.0000e+00
      994  1    1    2    0    0 -5.1902856719e+01 -5.1102262694e+01 +4.9628034204e+01 1.5789011865e+02 1.3100000000e+02 0.0000e+00 0.0000e+00
      997  1    1    2    0    0 +6.4424568012e+01 +3.7190879247e+01 +4.1160675390e+02 4.3006256094e+02 1.0000000000e+02 0.0000e+00 0.0000e+00
</event>
<event>
 5      1 +8.5651000e-08 2.16960300e+02 7.95774700e-02 4.75479900e-01
       13 -1    0    0    0    0 +0.0000000000e+00 +0.0000000000e+00 +4.9999998884e+02 5.0000000000e+02 1.0566000000e-01 0.0000e+00 -1.0000e+00
      994 -1    0    0    0    0 -0.0000000000e+00 -0.0000000000e+00 +0.0000000000e+00 1.3100000000e+02 1.3100000000e+02 0.0000e+00 0.0000e+00
       13  1    1    2    0    0 -6.4794329705e+01 +1.4298102022e+00 +9.7497214120e+01 1.1707291508e+02 1.0566000000e-01 0.0000e+00 1.0000e+00
      994  1    1    2    0    0 +6.0758178141e+00 +2.4477055458e+01 +5.0895124677e+01 1.4278429718e+02 1.3100000000e+02 0.0000e+00 0.0000e+00
      997  1    1    2    0    0 +5.8718511891e+01 -2.5906865660e+01 +3.5160765004e+02 3.7114278774e+02 1.0000000000e+02 0.0000e+00 0.0000e+00
</event>
<event>
 5      1 +8.5651000e-08 1.93636400e+02 7.95774700e-02 5.16321700e-01
       13 -1    0    0    0    0 +0.0000000000e+00 +0.0000000000e+00 +4.9999998884e+02 5.0000000000e+02 1.0566000000e-01 0.0000e+00 -1.0000e+00
      994 -1    0    0    0    0 -0.0000000000e+00 -0.0000000000e+00 +0.0000000000e+00 1.3100000000e+02 1.3100000000e+02 0.0000e+00 0.0000e+00
       13  1    1    2    0    0 +1.8287864947e+01 +3.4183774081e+01 +8.9903764783e+01 9.7906457912e+01 1.0566000000e-01 0.0000e+00 1.0000e+00
      994  1    1    2    0    0 -2.8152792979e+01 -3.6894015364e+01 +3.3016931512e+01 1.4284560157e+02 1.3100000000e+02 0.0000e+00 0.0000e+00
      997  1    1    2    0    0 +9.8649280324e+00 +2.7102412833e+00 +3.7707929254e+02 3.9024794051e+02 1.0000000000e+02 0.0000e+00 0.0000e+00
</event>
<event>
 5      1 +8.5651000e-08 1.96746700e+02 7.95774700e-02 5.10145300e-01
       13 -1    0    0    0    0 +0.0000000000e+00 +0.0000000000e+00 +4.9999998884e+02 5.0000000000e+02 1.0566000000e-01 0.0000e+00 -1.0000e+00
      994 -1    0    0    0    0 -0.0000000000e+00 -0.0000000000e+00 +0.0000000000e+00 1.3100000000e+02 1.3100000000e+02 0.0000e+00 0.0000e+00
       13  1    1    2    0    0 -6.9222832092e-02 -1.5799364906e+01 +4.4156486900e+01 4.6898094019e+01 1.0566000000e-01 0.0000e+00 1.0000e+00
      994  1    1    2    0    0 -7.9021482331e+00 +4.0525911097e+00 +1.5370757840e+01 1.3219730571e+02 1.3100000000e+02 0.0000e+00 0.0000e+00
      997  1    1    2    0    0 +7.9713710652e+00 +1.1746773796e+01 +4.4047274410e+02 4.5190460027e+02 1.0000000000e+02 0.0000e+00 0.0000e+00
</event>
<event>
 5      1 +8.5651000e-08 2.10762900e+02 7.95774700e-02 4.85210800e-01
       13 -1    0    0    0    0 +0.0000000000e+00 +0.0000000000e+00 +4.9999998884e+02 5.0000000000e+02 1.0566000000e-01 0.0000e+00 1.0000e+00
      994 -1    0    0    0    0 -0.0000000000e+00 -0.0000000000e+00 +0.0000000000e+00 1.3100000000e+02 1.3100000000e+02 0.0000e+00 0.0000e+00
       13  1    1    2    0    0 -2.7625514768e+00 +6.3102014197e+01 +1.0705489432e+02 1.2429906455e+02 1.0566000000e-01 0.0000e+00 -1.0000e+00
      994  1    1    2    0    0 +7.5060023953e+00 -2.2408768827e+01 +4.2136374213e+01 1.3962437833e+02 1.3100000000e+02 0.0000e+00 0.0000e+00
      997  1    1    2    0    0 -4.7434509185e+00 -4.0693245370e+01 +3.5080872030e+02 3.6707655712e+02 1.0000000000e+02 0.0000e+00 0.0000e+00
</event>
<event>
 5      1 +8.5651000e-08 2.07429300e+02 7.95774700e-02 4.90750400e-01
       13 -1    0    0    0    0 +0.0000000000e+00 +0.0000000000e+00 +4.9999998884e+02 5.0000000000e+02 1.0566000000e-01 0.0000e+00 -1.0000e+00
      994 -1    0    0    0    0 -0.0000000000e+00 -0.0000000000e+00 +0.0000000000e+00 1.3100000000e+02 1.3100000000e+02 0.0000e+00 0.0000e+00
       13  1    1    2    0    0 +6.8785138966e+00 +2.1190351735e+01 +4.9468760436e+00 2.2821649956e+01 1.0566000000e-01 0.0000e+00 1.0000e+00
      994  1    1    2    0    0 +4.7914575201e+00 +1.5448843290e+01 +3.6038720074e+01 1.3682621886e+02 1.3100000000e+02 0.0000e+00 0.0000e+00
      997  1    1    2    0    0 -1.1669971417e+01 -3.6639195025e+01 +4.5901439272e+02 4.7135213118e+02 1.0000000000e+02 0.0000e+00 0.0000e+00
</event>
<event>
 5      1 +8.5651000e-08 1.92808700e+02 7.95774700e-02 5.18009700e-01
       13 -1    0    0    0    0 +0.0000000000e+00 +0.0000000000e+00 +4.9999998884e+02 5.0000000000e+02 1.0566000000e-01 0.0000e+00 1.0000e+00
      994 -1    0    0    0    0 -0.0000000000e+00 -0.0000000000e+00 +0.0000000000e+00 1.3100000000e+02 1.3100000000e+02 0.0000e+00 0.0000e+00
       13  1    1    2    0    0 -3.0542712648e+01 -1.5413635257e+01 +8.4267032266e+01 9.0947134857e+01 1.0566000000e-01 0.0000e+00 -1.0000e+00
      994  1    1    2    0    0 +2.2786993328e+01 +3.5655107290e+01 +2.9888944945e+01 1.4087186650e+02 1.3100000000e+02 0.0000e+00 0.0000e+00
      997  1    1    2    0    0 +7.7557193195e+00 -2.0241472033e+01 +3.8584401162e+02 3.9918099864e+02 1.0000000000e+02 0.0000e+00 0.0000e+00
</event>
<event>
 5      1 +8.5651000e-08 2.02811300e+02 7.95774700e-02 4.98810500e-01
       13 -1    0    0    0    0 +0.0000000000e+00 +0.0000000000e+00 +4.9999998884e+02 5.0000000000e+02 1.0566000000e-01 0.0000e+00 1.0000e+00
      994 -1    0    0    0    0 -0.0000000000e+00 -0.0000000000e+00 +0.0000000000e+00 1.3100000000e+02 1.3100000000e+02 0.0000e+00 0.0000e+00
       13  1    1    2    0    0 +5.2192155898e+00 +2.8962027208e+01 +2.8447200946e+01 4.0930351050e+01 1.0566000000e-01 0.0000e+00 -1.0000e+00
      994  1    1    2    0    0 +6.9937286780e+00 +2.0756724617e+01 +3.2316025366e+01 1.3669337714e+02 1.3100000000e+02 0.0000e+00 0.0000e+00
      997  1    1    2    0    0 -1.2212944268e+01 -4.9718751825e+01 +4.3923676252e+02 4.5337627181e+02 1.0000000000e+02 0.0000e+00 0.0000e+00
</event>
<event>
 5      1 +8.5651000e-08 1.93950500e+02 7.95774700e-02 5.15686100e-01
       13 -1    0    0    0    0 +0.0000000000e+00 +0.0000000000e+00 +4.9999998884e+02 5.0000000000e+02 1.0566000000e-01 0.0000e+00 1.0000e+00
      994 -1    0    0    0    0 -0.0000000000e+00 -0.0000000000e+00 +0.0000000000e+00 1.3100000000e+02 1.3100000000e+02 0.0000e+00 0.0000e+00
       13  1    1    2    0    0 +2.9764315943e+01 +1.1697578970e+01 +8.8861079560e+01 9.4440724700e+01 1.0566000000e-01 0.0000e+00 -1.0000e+00
      994  1    1    2    0    0 -2.4410035531e+00 -2.2055915550e+01 +2.3202162590e+01 1.3487684107e+02 1.3100000000e+02 0.0000e+00 0.0000e+00
      997  1    1    2    0    0 -2.7323312390e+01 +1.0358336580e+01 +3.8793674669e+02 4.0168243423e+02 1.0000000000e+02 0.0000e+00 0.0000e+00
</event>
<event>
 5      1 +8.5651000e-08 1.98666900e+02 7.95774700e-02 5.06458700e-01
       13 -1    0    0    0    0 +0.0000000000e+00 +0.0000000000e+00 +4.9999998884e+02 5.0000000000e+02 1.0566000000e-01 0.0000e+00 1.0000e+00
      994 -1    0    0    0    0 -0.0000000000e+00 -0.0000000000e+00 +0.0000000000e+00 1.3100000000e+02 1.3100000000e+02 0.0000e+00 0.0000e+00
       13  1    1    2    0    0 -1.2823487153e+01 -5.2160600502e+01 +8.8249240955e+01 1.0331074369e+02 1.0566000000e-01 0.0000e+00 -1.0000e+00
      994  1    1    2    0    0 +9.1704169430e+00 +6.9131173291e+01 +5.7449793265e+01 1.5913734450e+02 1.3100000000e+02 0.0000e+00 0.0000e+00
      997  1    1    2    0    0 +3.6530702099e+00 -1.6970572789e+01 +3.5430095462e+02 3.6855191182e+02 1.0000000000e+02 0.0000e+00 0.0000e+00
</event>
<event>
 5      1 +8.5651000e-08 1.93397700e+02 7.95774700e-02 5.16806500e-01
       13 -1    0    0    0    0 +0.0000000000e+00 +0.0000000000e+00 +4.9999998884e+02 5.0000000000e+02 1.0566000000e-01 0.0000e+00 -1.0000e+00
      994 -1    0    0    0    0 -0.0000000000e+00 -0.0000000000e+00 +0.0000000000e+00 1.3100000000e+02 1.3100000000e+02 0.0000e+00 0.0000e+00
       13  1    1    2    0    0 -9.9462955085e+00 -8.4298020886e+00 +6.1280451958e+00 1.4406750486e+01 1.0566000000e-01 0.0000e+00 1.0000e+00
      994  1    1    2    0    0 +3.5596727779e+01 -1.2061049458e+01 +2.8196064697e+01 1.3917116802e+02 1.3100000000e+02 0.0000e+00 0.0000e+00
      997  1    1    2    0    0 -2.5650432270e+01 +2.0490851547e+01 +4.6567587894e+02 4.7742208150e+02 1.0000000000e+02 0.0000e+00 0.0000e+00
</event>
<event>
 5      1 +8.5651000e-08 2.00238100e+02 7.95774700e-02 5.03510700e-01
       13 -1    0    0    0    0 +0.0000000000e+00 +0.0000000000e+00 +4.9999998884e+02 5.0000000000e+02 1.0566000000e-01 0.0000e+00 1.0000e+00
      994 -1    0    0    0    0 -0.0000000000e+00 -0.0000000000e+00 +0.0000000000e+00 1.3100000000e+02 1.3100000000e+02 0.0000e+00 0.0000e+00
       13  1    1    2    0    0 +1.5198205036e+01 -8.8684250072e+00 +5.0121145364e+00 1.8296635062e+01 1.0566000000e-01 0.0000e+00 -1.0000e+00
      994  1    1    2    0    0 -1.8343892566e+01 -1.9137387029e+01 +3.0970038375e+01 1.3719650598e+02 1.3100000000e+02 0.0000e+00 0.0000e+00
      997  1    1    2    0    0 +3.1456875298e+00 +2.8005812036e+01 +4.6401783592e+02 4.7550685896e+02 1.0000000000e+02 0.0000e+00 0.0000e+00
</event>
<event>
 5      1 +8.5651000e-08 2.03537000e+02 7.95774700e-02 4.97512800e-01
       13 -1    0    0    0    0 +0.0000000000e+00 +0.0000000000e+00 +4.9999998884e+02 5.0000000000e+02 1.0566000000e-01 0.0000e+00 1.0000e+00
      994 -1    0    0    0    0 -0.0000000000e+00 -0.0000000000e+00 +0.0000000000e+00 1.3100000000e+02 1.3100000000e+02 0.0000e+00 0.0000e+00
       13  1    1    2    0    0 +2.5620078399e+01 +1.1299581094e+01 +1.9738830067e+01 3.4259327584e+01 1.0566000000e-01 0.0000e+00 -1.0000e+00
      994  1    1    2    0    0 +2.8292736803e+00 +3.3215446934e+00 +3.0081727510e+01 1.3448028770e+02 1.3100000000e+02 0.0000e+00 0.0000e+00
      997  1    1    2    0    0 -2.8449352079e+01 -1.4621125787e+01 +4.5017943126e+02 4.6226038472e+02 1.0000000000e+02 0.0000e+00 0.0000e+00
</event>
<event>
 5      1 +8.5651000e-08 1.99007800e+02 7.95774700e-02 5.05814000e-01
       13 -1    0    0    0    0 +0.0000000000e+00 +0.0000000000e+00 +4.9999998884e+02 5.0000000000e+02 1.0566000000e-01 0.0000e+00 1.0000e+00
      994 -1    0    0    0    0 -0.0000000000e+00 -0.0000000000e+00 +0.0000000000e+00 1.3100000000e+02 1.3100000000e+02 0.0000e+00 0.0000e+00
       13  1    1    2    0    0 +2.9707782470e+00 -1.8371275110e+01 +6.3783677087e+00 1.9672925843e+01 1.0566000000e-01 0.0000e+00 -1.0000e+00
      994  1    1    2    0    0 -1.8194331018e+01 +2.9199716986e+01 +3.2728899546e+01 1.3934072635e+02 1.3100000000e+02 0.0000e+00 0.0000e+00
      997  1    1    2    0    0 +1.5223552771e+01 -1.0828441875e+01 +4.6089272158e+02 4.7198634781e+02 1.0000000000e+02 0.0000e+00 0.0000e+00
</event>
<event>
 5      1 +8.5651000e-08 1.99060200e+02 7.95774700e-02 5.05715200e-01
       13 -1    0    0    0    0 +0.0000000000e+00 +0.0000000000e+00 +4.9999998884e+02 5.0000000000e+02 1.0566000000e-01 0.0000e+00 -1.0000e+00
      994 -1    0    0    0    0 -0.0000000000e+00 -0.0000000000e+00 +0.0000000000e+00 1.3100000000e+02 1.3100000000e+02 0.0000e+00 0.0000e+00
       13  1    1    2    0    0 -2.9956132881e-01 -1.1341478230e+01 +3.0158684925e+01 3.2222295168e+01 1.0566000000e-01 0.0000e+00 1.0000e+00
      994  1    1    2    0    0 +4.6004389809e+00 +3.4373555980e+01 +1.9543128262e+01 1.3691471525e+02 1.3100000000e+02 0.0000e+00 0.0000e+00
      997  1    1    2    0    0 -4.3008776521e+00 -2.3032077750e+01 +4.5029817565e+02 4.6186298958e+02 1.0000000000e+02 0.0000e+00 0.0000e+00
</event>
<event>
 5      1 +8.5651000e-08 2.07168700e+02 7.95774700e-02 4.91192900e-01
       13 -1    0    0    0    0 +0.0000000000e+00 +0.0000000000e+00 +4.9999998884e+02 5.0000000000e+02 1.0566000000e-01 0.0000e+00 1.0000e+00
      994 -1    0    0    0    0 -0.0000000000e+00 -0.0000000000e+00 +0.0000000000e+00 1.3100000000e+02 1.3100000000e+02 0.0000e+00 0.0000e+00
       13  1    1    2    0    0 -6.8443202819e+00 -1.1237324457e+01 -5.7394239801e+00 1.4355289364e+01 1.0566000000e-01 0.0000e+00 -1.0000e+00
      994  1    1    2    0    0 +2.9665376468e+01 +1.7917876589e+01 +4.2318184870e+01 1.4196095813e+02 1.3100000000e+02 0.0000e+00 0.0000e+00
      997  1    1    2    0    0 -2.2821056186e+01 -6.6805521316e+00 +4.6342122795e+02 4.7468375251e+02 1.0000000000e+02 0.0000e+00 0.0000e+00
</event>
<event>
 5      1 +8.5651000e-08 1.95755400e+02 7.95774700e-02 5.12085800e-01
       13 -1    0    0    0    0 +0.0000000000e+00 +0.0000000000e+00 +4.9999998884e+02 5.0000000000e+02 1.0566000000e-01 0.0000e+00 1.0000e+00
      994 -1    0    0    0    0 -0.0000000000e+00 -0.0000000000e+00 +0.0000000000e+00 1.3100000000e+02 1.3100000000e+02 0.0000e+00 0.0000e+00
       13  1    1    2    0    0 +1.5925808626e+01 -8.3472187325e+00 +6.5787952581e+01 6.8200977337e+01 1.0566000000e-01 0.0000e+00 -1.0000e+00
      994  1    1    2    0    0 +1.4495439487e+01 +1.5918224109e+01 +1.8451049936e+01 1.3403338714e+02 1.3100000000e+02 0.0000e+00 0.0000e+00
      997  1    1    2    0    0 -3.0421248113e+01 -7.5710053767e+00 +4.1576098632e+02 4.2876563552e+02 1.0000000000e+02 0.0000e+00 0.0000e+00
</event>
<event>
 5      1 +8.5651000e-08 1.93108800e+02 7.95774700e-02 5.17395600e-01
       13 -1    0    0    0    0 +0.0000000000e+00 +0.0000000000e+00 +4.9999998884e+02 5.0000000000e+02 1.0566000000e-01 0.0000e+00 1.0000e+00
      994 -1    0    0    0    0 -0.0000000000e+00 -0.0000000000e+00 +0.0000000000e+00 1.3100000000e+02 1.3100000000e+02 0.0000e+00 0.0000e+00
       13  1    1    2    0    0 +2.8223703964e+01 -5.4127443018e+00 +5.6068659618e+01 6.3004611115e+01 1.0566000000e-01 0.0000e+00 -1.0000e+00
      994  1    1    2    0    0 -2.4313724565e+01 -4.6962068754e+00 +2.3095279658e+01 1.3530559302e+02 1.3100000000e+02 0.0000e+00 0.0000e+00
      997  1    1    2    0    0 -3.9099793994e+00 +1.0108951177e+01 +4.2083604956e+02 4.3268979586e+02 1.0000000000e+02 0.0000e+00 0.0000e+00
</event>
<event>
 5      1 +8.5651000e-08 1.96324400e+02 7.95774700e-02 5.10968800e-01
       13 -1    0    0    0    0 +0.0000000000e+00 +0.0000000000e+00 +4.9999998884e+02 5.0000000000e+02 1.0566000000e-01 0.0000e+00 1.0000e+00
      994 -1    0    0    0    0 -0.0000000000e+00 -0.0000000000e+00 +0.0000000000e+00 1.3100000000e+02 1.3100000000e+02 0.0000e+00 0.0000e+00
       13  1    1    2    0    0 +1.5790329127e+01 +2.2497161011e+01 +3.6663422072e+01 4.5822204547e+01 1.0566000000e-01 0.0000e+00 -1.0000e+00
      994  1    1    2    0    0 -3.4431566365e+00 -8.7031448592e+00 +2.3103540955e+01 1.3335056679e+02 1.3100000000e+02 0.0000e+00 0.0000e+00
      997  1    1    2    0    0 -1.2347172490e+01 -1.3794016152e+01 +4.4023302581e+02 4.5182722866e+02 1.0000000000e+02 0.0000e+00 0.0000e+00
</event>
<event>
 5      1 +8.5651000e-08 1.92819400e+02 7.95774700e-02 5.17987900e-01
       13 -1    0    0    0    0 +0.0000000000e+00 +0.0000000000e+00 +4.9999998884e+02 5.0000000000e+02 1.0566000000e-01 0.0000e+00 -1.0000e+00
      994 -1    0    0    0    0 -0.0000000000e+00 -0.0000000000e+00 +0.0000000000e+00 1.3100000000e+02 1.3100000000e+02 0.0000e+00 0.0000e+00
       13  1    1    2    0    0 +1.8802364931e+01 -2.0368598793e+01 +7.4032572790e+01 7.9052145712e+01 1.0566000000e-01 0.0000e+00 1.0000e+00
      994  1    1    2    0    0 -6.7722388328e+00 +1.0815202041e+01 +1.9473837641e+01 1.3305285479e+02 1.3100000000e+02 0.0000e+00 0.0000e+00
      997  1    1    2    0    0 -1.2030126099e+01 +9.5533967528e+00 +4.0649357841e+02 4.1889499950e+02 1.0000000000e+02 0.0000e+00 0.0000e+00
</event>
<event>
 5      1 +8.5651000e-08 1.97054200e+02 7.95774700e-02 5.09548500e-01
       13 -1    0    0    0    0 +0.0000000000e+00 +0.0000000000e+00 +4.9999998884e+02 5.0000000000e+02 1.0566000000e-01 0.0000e+00 1.0000e+00
      994 -1    0    0    0    0 -0.0000000000e+00 -0.0000000000e+00 +0.0000000000e+00 1.3100000000e+02 1.3100000000e+02 0.0000e+00 0.0000e+00
       13  1    1    2    0    0 -2.6544880572e+00 +1.4670399199e+01 +4.4480673873e+01 4.6912774718e+01 1.0566000000e-01 0.0000e+00 -1.0000e+00
      994  1    1    2    0    0 +6.0731997747e+01 -9.5000675149e-01 +3.6154306223e+01 1.4885365942e+02 1.3100000000e+02 0.0000e+00 0.0000e+00
      997  1    1    2    0    0 -5.8077509690e+01 -1.3720392448e+01 +4.1936500874e+02 4.3523356587e+02 1.0000000000e+02 0.0000e+00 0.0000e+00
</event>
<event>
 5      1 +8.5651000e-08 1.97087600e+02 7.95774700e-02 5.09483900e-01
       13 -1    0    0    0    0 +0.0000000000e+00 +0.0000000000e+00 +4.9999998884e+02 5.0000000000e+02 1.0566000000e-01 0.0000e+00 1.0000e+00
      994 -1    0    0    0    0 -0.0000000000e+00 -0.0000000000e+00 +0.0000000000e+00 1.3100000000e+02 1.3100000000e+02 0.0000e+00 0.0000e+00
       13  1    1    2    0    0 -2.4560530651e+01 +4.4714691336e+01 +1.3874760210e+02 1.4782940012e+02 1.0566000000e-01 0.0000e+00 -1.0000e+00
      994  1    1    2    0    0 -1.3716280277e+01 -7.1842761968e+01 +5.8741902136e+01 1.6112457869e+02 1.3100000000e+02 0.0000e+00 0.0000e+00
      997  1    1    2    0    0 +3.8276810928e+01 +2.7128070633e+01 +3.0251048460e+02 3.2204602119e+02 1.0000000000e+02 0.0000e+00 0.0000e+00
</event>
<event>
 5      1 +8.5651000e-08 1.98393600e+02 7.95774700e-02 5.06977700e-01
       13 -1    0    0    0    0 +0.0000000000e+00 +0.0000000000e+00 +4.9999998884e+02 5.0000000000e+02 1.0566000000e-01 0.0000e+00 1.0000e+00
      994 -1    0    0    0    0 -0.0000000000e+00 -0.0000000000e+00 +0.0000000000e+00 1.3100000000e+02 1.3100000000e+02 0.0000e+00 0.0000e+00
       13  1    1    2    0    0 +9.5463691897e+00 +6.0057050762e+00 +2.8271445702e+01 3.0438256591e+01 1.0566000000e-01 0.0000e+00 -1.0000e+00
      994  1    1    2    0    0 -2.2810674444e+01 +9.4374647439e+00 +1.6838364394e+01 1.3436488799e+02 1.3100000000e+02 0.0000e+00 0.0000e+00
      997  1    1    2    0    0 +1.3264305254e+01 -1.5443169820e+01 +4.5489017874e+02 4.6619685542e+02 1.0000000000e+02 0.0000e+00 0.0000e+00
</event>
<event>
 5      1 +8.5651000e-08 1.94095500e+02 7.95774700e-02 5.15393500e-01
       13 -1    0    0    0    0 +0.0000000000e+00 +0.0000000000e+00 +4.9999998884e+02 5.0000000000e+02 1.0566000000e-01 0.0000e+00 -1.0000e+00
      994 -1    0    0    0    0 -0.0000000000e+00 -0.0000000000e+00 +0.0000000000e+00 1.3100000000e+02 1.3100000000e+02 0.0000e+00 0.0000e+00
       13  1    1    2    0    0 -2.1152515189e+00 +3.2745470513e+01 +8.3102119733e+01 8.9346032908e+01 1.0566000000e-01 0.0000e+00 1.0000e+00
      994  1    1    2    0    0 +1.3944255947e+01 -5.1611697323e+01 +3.4314324379e+01 1.4559080476e+02 1.3100000000e+02 0.0000e+00 0.0000e+00
      997  1    1    2    0    0 -1.1829004428e+01 +1.8866226810e+01 +3.8258354472e+02 3.9606316233e+02 1.0000000000e+02 0.0000e+00 0.0000e+00
</event>
<event>
 5      1 +8.5651000e-08 1.94194700e+02 7.95774700e-02 5.15193700e-01
       13 -1    0    0    0    0 +0.0000000000e+00 +0.0000000000e+00 +4.9999998884e+02 5.0000000000e+02 1.0566000000e-01 0.0000e+00 -1.0000e+00
      994 -1    0    0    0    0 -0.0000000000e+00 -0.0000000000e+00 +0.0000000000e+00 1.3100000000e+02 1.3100000000e+02 0.0000e+00 0.0000e+00
       13  1    1    2    0    0 +6.2760558954e+00 +3.1731797592e+01 +5.1420833150e+01 6.0748737451e+01 1.0566000000e-01 0.0000e+00 1.0000e+00
      994  1    1    2    0    0 -1.6935003542e+01 -4.1162143537e+01 +3.2545348689e+01 1.4213133408e+02 1.3100000000e+02 0.0000e+00 0.0000e+00
      997  1    1    2    0    0 +1.0658947647e+01 +9.4303459447e+00 +4.1603380700e+02 4.2811992847e+02 1.0000000000e+02 0.0000e+00 0.0000e+00
</event>
<event>
 5      1 +8.5651000e-08 1.92871200e+02 7.95774700e-02 5.17881700e-01
       13 -1    0    0    0    0 +0.0000000000e+00 +0.0000000000e+00 +4.9999998884e+02 5.0000000000e+02 1.0566000000e-01 0.0000e+00 1.0000e+00
      994 -1    0    0    0    0 -0.0000000000e+00 -0.0000000000e+00 +0.0000000000e+00 1.3100000000e+02 1.3100000000e+02 0.0000e+00 0.0000e+00
       13  1    1    2    0    0 +1.4171810941e+01 -1.2258770248e+01 +1.9768961363e+01 2.7238587899e+01 1.0566000000e-01 0.0000e+00 -1.0000e+00
      994  1    1    2    0    0 -3.0326082313e+00 +2.3555731193e+01 +2.2571251178e+01 1.3503529377e+02 1.3100000000e+02 0.0000e+00 0.0000e+00
      997  1    1    2    0    0 -1.1139202710e+01 -1.1296960945e+01 +4.5765977630e+02 4.6872611833e+02 1.0000000000e+02 0.0000e+00 0.0000e+00
</event>
<event>
 5      1 +8.5651000e-08 1.93899800e+02 7.95774700e-02 5.15788500e-01
       13 -1    0    0    0    0 +0.0000000000e+00 +0.0000000000e+00 +4.9999998884e+02 5.0000000000e+02 1.0566000000e-01 0.0000e+00 -1.0000e+00
      994 -1    0    0    0    0 -0.0000000000e+00 -0.0000000000e+00 +0.0000000000e+00 1.3100000000e+02 1.3100000000e+02 0.0000e+00 0.0000e+00
       13  1    1    2    0    0 -2.3662226713e+01 +2.9828776548e+00 +3.5713857801e+01 4.2945189896e+01 1.0566000000e-01 0.0000e+00 1.0000e+00
      994  1    1    2    0    0 +6.6036441429e+00 +6.4435766426e+00 +2.0732748338e+01 1.3295102350e+02 1.3100000000e+02 0.0000e+00 0.0000e+00
      997  1    1    2    0    0 +1.7058582570e+01 -9.4264542975e+00 +4.4355338270e+02 4.5510378660e+02 1.0000000000e+02 0.0000e+00 0.0000e+00
</event>
<event>
 5      1 +8.5651000e-08 1.41838400e+02 7.95774700e-02 6.81710700e-01
       13 -1    0    0    0    0 +0.0000000000e+00 +0.0000000000e+00 +4.9999998884e+02 5.0000000000e+02 1.0566000000e-01 0.0000e+00 -1.0000e+00
      994 -1    0    0    0    0 -0.0000000000e+00 -0.0000000000e+00 +0.0000000000e+00 1.3100000000e+02 1.3100000000e+02 0.0000e+00 0.0000e+00
       13  1    1    2    0    0 +6.4490743865e-01 -1.1658040502e+01 -2.9190131126e+01 3.1438841155e+01 1.0566000000e-01 0.0000e+00 1.0000e+00
      994  1    1    2    0    0 -1.0810357469e+01 +3.0850073573e+01 +1.2987403127e+02 1.8734154603e+02 1.3100000000e+02 0.0000e+00 0.0000e+00
      997  1    1    2    0    0 +1.0165450030e+01 -1.9192033071e+01 +3.9931608869e+02 4.1221961282e+02 1.0000000000e+02 0.0000e+00 0.0000e+00
</event>
<event>
 5      1 +8.5651000e-08 1.99551800e+02 7.95774700e-02 5.04791000e-01
       13 -1    0    0    0    0 +0.0000000000e+00 +0.0000000000e+00 +4.9999998884e+02 5.0000000000e+02 1.0566000000e-01 0.0000e+00 -1.0000e+00
      994 -1    0    0    0    0 -0.0000000000e+00 -0.0000000000e+00 +0.0000000000e+00 1.3100000000e+02 1.3100000000e+02 0.0000e+00 0.0000e+00
       13  1    1    2    0    0 -2.5902872096e+01 -2.6517219108e+01 +4.9090947500e+01 6.1514664776e+01 1.0566000000e-01 0.0000e+00 1.0000e+00
      994  1    1    2    0    0 +3.7556821428e+01 +1.6191904613e+00 +3.4817924776e+01 1.4066422608e+02 1.3100000000e+02 0.0000e+00 0.0000e+00
      997  1    1    2    0    0 -1.1653949331e+01 +2.4898028646e+01 +4.1609111656e+02 4.2882110914e+02 1.0000000000e+02 0.0000e+00 0.0000e+00
</event>
<event>
 5      1 +8.5651000e-08 1.93845900e+02 7.95774700e-02 5.15897300e-01
       13 -1    0    0    0    0 +0.0000000000e+00 +0.0000000000e+00 +4.9999998884e+02 5.0000000000e+02 1.0566000000e-01 0.0000e+00 -1.0000e+00
      994 -1    0    0    0    0 -0.0000000000e+00 -0.0000000000e+00 +0.0000000000e+00 1.3100000000e+02 1.3100000000e+02 0.0000e+00 0.0000e+00
       13  1    1    2    0    0 -4.4789768839e+01 -2.9751910283e+00 +9.1178424459e+01 1.0162918579e+02 1.0566000000e-01 0.0000e+00 1.0000e+00
      994  1    1    2    0    0 +9.5424357075e+01 +1.4420511878e+01 +7.9078234667e+01 1.8090916584e+02 1.3100000000e+02 0.0000e+00 0.0000e+00
      997  1    1    2    0    0 -5.0634588237e+01 -1.1445320850e+01 +3.2974332971e+02 3.4846164837e+02 1.0000000000e+02 0.0000e+00 0.0000e+00
</event>
<event>
 5      1 +8.5651000e-08 1.65856900e+02 7.95774700e-02 5.86117700e-01
       13 -1    0    0    0    0 +0.0000000000e+00 +0.0000000000e+00 +4.9999998884e+02 5.0000000000e+02 1.0566000000e-01 0.0000e+00 -1.0000e+00
      994 -1    0    0    0    0 -0.0000000000e+00 -0.0000000000e+00 +0.0000000000e+00 1.3100000000e+02 1.3100000000e+02 0.0000e+00 0.0000e+00
       13  1    1    2    0    0 -5.4360865878e+01 -3.1521889590e+01 +2.4994834859e+02 2.5772644681e+02 1.0566000000e-01 0.0000e+00 1.0000e+00
      994  1    1    2    0    0 +2.7359984787e+01 +8.1288928033e+00 +4.3378766269e+01 1.4091616312e+02 1.3100000000e+02 0.0000e+00 0.0000e+00
      997  1    1    2    0    0 +2.7000881091e+01 +2.3392996787e+01 +2.0667287398e+02 2.3235739006e+02 1.0000000000e+02 0.0000e+00 0.0000e+00
</event>
<event>
 5      1 +8.5651000e-08 1.94666800e+02 7.95774700e-02 5.14246600e-01
       13 -1    0    0    0    0 +0.0000000000e+00 +0.0000000000e+00 +4.9999998884e+02 5.0000000000e+02 1.0566000000e-01 0.0000e+00 1.0000e+00
      994 -1    0    0    0    0 -0.0000000000e+00 -0.0000000000e+00 +0.0000000000e+00 1.3100000000e+02 1.3100000000e+02 0.0000e+00 0.0000e+00
       13  1    1    2    0    0 -1.6874599343e+00 -1.5695198731e+01 +2.4946288514e+01 2.9521437277e+01 1.0566000000e-01 0.0000e+00 -1.0000e+00
      994  1    1    2    0    0 +6.9757251636e+00 -4.2227102010e+00 +1.7196504805e+01 1.3237526884e+02 1.3100000000e+02 0.0000e+00 0.0000e+00
      997  1    1    2    0    0 -5.2882652292e+00 +1.9917908932e+01 +4.5785719552e+02 4.6910329388e+02 1.0000000000e+02 0.0000e+00 0.0000e+00
</event>
<event>
 5      1 +8.5651000e-08 2.00216700e+02 7.95774700e-02 5.03550600e-01
       13 -1    0    0    0    0 +0.0000000000e+00 +0.0000000000e+00 +4.9999998884e+02 5.0000000000e+02 1.0566000000e-01 0.0000e+00 1.0000e+00
      994 -1    0    0    0    0 -0.0000000000e+00 -0.0000000000e+00 +0.0000000000e+00 1.3100000000e+02 1.3100000000e+02 0.0000e+00 0.0000e+00
       13  1    1    2    0    0 +4.4961353041e+01 +1.6974331526e+01 +6.0408185775e+01 7.7193336957e+01 1.0566000000e-01 0.0000e+00 -1.0000e+00
      994  1    1    2    0    0 -6.6552905874e+01 -1.2067047055e+01 +5.7535825946e+01 1.5826014714e+02 1.3100000000e+02 0.0000e+00 0.0000e+00
      997  1    1    2    0    0 +2.1591552833e+01 -4.9072844711e+00 +3.8205597712e+02 3.9554651590e+02 1.0000000000e+02 0.0000e+00 0.0000e+00
</event>
<event>
 5      1 +8.5651000e-08 1.97109700e+02 7.95774700e-02 5.09441200e-01
       13 -1    0    0    0    0 +0.0000000000e+00 +0.0000000000e+00 +4.9999998884e+02 5.0000000000e+02 1.0566000000e-01 0.0000e+00 1.0000e+00
      994 -1    0    0    0    0 -0.0000000000e+00 -0.0000000000e+00 +0.0000000000e+00 1.3100000000e+02 1.3100000000e+02 0.0000e+00 0.0000e+00
       13  1    1    2    0    0 -1.6266498843e+01 +1.0484471142e+01 +6.8257620455e+01 7.0948129179e+01 1.0566000000e-01 0.0000e+00 -1.0000e+00
      994  1    1    2    0    0 +2.9932375778e+01 -6.8021039278e+00 +1.9906461961e+01 1.3601280442e+02 1.3100000000e+02 0.0000e+00 0.0000e+00
      997  1    1    2    0    0 -1.3665876935e+01 -3.6823672141e+00 +4.1183590642e+02 4.2403906640e+02 1.0000000000e+02 0.0000e+00 0.0000e+00
</event>
<event>
 5      1 +8.5651000e-08 1.97447800e+02 7.95774700e-02 5.08788400e-01
       13 -1    0    0    0    0 +0.0000000000e+00 +0.0000000000e+00 +4.9999998884e+02 5.0000000000e+02 1.0566000000e-01 0.0000e+00 1.0000e+00
      994 -1    0    0    0    0 -0.0000000000e+00 -0.0000000000e+00 +0.0000000000e+00 1.3100000000e+02 1.3100000000e+02 0.0000e+00 0.0000e+00
       13  1    1    2    0    0 +8.4192071963e+00 +1.0674253130e+01 +4.7729256650e+01 4.9627772810e+01 1.0566000000e-01 0.0000e+00 -1.0000e+00
      994  1    1    2    0    0 -1.9713629832e+01 +1.8571358302e+01 +1.8407020248e+01 1.3503088885e+02 1.3100000000e+02 0.0000e+00 0.0000e+00
      997  1    1    2    0    0 +1.1294422635e+01 -2.9245611432e+01 +4.3386371194e+02 4.4634133834e+02 1.0000000000e+02 0.0000e+00 0.0000e+00
</event>
<event>
 5      1 +8.5651000e-08 2.04442400e+02 7.95774700e-02 4.95910100e-01
       13 -1    0    0    0    0 +0.0000000000e+00 +0.0000000000e+00 +4.9999998884e+02 5.0000000000e+02 1.0566000000e-01 0.0000e+00 -1.0000e+00
      994 -1    0    0    0    0 -0.0000000000e+00 -0.0000000000e+00 +0.0000000000e+00 1.3100000000e+02 1.3100000000e+02 0.0000e+00 0.0000e+00
       13  1    1    2    0    0 +6.5943564183e+00 +2.5717620879e+01 +1.4358656644e+01 3.0183832509e+01 1.0566000000e-01 0.0000e+00 1.0000e+00
      994  1    1    2    0    0 +4.5815621344e+01 -8.3488559506e+00 +4.5795985098e+01 1.4637980327e+02 1.3100000000e+02 0.0000e+00 0.0000e+00
      997  1    1    2    0    0 -5.2409977763e+01 -1.7368764929e+01 +4.3984534709e+02 4.5443636422e+02 1.0000000000e+02 0.0000e+00 0.0000e+00
</event>
<event>
 5      1 +8.5651000e-08 1.92486800e+02 7.95774700e-02 5.18671600e-01
       13 -1    0    0    0    0 +0.0000000000e+00 +0.0000000000e+00 +4.9999998884e+02 5.0000000000e+02 1.0566000000e-01 0.0000e+00 1.0000e+00
      994 -1    0    0    0    0 -0.0000000000e+00 -0.0000000000e+00 +0.0000000000e+00 1.3100000000e+02 1.3100000000e+02 0.0000e+00 0.0000e+00
       13  1    1    2    0    0 -3.7740751828e+01 +9.9425590384e+00 +8.0123178098e+01 8.9123249836e+01 1.0566000000e-01 0.0000e+00 -1.0000e+00
      994  1    1    2    0    0 +5.9766507329e+01 -3.1743207709e+01 +4.7266122270e+01 1.5483782790e+02 1.3100000000e+02 0.0000e+00 0.0000e+00
      997  1    1    2    0    0 -2.2025755501e+01 +2.1800648671e+01 +3.7261068847e+02 3.8703892227e+02 1.0000000000e+02 0.0000e+00 0.0000e+00
</event>
<event>
 5      1 +8.5651000e-08 2.08631400e+02 7.95774700e-02 4.88726800e-01
       13 -1    0    0    0    0 +0.0000000000e+00 +0.0000000000e+00 +4.9999998884e+02 5.0000000000e+02 1.0566000000e-01 0.0000e+00 1.0000e+00
      994 -1    0    0    0    0 -0.0000000000e+00 -0.0000000000e+00 +0.0000000000e+00 1.3100000000e+02 1.3100000000e+02 0.0000e+00 0.0000e+00
       13  1    1    2    0    0 -2.9333808536e+01 -1.0028007033e+01 +1.6096859267e+01 3.4930692673e+01 1.0566000000e-01 0.0000e+00 -1.0000e+00
      994  1    1    2    0    0 +1.0110500367e+01 -4.7826210112e+01 +5.2996035782e+01 1.4952975757e+02 1.3100000000e+02 0.0000e+00 0.0000e+00
      997  1    1    2    0    0 +1.9223308169e+01 +5.7854217146e+01 +4.3090709379e+02 4.4653954975e+02 1.0000000000e+02 0.0000e+00 0.0000e+00
</event>
<event>
 5      1 +8.5651000e-08 1.92496500e+02 7.95774700e-02 5.18651400e-01
       13 -1    0    0    0    0 +0.0000000000e+00 +0.0000000000e+00 +4.9999998884e+02 5.0000000000e+02 1.0566000000e-01 0.0000e+00 1.0000e+00
      994 -1    0    0    0    0 -0.0000000000e+00 -0.0000000000e+00 +0.0000000000e+00 1.3100000000e+02 1.3100000000e+02 0.0000e+00 0.0000e+00
       13  1    1    2    0    0 +2.3923117538e+01 +1.1008304854e+01 +3.8219374516e+01 4.6413684198e+01 1.0566000000e-01 0.0000e+00 -1.0000e+00
      994  1    1    2    0    0 -5.1932228965e+01 +2.7588771590e+00 +3.5121905437e+01 1.4525534775e+02 1.3100000000e+02 0.0000e+00 0.0000e+00
      997  1    1    2    0    0 +2.8009111427e+01 -1.3767182013e+01 +4.2665870888e+02 4.3933096805e+02 1.0000000000e+02 0.0000e+00 0.0000e+00
</event>
<event>
 5      1 +8.5651000e-08 1.97000800e+02 7.95774700e-02 5.09652000e-01
       13 -1    0    0    0    0 +0.0000000000e+00 +0.0000000000e+00 +4.9999998884e+02 5.0000000000e+02 1.0566000000e-01 0.0000e+00 1.0000e+00
      994 -1    0    0    0    0 -0.0000000000e+00 -0.0000000000e+00 +0.0000000000e+00 1.3100000000e+02 1.3100000000e+02 0.0000e+00 0.0000e+00
       13  1    1    2    0    0 -4.6171116172e+00 +1.2148973247e+01 +1.9563970977e+01 2.3487771181e+01 1.0566000000e-01 0.0000e+00 -1.0000e+00
      994  1    1    2    0    0 -2.5172325689e-01 -3.3360138939e+01 +2.0983931814e+01 1.3680017408e+02 1.3100000000e+02 0.0000e+00 0.0000e+00
      997  1    1    2    0    0 +4.8688348741e+00 +2.1211165692e+01 +4.5945208605e+02 4.7071205474e+02 1.0000000000e+02 0.0000e+00 0.0000e+00
</event>
<event>
 5      1 +8.5651000e-08 1.93444800e+02 7.95774700e-02 5.16710800e-01
       13 -1    0    0    0    0 +0.0000000000e+00 +0.0000000000e+00 +4.9999998884e+02 5.0000000000e+02 1.0566000000e-01 0.0000e+00 1.0000e+00
      994 -1    0    0    0    0 -0.0000000000e+00 -0.0000000000e+00 +0.0000000000e+00 1.3100000000e+02 1.3100000000e+02 0.0000e+00 0.0000e+00
       13  1    1    2    0    0 -1.5007280842e+01 -1.2275239638e+01 +2.9052513235e+01 3.4927921149e+01 1.0566000000e-01 0.0000e+00 -1.0000e+00
      994  1    1    2    0    0 +8.4941355473e+00 +7.2505963166e+00 +1.8665038184e+01 1.3279346797e+02 1.3100000000e+02 0.0000e+00 0.0000e+00
      997  1    1    2    0    0 +6.5131452950e+00 +5.0246433216e+00 +4.5228243742e+02 4.6327861088e+02 1.0000000000e+02 0.0000e+00 0.0000e+00
</event>
<event>
 5      1 +8.5651000e-08 1.97892000e+02 7.95774700e-02 5.07935100e-01
       13 -1    0    0    0    0 +0.0000000000e+00 +0.0000000000e+00 +4.9999998884e+02 5.0000000000e+02 1.0566000000e-01 0.0000e+00 1.0000e+00
      994 -1    0    0    0    0 -0.0000000000e+00 -0.0000000000e+00 +0.0000000000e+00 1.3100000000e+02 1.3100000000e+02 0.0000e+00 0.0000e+00
       13  1    1    2    0    0 +1.0305943186e+01 +1.8841610472e+00 +1.8943313596e+01 2.1647697842e+01 1.0566000000e-01 0.0000e+00 -1.0000e+00
      994  1    1    2    0    0 -9.3710631345e+00 -8.3111124174e+00 +1.4775544259e+01 1.3242434868e+02 1.3100000000e+02 0.0000e+00 0.0000e+00
      997  1    1    2    0    0 -9.3488005164e-01 +6.4269513702e+00 +4.6628113098e+02 4.7692795348e+02 1.0000000000e+02 0.0000e+00 0.0000e+00
</event>
<event>
 5      1 +8.5651000e-08 2.08886100e+02 7.95774700e-02 4.88301900e-01
       13 -1    0    0    0    0 +0.0000000000e+00 +0.0000000000e+00 +4.9999998884e+02 5.0000000000e+02 1.0566000000e-01 0.0000e+00 1.0000e+00
      994 -1    0    0    0    0 -0.0000000000e+00 -0.0000000000e+00 +0.0000000000e+00 1.3100000000e+02 1.3100000000e+02 0.0000e+00 0.0000e+00
       13  1    1    2    0    0 -7.4538611863e+00 +2.1880119957e+01 -1.8722630448e+01 2.9746390552e+01 1.0566000000e-01 0.0000e+00 -1.0000e+00
      994  1    1    2    0    0 +8.9367930756e+01 +1.9490513787e+01 +3.4978536065e+02 3.8454818385e+02 1.3100000000e+02 0.0000e+00 0.0000e+00
      997  1    1    2    0    0 -8.1914069570e+01 -4.1370633744e+01 +1.6893725863e+02 2.1670542560e+02 1.0000000000e+02 0.0000e+00 0.0000e+00
</event>
<event>
 5      1 +8.5651000e-08 2.03929300e+02 7.95774700e-02 4.96816200e-01
       13 -1    0    0    0    0 +0.0000000000e+00 +0.0000000000e+00 +4.9999998884e+02 5.0000000000e+02 1.0566000000e-01 0.0000e+00 1.0000e+00
      994 -1    0    0    0    0 -0.0000000000e+00 -0.0000000000e+00 +0.0000000000e+00 1.3100000000e+02 1.3100000000e+02 0.0000e+00 0.0000e+00
       13  1    1    2    0    0 -6.3393232811e+01 -3.8145588853e+01 +1.5003685811e+02 1.6728675343e+02 1.0566000000e-01 0.0000e+00 -1.0000e+00
      994  1    1    2    0    0 +7.0449708246e+01 +2.1752354292e+01 +6.9868471658e+01 1.6576769782e+02 1.3100000000e+02 0.0000e+00 0.0000e+00
      997  1    1    2    0    0 -7.0564754345e+00 +1.6393234562e+01 +2.8009465906e+02 2.9794554875e+02 1.0000000000e+02 0.0000e+00 0.0000e+00
</event>
<event>
 5      1 +8.5651000e-08 1.92468300e+02 7.95774700e-02 5.18709700e-01
       13 -1    0    0    0    0 +0.0000000000e+00 +0.0000000000e+00 +4.9999998884e+02 5.0000000000e+02 1.0566000000e-01 0.0000e+00 -1.0000e+00
      994 -1    0    0    0    0 -0.0000000000e+00 -0.0000000000e+00 +0.0000000000e+00 1.3100000000e+02 1.3100000000e+02 0.0000e+00 0.0000e+00
       13  1    1    2    0    0 +7.6855967653e+00 -2.6821859645e+01 +3.9383381312e+01 4.8265333729e+01 1.0566000000e-01 0.0000e+00 1.0000e+00
      994  1    1    2    0    0 -2.6866061176e+00 +5.7568264955e+01 +3.9045512008e+01 1.4834714352e+02 1.3100000000e+02 0.0000e+00 0.0000e+00
      997  1    1    2    0    0 -4.9989906477e+00 -3.0746405310e+01 +4.2157109552e+02 4.3438752275e+02 1.0000000000e+02 0.0000e+00 0.0000e+00
</event>
<event>
 5      1 +8.5651000e-08 1.97950300e+02 7.95774700e-02 5.07823500e-01
       13 -1    0    0    0    0 +0.0000000000e+00 +0.0000000000e+00 +4.9999998884e+02 5.0000000000e+02 1.0566000000e-01 0.0000e+00 1.0000e+00
      994 -1    0    0    0    0 -0.0000000000e+00 -0.0000000000e+00 +0.0000000000e+00 1.3100000000e+02 1.3100000000e+02 0.0000e+00 0.0000e+00
       13  1    1    2    0    0 +9.2037454948e+00 +4.0823953449e+00 +1.9255105609e+01 2.1728901006e+01 1.0566000000e-01 0.0000e+00 -1.0000e+00
      994  1    1    2    0    0 -4.7699296131e+00 +5.4117219162e+00 +1.4142833003e+01 1.3195854913e+02 1.3100000000e+02 0.0000e+00 0.0000e+00
      997  1    1    2    0    0 -4.4338158817e+00 -9.4941172611e+00 +4.6660205022e+02 4.7731254987e+02 1.0000000000e+02 0.0000e+00 0.0000e+00
</event>
<event>
 5      1 +8.5651000e-08 2.03033300e+02 7.95774700e-02 4.98412300e-01
       13 -1    0    0    0    0 +0.0000000000e+00 +0.0000000000e+00 +4.9999998884e+02 5.0000000000e+02 1.0566000000e-01 0.0000e+00 -1.0000e+00
      994 -1    0    0    0    0 -0.0000000000e+00 -0.0000000000e+00 +0.0000000000e+00 1.3100000000e+02 1.3100000000e+02 0.0000e+00 0.0000e+00
       13  1    1    2    0    0 +1.5591785407e+01 -2.6128121076e+01 +1.5731821459e+01 3.4253231287e+01 1.0566000000e-01 0.0000e+00 1.0000e+00
      994  1    1    2    0    0 -6.7608890089e+01 +1.9368469582e+01 +6.4529740461e+01 1.6208388889e+02 1.3100000000e+02 0.0000e+00 0.0000e+00
      997  1    1    2    0    0 +5.2017104682e+01 +6.7596514940e+00 +4.1973842692e+02 4.3466287982e+02 1.0000000000e+02 0.0000e+00 0.0000e+00
</event>
<event>
 5      1 +8.5651000e-08 2.14435400e+02 7.95774700e-02 4.79359300e-01
       13 -1    0    0    0    0 +0.0000000000e+00 +0.0000000000e+00 +4.9999998884e+02 5.0000000000e+02 1.0566000000e-01 0.0000e+00 -1.0000e+00
      994 -1    0    0    0    0 -0.0000000000e+00 -0.0000000000e+00 +0.0000000000e+00 1.3100000000e+02 1.3100000000e+02 0.0000e+00 0.0000e+00
       13  1    1    2    0    0 -2.0207393146e+01 +3.8099778544e+01 +2.6810309239e+01 5.0781253514e+01 1.0566000000e-01 0.0000e+00 1.0000e+00
      994  1    1    2    0    0 -3.2158700930e-02 -1.8641795783e+01 +4.5232262047e+01 1.3983731660e+02 1.3100000000e+02 0.0000e+00 0.0000e+00
      997  1    1    2    0    0 +2.0239551847e+01 -1.9457982761e+01 +4.2795741755e+02 4.4038142989e+02 1.0000000000e+02 0.0000e+00 0.0000e+00
</event>
<event>
 5      1 +8.5651000e-08 2.07927400e+02 7.95774700e-02 4.89908200e-01
       13 -1    0    0    0    0 +0.0000000000e+00 +0.0000000000e+00 +4.9999998884e+02 5.0000000000e+02 1.0566000000e-01 0.0000e+00 -1.0000e+00
      994 -1    0    0    0    0 -0.0000000000e+00 -0.0000000000e+00 +0.0000000000e+00 1.3100000000e+02 1.3100000000e+02 0.0000e+00 0.0000e+00
       13  1    1    2    0    0 +2.3264483437e+01 +1.8282832217e+01 +1.1142241547e+01 3.1617382153e+01 1.0566000000e-01 0.0000e+00 1.0000e+00
      994  1    1    2    0    0 -2.7468253963e+01 -1.2048022544e+01 +4.1102713734e+01 1.4053502375e+02 1.3100000000e+02 0.0000e+00 0.0000e+00
      997  1    1    2    0    0 +4.2037705260e+00 -6.2348096725e+00 +4.4775503356e+02 4.5884759410e+02 1.0000000000e+02 0.0000e+00 0.0000e+00
</event>
<event>
 5      1 +8.5651000e-08 1.98265600e+02 7.95774700e-02 5.07221500e-01
       13 -1    0    0    0    0 +0.0000000000e+00 +0.0000000000e+00 +4.9999998884e+02 5.0000000000e+02 1.0566000000e-01 0.0000e+00 -1.0000e+00
      994 -1    0    0    0    0 -0.0000000000e+00 -0.0000000000e+00 +0.0000000000e+00 1.3100000000e+02 1.3100000000e+02 0.0000e+00 0.0000e+00
       13  1    1    2    0    0 +1.9425226341e+01 +5.5424688654e+00 +9.9551082132e+00 2.2520517825e+01 1.0566000000e-01 0.0000e+00 1.0000e+00
      994  1    1    2    0    0 -3.5620874765e+01 +2.1347786861e+01 +3.5401793042e+01 1.4191145716e+02 1.3100000000e+02 0.0000e+00 0.0000e+00
      997  1    1    2    0    0 +1.6195648424e+01 -2.6890255726e+01 +4.5464308758e+02 4.6656802501e+02 1.0000000000e+02 0.0000e+00 0.0000e+00
</event>
<event>
 5      1 +8.5651000e-08 2.31435900e+02 7.95774700e-02 4.55235900e-01
       13 -1    0    0    0    0 +0.0000000000e+00 +0.0000000000e+00 +4.9999998884e+02 5.0000000000e+02 1.0566000000e-01 0.0000e+00 -1.0000e+00
      994 -1    0    0    0    0 -0.0000000000e+00 -0.0000000000e+00 +0.0000000000e+00 1.3100000000e+02 1.3100000000e+02 0.0000e+00 0.0000e+00
       13  1    1    2    0    0 +1.2893965333e+01 +7.7996142135e+01 +7.7375982937e+01 1.1061964757e+02 1.0566000000e-01 0.0000e+00 1.0000e+00
      994  1    1    2    0    0 +7.4098896720e+01 -1.8889556157e+01 +1.6099559208e+02 2.2119684106e+02 1.3100000000e+02 0.0000e+00 0.0000e+00
      997  1    1    2    0    0 -8.6992862052e+01 -5.9106585978e+01 +2.6162841382e+02 2.9918351136e+02 1.0000000000e+02 0.0000e+00 0.0000e+00
</event>
<event>
 5      1 +8.5651000e-08 1.98257000e+02 7.95774700e-02 5.07237900e-01
       13 -1    0    0    0    0 +0.0000000000e+00 +0.0000000000e+00 +4.9999998884e+02 5.0000000000e+02 1.0566000000e-01 0.0000e+00 1.0000e+00
      994 -1    0    0    0    0 -0.0000000000e+00 -0.0000000000e+00 +0.0000000000e+00 1.3100000000e+02 1.3100000000e+02 0.0000e+00 0.0000e+00
       13  1    1    2    0    0 -2.4044205357e-01 -1.4076884691e+01 +6.3643993085e+01 6.5182708711e+01 1.0566000000e-01 0.0000e+00 -1.0000e+00
      994  1    1    2    0    0 -1.0213362801e+01 +1.9471016302e+01 +1.6260931230e+01 1.3382395578e+02 1.3100000000e+02 0.0000e+00 0.0000e+00
      997  1    1    2    0    0 +1.0453804855e+01 -5.3941316115e+00 +4.2009506452e+02 4.3199333551e+02 1.0000000000e+02 0.0000e+00 0.0000e+00
</event>
<event>
 5      1 +8.5651000e-08 2.13704500e+02 7.95774700e-02 4.80503700e-01
       13 -1    0    0    0    0 +0.0000000000e+00 +0.0000000000e+00 +4.9999998884e+02 5.0000000000e+02 1.0566000000e-01 0.0000e+00 -1.0000e+00
      994 -1    0    0    0    0 -0.0000000000e+00 -0.0000000000e+00 +0.0000000000e+00 1.3100000000e+02 1.3100000000e+02 0.0000e+00 0.0000e+00
       13  1    1    2    0    0 +1.2767194833e+01 -1.9048310231e+01 -5.3722633394e+00 2.3552319716e+01 1.0566000000e-01 0.0000e+00 1.0000e+00
      994  1    1    2    0    0 +1.1572401041e+01 +7.2328304474e+01 +8.7345886322e+01 1.7365370123e+02 1.3100000000e+02 0.0000e+00 0.0000e+00
      997  1    1    2    0    0 -2.4339595874e+01 -5.3279994243e+01 +4.1802636585e+02 4.3379397905e+02 1.0000000000e+02 0.0000e+00 0.0000e+00
</event>
<event>
 5      1 +8.5651000e-08 1.93576000e+02 7.95774700e-02 5.16444100e-01
       13 -1    0    0    0    0 +0.0000000000e+00 +0.0000000000e+00 +4.9999998884e+02 5.0000000000e+02 1.0566000000e-01 0.0000e+00 1.0000e+00
      994 -1    0    0    0    0 -0.0000000000e+00 -0.0000000000e+00 +0.0000000000e+00 1.3100000000e+02 1.3100000000e+02 0.0000e+00 0.0000e+00
       13  1    1    2    0    0 -1.0453010620e+01 +2.8213353648e+01 +5.8259081515e+01 6.5569737670e+01 1.0566000000e-01 0.0000e+00 -1.0000e+00
      994  1    1    2    0    0 +2.2330446803e+01 -1.7853598271e+01 +2.4777739174e+01 1.3635371716e+02 1.3100000000e+02 0.0000e+00 0.0000e+00
      997  1    1    2    0    0 -1.1877436184e+01 -1.0359755377e+01 +4.1696316815e+02 4.2907654517e+02 1.0000000000e+02 0.0000e+00 0.0000e+00
</event>
<event>
 5      1 +8.5651000e-08 1.94366700e+02 7.95774700e-02 5.14848000e-01
       13 -1    0    0    0    0 +0.0000000000e+00 +0.0000000000e+00 +4.9999998884e+02 5.0000000000e+02 1.0566000000e-01 0.0000e+00 1.0000e+00
      994 -1    0    0    0    0 -0.0000000000e+00 -0.0000000000e+00 +0.0000000000e+00 1.3100000000e+02 1.3100000000e+02 0.0000e+00 0.0000e+00
       13  1    1    2    0    0 +1.9789530913e+01 -6.3390180233e+00 +2.4615769660e+01 3.2214219892e+01 1.0566000000e-01 0.0000e+00 -1.0000e+00
      994  1    1    2    0    0 +8.0389924409e+00 +1.5518501932e+01 +2.2493183918e+01 1.3406115256e+02 1.3100000000e+02 0.0000e+00 0.0000e+00
      997  1    1    2    0    0 -2.7828523354e+01 -9.1794839088e+00 +4.5289103526e+02 4.6472462755e+02 1.0000000000e+02 0.0000e+00 0.0000e+00
</event>
<event>
 5      1 +8.5651000e-08 1.96466900e+02 7.95774700e-02 5.10690400e-01
       13 -1    0    0    0    0 +0.0000000000e+00 +0.0000000000e+00 +4.9999998884e+02 5.0000000000e+02 1.0566000000e-01 0.0000e+00 -1.0000e+00
      994 -1    0    0    0    0 -0.0000000000e+00 -0.0000000000e+00 +0.0000000000e+00 1.3100000000e+02 1.3100000000e+02 0.0000e+00 0.0000e+00
       13  1    1    2    0    0 -1.2493069320e+01 -1.8658010789e+01 +1.9591940953e+01 2.9800225871e+01 1.0566000000e-01 0.0000e+00 1.0000e+00
      994  1    1    2    0    0 +5.7184312387e+00 +1.5508941687e+01 +2.4372730355e+01 1.3426934763e+02 1.3100000000e+02 0.0000e+00 0.0000e+00
      997  1    1    2    0    0 +6.7746380808e+00 +3.1490691011e+00 +4.5603531753e+02 4.6693042650e+02 1.0000000000e+02 0.0000e+00 0.0000e+00
</event>
<event>
 5      1 +8.5651000e-08 1.95255000e+02 7.95774700e-02 5.13075100e-01
       13 -1    0    0    0    0 +0.0000000000e+00 +0.0000000000e+00 +4.9999998884e+02 5.0000000000e+02 1.0566000000e-01 0.0000e+00 1.0000e+00
      994 -1    0    0    0    0 -0.0000000000e+00 -0.0000000000e+00 +0.0000000000e+00 1.3100000000e+02 1.3100000000e+02 0.0000e+00 0.0000e+00
       13  1    1    2    0    0 -2.0618430249e+01 +3.0176878427e+00 +5.5407535876e+01 5.9196556502e+01 1.0566000000e-01 0.0000e+00 -1.0000e+00
      994  1    1    2    0    0 +1.4547137621e+01 +1.5165207096e+01 +1.8793105749e+01 1.3399919232e+02 1.3100000000e+02 0.0000e+00 0.0000e+00
      997  1    1    2    0    0 +6.0712926276e+00 -1.8182894939e+01 +4.2579934721e+02 4.3780425118e+02 1.0000000000e+02 0.0000e+00 0.0000e+00
</event>
<event>
 5      1 +8.5651000e-08 1.94534900e+02 7.95774700e-02 5.14510700e-01
       13 -1    0    0    0    0 +0.0000000000e+00 +0.0000000000e+00 +4.9999998884e+02 5.0000000000e+02 1.0566000000e-01 0.0000e+00 -1.0000e+00
      994 -1    0    0    0    0 -0.0000000000e+00 -0.0000000000e+00 +0.0000000000e+00 1.3100000000e+02 1.3100000000e+02 0.0000e+00 0.0000e+00
       13  1    1    2    0    0 -1.2568027019e+01 +1.5385516572e+01 +5.1650425715e+01 5.5339380769e+01 1.0566000000e-01 0.0000e+00 1.0000e+00
      994  1    1    2    0    0 -8.1840224512e+00 +1.0623499813e+00 +1.7327294161e+01 1.3239842119e+02 1.3100000000e+02 0.0000e+00 0.0000e+00
      997  1    1    2    0    0 +2.0752049470e+01 -1.6447866553e+01 +4.3102226896e+02 4.4326219804e+02 1.0000000000e+02 0.0000e+00 0.0000e+00
</event>
<event>
 5      1 +8.5651000e-08 2.03258600e+02 7.95774700e-02 4.98009300e-01
       13 -1    0    0    0    0 +0.0000000000e+00 +0.0000000000e+00 +4.9999998884e+02 5.0000000000e+02 1.0566000000e-01 0.0000e+00 -1.0000e+00
      994 -1    0    0    0    0 -0.0000000000e+00 -0.0000000000e+00 +0.0000000000e+00 1.3100000000e+02 1.3100000000e+02 0.0000e+00 0.0000e+00
       13  1    1    2    0    0 -2.3340404275e+01 +5.7073439020e+00 +8.9292952293e+00 2.5633800410e+01 1.0566000000e-01 0.0000e+00 1.0000e+00
      994  1    1    2    0    0 +3.3640929440e+01 +1.7503083006e+01 +3.9248429016e+01 1.4191373869e+02 1.3100000000e+02 0.0000e+00 0.0000e+00
      997  1    1    2    0    0 -1.0300525165e+01 -2.3210426908e+01 +4.5182226459e+02 4.6345246090e+02 1.0000000000e+02 0.0000e+00 0.0000e+00
</event>
<event>
 5      1 +8.5651000e-08 1.96257000e+02 7.95774700e-02 5.11100600e-01
       13 -1    0    0    0    0 +0.0000000000e+00 +0.0000000000e+00 +4.9999998884e+02 5.0000000000e+02 1.0566000000e-01 0.0000e+00 1.0000e+00
      994 -1    0    0    0    0 -0.0000000000e+00 -0.0000000000e+00 +0.0000000000e+00 1.3100000000e+02 1.3100000000e+02 0.0000e+00 0.0000e+00
       13  1    1    2    0    0 +1.4345204740e+01 -9.4495066884e+00 +3.7567821856e+01 4.1308963661e+01 1.0566000000e-01 0.0000e+00 -1.0000e+00
      994  1    1    2    0    0 -2.0708429661e+01 +7.5873646402e-01 +1.7791602664e+01 1.3381687437e+02 1.3100000000e+02 0.0000e+00 0.0000e+00
      997  1    1    2    0    0 +6.3632249217e+00 +8.6907702244e+00 +4.4464056432e+02 4.5587416197e+02 1.0000000000e+02 0.0000e+00 0.0000e+00
</event>
<event>
 5      1 +8.5651000e-08 1.98467800e+02 7.95774700e-02 5.06836600e-01
       13 -1    0    0    0    0 +0.0000000000e+00 +0.0000000000e+00 +4.9999998884e+02 5.0000000000e+02 1.0566000000e-01 0.0000e+00 -1.0000e+00
      994 -1    0    0    0    0 -0.0000000000e+00 -0.0000000000e+00 +0.0000000000e+00 1.3100000000e+02 1.3100000000e+02 0.0000e+00 0.0000e+00
       13  1    1    2    0    0 -1.2000333018e+01 -5.3232044366e+00 +4.8331878443e+01 5.0083192149e+01 1.0566000000e-01 0.0000e+00 1.0000e+00
      994  1    1    2    0    0 +1.2291093385e+01 +1.8260421058e+01 +1.6075416654e+01 1.3380557901e+02 1.3100000000e+02 0.0000e+00 0.0000e+00
      997  1    1    2    0    0 -2.9076036694e-01 -1.2937216621e+01 +4.3559269374e+02 4.4711122884e+02 1.0000000000e+02 0.0000e+00 0.0000e+00
</event>
<event>
 5      1 +8.5651000e-08 1.96040000e+02 7.95774700e-02 5.11526000e-01
       13 -1    0    0    0    0 +0.0000000000e+00 +0.0000000000e+00 +4.9999998884e+02 5.0000000000e+02 1.0566000000e-01 0.0000e+00 1.0000e+00
      994 -1    0    0    0    0 -0.0000000000e+00 -0.0000000000e+00 +0.0000000000e+00 1.3100000000e+02 1.3100000000e+02 0.0000e+00 0.0000e+00
       13  1    1    2    0    0 +3.9336713206e+00 -2.1900770726e+01 +1.2817061374e+02 1.3008779696e+02 1.0566000000e-01 0.0000e+00 -1.0000e+00
      994  1    1    2    0    0 +2.0936558961e+00 +3.9499923113e+01 +2.4528234181e+01 1.3902252189e+02 1.3100000000e+02 0.0000e+00 0.0000e+00
      997  1    1    2    0    0 -6.0273272167e+00 -1.7599152387e+01 +3.4730114092e+02 3.6188968115e+02 1.0000000000e+02 0.0000e+00 0.0000e+00
</event>
<event>
 5      1 +8.5651000e-08 2.05923700e+02 7.95774700e-02 4.93327400e-01
       13 -1    0    0    0    0 +0.0000000000e+00 +0.0000000000e+00 +4.9999998884e+02 5.0000000000e+02 1.0566000000e-01 0.0000e+00 1.0000e+00
      994 -1    0    0    0    0 -0.0000000000e+00 -0.0000000000e+00 +0.0000000000e+00 1.3100000000e+02 1.3100000000e+02 0.0000e+00 0.0000e+00
       13  1    1    2    0    0 +1.3159995207e+01 +1.7757880805e+01 +6.1760299497e+00 2.2949560224e+01 1.0566000000e-01 0.0000e+00 -1.0000e+00
      994  1    1    2    0    0 -3.7535934488e+00 +1.9655619906e+01 +3.5264907863e+01 1.3713149377e+02 1.3100000000e+02 0.0000e+00 0.0000e+00
      997  1    1    2    0    0 -9.4064017581e+00 -3.7413500711e+01 +4.5855905102e+02 4.7091894600e+02 1.0000000000e+02 0.0000e+00 0.0000e+00
</event>
<event>
 5      1 +8.5651000e-08 1.95373500e+02 7.95774700e-02 5.12840200e-01
       13 -1    0    0    0    0 +0.0000000000e+00 +0.0000000000e+00 +4.9999998884e+02 5.0000000000e+02 1.0566000000e-01 0.0000e+00 -1.0000e+00
      994 -1    0    0    0    0 -0.0000000000e+00 -0.0000000000e+00 +0.0000000000e+00 1.3100000000e+02 1.3100000000e+02 0.0000e+00 0.0000e+00
       13  1    1    2    0    0 +2.4081285919e+01 +4.0132171142e+00 +2.6353129078e+01 3.5923708318e+01 1.0566000000e-01 0.0000e+00 1.0000e+00
      994  1    1    2    0    0 -2.7233527780e+01 +2.0234679487e+01 +2.8643532896e+01 1.3832049474e+02 1.3100000000e+02 0.0000e+00 0.0000e+00
      997  1    1    2    0    0 +3.1522418614e+00 -2.4247896601e+01 +4.4500332686e+02 4.5675579694e+02 1.0000000000e+02 0.0000e+00 0.0000e+00
</event>
<event>
 5      1 +8.5651000e-08 1.96584700e+02 7.95774700e-02 5.10460500e-01
       13 -1    0    0    0    0 +0.0000000000e+00 +0.0000000000e+00 +4.9999998884e+02 5.0000000000e+02 1.0566000000e-01 0.0000e+00 1.0000e+00
      994 -1    0    0    0    0 -0.0000000000e+00 -0.0000000000e+00 +0.0000000000e+00 1.3100000000e+02 1.3100000000e+02 0.0000e+00 0.0000e+00
       13  1    1    2    0    0 -8.1625619230e+00 -8.7830954655e+00 -9.5132069656e-01 1.2028564262e+01 1.0566000000e-01 0.0000e+00 -1.0000e+00
      994  1    1    2    0    0 -6.7120210247e+00 +8.7781133669e+01 +7.6201551593e+01 1.7526624067e+02 1.3100000000e+02 0.0000e+00 0.0000e+00
      997  1    1    2    0    0 +1.4874582948e+01 -7.8998038204e+01 +4.2474975794e+02 4.4370519506e+02 1.0000000000e+02 0.0000e+00 0.0000e+00
</event>
<event>
 5      1 +8.5651000e-08 1.92666400e+02 7.95774700e-02 5.18302000e-01
       13 -1    0    0    0    0 +0.0000000000e+00 +0.0000000000e+00 +4.9999998884e+02 5.0000000000e+02 1.0566000000e-01 0.0000e+00 1.0000e+00
      994 -1    0    0    0    0 -0.0000000000e+00 -0.0000000000e+00 +0.0000000000e+00 1.3100000000e+02 1.3100000000e+02 0.0000e+00 0.0000e+00
       13  1    1    2    0    0 -8.4087815035e+00 +1.9858426513e+01 +3.1387234730e+01 3.8081942939e+01 1.0566000000e-01 0.0000e+00 -1.0000e+00
      994  1    1    2    0    0 +1.1931389194e+01 -1.4333875806e+01 +2.0698600160e+01 1.3393001938e+02 1.3100000000e+02 0.0000e+00 0.0000e+00
      997  1    1    2    0    0 -3.5226076907e+00 -5.5245507062e+00 +4.4791415395e+02 4.5898803768e+02 1.0000000000e+02 0.0000e+00 0.0000e+00
</event>
<event>
 5      1 +8.5651000e-08 2.23064500e+02 7.95774700e-02 4.66549800e-01
       13 -1    0    0    0    0 +0.0000000000e+00 +0.0000000000e+00 +4.9999998884e+02 5.0000000000e+02 1.0566000000e-01 0.0000e+00 -1.0000e+00
      994 -1    0    0    0    0 -0.0000000000e+00 -0.0000000000e+00 +0.0000000000e+00 1.3100000000e+02 1.3100000000e+02 0.0000e+00 0.0000e+00
       13  1    1    2    0    0 +6.2532932984e+01 +3.0245940246e+01 +6.2476866042e+01 9.3426733665e+01 1.0566000000e-01 0.0000e+00 1.0000e+00
      994  1    1    2    0    0 -2.4333167853e+01 -2.7678292003e+01 +6.6608905969e+01 1.5151216869e+02 1.3100000000e+02 0.0000e+00 0.0000e+00
      997  1    1    2    0    0 -3.8199765131e+01 -2.5676482433e+00 +3.7091421683e+02 3.8606109765e+02 1.0000000000e+02 0.0000e+00 0.0000e+00
</event>
<event>
 5      1 +8.5651000e-08 1.95927600e+02 7.95774700e-02 5.11746800e-01
       13 -1    0    0    0    0 +0.0000000000e+00 +0.0000000000e+00 +4.9999998884e+02 5.0000000000e+02 1.0566000000e-01 0.0000e+00 1.0000e+00
      994 -1    0    0    0    0 -0.0000000000e+00 -0.0000000000e+00 +0.0000000000e+00 1.3100000000e+02 1.3100000000e+02 0.0000e+00 0.0000e+00
       13  1    1    2    0    0 -1.3057776311e+01 +5.4019847821e+00 +1.2312132530e+01 1.8742644777e+01 1.0566000000e-01 0.0000e+00 -1.0000e+00
      994  1    1    2    0    0 +3.0925072047e+01 -1.0175858099e+02 +9.1269367251e+01 1.9183916775e+02 1.3100000000e+02 0.0000e+00 0.0000e+00
      997  1    1    2    0    0 -1.7867295736e+01 +9.6356596209e+01 +3.9641848905e+02 4.2041818747e+02 1.0000000000e+02 0.0000e+00 0.0000e+00
</event>
<event>
 5      1 +8.5651000e-08 1.93508200e+02 7.95774700e-02 5.16581800e-01
       13 -1    0    0    0    0 +0.0000000000e+00 +0.0000000000e+00 +4.9999998884e+02 5.0000000000e+02 1.0566000000e-01 0.0000e+00 -1.0000e+00
      994 -1    0    0    0    0 -0.0000000000e+00 -0.0000000000e+00 +0.0000000000e+00 1.3100000000e+02 1.3100000000e+02 0.0000e+00 0.0000e+00
       13  1    1    2    0    0 -2.8667490189e+01 -3.0022122385e+00 +5.4203954465e+01 6.1391515014e+01 1.0566000000e-01 0.0000e+00 1.0000e+00
      994  1    1    2    0    0 +4.5978763202e+01 +3.6377909419e+01 +3.8586925721e+01 1.4861813414e+02 1.3100000000e+02 0.0000e+00 0.0000e+00
      997  1    1    2    0    0 -1.7311273013e+01 -3.3375697181e+01 +4.0720910865e+02 4.2099035084e+02 1.0000000000e+02 0.0000e+00 0.0000e+00
</event>
<event>
 5      1 +8.5651000e-08 1.96557500e+02 7.95774700e-02 5.10513600e-01
       13 -1    0    0    0    0 +0.0000000000e+00 +0.0000000000e+00 +4.9999998884e+02 5.0000000000e+02 1.0566000000e-01 0.0000e+00 -1.0000e+00
      994 -1    0    0    0    0 -0.0000000000e+00 -0.0000000000e+00 +0.0000000000e+00 1.3100000000e+02 1.3100000000e+02 0.0000e+00 0.0000e+00
       13  1    1    2    0    0 -1.8857794141e+01 -9.1637742560e+00 +1.0150147925e+02 1.0364435640e+02 1.0566000000e-01 0.0000e+00 1.0000e+00
      994  1    1    2    0    0 +2.0400884867e+01 +2.8759842183e+01 +2.2158151603e+01 1.3746020627e+02 1.3100000000e+02 0.0000e+00 0.0000e+00
      997  1    1    2    0    0 -1.5430907255e+00 -1.9596067927e+01 +3.7634035798e+02 3.8989543733e+02 1.0000000000e+02 0.0000e+00 0.0000e+00
</event>
<event>
 5      1 +8.5651000e-08 2.07551000e+02 7.95774700e-02 4.90544200e-01
       13 -1    0    0    0    0 +0.0000000000e+00 +0.0000000000e+00 +4.9999998884e+02 5.0000000000e+02 1.0566000000e-01 0.0000e+00 1.0000e+00
      994 -1    0    0    0    0 -0.0000000000e+00 -0.0000000000e+00 +0.0000000000e+00 1.3100000000e+02 1.3100000000e+02 0.0000e+00 0.0000e+00
       13  1    1    2    0    0 -3.9825417632e+01 +1.7036717258e+01 +3.4408064005e+01 5.5319432907e+01 1.0566000000e-01 0.0000e+00 -1.0000e+00
      994  1    1    2    0    0 +2.8476402949e+01 -4.1086789446e+01 +5.2330146938e+01 1.4966119761e+02 1.3100000000e+02 0.0000e+00 0.0000e+00
      997  1    1    2    0    0 +1.1349014683e+01 +2.4050072188e+01 +4.1326177789e+02 4.2601936948e+02 1.0000000000e+02 0.0000e+00 0.0000e+00
</event>
<event>
 5      1 +8.5651000e-08 2.03242900e+02 7.95774700e-02 4.98037200e-01
       13 -1    0    0    0    0 +0.0000000000e+00 +0.0000000000e+00 +4.9999998884e+02 5.0000000000e+02 1.0566000000e-01 0.0000e+00 1.0000e+00
      994 -1    0    0    0    0 -0.0000000000e+00 -0.0000000000e+00 +0.0000000000e+00 1.3100000000e+02 1.3100000000e+02 0.0000e+00 0.0000e+00
       13  1    1    2    0    0 +2.2122502063e+01 +7.4288331037e+00 +7.7657653176e+00 2.4594937158e+01 1.0566000000e-01 0.0000e+00 -1.0000e+00
      994  1    1    2    0    0 -2.7784789671e+01 -1.7818173211e+01 +3.6863683691e+01 1.4003361385e+02 1.3100000000e+02 0.0000e+00 0.0000e+00
      997  1    1    2    0    0 +5.6622876084e+00 +1.0389340107e+01 +4.5537053983e+02 4.6637144899e+02 1.0000000000e+02 0.0000e+00 0.0000e+00
</event>
<event>
 5      1 +8.5651000e-08 2.08320600e+02 7.95774700e-02 4.89247100e-01
       13 -1    0    0    0    0 +0.0000000000e+00 +0.0000000000e+00 +4.9999998884e+02 5.0000000000e+02 1.0566000000e-01 0.0000e+00 -1.0000e+00
      994 -1    0    0    0    0 -0.0000000000e+00 -0.0000000000e+00 +0.0000000000e+00 1.3100000000e+02 1.3100000000e+02 0.0000e+00 0.0000e+00
       13  1    1    2    0    0 +2.7216507005e+01 +3.3722150561e+01 +4.1667155116e+01 6.0117257684e+01 1.0566000000e-01 0.0000e+00 1.0000e+00
      994  1    1    2    0    0 +1.3733726356e+01 -3.1207751006e+01 +4.3474273699e+01 1.4217436983e+02 1.3100000000e+02 0.0000e+00 0.0000e+00
      997  1    1    2    0    0 -4.0950233360e+01 -2.5143995545e+00 +4.1485856002e+02 4.2870837249e+02 1.0000000000e+02 0.0000e+00 0.0000e+00
</event>
<event>
 5      1 +8.5651000e-08 2.11487700e+02 7.95774700e-02 4.84035600e-01
       13 -1    0    0    0    0 +0.0000000000e+00 +0.0000000000e+00 +4.9999998884e+02 5.0000000000e+02 1.0566000000e-01 0.0000e+00 1.0000e+00
      994 -1    0    0    0    0 -0.0000000000e+00 -0.0000000000e+00 +0.0000000000e+00 1.3100000000e+02 1.3100000000e+02 0.0000e+00 0.0000e+00
       13  1    1    2    0    0 -4.7297766407e+00 -2.7670255834e+01 +4.8574276798e+00 2.8488938427e+01 1.0566000000e-01 0.0000e+00 -1.0000e+00
      994  1    1    2    0    0 +7.4823410757e+00 +2.8538475326e+01 +4.5357667130e+01 1.4173478038e+02 1.3100000000e+02 0.0000e+00 0.0000e+00
      997  1    1    2    0    0 -2.7525644350e+00 -8.6821949191e-01 +4.4978489403e+02 4.6077628119e+02 1.0000000000e+02 0.0000e+00 0.0000e+00
</event>
<event>
 5      1 +8.5651000e-08 1.93164200e+02 7.95774700e-02 5.17282300e-01
       13 -1    0    0    0    0 +0.0000000000e+00 +0.0000000000e+00 +4.9999998884e+02 5.0000000000e+02 1.0566000000e-01 0.0000e+00 1.0000e+00
      994 -1    0    0    0    0 -0.0000000000e+00 -0.0000000000e+00 +0.0000000000e+00 1.3100000000e+02 1.3100000000e+02 0.0000e+00 0.0000e+00
       13  1    1    2    0    0 -1.0026706559e+01 -1.6570788534e+00 +4.2958340363e+00 1.1033861919e+01 1.0566000000e-01 0.0000e+00 -1.0000e+00
      994  1    1    2    0    0 +1.4061673672e+01 -1.8208750934e+01 +2.1283166734e+01 1.3469692819e+02 1.3100000000e+02 0.0000e+00 0.0000e+00
      997  1    1    2    0    0 -4.0349671133e+00 +1.9865829787e+01 +4.7442098807e+02 4.8526920989e+02 1.0000000000e+02 0.0000e+00 0.0000e+00
</event>
<event>
 5      1 +8.5651000e-08 1.93074600e+02 7.95774700e-02 5.17465400e-01
       13 -1    0    0    0    0 +0.0000000000e+00 +0.0000000000e+00 +4.9999998884e+02 5.0000000000e+02 1.0566000000e-01 0.0000e+00 -1.0000e+00
      994 -1    0    0    0    0 -0.0000000000e+00 -0.0000000000e+00 +0.0000000000e+00 1.3100000000e+02 1.3100000000e+02 0.0000e+00 0.0000e+00
       13  1    1    2    0    0 +3.1322310430e+01 +6.9566293029e+00 +6.5544991416e+01 7.2976975038e+01 1.0566000000e-01 0.0000e+00 1.0000e+00
      994  1    1    2    0    0 -3.0147423985e+01 -2.9723677570e+01 +3.0180122263e+01 1.4094042699e+02 1.3100000000e+02 0.0000e+00 0.0000e+00
      997  1    1    2    0    0 -1.1748864454e+00 +2.2767048267e+01 +4.0427487516e+02 4.1708259797e+02 1.0000000000e+02 0.0000e+00 0.0000e+00
</event>
<event>
 5      1 +8.5651000e-08 1.95404300e+02 7.95774700e-02 5.12779200e-01
       13 -1    0    0    0    0 +0.0000000000e+00 +0.0000000000e+00 +4.9999998884e+02 5.0000000000e+02 1.0566000000e-01 0.0000e+00 1.0000e+00
      994 -1    0    0    0    0 -0.0000000000e+00 -0.0000000000e+00 +0.0000000000e+00 1.3100000000e+02 1.3100000000e+02 0.0000e+00 0.0000e+00
       13  1    1    2    0    0 +2.4113556200e+01 +2.5055133946e+01 +8.8236711451e+01 9.4841719414e+01 1.0566000000e-01 0.0000e+00 -1.0000e+00
      994  1    1    2    0    0 +1.2801684904e+00 -1.5207140426e+01 +2.3075139751e+01 1.3388934993e+02 1.3100000000e+02 0.0000e+00 0.0000e+00
      997  1    1    2    0    0 -2.5393724691e+01 -9.8479935208e+00 +3.8868813763e+02 4.0226893065e+02 1.0000000000e+02 0.0000e+00 0.0000e+00
</event>
<event>
 5      1 +8.5651000e-08 1.96216100e+02 7.95774700e-02 5.11180600e-01
       13 -1    0    0    0    0 +0.0000000000e+00 +0.0000000000e+00 +4.9999998884e+02 5.0000000000e+02 1.0566000000e-01 0.0000e+00 1.0000e+00
      994 -1    0    0    0    0 -0.0000000000e+00 -0.0000000000e+00 +0.0000000000e+00 1.3100000000e+02 1.3100000000e+02 0.0000e+00 0.0000e+00
       13  1    1    2    0    0 +1.8909175917e+01 -5.9094443796e+00 +7.5608102792e+01 7.8160570869e+01 1.0566000000e-01 0.0000e+00 -1.0000e+00
      994  1    1    2    0    0 -1.2120294217e+01 +3.2898190318e+00 +1.6294394903e+01 1.3260554946e+02 1.3100000000e+02 0.0000e+00 0.0000e+00
      997  1    1    2    0    0 -6.7888816997e+00 +2.6196253478e+00 +4.0809749114e+02 4.2023387968e+02 1.0000000000e+02 0.0000e+00 0.0000e+00
</event>
<event>
 5      1 +8.5651000e-08 2.16598100e+02 7.95774700e-02 4.76029400e-01
       13 -1    0    0    0    0 +0.0000000000e+00 +0.0000000000e+00 +4.9999998884e+02 5.0000000000e+02 1.0566000000e-01 0.0000e+00 1.0000e+00
      994 -1    0    0    0    0 -0.0000000000e+00 -0.0000000000e+00 +0.0000000000e+00 1.3100000000e+02 1.3100000000e+02 0.0000e+00 0.0000e+00
       13  1    1    2    0    0 +4.7496730209e+00 +3.5585085352e+01 +2.3019490326e+01 4.2646990424e+01 1.0566000000e-01 0.0000e+00 -1.0000e+00
      994  1    1    2    0    0 +1.1534692153e+01 +8.8792072562e+01 +1.2659106618e+02 2.0298615546e+02 1.3100000000e+02 0.0000e+00 0.0000e+00
      997  1    1    2    0    0 -1.6284365174e+01 -1.2437715791e+02 +3.5038943233e+02 3.8536685412e+02 1.0000000000e+02 0.0000e+00 0.0000e+00
</event>
<event>
 5      1 +8.5651000e-08 1.96172200e+02 7.95774700e-02 5.11266600e-01
       13 -1    0    0    0    0 +0.0000000000e+00 +0.0000000000e+00 +4.9999998884e+02 5.0000000000e+02 1.0566000000e-01 0.0000e+00 1.0000e+00
      994 -1    0    0    0    0 -0.0000000000e+00 -0.0000000000e+00 +0.0000000000e+00 1.3100000000e+02 1.3100000000e+02 0.0000e+00 0.0000e+00
       13  1    1    2    0    0 -1.3108756830e+01 -4.2855169121e+01 +1.3922660912e+02 1.4626163160e+02 1.0566000000e-01 0.0000e+00 -1.0000e+00
      994  1    1    2    0    0 +5.9147155330e+01 +2.8532812545e+01 +5.0166017614e+01 1.5488749691e+02 1.3100000000e+02 0.0000e+00 0.0000e+00
      997  1    1    2    0    0 -4.6038398500e+01 +1.4322356576e+01 +3.1060736210e+02 3.2985087149e+02 1.0000000000e+02 0.0000e+00 0.0000e+00
</event>
<event>
 5      1 +8.5651000e-08 1.94578400e+02 7.95774700e-02 5.14423500e-01
       13 -1    0    0    0    0 +0.0000000000e+00 +0.0000000000e+00 +4.9999998884e+02 5.0000000000e+02 1.0566000000e-01 0.0000e+00 -1.0000e+00
      994 -1    0    0    0    0 -0.0000000000e+00 -0.0000000000e+00 +0.0000000000e+00 1.3100000000e+02 1.3100000000e+02 0.0000e+00 0.0000e+00
       13  1    1    2    0    0 +1.3214644122e+01 +2.3313638993e+01 +6.2809165568e+01 6.8287297690e+01 1.0566000000e-01 0.0000e+00 1.0000e+00
      994  1    1    2    0    0 -1.9541329975e+00 -4.4465617792e+01 +2.8468541908e+01 1.4125320414e+02 1.3100000000e+02 0.0000e+00 0.0000e+00
      997  1    1    2    0    0 -1.1260511124e+01 +2.1151978799e+01 +4.0872228136e+02 4.2145949817e+02 1.0000000000e+02 0.0000e+00 0.0000e+00
</event>
<event>
 5      1 +8.5651000e-08 1.95128500e+02 7.95774700e-02 5.13326300e-01
       13 -1    0    0    0    0 +0.0000000000e+00 +0.0000000000e+00 +4.9999998884e+02 5.0000000000e+02 1.0566000000e-01 0.0000e+00 -1.0000e+00
      994 -1    0    0    0    0 -0.0000000000e+00 -0.0000000000e+00 +0.0000000000e+00 1.3100000000e+02 1.3100000000e+02 0.0000e+00 0.0000e+00
       13  1    1    2    0    0 -2.5244849599e+00 +1.1293096838e+01 +1.0029987657e+01 1.5314009172e+01 1.0566000000e-01 0.0000e+00 1.0000e+00
      994  1    1    2    0    0 +2.8479034886e+01 -1.3645455672e+01 +2.2116505848e+01 1.3655546023e+02 1.3100000000e+02 0.0000e+00 0.0000e+00
      997  1    1    2    0    0 -2.5954549926e+01 +2.3523588348e+00 +4.6785349533e+02 4.7913053059e+02 1.0000000000e+02 0.0000e+00 0.0000e+00
</event>
<event>
 5      1 +8.5651000e-08 1.97333800e+02 7.95774700e-02 5.09008100e-01
       13 -1    0    0    0    0 +0.0000000000e+00 +0.0000000000e+00 +4.9999998884e+02 5.0000000000e+02 1.0566000000e-01 0.0000e+00 1.0000e+00
      994 -1    0    0    0    0 -0.0000000000e+00 -0.0000000000e+00 +0.0000000000e+00 1.3100000000e+02 1.3100000000e+02 0.0000e+00 0.0000e+00
       13  1    1    2    0    0 -1.2633573249e+01 +9.2480374710e+00 +7.1124719317e+01 7.2827674905e+01 1.0566000000e-01 0.0000e+00 -1.0000e+00
      994  1    1    2    0    0 +9.9453951551e+00 +3.9702775289e-01 +1.4954984751e+01 1.3222601894e+02 1.3100000000e+02 0.0000e+00 0.0000e+00
      997  1    1    2    0    0 +2.6881780942e+00 -9.6450652239e+00 +4.1392028477e+02 4.2594630615e+02 1.0000000000e+02 0.0000e+00 0.0000e+00
</event>
<event>
 5      1 +8.5651000e-08 2.00944200e+02 7.95774700e-02 5.02205400e-01
       13 -1    0    0    0    0 +0.0000000000e+00 +0.0000000000e+00 +4.9999998884e+02 5.0000000000e+02 1.0566000000e-01 0.0000e+00 -1.0000e+00
      994 -1    0    0    0    0 -0.0000000000e+00 -0.0000000000e+00 +0.0000000000e+00 1.3100000000e+02 1.3100000000e+02 0.0000e+00 0.0000e+00
       13  1    1    2    0    0 +9.5260212953e+00 +9.5010304738e+00 -6.1246151876e-01 1.3468516434e+01 1.0566000000e-01 0.0000e+00 1.0000e+00
      994  1    1    2    0    0 +1.3928879284e+01 -2.3085599975e+01 +3.1890807529e+01 1.3749538977e+02 1.3100000000e+02 0.0000e+00 0.0000e+00
      997  1    1    2    0    0 -2.3454900579e+01 +1.3584569501e+01 +4.6872164283e+02 4.8003609379e+02 1.0000000000e+02 0.0000e+00 0.0000e+00
</event>
<event>
 5      1 +8.5651000e-08 1.95555000e+02 7.95774700e-02 5.12481000e-01
       13 -1    0    0    0    0 +0.0000000000e+00 +0.0000000000e+00 +4.9999998884e+02 5.0000000000e+02 1.0566000000e-01 0.0000e+00 1.0000e+00
      994 -1    0    0    0    0 -0.0000000000e+00 -0.0000000000e+00 +0.0000000000e+00 1.3100000000e+02 1.3100000000e+02 0.0000e+00 0.0000e+00
       13  1    1    2    0    0 -1.2311177968e+01 +1.6671357852e+01 +1.8005438908e+01 2.7453711405e+01 1.0566000000e-01 0.0000e+00 -1.0000e+00
      994  1    1    2    0    0 +4.3267784176e+01 +1.7267777586e+01 +3.5233882430e+01 1.4343187847e+02 1.3100000000e+02 0.0000e+00 0.0000e+00
      997  1    1    2    0    0 -3.0956606208e+01 -3.3939135438e+01 +4.4676066750e+02 4.6011441013e+02 1.0000000000e+02 0.0000e+00 0.0000e+00
</event>
<event>
 5      1 +8.5651000e-08 2.16312300e+02 7.95774700e-02 4.76464700e-01
       13 -1    0    0    0    0 +0.0000000000e+00 +0.0000000000e+00 +4.9999998884e+02 5.0000000000e+02 1.0566000000e-01 0.0000e+00 1.0000e+00
      994 -1    0    0    0    0 -0.0000000000e+00 -0.0000000000e+00 +0.0000000000e+00 1.3100000000e+02 1.3100000000e+02 0.0000e+00 0.0000e+00
       13  1    1    2    0    0 -4.2771537794e+01 +1.4748049340e+01 +2.3690709586e+01 5.1070248573e+01 1.0566000000e-01 0.0000e+00 -1.0000e+00
      994  1    1    2    0    0 +3.0770146145e+01 -1.0424939887e+01 +5.3362184082e+01 1.4513443408e+02 1.3100000000e+02 0.0000e+00 0.0000e+00
      997  1    1    2    0    0 +1.2001391649e+01 -4.3231094533e+00 +4.2294709517e+02 4.3479531735e+02 1.0000000000e+02 0.0000e+00 0.0000e+00
</event>
<event>
 5      1 +8.5651000e-08 1.94497200e+02 7.95774700e-02 5.14586100e-01
       13 -1    0    0    0    0 +0.0000000000e+00 +0.0000000000e+00 +4.9999998884e+02 5.0000000000e+02 1.0566000000e-01 0.0000e+00 -1.0000e+00
      994 -1    0    0    0    0 -0.0000000000e+00 -0.0000000000e+00 +0.0000000000e+00 1.3100000000e+02 1.3100000000e+02 0.0000e+00 0.0000e+00
       13  1    1    2    0    0 -3.8432560171e+00 -2.3969302320e+01 +7.5169860448e+01 7.8992513280e+01 1.0566000000e-01 0.0000e+00 1.0000e+00
      994  1    1    2    0    0 +4.7714496385e+01 +1.2585566795e+01 +3.1291645620e+01 1.4344070811e+02 1.3100000000e+02 0.0000e+00 0.0000e+00
      997  1    1    2    0    0 -4.3871240368e+01 +1.1383735525e+01 +3.9353848277e+02 4.0856677861e+02 1.0000000000e+02 0.0000e+00 0.0000e+00
</event>
<event>
 5      1 +8.5651000e-08 1.94091100e+02 7.95774700e-02 5.15402400e-01
       13 -1    0    0    0    0 +0.0000000000e+00 +0.0000000000e+00 +4.9999998884e+02 5.0000000000e+02 1.0566000000e-01 0.0000e+00 1.0000e+00
      994 -1    0    0    0    0 -0.0000000000e+00 -0.0000000000e+00 +0.0000000000e+00 1.3100000000e+02 1.3100000000e+02 0.0000e+00 0.0000e+00
       13  1    1    2    0    0 -2.2920072414e+01 +2.8661508567e+01 +6.7683127857e+01 7.6992394126e+01 1.0566000000e-01 0.0000e+00 -1.0000e+00
      994  1    1    2    0    0 +7.3319620054e+01 -9.0069049175e+00 +5.5327065209e+01 1.6024660735e+02 1.3100000000e+02 0.0000e+00 0.0000e+00
      997  1    1    2    0    0 -5.0399547640e+01 -1.9654603650e+01 +3.7698979577e+02 3.9376099853e+02 1.0000000000e+02 0.0000e+00 0.0000e+00
</event>
<event>
 5      1 +8.5651000e-08 2.21251100e+02 7.95774700e-02 4.69139100e-01
       13 -1    0    0    0    0 +0.0000000000e+00 +0.0000000000e+00 +4.9999998884e+02 5.0000000000e+02 1.0566000000e-01 0.0000e+00 1.0000e+00
      994 -1    0    0    0    0 -0.0000000000e+00 -0.0000000000e+00 +0.0000000000e+00 1.3100000000e+02 1.3100000000e+02 0.0000e+00 0.0000e+00
       13  1    1    2    0    0 -3.9438235034e+01 -2.1456675054e+01 +1.4294070382e+01 4.7117883007e+01 1.0566000000e-01 0.0000e+00 -1.0000e+00
      994  1    1    2    0    0 +4.0376114645e+01 +4.6094484762e+00 +6.6212388252e+01 1.5230416280e+02 1.3100000000e+02 0.0000e+00 0.0000e+00
      997  1    1    2    0    0 -9.3787961134e-01 +1.6847226578e+01 +4.1949353020e+02 4.3157795419e+02 1.0000000000e+02 0.0000e+00 0.0000e+00
</event>
<event>
 5      1 +8.5651000e-08 1.95851300e+02 7.95774700e-02 5.11896900e-01
       13 -1    0    0    0    0 +0.0000000000e+00 +0.0000000000e+00 +4.9999998884e+02 5.0000000000e+02 1.0566000000e-01 0.0000e+00 1.0000e+00
      994 -1    0    0    0    0 -0.0000000000e+00 -0.0000000000e+00 +0.0000000000e+00 1.3100000000e+02 1.3100000000e+02 0.0000e+00 0.0000e+00
       13  1    1    2    0    0 +2.2079810220e+01 -8.0011622625e+00 +5.6864948798e+01 6.1523736743e+01 1.0566000000e-01 0.0000e+00 -1.0000e+00
      994  1    1    2    0    0 -2.9751102421e+01 +9.5441370895e+01 +8.0898764880e+01 1.8357503516e+02 1.3100000000e+02 0.0000e+00 0.0000e+00
      997  1    1    2    0    0 +7.6712922008e+00 -8.7440208632e+01 +3.6223627516e+02 3.8590122810e+02 1.0000000000e+02 0.0000e+00 0.0000e+00
</event>
<event>
 5      1 +8.5651000e-08 2.06308700e+02 7.95774700e-02 4.92663700e-01
       13 -1    0    0    0    0 +0.0000000000e+00 +0.0000000000e+00 +4.9999998884e+02 5.0000000000e+02 1.0566000000e-01 0.0000e+00 -1.0000e+00
      994 -1    0    0    0    0 -0.0000000000e+00 -0.0000000000e+00 +0.0000000000e+00 1.3100000000e+02 1.3100000000e+02 0.0000e+00 0.0000e+00
       13  1    1    2    0    0 +4.3057720557e+01 -5.2235178027e+01 +9.1358309095e+01 1.1370502596e+02 1.0566000000e-01 0.0000e+00 1.0000e+00
      994  1    1    2    0    0 -5.8840910685e+01 +4.4570147617e+01 +7.3994382840e+01 1.6758555881e+02 1.3100000000e+02 0.0000e+00 0.0000e+00
      997  1    1    2    0    0 +1.5783190128e+01 +7.6650304105e+00 +3.3464729690e+02 3.4970941524e+02 1.0000000000e+02 0.0000e+00 0.0000e+00
</event>
<event>
 5      1 +8.5651000e-08 2.02929000e+02 7.95774700e-02 4.98599400e-01
       13 -1    0    0    0    0 +0.0000000000e+00 +0.0000000000e+00 +4.9999998884e+02 5.0000000000e+02 1.0566000000e-01 0.0000e+00 1.0000e+00
      994 -1    0    0    0    0 -0.0000000000e+00 -0.0000000000e+00 +0.0000000000e+00 1.3100000000e+02 1.3100000000e+02 0.0000e+00 0.0000e+00
       13  1    1    2    0    0 +1.3334873693e+01 +1.9619988967e+01 +1.1852165248e+01 2.6518819894e+01 1.0566000000e-01 0.0000e+00 -1.0000e+00
      994  1    1    2    0    0 +1.6481508302e+01 -9.2969387196e+00 +3.1645117594e+01 1.3608999468e+02 1.3100000000e+02 0.0000e+00 0.0000e+00
      997  1    1    2    0    0 -2.9816381995e+01 -1.0323050247e+01 +4.5650270599e+02 4.6839118542e+02 1.0000000000e+02 0.0000e+00 0.0000e+00
</event>
<event>
 5      1 +8.5651000e-08 1.96672300e+02 7.95774700e-02 5.10290000e-01
       13 -1    0    0    0    0 +0.0000000000e+00 +0.0000000000e+00 +4.9999998884e+02 5.0000000000e+02 1.0566000000e-01 0.0000e+00 1.0000e+00
      994 -1    0    0    0    0 -0.0000000000e+00 -0.0000000000e+00 +0.0000000000e+00 1.3100000000e+02 1.3100000000e+02 0.0000e+00 0.0000e+00
       13  1    1    2    0    0 +1.0970253053e+01 +1.8597386455e+00 +1.4059169778e+01 1.7929765719e+01 1.0566000000e-01 0.0000e+00 -1.0000e+00
      994  1    1    2    0    0 -1.6960271030e+01 +7.5628016526e+00 +1.6931438136e+01 1.3338860656e+02 1.3100000000e+02 0.0000e+00 0.0000e+00
      997  1    1    2    0    0 +5.9900179771e+00 -9.4225402982e+00 +4.6900938092e+02 4.7968162772e+02 1.0000000000e+02 0.0000e+00 0.0000e+00
</event>
<event>
 5      1 +8.5651000e-08 2.00503100e+02 7.95774700e-02 5.03019500e-01
       13 -1    0    0    0    0 +0.0000000000e+00 +0.0000000000e+00 +4.9999998884e+02 5.0000000000e+02 1.0566000000e-01 0.0000e+00 1.0000e+00
      994 -1    0    0    0    0 -0.0000000000e+00 -0.0000000000e+00 +0.0000000000e+00 1.3100000000e+02 1.3100000000e+02 0.0000e+00 0.0000e+00
       13  1    1    2    0    0 +3.5638888143e+01 +1.6879595000e+01 +5.4880142265e+01 6.7578785536e+01 1.0566000000e-01 0.0000e+00 -1.0000e+00
      994  1    1    2    0    0 -1.4329717808e+01 -2.7002208146e+01 +3.2755995290e+01 1.3845004617e+02 1.3100000000e+02 0.0000e+00 0.0000e+00
      997  1    1    2    0    0 -2.1309170335e+01 +1.0122613146e+01 +4.1236385128e+02 4.2497116829e+02 1.0000000000e+02 0.0000e+00 0.0000e+00
</event>
<event>
 5      1 +8.5651000e-08 1.97589900e+02 7.95774700e-02 5.08514800e-01
       13 -1    0    0    0    0 +0.0000000000e+00 +0.0000000000e+00 +4.9999998884e+02 5.0000000000e+02 1.0566000000e-01 0.0000e+00 -1.0000e+00
      994 -1    0    0    0    0 -0.0000000000e+00 -0.0000000000e+00 +0.0000000000e+00 1.3100000000e+02 1.3100000000e+02 0.0000e+00 0.0000e+00
       13  1    1    2    0    0 -1.0550908939e+01 -5.4205165287e-01 +1.6139922252e+01 1.9290509422e+01 1.0566000000e-01 0.0000e+00 1.0000e+00
      994  1    1    2    0    0 +1.6913751242e+01 +1.4699405161e+01 +1.6974336593e+01 1.3398237047e+02 1.3100000000e+02 0.0000e+00 0.0000e+00
      997  1    1    2    0    0 -6.3628423031e+00 -1.4157353509e+01 +4.6688572999e+02 4.7772712011e+02 1.0000000000e+02 0.0000e+00 0.0000e+00
</event>
<event>
 5      1 +8.5651000e-08 1.93224600e+02 7.95774700e-02 5.17159000e-01
       13 -1    0    0    0    0 +0.0000000000e+00 +0.0000000000e+00 +4.9999998884e+02 5.0000000000e+02 1.0566000000e-01 0.0000e+00 -1.0000e+00
      994 -1    0    0    0    0 -0.0000000000e+00 -0.0000000000e+00 +0.0000000000e+00 1.3100000000e+02 1.3100000000e+02 0.0000e+00 0.0000e+00
       13  1    1    2    0    0 +1.5378330990e+00 -1.4194342925e+01 +9.5048490530e+00 1.7152189985e+01 1.0566000000e-01 0.0000e+00 1.0000e+00
      994  1    1    2    0    0 -3.4790165551e+01 +3.9944892290e+01 +3.4948669564e+01 1.4556221880e+02 1.3100000000e+02 0.0000e+00 0.0000e+00
      997  1    1    2    0    0 +3.3252332452e+01 -2.5750549365e+01 +4.5554647022e+02 4.6828559121e+02 1.0000000000e+02 0.0000e+00 0.0000e+00
</event>
<event>
 5      1 +8.5651000e-08 1.92588900e+02 7.95774700e-02 5.18461300e-01
       13 -1    0    0    0    0 +0.0000000000e+00 +0.0000000000e+00 +4.9999998884e+02 5.0000000000e+02 1.0566000000e-01 0.0000e+00 1.0000e+00
      994 -1    0    0    0    0 -0.0000000000e+00 -0.0000000000e+00 +0.0000000000e+00 1.3100000000e+02 1.3100000000e+02 0.0000e+00 0.0000e+00
       13  1    1    2    0    0 -1.7014882698e+01 -1.2351547193e+01 +2.5881427872e+01 3.3345560785e+01 1.0566000000e-01 0.0000e+00 -1.0000e+00
      994  1    1    2    0    0 +5.7808195138e+00 +3.5990480891e+01 +2.6857664806e+01 1.3860399254e+02 1.3100000000e+02 0.0000e+00 0.0000e+00
      997  1    1    2    0    0 +1.1234063184e+01 -2.3638933698e+01 +4.4726089616e+02 4.5905044668e+02 1.0000000000e+02 0.0000e+00 0.0000e+00
</event>
<event>
 5      1 +8.5651000e-08 1.97290800e+02 7.95774700e-02 5.09091100e-01
       13 -1    0    0    0    0 +0.0000000000e+00 +0.0000000000e+00 +4.9999998884e+02 5.0000000000e+02 1.0566000000e-01 0.0000e+00 1.0000e+00
      994 -1    0    0    0    0 -0.0000000000e+00 -0.0000000000e+00 +0.0000000000e+00 1.3100000000e+02 1.3100000000e+02 0.0000e+00 0.0000e+00
       13  1    1    2    0    0 -7.3521306569e+00 -3.8208463743e+01 +4.9314497335e+01 6.2816170993e+01 1.0566000000e-01 0.0000e+00 -1.0000e+00
      994  1    1    2    0    0 -5.9909410931e+00 +6.2061048675e+01 +4.8685129218e+01 1.5303171875e+02 1.3100000000e+02 0.0000e+00 0.0000e+00
      997  1    1    2    0    0 +1.3343071750e+01 -2.3852584932e+01 +4.0200036228e+02 4.1515211025e+02 1.0000000000e+02 0.0000e+00 0.0000e+00
</event>
<event>
 5      1 +8.5651000e-08 2.01985300e+02 7.95774700e-02 5.00302500e-01
       13 -1    0    0    0    0 +0.0000000000e+00 +0.0000000000e+00 +4.9999998884e+02 5.0000000000e+02 1.0566000000e-01 0.0000e+00 1.0000e+00
      994 -1    0    0    0    0 -0.0000000000e+00 -0.0000000000e+00 +0.0000000000e+00 1.3100000000e+02 1.3100000000e+02 0.0000e+00 0.0000e+00
       13  1    1    2    0    0 -1.2438221809e+01 -4.1759703708e-01 -1.6280309685e+00 1.2551708965e+01 1.0566000000e-01 0.0000e+00 -1.0000e+00
      994  1    1    2    0    0 -2.5523730183e+01 -2.1673266278e+01 +3.5637654372e+01 1.3982930195e+02 1.3100000000e+02 0.0000e+00 0.0000e+00
      997  1    1    2    0    0 +3.7961951992e+01 +2.2090863315e+01 +4.6599036543e+02 4.7861898909e+02 1.0000000000e+02 0.0000e+00 0.0000e+00
</event>
<event>
 5      1 +8.5651000e-08 2.15774900e+02 7.95774700e-02 4.77287100e-01
       13 -1    0    0    0    0 +0.0000000000e+00 +0.0000000000e+00 +4.9999998884e+02 5.0000000000e+02 1.0566000000e-01 0.0000e+00 -1.0000e+00
      994 -1    0    0    0    0 -0.0000000000e+00 -0.0000000000e+00 +0.0000000000e+00 1.3100000000e+02 1.3100000000e+02 0.0000e+00 0.0000e+00
       13  1    1    2    0    0 +1.2736903498e+01 +3.5220267379e+01 +1.9024717078e+02 1.9389866709e+02 1.0566000000e-01 0.0000e+00 1.0000e+00
      994  1    1    2    0    0 +4.3443865887e+01 +5.0289401949e+01 +8.2247954918e+01 1.6835117915e+02 1.3100000000e+02 0.0000e+00 0.0000e+00
      997  1    1    2    0    0 -5.6180769385e+01 -8.5509669328e+01 +2.2750486313e+02 2.6875015376e+02 1.0000000000e+02 0.0000e+00 0.0000e+00
</event>
<event>
 5      1 +8.5651000e-08 2.10109700e+02 7.95774700e-02 4.86278700e-01
       13 -1    0    0    0    0 +0.0000000000e+00 +0.0000000000e+00 +4.9999998884e+02 5.0000000000e+02 1.0566000000e-01 0.0000e+00 1.0000e+00
      994 -1    0    0    0    0 -0.0000000000e+00 -0.0000000000e+00 +0.0000000000e+00 1.3100000000e+02 1.3100000000e+02 0.0000e+00 0.0000e+00
       13  1    1    2    0    0 -5.1458524472e+00 -5.3189201279e+01 +6.5522277967e+01 8.4550286836e+01 1.0566000000e-01 0.0000e+00 -1.0000e+00
      994  1    1    2    0    0 +1.8811186152e+01 +1.9547447296e+01 +4.2616782552e+01 1.4040353833e+02 1.3100000000e+02 0.0000e+00 0.0000e+00
      997  1    1    2    0    0 -1.3665333704e+01 +3.3641753982e+01 +3.9186092832e+02 4.0604617484e+02 1.0000000000e+02 0.0000e+00 0.0000e+00
</event>
<event>
 5      1 +8.5651000e-08 2.02030500e+02 7.95774700e-02 5.00220400e-01
       13 -1    0    0    0    0 +0.0000000000e+00 +0.0000000000e+00 +4.9999998884e+02 5.0000000000e+02 1.0566000000e-01 0.0000e+00 1.0000e+00
      994 -1    0    0    0    0 -0.0000000000e+00 -0.0000000000e+00 +0.0000000000e+00 1.3100000000e+02 1.3100000000e+02 0.0000e+00 0.0000e+00
       13  1    1    2    0    0 -2.0265183272e+01 +9.0258772397e+00 +8.1980059840e+00 2.3650847324e+01 1.0566000000e-01 0.0000e+00 -1.0000e+00
      994  1    1    2    0    0 +3.6536548799e+01 +3.0953999800e+01 +4.3645700411e+01 1.4614724310e+02 1.3100000000e+02 0.0000e+00 0.0000e+00
      997  1    1    2    0    0 -1.6271365527e+01 -3.9979877039e+01 +4.4815628244e+02 4.6120190957e+02 1.0000000000e+02 0.0000e+00 0.0000e+00
</event>
<event>
 5      1 +8.5651000e-08 1.93997000e+02 7.95774700e-02 5.15592100e-01
       13 -1    0    0    0    0 +0.0000000000e+00 +0.0000000000e+00 +4.9999998884e+02 5.0000000000e+02 1.0566000000e-01 0.0000e+00 1.0000e+00
      994 -1    0    0    0    0 -0.0000000000e+00 -0.0000000000e+00 +0.0000000000e+00 1.3100000000e+02 1.3100000000e+02 0.0000e+00 0.0000e+00
       13  1    1    2    0    0 +1.6411767003e+01 +7.6491887643e-01 +1.8867065312e+01 2.5018163693e+01 1.0566000000e-01 0.0000e+00 -1.0000e+00
      994  1    1    2    0    0 -2.4360276479e+01 +2.5335816527e+01 +2.4620732254e+01 1.3784958152e+02 1.3100000000e+02 0.0000e+00 0.0000e+00
      997  1    1    2    0    0 +7.9485094758e+00 -2.6100735403e+01 +4.5651219127e+02 4.6813225478e+02 1.0000000000e+02 0.0000e+00 0.0000e+00
</event>
<event>
 5      1 +8.5651000e-08 1.93201300e+02 7.95774700e-02 5.17206700e-01
       13 -1    0    0    0    0 +0.0000000000e+00 +0.0000000000e+00 +4.9999998884e+02 5.0000000000e+02 1.0566000000e-01 0.0000e+00 1.0000e+00
      994 -1    0    0    0    0 -0.0000000000e+00 -0.0000000000e+00 +0.0000000000e+00 1.3100000000e+02 1.3100000000e+02 0.0000e+00 0.0000e+00
       13  1    1    2    0    0 -3.6162805559e+00 +1.6669945077e+01 +7.1122090481e+01 7.3139096743e+01 1.0566000000e-01 0.0000e+00 -1.0000e+00
      994  1    1    2    0    0 +1.2425275789e+01 +7.1087895806e+01 +5.2412946931e+01 1.5848026191e+02 1.3100000000e+02 0.0000e+00 0.0000e+00
      997  1    1    2    0    0 -8.8089952332e+00 -8.7757840883e+01 +3.7646495142e+02 3.9938064135e+02 1.0000000000e+02 0.0000e+00 0.0000e+00
</event>
<event>
 5      1 +8.5651000e-08 1.93999500e+02 7.95774700e-02 5.15587100e-01
       13 -1    0    0    0    0 +0.0000000000e+00 +0.0000000000e+00 +4.9999998884e+02 5.0000000000e+02 1.0566000000e-01 0.0000e+00 1.0000e+00
      994 -1    0    0    0    0 -0.0000000000e+00 -0.0000000000e+00 +0.0000000000e+00 1.3100000000e+02 1.3100000000e+02 0.0000e+00 0.0000e+00
       13  1    1    2    0    0 +6.7499234068e-01 -1.9546509410e+01 +5.4848868844e+01 5.8231702897e+01 1.0566000000e-01 0.0000e+00 -1.0000e+00
      994  1    1    2    0    0 -1.4802181132e+01 -1.9767025887e+01 +2.0951614010e+01 1.3494372904e+02 1.3100000000e+02 0.0000e+00 0.0000e+00
      997  1    1    2    0    0 +1.4127188791e+01 +3.9313535297e+01 +4.2419950598e+02 4.3782456806e+02 1.0000000000e+02 0.0000e+00 0.0000e+00
</event>
<event>
 5      1 +8.5651000e-08 1.98122800e+02 7.95774700e-02 5.07493900e-01
       13 -1    0    0    0    0 +0.0000000000e+00 +0.0000000000e+00 +4.9999998884e+02 5.0000000000e+02 1.0566000000e-01 0.0000e+00 -1.0000e+00
      994 -1    0    0    0    0 -0.0000000000e+00 -0.0000000000e+00 +0.0000000000e+00 1.3100000000e+02 1.3100000000e+02 0.0000e+00 0.0000e+00
       13  1    1    2    0    0 -2.9355318873e+01 -1.4436954476e+00 +3.1387853309e+01 4.3000319791e+01 1.0566000000e-01 0.0000e+00 1.0000e+00
      994  1    1    2    0    0 +2.3053188692e+01 +1.6172976492e+01 +2.9291571034e+01 1.3715688394e+02 1.3100000000e+02 0.0000e+00 0.0000e+00
      997  1    1    2    0    0 +6.3021301809e+00 -1.4729281044e+01 +4.3932056449e+02 4.5084279627e+02 1.0000000000e+02 0.0000e+00 0.0000e+00
</event>
<event>
 5      1 +8.5651000e-08 1.97049500e+02 7.95774700e-02 5.09557700e-01
       13 -1    0    0    0    0 +0.0000000000e+00 +0.0000000000e+00 +4.9999998884e+02 5.0000000000e+02 1.0566000000e-01 0.0000e+00 1.0000e+00
      994 -1    0    0    0    0 -0.0000000000e+00 -0.0000000000e+00 +0.0000000000e+00 1.3100000000e+02 1.3100000000e+02 0.0000e+00 0.0000e+00
       13  1    1    2    0    0 -1.7001118489e+01 -1.2132867293e+01 +1.2978413383e+01 2.4590544455e+01 1.0566000000e-01 0.0000e+00 -1.0000e+00
      994  1    1    2    0    0 +3.2330549423e+01 +9.4617414049e+00 +3.0306014626e+01 1.3861545188e+02 1.3100000000e+02 0.0000e+00 0.0000e+00
      997  1    1    2    0    0 -1.5329430933e+01 +2.6711258881e+00 +4.5671556083e+02 4.6779400367e+02 1.0000000000e+02 0.0000e+00 0.0000e+00
</event>
<event>
 5      1 +8.5651000e-08 2.17476400e+02 7.95774700e-02 4.74700700e-01
       13 -1    0    0    0    0 +0.0000000000e+00 +0.0000000000e+00 +4.9999998884e+02 5.0000000000e+02 1.0566000000e-01 0.0000e+00 -1.0000e+00
      994 -1    0    0    0    0 -0.0000000000e+00 -0.0000000000e+00 +0.0000000000e+00 1.3100000000e+02 1.3100000000e+02 0.0000e+00 0.0000e+00
       13  1    1    2    0    0 +2.7103147838e+01 +1.3470319254e+01 -9.0806011086e-01 3.0279792944e+01 1.0566000000e-01 0.0000e+00 1.0000e+00
      994  1    1    2    0    0 -5.7325732034e+01 +1.6209413224e+01 +7.7186690191e+01 1.6330269371e+02 1.3100000000e+02 0.0000e+00 0.0000e+00
      997  1    1    2    0    0 +3.0222584196e+01 -2.9679732478e+01 +4.2372135876e+02 4.3741751335e+02 1.0000000000e+02 0.0000e+00 0.0000e+00
</event>
<event>
 5      1 +8.5651000e-08 2.15860400e+02 7.95774700e-02 4.77155900e-01
       13 -1    0    0    0    0 +0.0000000000e+00 +0.0000000000e+00 +4.9999998884e+02 5.0000000000e+02 1.0566000000e-01 0.0000e+00 -1.0000e+00
      994 -1    0    0    0    0 -0.0000000000e+00 -0.0000000000e+00 +0.0000000000e+00 1.3100000000e+02 1.3100000000e+02 0.0000e+00 0.0000e+00
       13  1    1    2    0    0 -1.7042692673e+01 -8.6056696294e-01 -8.5185343549e+00 1.9072769611e+01 1.0566000000e-01 0.0000e+00 1.0000e+00
      994  1    1    2    0    0 +3.0193210483e+01 +3.7597288349e+00 +5.1674828462e+01 1.4407308360e+02 1.3100000000e+02 0.0000e+00 0.0000e+00
      997  1    1    2    0    0 -1.3150517810e+01 -2.8991618720e+00 +4.5684369473e+02 4.6785414679e+02 1.0000000000e+02 0.0000e+00 0.0000e+00
</event>
<event>
 5      1 +8.5651000e-08 1.94295700e+02 7.95774700e-02 5.14990500e-01
       13 -1    0    0    0    0 +0.0000000000e+00 +0.0000000000e+00 +4.9999998884e+02 5.0000000000e+02 1.0566000000e-01 0.0000e+00 -1.0000e+00
      994 -1    0    0    0    0 -0.0000000000e+00 -0.0000000000e+00 +0.0000000000e+00 1.3100000000e+02 1.3100000000e+02 0.0000e+00 0.0000e+00
       13  1    1    2    0    0 -9.9247741644e+00 +1.5228849768e+00 -7.2843163001e-01 1.0067874530e+01 1.0566000000e-01 0.0000e+00 1.0000e+00
      994  1    1    2    0    0 +4.5661029336e+01 -8.0280058969e+01 +7.8472905536e+01 1.7846236122e+02 1.3100000000e+02 0.0000e+00 0.0000e+00
      997  1    1    2    0    0 -3.5736255171e+01 +7.8757173993e+01 +4.2225551493e+02 4.4246976425e+02 1.0000000000e+02 0.0000e+00 0.0000e+00
</event>
<event>
 5      1 +8.5651000e-08 2.19615100e+02 7.95774700e-02 4.71520500e-01
       13 -1    0    0    0    0 +0.0000000000e+00 +0.0000000000e+00 +4.9999998884e+02 5.0000000000e+02 1.0566000000e-01 0.0000e+00 -1.0000e+00
      994 -1    0    0    0    0 -0.0000000000e+00 -0.0000000000e+00 +0.0000000000e+00 1.3100000000e+02 1.3100000000e+02 0.0000e+00 0.0000e+00
       13  1    1    2    0    0 -2.3726349827e+01 -1.9194585116e+00 -4.4187109746e+00 2.4210744883e+01 1.0566000000e-01 0.0000e+00 1.0000e+00
      994  1    1    2    0    0 -6.7539927892e+00 -3.5397981669e+00 +4.9929770407e+01 1.4039988804e+02 1.3100000000e+02 0.0000e+00 0.0000e+00
      997  1    1    2    0    0 +3.0480342616e+01 +5.4592566786e+00 +4.5448892940e+02 4.6638936707e+02 1.0000000000e+02 0.0000e+00 0.0000e+00
</event>
<event>
 5      1 +8.5651000e-08 1.61909700e+02 7.95774700e-02 5.98887100e-01
       13 -1    0    0    0    0 +0.0000000000e+00 +0.0000000000e+00 +4.9999998884e+02 5.0000000000e+02 1.0566000000e-01 0.0000e+00 -1.0000e+00
      994 -1    0    0    0    0 -0.0000000000e+00 -0.0000000000e+00 +0.0000000000e+00 1.3100000000e+02 1.3100000000e+02 0.0000e+00 0.0000e+00
       13  1    1    2    0    0 -9.5881813296e+01 -2.4326730386e+01 +1.2879657432e+02 1.6239975571e+02 1.0566000000e-01 0.0000e+00 1.0000e+00
      994  1    1    2    0    0 +7.8708788973e+01 +1.8187254210e+01 +1.1248638467e+02 1.9063062821e+02 1.3100000000e+02 0.0000e+00 0.0000e+00
      997  1    1    2    0    0 +1.7173024323e+01 +6.1394761763e+00 +2.5871702985e+02 2.7796961608e+02 1.0000000000e+02 0.0000e+00 0.0000e+00
</event>
<event>
 5      1 +8.5651000e-08 1.98190200e+02 7.95774700e-02 5.07365300e-01
       13 -1    0    0    0    0 +0.0000000000e+00 +0.0000000000e+00 +4.9999998884e+02 5.0000000000e+02 1.0566000000e-01 0.0000e+00 1.0000e+00
      994 -1    0    0    0    0 -0.0000000000e+00 -0.0000000000e+00 +0.0000000000e+00 1.3100000000e+02 1.3100000000e+02 0.0000e+00 0.0000e+00
       13  1    1    2    0    0 +1.0370584984e+01 -3.3996370474e+00 +3.5195339834e+01 3.6848740481e+01 1.0566000000e-01 0.0000e+00 -1.0000e+00
      994  1    1    2    0    0 +1.3588110999e+01 +1.9452010099e+01 +1.6765567004e+01 1.3418309020e+02 1.3100000000e+02 0.0000e+00 0.0000e+00
      997  1    1    2    0    0 -2.3958695983e+01 -1.6052373051e+01 +4.4803908200e+02 4.5996816932e+02 1.0000000000e+02 0.0000e+00 0.0000e+00
</event>
<event>
 5      1 +8.5651000e-08 2.09291100e+02 7.95774700e-02 4.87628900e-01
       13 -1    0    0    0    0 +0.0000000000e+00 +0.0000000000e+00 +4.9999998884e+02 5.0000000000e+02 1.0566000000e-01 0.0000e+00 1.0000e+00
      994 -1    0    0    0    0 -0.0000000000e+00 -0.0000000000e+00 +0.0000000000e+00 1.3100000000e+02 1.3100000000e+02 0.0000e+00 0.0000e+00
       13  1    1    2    0    0 -1.6154178429e+01 -3.4613866472e+01 +2.7945465105e+01 4.7329033550e+01 1.0566000000e-01 0.0000e+00 -1.0000e+00
      994  1    1    2    0    0 +3.3270324757e+01 -5.8208970628e+00 +4.4541474925e+01 1.4242801810e+02 1.3100000000e+02 0.0000e+00 0.0000e+00
      997  1    1    2    0    0 -1.7116146328e+01 +4.0434763534e+01 +4.2751304881e+02 4.4124294835e+02 1.0000000000e+02 0.0000e+00 0.0000e+00
</event>
<event>
 5      1 +8.5651000e-08 1.93348800e+02 7.95774700e-02 5.16906100e-01
       13 -1    0    0    0    0 +0.0000000000e+00 +0.0000000000e+00 +4.9999998884e+02 5.0000000000e+02 1.0566000000e-01 0.0000e+00 1.0000e+00
      994 -1    0    0    0    0 -0.0000000000e+00 -0.0000000000e+00 +0.0000000000e+00 1.3100000000e+02 1.3100000000e+02 0.0000e+00 0.0000e+00
       13  1    1    2    0    0 +2.4197660776e+01 -8.6386990999e+00 +1.2760647582e+02 1.3016749880e+02 1.0566000000e-01 0.0000e+00 -1.0000e+00
      994  1    1    2    0    0 -1.3111115689e+01 -1.0789805722e+01 +1.9702731718e+01 1.3355717465e+02 1.3100000000e+02 0.0000e+00 0.0000e+00
      997  1    1    2    0    0 -1.1086545088e+01 +1.9428504822e+01 +3.5269078130e+02 3.6727532655e+02 1.0000000000e+02 0.0000e+00 0.0000e+00
</event>
<event>
 5      1 +8.5651000e-08 1.97834600e+02 7.95774700e-02 5.08045200e-01
       13 -1    0    0    0    0 +0.0000000000e+00 +0.0000000000e+00 +4.9999998884e+02 5.0000000000e+02 1.0566000000e-01 0.0000e+00 1.0000e+00
      994 -1    0    0    0    0 -0.0000000000e+00 -0.0000000000e+00 +0.0000000000e+00 1.3100000000e+02 1.3100000000e+02 0.0000e+00 0.0000e+00
       13  1    1    2    0    0 +6.3599196209e+00 -2.0204055563e+01 +1.6287484837e+01 2.6719763568e+01 1.0566000000e-01 0.0000e+00 -1.0000e+00
      994  1    1    2    0    0 -1.1559739841e+01 -8.9215518879e+00 +2.5378857659e+01 1.3423229153e+02 1.3100000000e+02 0.0000e+00 0.0000e+00
      997  1    1    2    0    0 +5.1998202202e+00 +2.9125607451e+01 +4.5833364634e+02 4.7004794490e+02 1.0000000000e+02 0.0000e+00 0.0000e+00
</event>
<event>
 5      1 +8.5651000e-08 2.17760400e+02 7.95774700e-02 4.74274000e-01
       13 -1    0    0    0    0 +0.0000000000e+00 +0.0000000000e+00 +4.9999998884e+02 5.0000000000e+02 1.0566000000e-01 0.0000e+00 -1.0000e+00
      994 -1    0    0    0    0 -0.0000000000e+00 -0.0000000000e+00 +0.0000000000e+00 1.3100000000e+02 1.3100000000e+02 0.0000e+00 0.0000e+00
       13  1    1    2    0    0 -1.9638341528e+01 -3.0401666215e-01 -1.0022177678e+01 2.2050217539e+01 1.0566000000e-01 0.0000e+00 1.0000e+00
      994  1    1    2    0    0 +5.9807701315e+01 +1.1317307242e+01 +7.9243049790e+01 1.6475892546e+02 1.3100000000e+02 0.0000e+00 0.0000e+00
      997  1    1    2    0    0 -4.0169359787e+01 -1.1013290580e+01 +4.3077911672e+02 4.4419085700e+02 1.0000000000e+02 0.0000e+00 0.0000e+00
</event>
<event>
 5      1 +8.5651000e-08 2.02895200e+02 7.95774700e-02 4.98660000e-01
       13 -1    0    0    0    0 +0.0000000000e+00 +0.0000000000e+00 +4.9999998884e+02 5.0000000000e+02 1.0566000000e-01 0.0000e+00 1.0000e+00
      994 -1    0    0    0    0 -0.0000000000e+00 -0.0000000000e+00 +0.0000000000e+00 1.3100000000e+02 1.3100000000e+02 0.0000e+00 0.0000e+00
       13  1    1    2    0    0 +2.9279232691e+01 +3.9057799102e+01 +5.3846954537e+01 7.2679369938e+01 1.0566000000e-01 0.0000e+00 -1.0000e+00
      994  1    1    2    0    0 -4.1832916536e+01 -4.6912510967e+01 +5.6714381598e+01 1.5597531109e+02 1.3100000000e+02 0.0000e+00 0.0000e+00
      997  1    1    2    0    0 +1.2553683845e+01 +7.8547118651e+00 +3.8943865270e+02 4.0234531897e+02 1.0000000000e+02 0.0000e+00 0.0000e+00
</event>
<event>
 5      1 +8.5651000e-08 1.92853600e+02 7.95774700e-02 5.17917700e-01
       13 -1    0    0    0    0 +0.0000000000e+00 +0.0000000000e+00 +4.9999998884e+02 5.0000000000e+02 1.0566000000e-01 0.0000e+00 1.0000e+00
      994 -1    0    0    0    0 -0.0000000000e+00 -0.0000000000e+00 +0.0000000000e+00 1.3100000000e+02 1.3100000000e+02 0.0000e+00 0.0000e+00
       13  1    1    2    0    0 +8.4928933698e+00 -2.5174192814e+01 +5.5943957024e+01 6.1932275214e+01 1.0566000000e-01 0.0000e+00 -1.0000e+00
      994  1    1    2    0    0 -3.1452291247e+01 +9.4912823324e-01 +2.5091112624e+01 1.3704273568e+02 1.3100000000e+02 0.0000e+00 0.0000e+00
      997  1    1    2    0    0 +2.2959397877e+01 +2.4225064581e+01 +4.1896491919e+02 4.3202498911e+02 1.0000000000e+02 0.0000e+00 0.0000e+00
</event>
<event>
 5      1 +8.5651000e-08 1.98294800e+02 7.95774700e-02 5.07165800e-01
       13 -1    0    0    0    0 +0.0000000000e+00 +0.0000000000e+00 +4.9999998884e+02 5.0000000000e+02 1.0566000000e-01 0.0000e+00 1.0000e+00
      994 -1    0    0    0    0 -0.0000000000e+00 -0.0000000000e+00 +0.0000000000e+00 1.3100000000e+02 1.3100000000e+02 0.0000e+00 0.0000e+00
       13  1    1    2    0    0 -6.3578567030e+00 -1.3196909288e+01 +2.1430687359e+00 1.4804886499e+01 1.0566000000e-01 0.0000e+00 -1.0000e+00
      994  1    1    2    0    0 +2.4895094341e+00 +3.3326048981e+01 +3.1526207488e+01 1.3882263849e+02 1.3100000000e+02 0.0000e+00 0.0000e+00
      997  1    1    2    0    0 +3.8683472688e+00 -2.0129139693e+01 +4.6633071261e+02 4.7737247501e+02 1.0000000000e+02 0.0000e+00 0.0000e+00
</event>
<event>
 5      1 +8.5651000e-08 1.98685800e+02 7.95774700e-02 5.06423000e-01
       13 -1    0    0    0    0 +0.0000000000e+00 +0.0000000000e+00 +4.9999998884e+02 5.0000000000e+02 1.0566000000e-01 0.0000e+00 1.0000e+00
      994 -1    0    0    0    0 -0.0000000000e+00 -0.0000000000e+00 +0.0000000000e+00 1.3100000000e+02 1.3100000000e+02 0.0000e+00 0.0000e+00
       13  1    1    2    0    0 +1.3410190747e+01 +1.7896554922e+00 +3.4336168277e+01 3.6905551055e+01 1.0566000000e-01 0.0000e+00 -1.0000e+00
      994  1    1    2    0    0 -4.4167605553e+01 +3.4141862033e+00 +2.4220343159e+01 1.4039251786e+02 1.3100000000e+02 0.0000e+00 0.0000e+00
      997  1    1    2    0    0 +3.0757414807e+01 -5.2038416956e+00 +4.4144347740e+02 4.5370193109e+02 1.0000000000e+02 0.0000e+00 0.0000e+00
</event>
<event>
 5      1 +8.5651000e-08 1.96111100e+02 7.95774700e-02 5.11386400e-01
       13 -1    0    0    0    0 +0.0000000000e+00 +0.0000000000e+00 +4.9999998884e+02 5.0000000000e+02 1.0566000000e-01 0.0000e+00 1.0000e+00
      994 -1    0    0    0    0 -0.0000000000e+00 -0.0000000000e+00 +0.0000000000e+00 1.3100000000e+02 1.3100000000e+02 0.0000e+00 0.0000e+00
       13  1    1    2    0    0 +1.4191029669e+01 -7.9979999115e+00 +5.0370051458e+00 1.7050979753e+01 1.0566000000e-01 0.0000e+00 -1.0000e+00
      994  1    1    2    0    0 -5.7589994537e+01 +1.2177438918e+01 +4.4335671231e+01 1.5030485432e+02 1.3100000000e+02 0.0000e+00 0.0000e+00
      997  1    1    2    0    0 +4.3398964867e+01 -4.1794390063e+00 +4.5062731246e+02 4.6364416592e+02 1.0000000000e+02 0.0000e+00 0.0000e+00
</event>
<event>
 5      1 +8.5651000e-08 2.14633700e+02 7.95774700e-02 4.79050400e-01
       13 -1    0    0    0    0 +0.0000000000e+00 +0.0000000000e+00 +4.9999998884e+02 5.0000000000e+02 1.0566000000e-01 0.0000e+00 1.0000e+00
      994 -1    0    0    0    0 -0.0000000000e+00 -0.0000000000e+00 +0.0000000000e+00 1.3100000000e+02 1.3100000000e+02 0.0000e+00 0.0000e+00
       13  1    1    2    0    0 -1.1825732258e+01 +3.5283705076e+01 +1.9613836418e+01 4.2065443423e+01 1.0566000000e-01 0.0000e+00 -1.0000e+00
      994  1    1    2    0    0 -4.5816796286e+01 +6.5094440265e-01 +5.9443662624e+01 1.5097732140e+02 1.3100000000e+02 0.0000e+00 0.0000e+00
      997  1    1    2    0    0 +5.7642528544e+01 -3.5934649479e+01 +4.2094248979e+02 4.3795723518e+02 1.0000000000e+02 0.0000e+00 0.0000e+00
</event>
<event>
 5      1 +8.5651000e-08 2.01017100e+02 7.95774700e-02 5.02071400e-01
       13 -1    0    0    0    0 +0.0000000000e+00 +0.0000000000e+00 +4.9999998884e+02 5.0000000000e+02 1.0566000000e-01 0.0000e+00 -1.0000e+00
      994 -1    0    0    0    0 -0.0000000000e+00 -0.0000000000e+00 +0.0000000000e+00 1.3100000000e+02 1.3100000000e+02 0.0000e+00 0.0000e+00
       13  1    1    2    0    0 -3.4469841081e+00 -4.3099109124e+01 +4.5468672125e+01 6.2744132917e+01 1.0566000000e-01 0.0000e+00 1.0000e+00
      994  1    1    2    0    0 -7.3253572998e+00 +6.3459080205e+01 +5.5034804471e+01 1.5579006844e+02 1.3100000000e+02 0.0000e+00 0.0000e+00
      997  1    1    2    0    0 +1.0772341408e+01 -2.0359971082e+01 +3.9949651224e+02 4.1246579865e+02 1.0000000000e+02 0.0000e+00 0.0000e+00
</event>
<event>
 5      1 +8.5651000e-08 2.05031100e+02 7.95774700e-02 4.94878000e-01
       13 -1    0    0    0    0 +0.0000000000e+00 +0.0000000000e+00 +4.9999998884e+02 5.0000000000e+02 1.0566000000e-01 0.0000e+00 -1.0000e+00
      994 -1    0    0    0    0 -0.0000000000e+00 -0.0000000000e+00 +0.0000000000e+00 1.3100000000e+02 1.3100000000e+02 0.0000e+00 0.0000e+00
       13  1    1    2    0    0 -1.6835054221e+01 -1.5707045672e+01 +6.6333201680e+00 2.3961269475e+01 1.0566000000e-01 0.0000e+00 1.0000e+00
      994  1    1    2    0    0 +1.7892781193e+01 +2.2615095920e+00 +3.3748287148e+01 1.3647422075e+02 1.3100000000e+02 0.0000e+00 0.0000e+00
      997  1    1    2    0    0 -1.0577269720e+00 +1.3445536080e+01 +4.5961838152e+02 4.7056450977e+02 1.0000000000e+02 0.0000e+00 0.0000e+00
</event>
<event>
 5      1 +8.5651000e-08 1.97888800e+02 7.95774700e-02 5.07941300e-01
       13 -1    0    0    0    0 +0.0000000000e+00 +0.0000000000e+00 +4.9999998884e+02 5.0000000000e+02 1.0566000000e-01 0.0000e+00 1.0000e+00
      994 -1    0    0    0    0 -0.0000000000e+00 -0.0000000000e+00 +0.0000000000e+00 1.3100000000e+02 1.3100000000e+02 0.0000e+00 0.0000e+00
       13  1    1    2    0    0 -8.3325435073e+00 -9.8989028656e+00 +7.8263203411e+01 7.9325656199e+01 1.0566000000e-01 0.0000e+00 -1.0000e+00
      994  1    1    2    0    0 +2.1606631989e+01 -6.5847104995e+00 +1.6745969258e+01 1.3398370216e+02 1.3100000000e+02 0.0000e+00 0.0000e+00
      997  1    1    2    0    0 -1.3274088481e+01 +1.6483613365e+01 +4.0499081617e+02 4.1769064164e+02 1.0000000000e+02 0.0000e+00 0.0000e+00
</event>
<event>
 5      1 +8.5651000e-08 1.94515500e+02 7.95774700e-02 5.14549600e-01
       13 -1    0    0    0    0 +0.0000000000e+00 +0.0000000000e+00 +4.9999998884e+02 5.0000000000e+02 1.0566000000e-01 0.0000e+00 -1.0000e+00
      994 -1    0    0    0    0 -0.0000000000e+00 -0.0000000000e+00 +0.0000000000e+00 1.3100000000e+02 1.3100000000e+02 0.0000e+00 0.0000e+00
       13  1    1    2    0    0 -7.6052078781e+00 -3.6766736136e+01 +6.9214711884e+01 7.8742108037e+01 1.0566000000e-01 0.0000e+00 1.0000e+00
      994  1    1    2    0    0 +8.8993865393e+00 +4.7084765769e+01 +3.4876736198e+01 1.4378303438e+02 1.3100000000e+02 0.0000e+00 0.0000e+00
      997  1    1    2    0    0 -1.2941786612e+00 -1.0318029633e+01 +3.9590854075e+02 4.0847485758e+02 1.0000000000e+02 0.0000e+00 0.0000e+00
</event>
<event>
 5      1 +8.5651000e-08 1.97043100e+02 7.95774700e-02 5.09570000e-01
       13 -1    0    0    0    0 +0.0000000000e+00 +0.0000000000e+00 +4.9999998884e+02 5.0000000000e+02 1.0566000000e-01 0.0000e+00 -1.0000e+00
      994 -1    0    0    0    0 -0.0000000000e+00 -0.0000000000e+00 +0.0000000000e+00 1.3100000000e+02 1.3100000000e+02 0.0000e+00 0.0000e+00
       13  1    1    2    0    0 -3.3410916930e+00 +1.1063641795e+01 +1.9801370483e+01 2.2927548942e+01 1.0566000000e-01 0.0000e+00 1.0000e+00
      994  1    1    2    0    0 +4.7330413118e+00 -2.9906568014e-01 +1.4789379425e+01 1.3191746232e+02 1.3100000000e+02 0.0000e+00 0.0000e+00
      997  1    1    2    0    0 -1.3919496189e+00 -1.0764576115e+01 +4.6540923893e+02 4.7615498874e+02 1.0000000000e+02 0.0000e+00 0.0000e+00
</event>
<event>
 5      1 +8.5651000e-08 1.93531600e+02 7.95774700e-02 5.16534300e-01
       13 -1    0    0    0    0 +0.0000000000e+00 +0.0000000000e+00 +4.9999998884e+02 5.0000000000e+02 1.0566000000e-01 0.0000e+00 1.0000e+00
      994 -1    0    0    0    0 -0.0000000000e+00 -0.0000000000e+00 +0.0000000000e+00 1.3100000000e+02 1.3100000000e+02 0.0000e+00 0.0000e+00
       13  1    1    2    0    0 -1.0413809298e+01 -2.1950281424e+00 +2.5073012362e+00 1.0934500271e+01 1.0566000000e-01 0.0000e+00 -1.0000e+00
      994  1    1    2    0    0 +2.1885285148e+01 +3.4962898729e+00 +2.2783946931e+01 1.3480095692e+02 1.3100000000e+02 0.0000e+00 0.0000e+00
      997  1    1    2    0    0 -1.1471475850e+01 -1.3012617306e+00 +4.7470874067e+02 4.8526454281e+02 1.0000000000e+02 0.0000e+00 0.0000e+00
</event>
<event>
 5      1 +8.5651000e-08 2.06286800e+02 7.95774700e-02 4.92701300e-01
       13 -1    0    0    0    0 +0.0000000000e+00 +0.0000000000e+00 +4.9999998884e+02 5.0000000000e+02 1.0566000000e-01 0.0000e+00 -1.0000e+00
      994 -1    0    0    0    0 -0.0000000000e+00 -0.0000000000e+00 +0.0000000000e+00 1.3100000000e+02 1.3100000000e+02 0.0000e+00 0.0000e+00
       13  1    1    2    0    0 -7.0201359240e+01 +1.3662771535e+01 +9.8336323358e+01 1.2159336257e+02 1.0566000000e-01 0.0000e+00 1.0000e+00
      994  1    1    2    0    0 +6.2755241721e+01 -1.0170171067e+02 +1.9664025111e+02 2.6478264043e+02 1.3100000000e+02 0.0000e+00 0.0000e+00
      997  1    1    2    0    0 +7.4461175190e+00 +8.8038939134e+01 +2.0502341437e+02 2.4462399700e+02 1.0000000000e+02 0.0000e+00 0.0000e+00
</event>
<event>
 5      1 +8.5651000e-08 1.92948700e+02 7.95774700e-02 5.17722900e-01
       13 -1    0    0    0    0 +0.0000000000e+00 +0.0000000000e+00 +4.9999998884e+02 5.0000000000e+02 1.0566000000e-01 0.0000e+00 1.0000e+00
      994 -1    0    0    0    0 -0.0000000000e+00 -0.0000000000e+00 +0.0000000000e+00 1.3100000000e+02 1.3100000000e+02 0.0000e+00 0.0000e+00
       13  1    1    2    0    0 +8.1485635686e+00 +2.4551062874e+01 +5.6520347605e+01 6.2158785653e+01 1.0566000000e-01 0.0000e+00 -1.0000e+00
      994  1    1    2    0    0 +1.2178859583e+01 -6.5856418114e+00 +2.0450629455e+01 1.3330762748e+02 1.3100000000e+02 0.0000e+00 0.0000e+00
      997  1    1    2    0    0 -2.0327423151e+01 -1.7965421063e+01 +4.2302901178e+02 4.3553358687e+02 1.0000000000e+02 0.0000e+00 0.0000e+00
</event>
<event>
 5      1 +8.5651000e-08 1.93086300e+02 7.95774700e-02 5.17441500e-01
       13 -1    0    0    0    0 +0.0000000000e+00 +0.0000000000e+00 +4.9999998884e+02 5.0000000000e+02 1.0566000000e-01 0.0000e+00 -1.0000e+00
      994 -1    0    0    0    0 -0.0000000000e+00 -0.0000000000e+00 +0.0000000000e+00 1.3100000000e+02 1.3100000000e+02 0.0000e+00 0.0000e+00
       13  1    1    2    0    0 -6.6323782939e+00 -1.2459047598e+01 +1.2161418134e+01 1.8631359691e+01 1.0566000000e-01 0.0000e+00 1.0000e+00
      994  1    1    2    0    0 +4.7785549783e+00 -3.4320083960e+01 +2.6591806381e+01 1.3808992330e+02 1.3100000000e+02 0.0000e+00 0.0000e+00
      997  1    1    2    0    0 +1.8538233156e+00 +4.6779131558e+01 +4.6124676432e+02 4.7427871701e+02 1.0000000000e+02 0.0000e+00 0.0000e+00
</event>
<event>
 5      1 +8.5651000e-08 2.17299500e+02 7.95774700e-02 4.74967300e-01
       13 -1    0    0    0    0 +0.0000000000e+00 +0.0000000000e+00 +4.9999998884e+02 5.0000000000e+02 1.0566000000e-01 0.0000e+00 -1.0000e+00
      994 -1    0    0    0    0 -0.0000000000e+00 -0.0000000000e+00 +0.0000000000e+00 1.3100000000e+02 1.3100000000e+02 0.0000e+00 0.0000e+00
       13  1    1    2    0    0 +3.3635147984e+01 +5.5819642582e+01 +9.9771500097e+01 1.1917012660e+02 1.0566000000e-01 0.0000e+00 1.0000e+00
      994  1    1    2    0    0 +1.2019615409e+01 -1.1587696367e+01 +4.8510086734e+01 1.4068750611e+02 1.3100000000e+02 0.0000e+00 0.0000e+00
      997  1    1    2    0    0 -4.5654763394e+01 -4.4231946215e+01 +3.5171840201e+02 3.7114236729e+02 1.0000000000e+02 0.0000e+00 0.0000e+00
</event>
<event>
 5      1 +8.5651000e-08 2.31389600e+02 7.95774700e-02 4.55295800e-01
       13 -1    0    0    0    0 +0.0000000000e+00 +0.0000000000e+00 +4.9999998884e+02 5.0000000000e+02 1.0566000000e-01 0.0000e+00 1.0000e+00
      994 -1    0    0    0    0 -0.0000000000e+00 -0.0000000000e+00 +0.0000000000e+00 1.3100000000e+02 1.3100000000e+02 0.0000e+00 0.0000e+00
       13  1    1    2    0    0 -2.1176912780e+01 +5.6074351937e+01 +2.3988887268e+01 6.4562159633e+01 1.0566000000e-01 0.0000e+00 -1.0000e+00
      994  1    1    2    0    0 +4.2611837486e+01 +6.1559531377e+01 +2.4591959554e+02 2.8851826990e+02 1.3100000000e+02 0.0000e+00 0.0000e+00
      997  1    1    2    0    0 -2.1434924705e+01 -1.1763388331e+02 +2.3009150603e+02 2.7791957046e+02 1.0000000000e+02 0.0000e+00 0.0000e+00
</event>
<event>
 5      1 +8.5651000e-08 2.10287200e+02 7.95774700e-02 4.85987700e-01
       13 -1    0    0    0    0 +0.0000000000e+00 +0.0000000000e+00 +4.9999998884e+02 5.0000000000e+02 1.0566000000e-01 0.0000e+00 1.0000e+00
      994 -1    0    0    0    0 -0.0000000000e+00 -0.0000000000e+00 +0.0000000000e+00 1.3100000000e+02 1.3100000000e+02 0.0000e+00 0.0000e+00
       13  1    1    2    0    0 -1.0042294490e+01 +4.4651691395e+01 +8.5470054766e+01 9.6952373096e+01 1.0566000000e-01 0.0000e+00 -1.0000e+00
      994  1    1    2    0    0 -3.8327190049e+01 +3.2609826395e+01 +5.6461165663e+01 1.5126545376e+02 1.3100000000e+02 0.0000e+00 0.0000e+00
      997  1    1    2    0    0 +4.8369484539e+01 -7.7261517790e+01 +3.5806876841e+02 3.8278217314e+02 1.0000000000e+02 0.0000e+00 0.0000e+00
</event>
<event>
 5      1 +8.5651000e-08 2.04612500e+02 7.95774700e-02 4.95611200e-01
       13 -1    0    0    0    0 +0.0000000000e+00 +0.0000000000e+00 +4.9999998884e+02 5.0000000000e+02 1.0566000000e-01 0.0000e+00 1.0000e+00
      994 -1    0    0    0    0 -0.0000000000e+00 -0.0000000000e+00 +0.0000000000e+00 1.3100000000e+02 1.3100000000e+02 0.0000e+00 0.0000e+00
       13  1    1    2    0    0 +2.3388904200e+01 +2.4374533756e+01 +2.2973687578e+01 4.0852909572e+01 1.0566000000e-01 0.0000e+00 -1.0000e+00
      994  1    1    2    0    0 -2.8172077993e+01 -2.0912900983e+01 +3.9432338462e+01 1.4123358213e+02 1.3100000000e+02 0.0000e+00 0.0000e+00
      997  1    1    2    0    0 +4.7831737930e+00 -3.4616327726e+00 +4.3759396280e+02 4.4891350829e+02 1.0000000000e+02 0.0000e+00 0.0000e+00
</event>
<event>
 5      1 +8.5651000e-08 1.97356600e+02 7.95774700e-02 5.08964200e-01
       13 -1    0    0    0    0 +0.0000000000e+00 +0.0000000000e+00 +4.9999998884e+02 5.0000000000e+02 1.0566000000e-01 0.0000e+00 -1.0000e+00
      994 -1    0    0    0    0 -0.0000000000e+00 -0.0000000000e+00 +0.0000000000e+00 1.3100000000e+02 1.3100000000e+02 0.0000e+00 0.0000e+00
       13  1    1    2    0    0 -1.5718735363e+01 +1.1180949202e+01 +7.3986543381e+01 7.6459872037e+01 1.0566000000e-01 0.0000e+00 1.0000e+00
      994  1    1    2    0    0 +2.5316019232e+01 -2.0295631233e+01 +2.0302325432e+01 1.3647709659e+02 1.3100000000e+02 0.0000e+00 0.0000e+00
      997  1    1    2    0    0 -9.5972838684e+00 +9.1146820314e+00 +4.0571112002e+02 4.1806303137e+02 1.0000000000e+02 0.0000e+00 0.0000e+00
</event>
<event>
 5      1 +8.5651000e-08 1.93552700e+02 7.95774700e-02 5.16491500e-01
       13 -1    0    0    0    0 +0.0000000000e+00 +0.0000000000e+00 +4.9999998884e+02 5.0000000000e+02 1.0566000000e-01 0.0000e+00 -1.0000e+00
      994 -1    0    0    0    0 -0.0000000000e+00 -0.0000000000e+00 +0.0000000000e+00 1.3100000000e+02 1.3100000000e+02 0.0000e+00 0.0000e+00
       13  1    1    2    0    0 +3.2509863381e+01 +5.3049301683e+00 +7.2147214867e+01 7.9311192642e+01 1.0566000000e-01 0.0000e+00 1.0000e+00
      994  1    1    2    0    0 -3.1521696791e+01 +1.2175046965e+01 +2.6710722302e+01 1.3789964403e+02 1.3100000000e+02 0.0000e+00 0.0000e+00
      997  1    1    2    0    0 -9.8816658998e-01 -1.7479977133e+01 +4.0114205167e+02 4.1378916333e+02 1.0000000000e+02 0.0000e+00 0.0000e+00
</event>
<event>
 5      1 +8.5651000e-08 1.96402000e+02 7.95774700e-02 5.10817000e-01
       13 -1    0    0    0    0 +0.0000000000e+00 +0.0000000000e+00 +4.9999998884e+02 5.0000000000e+02 1.0566000000e-01 0.0000e+00 1.0000e+00
      994 -1    0    0    0    0 -0.0000000000e+00 -0.0000000000e+00 +0.0000000000e+00 1.3100000000e+02 1.3100000000e+02 0.0000e+00 0.0000e+00
       13  1    1    2    0    0 -3.3886143338e+01 -2.1476902436e+01 +1.2469036245e+02 1.3098559348e+02 1.0566000000e-01 0.0000e+00 -1.0000e+00
      994  1    1    2    0    0 +5.0431502966e+00 +2.4595542559e+01 +2.6494515436e+01 1.3599019607e+02 1.3100000000e+02 0.0000e+00 0.0000e+00
      997  1    1    2    0    0 +2.8842993042e+01 -3.1186401234e+00 +3.4881511095e+02 3.6402421045e+02 1.0000000000e+02 0.0000e+00 0.0000e+00
</event>
<event>
 5      1 +8.5651000e-08 2.05926200e+02 7.95774700e-02 4.93322900e-01
       13 -1    0    0    0    0 +0.0000000000e+00 +0.0000000000e+00 +4.9999998884e+02 5.0000000000e+02 1.0566000000e-01 0.0000e+00 1.0000e+00
      994 -1    0    0    0    0 -0.0000000000e+00 -0.0000000000e+00 +0.0000000000e+00 1.3100000000e+02 1.3100000000e+02 0.0000e+00 0.0000e+00
       13  1    1    2    0    0 -4.0316617815e+01 +4.7257516141e+00 +2.1758907651e+02 2.2134312680e+02 1.0566000000e-01 0.0000e+00 -1.0000e+00
      994  1    1    2    0    0 -1.5729286485e+01 -7.6268605756e+00 +3.4622689514e+01 1.3662104554e+02 1.3100000000e+02 0.0000e+00 0.0000e+00
      997  1    1    2    0    0 +5.6045904300e+01 +2.9011089615e+00 +2.4778822281e+02 2.7303582766e+02 1.0000000000e+02 0.0000e+00 0.0000e+00
</event>
<event>
 5      1 +8.5651000e-08 1.95046800e+02 7.95774700e-02 5.13488800e-01
       13 -1    0    0    0    0 +0.0000000000e+00 +0.0000000000e+00 +4.9999998884e+02 5.0000000000e+02 1.0566000000e-01 0.0000e+00 1.0000e+00
      994 -1    0    0    0    0 -0.0000000000e+00 -0.0000000000e+00 +0.0000000000e+00 1.3100000000e+02 1.3100000000e+02 0.0000e+00 0.0000e+00
       13  1    1    2    0    0 -2.3667241516e+00 -1.1899965936e+01 +9.4724569073e+00 1.5393153555e+01 1.0566000000e-01 0.0000e+00 -1.0000e+00
      994  1    1    2    0    0 +3.1286856049e+01 +3.4286570431e+01 +2.9022649020e+01 1.4197799276e+02 1.3100000000e+02 0.0000e+00 0.0000e+00
      997  1    1    2    0    0 -2.8920131897e+01 -2.2386604496e+01 +4.6150488291e+02 4.7362885368e+02 1.0000000000e+02 0.0000e+00 0.0000e+00
</event>
<event>
 5      1 +8.5651000e-08 2.16140200e+02 7.95774700e-02 4.76727500e-01
       13 -1    0    0    0    0 +0.0000000000e+00 +0.0000000000e+00 +4.9999998884e+02 5.0000000000e+02 1.0566000000e-01 0.0000e+00 1.0000e+00
      994 -1    0    0    0    0 -0.0000000000e+00 -0.0000000000e+00 +0.0000000000e+00 1.3100000000e+02 1.3100000000e+02 0.0000e+00 0.0000e+00
       13  1    1    2    0    0 -4.1473505498e+01 -1.9531692141e+00 +2.8955780448e+01 5.0619313643e+01 1.0566000000e-01 0.0000e+00 -1.0000e+00
      994  1    1    2    0    0 -2.3702200673e+01 -8.2758186641e+00 +4.9711087997e+01 1.4234632331e+02 1.3100000000e+02 0.0000e+00 0.0000e+00
      997  1    1    2    0    0 +6.5175706171e+01 +1.0228987878e+01 +4.2133312039e+02 4.3803436304e+02 1.0000000000e+02 0.0000e+00 0.0000e+00
</event>
<event>
 5      1 +8.5651000e-08 2.11689100e+02 7.95774700e-02 4.83711000e-01
       13 -1    0    0    0    0 +0.0000000000e+00 +0.0000000000e+00 +4.9999998884e+02 5.0000000000e+02 1.0566000000e-01 0.0000e+00 1.0000e+00
      994 -1    0    0    0    0 -0.0000000000e+00 -0.0000000000e+00 +0.0000000000e+00 1.3100000000e+02 1.3100000000e+02 0.0000e+00 0.0000e+00
       13  1    1    2    0    0 -1.3891633148e+01 +1.9983398673e+01 -3.2637774609e+00 2.4555592060e+01 1.0566000000e-01 0.0000e+00 -1.0000e+00
      994  1    1    2    0    0 -3.8291751327e+01 -7.9970062904e+01 +1.0927197441e+02 1.9225720681e+02 1.3100000000e+02 0.0000e+00 0.0000e+00
      997  1    1    2    0    0 +5.2183384475e+01 +5.9986664231e+01 +3.9399179189e+02 4.1418720113e+02 1.0000000000e+02 0.0000e+00 0.0000e+00
</event>
<event>
 5      1 +8.5651000e-08 2.04716800e+02 7.95774700e-02 4.95428100e-01
       13 -1    0    0    0    0 +0.0000000000e+00 +0.0000000000e+00 +4.9999998884e+02 5.0000000000e+02 1.0566000000e-01 0.0000e+00 -1.0000e+00
      994 -1    0    0    0    0 -0.0000000000e+00 -0.0000000000e+00 +0.0000000000e+00 1.3100000000e+02 1.3100000000e+02 0.0000e+00 0.0000e+00
       13  1    1    2    0    0 +3.5848924159e+01 -1.4705760902e+01 +2.9753584939e+01 4.8853779258e+01 1.0566000000e-01 0.0000e+00 1.0000e+00
      994  1    1    2    0    0 -4.3081993334e+01 +2.1339504943e+01 +4.7168553697e+01 1.4730005118e+02 1.3100000000e+02 0.0000e+00 0.0000e+00
      997  1    1    2    0    0 +7.2330691752e+00 -6.6337440415e+00 +4.2307785020e+02 4.3484616956e+02 1.0000000000e+02 0.0000e+00 0.0000e+00
</event>
<event>
 5      1 +8.5651000e-08 1.94245600e+02 7.95774700e-02 5.15091300e-01
       13 -1    0    0    0    0 +0.0000000000e+00 +0.0000000000e+00 +4.9999998884e+02 5.0000000000e+02 1.0566000000e-01 0.0000e+00 1.0000e+00
      994 -1    0    0    0    0 -0.0000000000e+00 -0.0000000000e+00 +0.0000000000e+00 1.3100000000e+02 1.3100000000e+02 0.0000e+00 0.0000e+00
       13  1    1    2    0    0 -1.4191772594e+01 -8.5844755584e+00 +1.0921513990e+01 1.9859261362e+01 1.0566000000e-01 0.0000e+00 -1.0000e+00
      994  1    1    2    0    0 +1.6516846638e+01 +1.6656163839e+01 +2.3839619060e+01 1.3520192844e+02 1.3100000000e+02 0.0000e+00 0.0000e+00
      997  1    1    2    0    0 -2.3250740450e+00 -8.0716882808e+00 +4.6523885579e+02 4.7593881020e+02 1.0000000000e+02 0.0000e+00 0.0000e+00
</event>
<event>
 5      1 +8.5651000e-08 1.94910400e+02 7.95774700e-02 5.13760400e-01
       13 -1    0    0    0    0 +0.0000000000e+00 +0.0000000000e+00 +4.9999998884e+02 5.0000000000e+02 1.0566000000e-01 0.0000e+00 -1.0000e+00
      994 -1    0    0    0    0 -0.0000000000e+00 -0.0000000000e+00 +0.0000000000e+00 1.3100000000e+02 1.3100000000e+02 0.0000e+00 0.0000e+00
       13  1    1    2    0    0 -1.1644494126e+01 -5.3251224547e-01 +2.8764123384e+00 1.2006778282e+01 1.0566000000e-01 0.0000e+00 1.0000e+00
      994  1    1    2    0    0 +6.4147863968e+00 +6.4542222769e+00 +2.1692978246e+01 1.3309542357e+02 1.3100000000e+02 0.0000e+00 0.0000e+00
      997  1    1    2    0    0 +5.2297077290e+00 -5.9217100314e+00 +4.7543059825e+02 4.8589779815e+02 1.0000000000e+02 0.0000e+00 0.0000e+00
</event>
<event>
 5      1 +8.5651000e-08 2.10756800e+02 7.95774700e-02 4.85220800e-01
       13 -1    0    0    0    0 +0.0000000000e+00 +0.0000000000e+00 +4.9999998884e+02 5.0000000000e+02 1.0566000000e-01 0.0000e+00 1.0000e+00
      994 -1    0    0    0    0 -0.0000000000e+00 -0.0000000000e+00 +0.0000000000e+00 1.3100000000e+02 1.3100000000e+02 0.0000e+00 0.0000e+00
       13  1    1    2    0    0 -2.9038712613e+01 -4.4359585991e+01 +2.1673841893e+02 2.2312905034e+02 1.0566000000e-01 0.0000e+00 -1.0000e+00
      994  1    1    2    0    0 -2.9309900164e+01 +1.8464711411e+01 +4.6871985798e+01 1.4338060841e+02 1.3100000000e+02 0.0000e+00 0.0000e+00
      997  1    1    2    0    0 +5.8348612777e+01 +2.5894874580e+01 +2.3638958411e+02 2.6449034125e+02 1.0000000000e+02 0.0000e+00 0.0000e+00
</event>
<event>
 5      1 +8.5651000e-08 2.32176300e+02 7.95774700e-02 4.54282900e-01
       13 -1    0    0    0    0 +0.0000000000e+00 +0.0000000000e+00 +4.9999998884e+02 5.0000000000e+02 1.0566000000e-01 0.0000e+00 -1.0000e+00
      994 -1    0    0    0    0 -0.0000000000e+00 -0.0000000000e+00 +0.0000000000e+00 1.3100000000e+02 1.3100000000e+02 0.0000e+00 0.0000e+00
       13  1    1    2    0    0 +1.5056482705e+01 -2.8456563434e+01 -6.0187612377e+00 3.2752256789e+01 1.0566000000e-01 0.0000e+00 1.0000e+00
      994  1    1    2    0    0 +4.1650165126e+01 -3.5994595862e+01 +1.0657124798e+02 1.7761975702e+02 1.3100000000e+02 0.0000e+00 0.0000e+00
      997  1    1    2    0    0 -5.6706647831e+01 +6.4451159296e+01 +3.9944750209e+02 4.2062798619e+02 1.0000000000e+02 0.0000e+00 0.0000e+00
</event>
<event>
 5      1 +8.5651000e-08 2.03032800e+02 7.95774700e-02 4.98413100e-01
       13 -1    0    0    0    0 +0.0000000000e+00 +0.0000000000e+00 +4.9999998884e+02 5.0000000000e+02 1.0566000000e-01 0.0000e+00 -1.0000e+00
      994 -1    0    0    0    0 -0.0000000000e+00 -0.0000000000e+00 +0.0000000000e+00 1.3100000000e+02 1.3100000000e+02 0.0000e+00 0.0000e+00
       13  1    1    2    0    0 -5.2541442738e+01 +8.6655780326e-02 +7.4077707230e+01 9.0819208247e+01 1.0566000000e-01 0.0000e+00 1.0000e+00
      994  1    1    2    0    0 +5.0344249597e+01 +1.7123759173e+01 +4.8685726971e+01 1.4952948407e+02 1.3100000000e+02 0.0000e+00 0.0000e+00
      997  1    1    2    0    0 +2.1971931413e+00 -1.7210414953e+01 +3.7723655464e+02 3.9065130768e+02 1.0000000000e+02 0.0000e+00 0.0000e+00
</event>
<event>
 5      1 +8.5651000e-08 1.97908100e+02 7.95774700e-02 5.07904300e-01
       13 -1    0    0    0    0 +0.0000000000e+00 +0.0000000000e+00 +4.9999998884e+02 5.0000000000e+02 1.0566000000e-01 0.0000e+00 -1.0000e+00
      994 -1    0    0    0    0 -0.0000000000e+00 -0.0000000000e+00 +0.0000000000e+00 1.3100000000e+02 1.3100000000e+02 0.0000e+00 0.0000e+00
       13  1    1    2    0    0 -1.1447347971e+01 -1.1074857944e+01 +4.0822312564e+01 4.3819705855e+01 1.0566000000e-01 0.0000e+00 1.0000e+00
      994  1    1    2    0    0 +6.4361243884e+01 -3.4874514535e+00 +3.8047348951e+01 1.5087455980e+02 1.3100000000e+02 0.0000e+00 0.0000e+00
      997  1    1    2    0    0 -5.2913895913e+01 +1.4562309398e+01 +4.2113032732e+02 4.3630573435e+02 1.0000000000e+02 0.0000e+00 0.0000e+00
</event>
<event>
 5      1 +8.5651000e-08 2.01189000e+02 7.95774700e-02 5.01755800e-01
       13 -1    0    0    0    0 +0.0000000000e+00 +0.0000000000e+00 +4.9999998884e+02 5.0000000000e+02 1.0566000000e-01 0.0000e+00 1.0000e+00
      994 -1    0    0    0    0 -0.0000000000e+00 -0.0000000000e+00 +0.0000000000e+00 1.3100000000e+02 1.3100000000e+02 0.0000e+00 0.0000e+00
       13  1    1    2    0    0 +6.8826188902e+00 -1.5598090324e+01 +2.4196930647e+00 1.7220248055e+01 1.0566000000e-01 0.0000e+00 -1.0000e+00
      994  1    1    2    0    0 +8.4033895064e+01 +2.6518888296e+01 +8.4615881804e+01 1.7912508035e+02 1.3100000000e+02 0.0000e+00 0.0000e+00
      997  1    1    2    0    0 -9.0916513954e+01 -1.0920797973e+01 +4.1296441397e+02 4.3465467160e+02 1.0000000000e+02 0.0000e+00 0.0000e+00
</event>
<event>
 5      1 +8.5651000e-08 2.07337100e+02 7.95774700e-02 4.90906800e-01
       13 -1    0    0    0    0 +0.0000000000e+00 +0.0000000000e+00 +4.9999998884e+02 5.0000000000e+02 1.0566000000e-01 0.0000e+00 1.0000e+00
      994 -1    0    0    0    0 -0.0000000000e+00 -0.0000000000e+00 +0.0000000000e+00 1.3100000000e+02 1.3100000000e+02 0.0000e+00 0.0000e+00
       13  1    1    2    0    0 -2.6898627156e+01 -4.2193511293e+00 +1.2444977188e+01 2.9937062114e+01 1.0566000000e-01 0.0000e+00 -1.0000e+00
      994  1    1    2    0    0 -8.1166531004e+00 -2.1143975749e+01 +3.7674345434e+01 1.3817852247e+02 1.3100000000e+02 0.0000e+00 0.0000e+00
      997  1    1    2    0    0 +3.5015280256e+01 +2.5363326878e+01 +4.4988066621e+02 4.6288441542e+02 1.0000000000e+02 0.0000e+00 0.0000e+00
</event>
<event>
 5      1 +8.5651000e-08 2.02767200e+02 7.95774700e-02 4.98889800e-01
       13 -1    0    0    0    0 +0.0000000000e+00 +0.0000000000e+00 +4.9999998884e+02 5.0000000000e+02 1.0566000000e-01 0.0000e+00 1.0000e+00
      994 -1    0    0    0    0 -0.0000000000e+00 -0.0000000000e+00 +0.0000000000e+00 1.3100000000e+02 1.3100000000e+02 0.0000e+00 0.0000e+00
       13  1    1    2    0    0 -5.2050358402e+01 -1.7921422347e+01 +8.8236433054e+01 1.0400046380e+02 1.0566000000e-01 0.0000e+00 -1.0000e+00
      994  1    1    2    0    0 +5.1369772124e+01 +9.7494770807e-02 +4.6996011018e+01 1.4835258018e+02 1.3100000000e+02 0.0000e+00 0.0000e+00
      997  1    1    2    0    0 +6.8058627792e-01 +1.7823927576e+01 +3.6476754476e+02 3.7864695602e+02 1.0000000000e+02 0.0000e+00 0.0000e+00
</event>
<event>
 5      1 +8.5651000e-08 1.92561700e+02 7.95774700e-02 5.18517200e-01
       13 -1    0    0    0    0 +0.0000000000e+00 +0.0000000000e+00 +4.9999998884e+02 5.0000000000e+02 1.0566000000e-01 0.0000e+00 -1.0000e+00
      994 -1    0    0    0    0 -0.0000000000e+00 -0.0000000000e+00 +0.0000000000e+00 1.3100000000e+02 1.3100000000e+02 0.0000e+00 0.0000e+00
       13  1    1    2    0    0 -3.9751676048e+00 -1.9851128756e+01 +9.9805430905e+01 1.0183812878e+02 1.0566000000e-01 0.0000e+00 1.0000e+00
      994  1    1    2    0    0 -2.6606963354e+01 -2.6349887751e+01 +2.7062151648e+01 1.3890862873e+02 1.3100000000e+02 0.0000e+00 0.0000e+00
      997  1    1    2    0    0 +3.0582130958e+01 +4.6201016507e+01 +3.7313240628e+02 3.9025324250e+02 1.0000000000e+02 0.0000e+00 0.0000e+00
</event>
<event>
 5      1 +8.5651000e-08 1.97775800e+02 7.95774700e-02 5.08157900e-01
       13 -1    0    0    0    0 +0.0000000000e+00 +0.0000000000e+00 +4.9999998884e+02 5.0000000000e+02 1.0566000000e-01 0.0000e+00 -1.0000e+00
      994 -1    0    0    0    0 -0.0000000000e+00 -0.0000000000e+00 +0.0000000000e+00 1.3100000000e+02 1.3100000000e+02 0.0000e+00 0.0000e+00
       13  1    1    2    0    0 -1.7290394875e+01 -3.5561854856e+00 +3.1738063013e+01 3.6316938445e+01 1.0566000000e-01 0.0000e+00 1.0000e+00
      994  1    1    2    0    0 +7.1279523980e+01 +8.6726867393e+00 +4.4438512521e+01 1.5585816446e+02 1.3100000000e+02 0.0000e+00 0.0000e+00
      997  1    1    2    0    0 -5.3989129105e+01 -5.1165012537e+00 +4.2382341330e+02 4.3882489709e+02 1.0000000000e+02 0.0000e+00 0.0000e+00
</event>
<event>
 5      1 +8.5651000e-08 1.97544700e+02 7.95774700e-02 5.08601800e-01
       13 -1    0    0    0    0 +0.0000000000e+00 +0.0000000000e+00 +4.9999998884e+02 5.0000000000e+02 1.0566000000e-01 0.0000e+00 -1.0000e+00
      994 -1    0    0    0    0 -0.0000000000e+00 -0.0000000000e+00 +0.0000000000e+00 1.3100000000e+02 1.3100000000e+02 0.0000e+00 0.0000e+00
       13  1    1    2    0    0 +3.0831504007e+01 -1.1733495334e+01 +3.2696449116e+01 4.6447018213e+01 1.0566000000e-01 0.0000e+00 1.0000e+00
      994  1    1    2    0    0 -5.2391104096e+01 +2.6313107470e+01 +4.5924479052e+01 1.5068930018e+02 1.3100000000e+02 0.0000e+00 0.0000e+00
      997  1    1    2    0    0 +2.1559600089e+01 -1.4579612136e+01 +4.2137906067e+02 4.3386368160e+02 1.0000000000e+02 0.0000e+00 0.0000e+00
</event>
<event>
 5      1 +8.5651000e-08 1.96547700e+02 7.95774700e-02 5.10532800e-01
       13 -1    0    0    0    0 +0.0000000000e+00 +0.0000000000e+00 +4.9999998884e+02 5.0000000000e+02 1.0566000000e-01 0.0000e+00 1.0000e+00
      994 -1    0    0    0    0 -0.0000000000e+00 -0.0000000000e+00 +0.0000000000e+00 1.3100000000e+02 1.3100000000e+02 0.0000e+00 0.0000e+00
       13  1    1    2    0    0 -1.5241178911e+01 -3.6541193287e+01 +1.9518393747e+02 1.9915906445e+02 1.0566000000e-01 0.0000e+00 -1.0000e+00
      994  1    1    2    0    0 +2.1004283038e+01 +2.1167033236e+01 +2.8244329888e+01 1.3728789230e+02 1.3100000000e+02 0.0000e+00 0.0000e+00
      997  1    1    2    0    0 -5.7631041268e+00 +1.5374160051e+01 +2.7657172148e+02 2.9455304325e+02 1.0000000000e+02 0.0000e+00 0.0000e+00
</event>
<event>
 5      1 +8.5651000e-08 1.95570400e+02 7.95774700e-02 5.12450600e-01
       13 -1    0    0    0    0 +0.0000000000e+00 +0.0000000000e+00 +4.9999998884e+02 5.0000000000e+02 1.0566000000e-01 0.0000e+00 1.0000e+00
      994 -1    0    0    0    0 -0.0000000000e+00 -0.0000000000e+00 +0.0000000000e+00 1.3100000000e+02 1.3100000000e+02 0.0000e+00 0.0000e+00
       13  1    1    2    0    0 +1.3667520134e+01 -1.7439983253e+01 +6.5671101591e+01 6.9308432898e+01 1.0566000000e-01 0.0000e+00 -1.0000e+00
      994  1    1    2    0    0 -2.3732618889e+01 +7.5953428477e+00 +1.9523717203e+01 1.3477055304e+02 1.3100000000e+02 0.0000e+00 0.0000e+00
      997  1    1    2    0    0 +1.0065098755e+01 +9.8446404057e+00 +4.1480517004e+02 4.2692101407e+02 1.0000000000e+02 0.0000e+00 0.0000e+00
</event>
<event>
 5      1 +8.5651000e-08 1.94302900e+02 7.95774700e-02 5.14976000e-01
       13 -1    0    0    0    0 +0.0000000000e+00 +0.0000000000e+00 +4.9999998884e+02 5.0000000000e+02 1.0566000000e-01 0.0000e+00 1.0000e+00
      994 -1    0    0    0    0 -0.0000000000e+00 -0.0000000000e+00 +0.0000000000e+00 1.3100000000e+02 1.3100000000e+02 0.0000e+00 0.0000e+00
       13  1    1    2    0    0 -2.1563543096e+01 +2.8866641578e+01 +1.1823676593e+02 1.2360507016e+02 1.0566000000e-01 0.0000e+00 -1.0000e+00
      994  1    1    2    0    0 +1.2168038616e+01 -1.4271720702e+01 +2.2707367677e+01 1.3426975729e+02 1.3100000000e+02 0.0000e+00 0.0000e+00
      997  1    1    2    0    0 +9.3955044807e+00 -1.4594920876e+01 +3.5905585522e+02 3.7312517255e+02 1.0000000000e+02 0.0000e+00 0.0000e+00
</event>
<event>
 5      1 +8.5651000e-08 1.98636700e+02 7.95774700e-02 5.06515900e-01
       13 -1    0    0    0    0 +0.0000000000e+00 +0.0000000000e+00 +4.9999998884e+02 5.0000000000e+02 1.0566000000e-01 0.0000e+00 -1.0000e+00
      994 -1    0    0    0    0 -0.0000000000e+00 -0.0000000000e+00 +0.0000000000e+00 1.3100000000e+02 1.3100000000e+02 0.0000e+00 0.0000e+00
       13  1    1    2    0    0 -6.5900762886e+00 +7.6304390698e+00 +2.5982237775e+01 2.7870065478e+01 1.0566000000e-01 0.0000e+00 1.0000e+00
      994  1    1    2    0    0 -1.0243358520e+01 -1.8952803476e+01 +1.5809177929e+01 1.3369766363e+02 1.3100000000e+02 0.0000e+00 0.0000e+00
      997  1    1    2    0    0 +1.6833434809e+01 +1.1322364406e+01 +4.5820857313e+02 4.6943227089e+02 1.0000000000e+02 0.0000e+00 0.0000e+00
</event>
<event>
 5      1 +8.5651000e-08 1.95458100e+02 7.95774700e-02 5.12672600e-01
       13 -1    0    0    0    0 +0.0000000000e+00 +0.0000000000e+00 +4.9999998884e+02 5.0000000000e+02 1.0566000000e-01 0.0000e+00 -1.0000e+00
      994 -1    0    0    0    0 -0.0000000000e+00 -0.0000000000e+00 +0.0000000000e+00 1.3100000000e+02 1.3100000000e+02 0.0000e+00 0.0000e+00
       13  1    1    2    0    0 +1.4250721660e+01 -3.2510327989e+01 +5.0505642597e+01 6.1731965722e+01 1.0566000000e-01 0.0000e+00 1.0000e+00
      994  1    1    2    0    0 -1.2194889288e+01 +5.2920581200e+01 +4.0147059203e+01 1.4738415655e+02 1.3100000000e+02 0.0000e+00 0.0000e+00
      997  1    1    2    0    0 -2.0558323713e+00 -2.0410253212e+01 +4.0934728704e+02 4.2188387773e+02 1.0000000000e+02 0.0000e+00 0.0000e+00
</event>
<event>
 5      1 +8.5651000e-08 1.95710400e+02 7.95774700e-02 5.12174300e-01
       13 -1    0    0    0    0 +0.0000000000e+00 +0.0000000000e+00 +4.9999998884e+02 5.0000000000e+02 1.0566000000e-01 0.0000e+00 -1.0000e+00
      994 -1    0    0    0    0 -0.0000000000e+00 -0.0000000000e+00 +0.0000000000e+00 1.3100000000e+02 1.3100000000e+02 0.0000e+00 0.0000e+00
       13  1    1    2    0    0 -1.7849174306e+01 +7.6808437214e+00 +6.7557606954e+01 7.0296726845e+01 1.0566000000e-01 0.0000e+00 1.0000e+00
      994  1    1    2    0    0 -6.0063106570e+00 -2.6206599924e+01 +1.9975889759e+01 1.3521426633e+02 1.3100000000e+02 0.0000e+00 0.0000e+00
      997  1    1    2    0    0 +2.3855484963e+01 +1.8525756203e+01 +4.1246649212e+02 4.2548900683e+02 1.0000000000e+02 0.0000e+00 0.0000e+00
</event>
<event>
 5      1 +8.5651000e-08 1.96387100e+02 7.95774700e-02 5.10846300e-01
       13 -1    0    0    0    0 +0.0000000000e+00 +0.0000000000e+00 +4.9999998884e+02 5.0000000000e+02 1.0566000000e-01 0.0000e+00 1.0000e+00
      994 -1    0    0    0    0 -0.0000000000e+00 -0.0000000000e+00 +0.0000000000e+00 1.3100000000e+02 1.3100000000e+02 0.0000e+00 0.0000e+00
       13  1    1    2    0    0 -6.4562798765e+00 +1.7775385395e+01 +7.2628183605e+01 7.5050063915e+01 1.0566000000e-01 0.0000e+00 -1.0000e+00
      994  1    1    2    0    0 +2.3669190305e+01 -4.1687022796e+00 +1.8511540462e+01 1.3446667163e+02 1.3100000000e+02 0.0000e+00 0.0000e+00
      997  1    1    2    0    0 -1.7212910429e+01 -1.3606683115e+01 +4.0886026477e+02 4.2148326446e+02 1.0000000000e+02 0.0000e+00 0.0000e+00
</event>
<event>
 5      1 +8.5651000e-08 2.20438100e+02 7.95774700e-02 4.70317000e-01
       13 -1    0    0    0    0 +0.0000000000e+00 +0.0000000000e+00 +4.9999998884e+02 5.0000000000e+02 1.0566000000e-01 0.0000e+00 1.0000e+00
      994 -1    0    0    0    0 -0.0000000000e+00 -0.0000000000e+00 +0.0000000000e+00 1.3100000000e+02 1.3100000000e+02 0.0000e+00 0.0000e+00
       13  1    1    2    0    0 -6.7922480275e+01 +2.4115166412e+01 +1.0806851252e+02 1.2989926536e+02 1.0566000000e-01 0.0000e+00 -1.0000e+00
      994  1    1    2    0    0 -7.2632641279e+00 -6.1554225305e+01 +8.6139965796e+01 1.6859054352e+02 1.3100000000e+02 0.0000e+00 0.0000e+00
      997  1    1    2    0    0 +7.5185744403e+01 +3.7439058893e+01 +3.0579151052e+02 3.3251019112e+02 1.0000000000e+02 0.0000e+00 0.0000e+00
</event>
<event>
 5      1 +8.5651000e-08 1.95165500e+02 7.95774700e-02 5.13252700e-01
       13 -1    0    0    0    0 +0.0000000000e+00 +0.0000000000e+00 +4.9999998884e+02 5.0000000000e+02 1.0566000000e-01 0.0000e+00 -1.0000e+00
      994 -1    0    0    0    0 -0.0000000000e+00 -0.0000000000e+00 +0.0000000000e+00 1.3100000000e+02 1.3100000000e+02 0.0000e+00 0.0000e+00
       13  1    1    2    0    0 -3.5424568910e+01 +1.3629874172e+01 +9.0862526288e+01 9.8471739093e+01 1.0566000000e-01 0.0000e+00 1.0000e+00
      994  1    1    2    0    0 +2.0528633722e+01 -2.2212332807e+01 +2.6975864237e+01 1.3712589027e+02 1.3100000000e+02 0.0000e+00 0.0000e+00
      997  1    1    2    0    0 +1.4895935188e+01 +8.5824586350e+00 +3.8216159831e+02 3.9540237064e+02 1.0000000000e+02 0.0000e+00 0.0000e+00
</event>
<event>
 5      1 +8.5651000e-08 1.97232800e+02 7.95774700e-02 5.09203100e-01
       13 -1    0    0    0    0 +0.0000000000e+00 +0.0000000000e+00 +4.9999998884e+02 5.0000000000e+02 1.0566000000e-01 0.0000e+00 1.0000e+00
      994 -1    0    0    0    0 -0.0000000000e+00 -0.0000000000e+00 +0.0000000000e+00 1.3100000000e+02 1.3100000000e+02 0.0000e+00 0.0000e+00
       13  1    1    2    0    0 -2.5295826886e+01 +6.2746542268e+00 +6.4717810310e+01 6.9768590919e+01 1.0566000000e-01 0.0000e+00 -1.0000e+00
      994  1    1    2    0    0 -2.6076285634e+01 +7.4277907790e+01 +6.5217176977e+01 1.6616696552e+02 1.3100000000e+02 0.0000e+00 0.0000e+00
      997  1    1    2    0    0 +5.1372112521e+01 -8.0552562017e+01 +3.7006500155e+02 3.9506444356e+02 1.0000000000e+02 0.0000e+00 0.0000e+00
</event>
<event>
 5      1 +8.5651000e-08 2.24727000e+02 7.95774700e-02 4.64221000e-01
       13 -1    0    0    0    0 +0.0000000000e+00 +0.0000000000e+00 +4.9999998884e+02 5.0000000000e+02 1.0566000000e-01 0.0000e+00 1.0000e+00
      994 -1    0    0    0    0 -0.0000000000e+00 -0.0000000000e+00 +0.0000000000e+00 1.3100000000e+02 1.3100000000e+02 0.0000e+00 0.0000e+00
       13  1    1    2    0    0 +8.9070734523e+00 -1.4448678640e+01 -1.2760332463e+01 2.1235289509e+01 1.0566000000e-01 0.0000e+00 -1.0000e+00
      994  1    1    2    0    0 +2.3010731676e+00 +2.4858453752e+00 +5.7050141845e+01 1.4292373158e+02 1.3100000000e+02 0.0000e+00 0.0000e+00
      997  1    1    2    0    0 -1.1208146620e+01 +1.1962833265e+01 +4.5571017945e+02 4.6684097891e+02 1.0000000000e+02 0.0000e+00 0.0000e+00
</event>
<event>
 5      1 +8.5651000e-08 1.96261500e+02 7.95774700e-02 5.11091800e-01
       13 -1    0    0    0    0 +0.0000000000e+00 +0.0000000000e+00 +4.9999998884e+02 5.0000000000e+02 1.0566000000e-01 0.0000e+00 1.0000e+00
      994 -1    0    0    0    0 -0.0000000000e+00 -0.0000000000e+00 +0.0000000000e+00 1.3100000000e+02 1.3100000000e+02 0.0000e+00 0.0000e+00
       13  1    1    2    0    0 +1.5691606785e+00 -1.8254934099e+01 +6.4759926704e+01 6.7302036782e+01 1.0566000000e-01 0.0000e+00 -1.0000e+00
      994  1    1    2    0    0 -4.2456968314e-01 +4.9314646454e+00 +1.5504247505e+01 1.3200712592e+02 1.3100000000e+02 0.0000e+00 0.0000e+00
      997  1    1    2    0    0 -1.1445909953e+00 +1.3323469453e+01 +4.1973581463e+02 4.3169083730e+02 1.0000000000e+02 0.0000e+00 0.0000e+00
</event>
<event>
 5      1 +8.5651000e-08 1.95745000e+02 7.95774700e-02 5.12106100e-01
       13 -1    0    0    0    0 +0.0000000000e+00 +0.0000000000e+00 +4.9999998884e+02 5.0000000000e+02 1.0566000000e-01 0.0000e+00 -1.0000e+00
      994 -1    0    0    0    0 -0.0000000000e+00 -0.0000000000e+00 +0.0000000000e+00 1.3100000000e+02 1.3100000000e+02 0.0000e+00 0.0000e+00
       13  1    1    2    0    0 +1.2116461696e+00 +1.6695294995e+01 +1.3804295624e+01 2.1697251049e+01 1.0566000000e-01 0.0000e+00 1.0000e+00
      994  1    1    2    0    0 -3.1009851788e+01 +4.3970191919e+01 +4.0129036653e+01 1.4719486495e+02 1.3100000000e+02 0.0000e+00 0.0000e+00
      997  1    1    2    0    0 +2.9798205618e+01 -6.0665486914e+01 +4.4606665656e+02 4.6210788400e+02 1.0000000000e+02 0.0000e+00 0.0000e+00
</event>
<event>
 5      1 +8.5651000e-08 2.12990200e+02 7.95774700e-02 4.81631700e-01
       13 -1    0    0    0    0 +0.0000000000e+00 +0.0000000000e+00 +4.9999998884e+02 5.0000000000e+02 1.0566000000e-01 0.0000e+00 -1.0000e+00
      994 -1    0    0    0    0 -0.0000000000e+00 -0.0000000000e+00 +0.0000000000e+00 1.3100000000e+02 1.3100000000e+02 0.0000e+00 0.0000e+00
       13  1    1    2    0    0 -5.7924040264e+01 +1.1499846418e+00 +6.6721609442e+01 8.8364592658e+01 1.0566000000e-01 0.0000e+00 1.0000e+00
      994  1    1    2    0    0 +2.0426493274e+01 -8.5215454439e+01 +1.1071832837e+02 1.9260961435e+02 1.3100000000e+02 0.0000e+00 0.0000e+00
      997  1    1    2    0    0 +3.7497546989e+01 +8.4065469797e+01 +3.2256005103e+02 3.5002579299e+02 1.0000000000e+02 0.0000e+00 0.0000e+00
</event>
<event>
 5      1 +8.5651000e-08 2.03255900e+02 7.95774700e-02 4.98014100e-01
       13 -1    0    0    0    0 +0.0000000000e+00 +0.0000000000e+00 +4.9999998884e+02 5.0000000000e+02 1.0566000000e-01 0.0000e+00 1.0000e+00
      994 -1    0    0    0    0 -0.0000000000e+00 -0.0000000000e+00 +0.0000000000e+00 1.3100000000e+02 1.3100000000e+02 0.0000e+00 0.0000e+00
       13  1    1    2    0    0 +4.3084032883e+01 +2.0320498957e+01 +5.0975386494e+01 6.9768601531e+01 1.0566000000e-01 0.0000e+00 -1.0000e+00
      994  1    1    2    0    0 -5.4474728213e+01 -2.4003083388e+01 +5.4194473454e+01 1.5375852815e+02 1.3100000000e+02 0.0000e+00 0.0000e+00
      997  1    1    2    0    0 +1.1390695330e+01 +3.6825844308e+00 +3.9483012889e+02 4.0747287032e+02 1.0000000000e+02 0.0000e+00 0.0000e+00
</event>
<event>
 5      1 +8.5651000e-08 1.94444600e+02 7.95774700e-02 5.14691600e-01
       13 -1    0    0    0    0 +0.0000000000e+00 +0.0000000000e+00 +4.9999998884e+02 5.0000000000e+02 1.0566000000e-01 0.0000e+00 -1.0000e+00
      994 -1    0    0    0    0 -0.0000000000e+00 -0.0000000000e+00 +0.0000000000e+00 1.3100000000e+02 1.3100000000e+02 0.0000e+00 0.0000e+00
       13  1    1    2    0    0 +1.2865727668e+01 +1.9156060277e+01 +5.9238220291e+01 6.3574047386e+01 1.0566000000e-01 0.0000e+00 1.0000e+00
      994  1    1    2    0    0 +1.1224302767e+01 -2.4642438394e+01 +2.1242101239e+01 1.3544541929e+02 1.3100000000e+02 0.0000e+00 0.0000e+00
      997  1    1    2    0    0 -2.4090030435e+01 +5.4863781168e+00 +4.1951966731e+02 4.3198053332e+02 1.0000000000e+02 0.0000e+00 0.0000e+00
</event>
<event>
 5      1 +8.5651000e-08 1.71183000e+02 7.95774700e-02 5.70236700e-01
       13 -1    0    0    0    0 +0.0000000000e+00 +0.0000000000e+00 +4.9999998884e+02 5.0000000000e+02 1.0566000000e-01 0.0000e+00 -1.0000e+00
      994 -1    0    0    0    0 -0.0000000000e+00 -0.0000000000e+00 +0.0000000000e+00 1.3100000000e+02 1.3100000000e+02 0.0000e+00 0.0000e+00
       13  1    1    2    0    0 +8.3346995921e+01 -5.8448331301e+01 +8.8356519242e+01 1.3479545548e+02 1.0566000000e-01 0.0000e+00 1.0000e+00
      994  1    1    2    0    0 -9.0969273654e+01 +7.3284508884e+01 +2.5247184696e+02 3.0748831116e+02 1.3100000000e+02 0.0000e+00 0.0000e+00
      997  1    1    2    0    0 +7.6222777327e+00 -1.4836177583e+01 +1.5917162263e+02 1.8871623336e+02 1.0000000000e+02 0.0000e+00 0.0000e+00
</event>
<event>
 5      1 +8.5651000e-08 1.93647500e+02 7.95774700e-02 5.16299100e-01
       13 -1    0    0    0    0 +0.0000000000e+00 +0.0000000000e+00 +4.9999998884e+02 5.0000000000e+02 1.0566000000e-01 0.0000e+00 1.0000e+00
      994 -1    0    0    0    0 -0.0000000000e+00 -0.0000000000e+00 +0.0000000000e+00 1.3100000000e+02 1.3100000000e+02 0.0000e+00 0.0000e+00
       13  1    1    2    0    0 -2.4396515649e+01 +1.7883006831e+01 +7.2178659067e+01 7.8260858019e+01 1.0566000000e-01 0.0000e+00 -1.0000e+00
      994  1    1    2    0    0 +4.0586019211e+01 -1.2522349401e+01 +2.8366865524e+01 1.4060481233e+02 1.3100000000e+02 0.0000e+00 0.0000e+00
      997  1    1    2    0    0 -1.6189503563e+01 -5.3606574296e+00 +3.9945446425e+02 4.1213432965e+02 1.0000000000e+02 0.0000e+00 0.0000e+00
</event>
<event>
 5      1 +8.5651000e-08 1.61274300e+02 7.95774700e-02 6.01029900e-01
       13 -1    0    0    0    0 +0.0000000000e+00 +0.0000000000e+00 +4.9999998884e+02 5.0000000000e+02 1.0566000000e-01 0.0000e+00 -1.0000e+00
      994 -1    0    0    0    0 -0.0000000000e+00 -0.0000000000e+00 +0.0000000000e+00 1.3100000000e+02 1.3100000000e+02 0.0000e+00 0.0000e+00
       13  1    1    2    0    0 -5.8675887015e+01 -4.2784826390e+01 +8.1481149444e+00 7.3073962719e+01 1.0566000000e-01 0.0000e+00 1.0000e+00
      994  1    1    2    0    0 +6.3193096743e+01 +5.1417189556e+01 +2.2518001471e+02 2.7295445386e+02 1.3100000000e+02 0.0000e+00 0.0000e+00
      997  1    1    2    0    0 -4.5172097278e+00 -8.6323631661e+00 +2.6667185919e+02 2.8497158342e+02 1.0000000000e+02 0.0000e+00 0.0000e+00
</event>
<event>
 5      1 +8.5651000e-08 1.92464100e+02 7.95774700e-02 5.18718400e-01
       13 -1    0    0    0    0 +0.0000000000e+00 +0.0000000000e+00 +4.9999998884e+02 5.0000000000e+02 1.0566000000e-01 0.0000e+00 -1.0000e+00
      994 -1    0    0    0    0 -0.0000000000e+00 -0.0000000000e+00 +0.0000000000e+00 1.3100000000e+02 1.3100000000e+02 0.0000e+00 0.0000e+00
       13  1    1    2    0    0 +5.7129540318e+00 -2.5740181588e+01 +5.5443355013e+01 6.1393579233e+01 1.0566000000e-01 0.0000e+00 1.0000e+00
      994  1    1    2    0    0 -1.6247306555e+01 +1.0801562417e+01 +2.1095718958e+01 1.3411442159e+02 1.3100000000e+02 0.0000e+00 0.0000e+00
      997  1    1    2    0    0 +1.0534352523e+01 +1.4938619171e+01 +4.2346091486e+02 4.3549199917e+02 1.0000000000e+02 0.0000e+00 0.0000e+00
</event>
<event>
 5      1 +8.5651000e-08 2.18443200e+02 7.95774700e-02 4.73253500e-01
       13 -1    0    0    0    0 +0.0000000000e+00 +0.0000000000e+00 +4.9999998884e+02 5.0000000000e+02 1.0566000000e-01 0.0000e+00 1.0000e+00
      994 -1    0    0    0    0 -0.0000000000e+00 -0.0000000000e+00 +0.0000000000e+00 1.3100000000e+02 1.3100000000e+02 0.0000e+00 0.0000e+00
       13  1    1    2    0    0 +4.1228399922e+01 -3.5030692984e+01 +1.2327519510e+02 1.3462434885e+02 1.0566000000e-01 0.0000e+00 -1.0000e+00
      994  1    1    2    0    0 +6.2168799930e+01 -4.5303802833e-01 +8.2189600660e+01 1.6667721915e+02 1.3100000000e+02 0.0000e+00 0.0000e+00
      997  1    1    2    0    0 -1.0339719985e+02 +3.5483731012e+01 +2.9453519307e+02 3.2969843200e+02 1.0000000000e+02 0.0000e+00 0.0000e+00
</event>
<event>
 5      1 +8.5651000e-08 2.03893100e+02 7.95774700e-02 4.96880300e-01
       13 -1    0    0    0    0 +0.0000000000e+00 +0.0000000000e+00 +4.9999998884e+02 5.0000000000e+02 1.0566000000e-01 0.0000e+00 -1.0000e+00
      994 -1    0    0    0    0 -0.0000000000e+00 -0.0000000000e+00 +0.0000000000e+00 1.3100000000e+02 1.3100000000e+02 0.0000e+00 0.0000e+00
       13  1    1    2    0    0 +5.3131730369e+01 +3.3974230817e+01 +1.0803970884e+02 1.2509923654e+02 1.0566000000e-01 0.0000e+00 1.0000e+00
      994  1    1    2    0    0 -5.7637257402e+01 -1.6277705747e+01 +5.5407094625e+01 1.5433069455e+02 1.3100000000e+02 0.0000e+00 0.0000e+00
      997  1    1    2    0    0 +4.5055270330e+00 -1.7696525069e+01 +3.3655318537e+02 3.5157006891e+02 1.0000000000e+02 0.0000e+00 0.0000e+00
</event>
<event>
 5      1 +8.5651000e-08 2.13116800e+02 7.95774700e-02 4.81431000e-01
       13 -1    0    0    0    0 +0.0000000000e+00 +0.0000000000e+00 +4.9999998884e+02 5.0000000000e+02 1.0566000000e-01 0.0000e+00 -1.0000e+00
      994 -1    0    0    0    0 -0.0000000000e+00 -0.0000000000e+00 +0.0000000000e+00 1.3100000000e+02 1.3100000000e+02 0.0000e+00 0.0000e+00
       13  1    1    2    0    0 +2.7915101583e+01 +2.2506072607e+01 +1.7834530773e+01 4.0048194123e+01 1.0566000000e-01 0.0000e+00 1.0000e+00
      994  1    1    2    0    0 -1.7867269281e+01 +2.3858535701e+01 +4.7629857498e+01 1.4254147594e+02 1.3100000000e+02 0.0000e+00 0.0000e+00
      997  1    1    2    0    0 -1.0047832302e+01 -4.6364608308e+01 +4.3453560056e+02 4.4841032994e+02 1.0000000000e+02 0.0000e+00 0.0000e+00
</event>
<event>
 5      1 +8.5651000e-08 2.00339600e+02 7.95774700e-02 5.03322500e-01
       13 -1    0    0    0    0 +0.0000000000e+00 +0.0000000000e+00 +4.9999998884e+02 5.0000000000e+02 1.0566000000e-01 0.0000e+00 -1.0000e+00
      994 -1    0    0    0    0 -0.0000000000e+00 -0.0000000000e+00 +0.0000000000e+00 1.3100000000e+02 1.3100000000e+02 0.0000e+00 0.0000e+00
       13  1    1    2    0    0 +5.5900734895e+01 -2.4368079682e+01 +1.2293451382e+02 1.3722828178e+02 1.0566000000e-01 0.0000e+00 1.0000e+00
      994  1    1    2    0    0 -5.3381857701e+01 +3.4361627127e+01 +5.3735032028e+01 1.5517344430e+02 1.3100000000e+02 0.0000e+00 0.0000e+00
      997  1    1    2    0    0 -2.5188771944e+00 -9.9935474445e+00 +3.2333044299e+02 3.3859827391e+02 1.0000000000e+02 0.0000e+00 0.0000e+00
</event>
<event>
 5      1 +8.5651000e-08 1.95335000e+02 7.95774700e-02 5.12916400e-01
       13 -1    0    0    0    0 +0.0000000000e+00 +0.0000000000e+00 +4.9999998884e+02 5.0000000000e+02 1.0566000000e-01 0.0000e+00 1.0000e+00
      994 -1    0    0    0    0 -0.0000000000e+00 -0.0000000000e+00 +0.0000000000e+00 1.3100000000e+02 1.3100000000e+02 0.0000e+00 0.0000e+00
       13  1    1    2    0    0 +1.3553822738e+01 +2.9119801405e+00 +1.6712280576e+01 2.1713986857e+01 1.0566000000e-01 0.0000e+00 -1.0000e+00
      994  1    1    2    0    0 -2.0190052017e+01 -6.7519210270e-01 +1.8526748118e+01 1.3383696978e+02 1.3100000000e+02 0.0000e+00 0.0000e+00
      997  1    1    2    0    0 +6.6362292787e+00 -2.2367880378e+00 +4.6476096014e+02 4.7544904336e+02 1.0000000000e+02 0.0000e+00 0.0000e+00
</event>
<event>
 5      1 +8.5651000e-08 2.27681100e+02 7.95774700e-02 4.60185300e-01
       13 -1    0    0    0    0 +0.0000000000e+00 +0.0000000000e+00 +4.9999998884e+02 5.0000000000e+02 1.0566000000e-01 0.0000e+00 -1.0000e+00
      994 -1    0    0    0    0 -0.0000000000e+00 -0.0000000000e+00 +0.0000000000e+00 1.3100000000e+02 1.3100000000e+02 0.0000e+00 0.0000e+00
       13  1    1    2    0    0 -9.4243334245e-01 -1.9519563097e+01 -1.2924184430e+01 2.3429622944e+01 1.0566000000e-01 0.0000e+00 1.0000e+00
      994  1    1    2    0    0 -1.0634703510e+01 -5.2501853772e+01 +9.1949667777e+01 1.6877583646e+02 1.3100000000e+02 0.0000e+00 0.0000e+00
      997  1    1    2    0    0 +1.1577136852e+01 +7.2021416869e+01 +4.2097450549e+02 4.3879454060e+02 1.0000000000e+02 0.0000e+00 0.0000e+00
</event>
<event>
 5      1 +8.5651000e-08 2.07007300e+02 7.95774700e-02 4.91467700e-01
       13 -1    0    0    0    0 +0.0000000000e+00 +0.0000000000e+00 +4.9999998884e+02 5.0000000000e+02 1.0566000000e-01 0.0000e+00 1.0000e+00
      994 -1    0    0    0    0 -0.0000000000e+00 -0.0000000000e+00 +0.0000000000e+00 1.3100000000e+02 1.3100000000e+02 0.0000e+00 0.0000e+00
       13  1    1    2    0    0 +4.8255847332e+01 -1.7302868983e+01 +1.1012105792e+02 1.2146882167e+02 1.0566000000e-01 0.0000e+00 -1.0000e+00
      994  1    1    2    0    0 -2.4859252114e+01 -6.1212703261e+01 +6.6141574051e+01 1.6093689842e+02 1.3100000000e+02 0.0000e+00 0.0000e+00
      997  1    1    2    0    0 -2.3396595218e+01 +7.8515572245e+01 +3.2373735687e+02 3.4859427991e+02 1.0000000000e+02 0.0000e+00 0.0000e+00
</event>
<event>
 5      1 +8.5651000e-08 1.63504400e+02 7.95774700e-02 5.93618000e-01
       13 -1    0    0    0    0 +0.0000000000e+00 +0.0000000000e+00 +4.9999998884e+02 5.0000000000e+02 1.0566000000e-01 0.0000e+00 -1.0000e+00
      994 -1    0    0    0    0 -0.0000000000e+00 -0.0000000000e+00 +0.0000000000e+00 1.3100000000e+02 1.3100000000e+02 0.0000e+00 0.0000e+00
       13  1    1    2    0    0 -9.5734009474e+01 +1.2906095150e+01 +2.3326606959e+02 2.5247700539e+02 1.0566000000e-01 0.0000e+00 1.0000e+00
      994  1    1    2    0    0 +4.6106142162e+01 +1.6263655155e+01 +8.6186448568e+01 1.6425403112e+02 1.3100000000e+02 0.0000e+00 0.0000e+00
      997  1    1    2    0    0 +4.9627867312e+01 -2.9169750305e+01 +1.8054747068e+02 2.1426896349e+02 1.0000000000e+02 0.0000e+00 0.0000e+00
</event>
<event>
 5      1 +8.5651000e-08 1.98633600e+02 7.95774700e-02 5.06522000e-01
       13 -1    0    0    0    0 +0.0000000000e+00 +0.0000000000e+00 +4.9999998884e+02 5.0000000000e+02 1.0566000000e-01 0.0000e+00 1.0000e+00
      994 -1    0    0    0    0 -0.0000000000e+00 -0.0000000000e+00 +0.0000000000e+00 1.3100000000e+02 1.3100000000e+02 0.0000e+00 0.0000e+00
       13  1    1    2    0    0 -6.6651248849e+00 -8.3775474846e+00 +5.3078806053e+01 5.4147742406e+01 1.0566000000e-01 0.0000e+00 -1.0000e+00
      994  1    1    2    0    0 +1.0815157762e+01 -7.6684216591e+00 +1.4217594585e+01 1.3243455865e+02 1.3100000000e+02 0.0000e+00 0.0000e+00
      997  1    1    2    0    0 -4.1500328767e+00 +1.6045969144e+01 +4.3270358820e+02 4.4441769895e+02 1.0000000000e+02 0.0000e+00 0.0000e+00
</event>
<event>
 5      1 +8.5651000e-08 2.03735400e+02 7.95774700e-02 4.97160000e-01
       13 -1    0    0    0    0 +0.0000000000e+00 +0.0000000000e+00 +4.9999998884e+02 5.0000000000e+02 1.0566000000e-01 0.0000e+00 -1.0000e+00
      994 -1    0    0    0    0 -0.0000000000e+00 -0.0000000000e+00 +0.0000000000e+00 1.3100000000e+02 1.3100000000e+02 0.0000e+00 0.0000e+00
       13  1    1    2    0    0 -2.6954675086e+00 -3.7448767780e+01 +4.2791713786e+01 5.6928180071e+01 1.0566000000e-01 0.0000e+00 1.0000e+00
      994  1    1    2    0    0 -3.4826601338e+00 +6.7122535637e+00 +3.0544971341e+01 1.3472630977e+02 1.3100000000e+02 0.0000e+00 0.0000e+00
      997  1    1    2    0    0 +6.1781276423e+00 +3.0736514217e+01 +4.2666330371e+02 4.3934551016e+02 1.0000000000e+02 0.0000e+00 0.0000e+00
</event>
<event>
 5      1 +8.5651000e-08 2.10584000e+02 7.95774700e-02 4.85502500e-01
       13 -1    0    0    0    0 +0.0000000000e+00 +0.0000000000e+00 +4.9999998884e+02 5.0000000000e+02 1.0566000000e-01 0.0000e+00 1.0000e+00
      994 -1    0    0    0    0 -0.0000000000e+00 -0.0000000000e+00 +0.0000000000e+00 1.3100000000e+02 1.3100000000e+02 0.0000e+00 0.0000e+00
       13  1    1    2    0    0 -2.4622679538e+01 -5.7173931445e+00 +2.5076820447e+00 2.5402058288e+01 1.0566000000e-01 0.0000e+00 -1.0000e+00
      994  1    1    2    0    0 +3.1490504276e+01 -2.9098350756e+01 +5.1481145571e+01 1.4713828266e+02 1.3100000000e+02 0.0000e+00 0.0000e+00
      997  1    1    2    0    0 -6.8678247380e+00 +3.4815743901e+01 +4.4601116122e+02 4.5845965905e+02 1.0000000000e+02 0.0000e+00 0.0000e+00
</event>
<event>
 5      1 +8.5651000e-08 2.04043500e+02 7.95774700e-02 4.96614000e-01
       13 -1    0    0    0    0 +0.0000000000e+00 +0.0000000000e+00 +4.9999998884e+02 5.0000000000e+02 1.0566000000e-01 0.0000e+00 1.0000e+00
      994 -1    0    0    0    0 -0.0000000000e+00 -0.0000000000e+00 +0.0000000000e+00 1.3100000000e+02 1.3100000000e+02 0.0000e+00 0.0000e+00
       13  1    1    2    0    0 +1.1797356904e+01 +3.9116446349e+00 -3.4621626878e+00 1.2902570604e+01 1.0566000000e-01 0.0000e+00 -1.0000e+00
      994  1    1    2    0    0 +5.4833331899e+00 -1.0966194547e+01 +3.1492110652e+01 1.3528886650e+02 1.3100000000e+02 0.0000e+00 0.0000e+00
      997  1    1    2    0    0 -1.7280690094e+01 +7.0545499119e+00 +4.7197004087e+02 4.8280856290e+02 1.0000000000e+02 0.0000e+00 0.0000e+00
</event>
<event>
 5      1 +8.5651000e-08 2.11891400e+02 7.95774700e-02 4.83385500e-01
       13 -1    0    0    0    0 +0.0000000000e+00 +0.0000000000e+00 +4.9999998884e+02 5.0000000000e+02 1.0566000000e-01 0.0000e+00 -1.0000e+00
      994 -1    0    0    0    0 -0.0000000000e+00 -0.0000000000e+00 +0.0000000000e+00 1.3100000000e+02 1.3100000000e+02 0.0000e+00 0.0000e+00
       13  1    1    2    0    0 +1.4427981044e+01 -7.9791037169e+00 -6.2601893706e+00 1.7636152305e+01 1.0566000000e-01 0.0000e+00 1.0000e+00
      994  1    1    2    0    0 -2.1029655386e+01 +1.6240247533e+01 +4.4649782960e+01 1.4092762385e+02 1.3100000000e+02 0.0000e+00 0.0000e+00
      997  1    1    2    0    0 +6.6016743418e+00 -8.2611438158e+00 +4.6161039525e+02 4.7243622385e+02 1.0000000000e+02 0.0000e+00 0.0000e+00
</event>
<event>
 5      1 +8.5651000e-08 1.95031500e+02 7.95774700e-02 5.13519100e-01
       13 -1    0    0    0    0 +0.0000000000e+00 +0.0000000000e+00 +4.9999998884e+02 5.0000000000e+02 1.0566000000e-01 0.0000e+00 -1.0000e+00
      994 -1    0    0    0    0 -0.0000000000e+00 -0.0000000000e+00 +0.0000000000e+00 1.3100000000e+02 1.3100000000e+02 0.0000e+00 0.0000e+00
       13  1    1    2    0    0 -1.9066096907e+01 +2.8648325394e+00 +4.5226012371e+01 4.9164282520e+01 1.0566000000e-01 0.0000e+00 1.0000e+00
      994  1    1    2    0    0 +7.5604012640e+00 +1.9238759621e+01 +1.8920319129e+01 1.3396368170e+02 1.3100000000e+02 0.0000e+00 0.0000e+00
      997  1    1    2    0    0 +1.1505695643e+01 -2.2103592161e+01 +4.3585365734e+02 4.4787203578e+02 1.0000000000e+02 0.0000e+00 0.0000e+00
</event>
<event>
 5      1 +8.5651000e-08 1.99454200e+02 7.95774700e-02 5.04973900e-01
       13 -1    0    0    0    0 +0.0000000000e+00 +0.0000000000e+00 +4.9999998884e+02 5.0000000000e+02 1.0566000000e-01 0.0000e+00 -1.0000e+00
      994 -1    0    0    0    0 -0.0000000000e+00 -0.0000000000e+00 +0.0000000000e+00 1.3100000000e+02 1.3100000000e+02 0.0000e+00 0.0000e+00
       13  1    1    2    0    0 +3.9424123793e+01 -2.8015440634e+01 +1.5247917054e+02 1.5996573090e+02 1.0566000000e-01 0.0000e+00 1.0000e+00
      994  1    1    2    0    0 -4.1068457316e+01 -1.1742313336e+01 +3.7407014539e+01 1.4277529494e+02 1.3100000000e+02 0.0000e+00 0.0000e+00
      997  1    1    2    0    0 +1.6443335235e+00 +3.9757753970e+01 +3.1011380376e+02 3.2825897416e+02 1.0000000000e+02 0.0000e+00 0.0000e+00
</event>
<event>
 5      1 +8.5651000e-08 1.95361700e+02 7.95774700e-02 5.12863500e-01
       13 -1    0    0    0    0 +0.0000000000e+00 +0.0000000000e+00 +4.9999998884e+02 5.0000000000e+02 1.0566000000e-01 0.0000e+00 -1.0000e+00
      994 -1    0    0    0    0 -0.0000000000e+00 -0.0000000000e+00 +0.0000000000e+00 1.3100000000e+02 1.3100000000e+02 0.0000e+00 0.0000e+00
       13  1    1    2    0    0 +8.3727438448e+00 -2.8696021937e+01 +3.5873841463e+01 4.6695911811e+01 1.0566000000e-01 0.0000e+00 1.0000e+00
      994  1    1    2    0    0 +2.9177531205e+01 +5.6511216558e+01 +4.7301251478e+01 1.5311190129e+02 1.3100000000e+02 0.0000e+00 0.0000e+00
      997  1    1    2    0    0 -3.7550275050e+01 -2.7815194620e+01 +4.1682489590e+02 4.3119218690e+02 1.0000000000e+02 0.0000e+00 0.0000e+00
</event>
<event>
 5      1 +8.5651000e-08 1.94801800e+02 7.95774700e-02 5.13976800e-01
       13 -1    0    0    0    0 +0.0000000000e+00 +0.0000000000e+00 +4.9999998884e+02 5.0000000000e+02 1.0566000000e-01 0.0000e+00 -1.0000e+00
      994 -1    0    0    0    0 -0.0000000000e+00 -0.0000000000e+00 +0.0000000000e+00 1.3100000000e+02 1.3100000000e+02 0.0000e+00 0.0000e+00
       13  1    1    2    0    0 -5.5491629080e+00 -1.7054312214e+01 +2.7304001937e+01 3.2667452608e+01 1.0566000000e-01 0.0000e+00 1.0000e+00
      994  1    1    2    0    0 +4.1677032574e+00 +2.3809348688e+01 +2.0039171103e+01 1.3471014518e+02 1.3100000000e+02 0.0000e+00 0.0000e+00
      997  1    1    2    0    0 +1.3814596506e+00 -6.7550364743e+00 +4.5265681580e+02 4.6362240221e+02 1.0000000000e+02 0.0000e+00 0.0000e+00
</event>
<event>
 5      1 +8.5651000e-08 2.04738300e+02 7.95774700e-02 4.95390400e-01
       13 -1    0    0    0    0 +0.0000000000e+00 +0.0000000000e+00 +4.9999998884e+02 5.0000000000e+02 1.0566000000e-01 0.0000e+00 -1.0000e+00
      994 -1    0    0    0    0 -0.0000000000e+00 -0.0000000000e+00 +0.0000000000e+00 1.3100000000e+02 1.3100000000e+02 0.0000e+00 0.0000e+00
       13  1    1    2    0    0 +1.7217784880e+01 +2.0615694269e+00 +1.2284446741e+00 1.7384545581e+01 1.0566000000e-01 0.0000e+00 1.0000e+00
      994  1    1    2    0    0 +1.6388111406e+01 -2.2422551027e+00 +3.3075568130e+01 1.3611976752e+02 1.3100000000e+02 0.0000e+00 0.0000e+00
      997  1    1    2    0    0 -3.3605896287e+01 +1.8068567582e-01 +4.6569597603e+02 4.7749568690e+02 1.0000000000e+02 0.0000e+00 0.0000e+00
</event>
<event>
 5      1 +8.5651000e-08 2.01497600e+02 7.95774700e-02 5.01190800e-01
       13 -1    0    0    0    0 +0.0000000000e+00 +0.0000000000e+00 +4.9999998884e+02 5.0000000000e+02 1.0566000000e-01 0.0000e+00 1.0000e+00
      994 -1    0    0    0    0 -0.0000000000e+00 -0.0000000000e+00 +0.0000000000e+00 1.3100000000e+02 1.3100000000e+02 0.0000e+00 0.0000e+00
       13  1    1    2    0    0 -1.1059848519e+01 -2.2858189110e+01 +1.4853979907e+01 2.9418853508e+01 1.0566000000e-01 0.0000e+00 -1.0000e+00
      994  1    1    2    0    0 -2.7924799756e+01 +3.3012508550e+01 +4.0097591411e+01 1.4366084017e+02 1.3100000000e+02 0.0000e+00 0.0000e+00
      997  1    1    2    0    0 +3.8984648275e+01 -1.0154319440e+01 +4.4504841752e+02 4.5792030632e+02 1.0000000000e+02 0.0000e+00 0.0000e+00
</event>
<event>
 5      1 +8.5651000e-08 1.55209300e+02 7.95774700e-02 6.22838000e-01
       13 -1    0    0    0    0 +0.0000000000e+00 +0.0000000000e+00 +4.9999998884e+02 5.0000000000e+02 1.0566000000e-01 0.0000e+00 1.0000e+00
      994 -1    0    0    0    0 -0.0000000000e+00 -0.0000000000e+00 +0.0000000000e+00 1.3100000000e+02 1.3100000000e+02 0.0000e+00 0.0000e+00
       13  1    1    2    0    0 +1.9724382043e+01 +1.0569276160e+02 +1.6037456251e+02 1.9308035261e+02 1.0566000000e-01 0.0000e+00 -1.0000e+00
      994  1    1    2    0    0 -5.5488412832e+01 -2.8530033917e+01 +1.8361710477e+02 2.3402813497e+02 1.3100000000e+02 0.0000e+00 0.0000e+00
      997  1    1    2    0    0 +3.5764030788e+01 -7.7162727678e+01 +1.5600832156e+02 2.0389151242e+02 1.0000000000e+02 0.0000e+00 0.0000e+00
</event>
<event>
 5      1 +8.5651000e-08 2.02726900e+02 7.95774700e-02 4.98962300e-01
       13 -1    0    0    0    0 +0.0000000000e+00 +0.0000000000e+00 +4.9999998884e+02 5.0000000000e+02 1.0566000000e-01 0.0000e+00 -1.0000e+00
      994 -1    0    0    0    0 -0.0000000000e+00 -0.0000000000e+00 +0.0000000000e+00 1.3100000000e+02 1.3100000000e+02 0.0000e+00 0.0000e+00
       13  1    1    2    0    0 +2.2668517859e+01 +3.8193211576e+01 +5.8527490027e+01 7.3471500362e+01 1.0566000000e-01 0.0000e+00 1.0000e+00
      994  1    1    2    0    0 -3.0186398138e+01 -1.8998275511e+01 +3.7499633576e+01 1.4085231849e+02 1.3100000000e+02 0.0000e+00 0.0000e+00
      997  1    1    2    0    0 +7.5178802784e+00 -1.9194936065e+01 +4.0397286523e+02 4.1667618115e+02 1.0000000000e+02 0.0000e+00 0.0000e+00
</event>
<event>
 5      1 +8.5651000e-08 1.95326800e+02 7.95774700e-02 5.12932600e-01
       13 -1    0    0    0    0 +0.0000000000e+00 +0.0000000000e+00 +4.9999998884e+02 5.0000000000e+02 1.0566000000e-01 0.0000e+00 1.0000e+00
      994 -1    0    0    0    0 -0.0000000000e+00 -0.0000000000e+00 +0.0000000000e+00 1.3100000000e+02 1.3100000000e+02 0.0000e+00 0.0000e+00
       13  1    1    2    0    0 -2.0006931057e+01 -3.8676296107e+00 +1.4810152313e+01 2.5191022701e+01 1.0566000000e-01 0.0000e+00 -1.0000e+00
      994  1    1    2    0    0 +3.8619273206e+01 -1.0906101479e+01 +3.1448710945e+01 1.4057173518e+02 1.3100000000e+02 0.0000e+00 0.0000e+00
      997  1    1    2    0    0 -1.8612342148e+01 +1.4773731089e+01 +4.5374112558e+02 4.6523724212e+02 1.0000000000e+02 0.0000e+00 0.0000e+00
</event>
<event>
 5      1 +8.5651000e-08 1.95521500e+02 7.95774700e-02 5.12547200e-01
       13 -1    0    0    0    0 +0.0000000000e+00 +0.0000000000e+00 +4.9999998884e+02 5.0000000000e+02 1.0566000000e-01 0.0000e+00 -1.0000e+00
      994 -1    0    0    0    0 -0.0000000000e+00 -0.0000000000e+00 +0.0000000000e+00 1.3100000000e+02 1.3100000000e+02 0.0000e+00 0.0000e+00
       13  1    1    2    0    0 +1.3638549161e+01 -1.5022201231e+00 +3.6840906853e+00 1.4207405700e+01 1.0566000000e-01 0.0000e+00 1.0000e+00
      994  1    1    2    0    0 -2.7926933223e+01 +4.0767137580e+01 +3.6934677365e+01 1.4480001208e+02 1.3100000000e+02 0.0000e+00 0.0000e+00
      997  1    1    2    0    0 +1.4288384062e+01 -3.9264917457e+01 +4.5938122079e+02 4.7199258222e+02 1.0000000000e+02 0.0000e+00 0.0000e+00
</event>
<event>
 5      1 +8.5651000e-08 1.96534500e+02 7.95774700e-02 5.10558400e-01
       13 -1    0    0    0    0 +0.0000000000e+00 +0.0000000000e+00 +4.9999998884e+02 5.0000000000e+02 1.0566000000e-01 0.0000e+00 -1.0000e+00
      994 -1    0    0    0    0 -0.0000000000e+00 -0.0000000000e+00 +0.0000000000e+00 1.3100000000e+02 1.3100000000e+02 0.0000e+00 0.0000e+00
       13  1    1    2    0    0 +4.1933247884e-01 -1.9619479554e+01 +5.0921863688e+01 5.4572403128e+01 1.0566000000e-01 0.0000e+00 1.0000e+00
      994  1    1    2    0    0 +1.4993496543e+01 +3.0171517601e+01 +2.1557544505e+01 1.3697026370e+02 1.3100000000e+02 0.0000e+00 0.0000e+00
      997  1    1    2    0    0 -1.5412829022e+01 -1.0552038047e+01 +4.2752058064e+02 4.3945733317e+02 1.0000000000e+02 0.0000e+00 0.0000e+00
</event>
<event>
 5      1 +8.5651000e-08 2.02827200e+02 7.95774700e-02 4.98782100e-01
       13 -1    0    0    0    0 +0.0000000000e+00 +0.0000000000e+00 +4.9999998884e+02 5.0000000000e+02 1.0566000000e-01 0.0000e+00 -1.0000e+00
      994 -1    0    0    0    0 -0.0000000000e+00 -0.0000000000e+00 +0.0000000000e+00 1.3100000000e+02 1.3100000000e+02 0.0000e+00 0.0000e+00
       13  1    1    2    0    0 +2.2016738832e+01 +1.1708622171e+01 +5.3188343189e+00 2.5497642724e+01 1.0566000000e-01 0.0000e+00 1.0000e+00
      994  1    1    2    0    0 -4.4851904274e+01 -7.0791954790e+01 +8.1250141070e+01 1.7545876896e+02 1.3100000000e+02 0.0000e+00 0.0000e+00
      997  1    1    2    0    0 +2.2835165442e+01 +5.9083332619e+01 +4.1343101345e+02 4.3004358832e+02 1.0000000000e+02 0.0000e+00 0.0000e+00
</event>
<event>
 5      1 +8.5651000e-08 1.97192800e+02 7.95774700e-02 5.09280300e-01
       13 -1    0    0    0    0 +0.0000000000e+00 +0.0000000000e+00 +4.9999998884e+02 5.0000000000e+02 1.0566000000e-01 0.0000e+00 1.0000e+00
      994 -1    0    0    0    0 -0.0000000000e+00 -0.0000000000e+00 +0.0000000000e+00 1.3100000000e+02 1.3100000000e+02 0.0000e+00 0.0000e+00
       13  1    1    2    0    0 -1.5536253545e+01 -6.7727943681e+00 +3.7246237379e+01 4.0921134890e+01 1.0566000000e-01 0.0000e+00 -1.0000e+00
      994  1    1    2    0    0 +3.6912452066e+01 +7.8167068077e+00 +2.2581242196e+01 1.3818300374e+02 1.3100000000e+02 0.0000e+00 0.0000e+00
      997  1    1    2    0    0 -2.1376198521e+01 -1.0439124396e+00 +4.4017250926e+02 4.5189586137e+02 1.0000000000e+02 0.0000e+00 0.0000e+00
</event>
<event>
 5      1 +8.5651000e-08 1.98533000e+02 7.95774700e-02 5.06712700e-01
       13 -1    0    0    0    0 +0.0000000000e+00 +0.0000000000e+00 +4.9999998884e+02 5.0000000000e+02 1.0566000000e-01 0.0000e+00 1.0000e+00
      994 -1    0    0    0    0 -0.0000000000e+00 -0.0000000000e+00 +0.0000000000e+00 1.3100000000e+02 1.3100000000e+02 0.0000e+00 0.0000e+00
       13  1    1    2    0    0 -4.7536238003e+00 +1.3223296205e+01 +5.9201203960e+01 6.0846086284e+01 1.0566000000e-01 0.0000e+00 -1.0000e+00
      994  1    1    2    0    0 +1.9608524393e+01 -2.1760102856e+01 +1.8100008987e+01 1.3544964611e+02 1.3100000000e+02 0.0000e+00 0.0000e+00
      997  1    1    2    0    0 -1.4854900593e+01 +8.5368066504e+00 +4.2269877589e+02 4.3470426761e+02 1.0000000000e+02 0.0000e+00 0.0000e+00
</event>
<event>
 5      1 +8.5651000e-08 1.97030900e+02 7.95774700e-02 5.09593800e-01
       13 -1    0    0    0    0 +0.0000000000e+00 +0.0000000000e+00 +4.9999998884e+02 5.0000000000e+02 1.0566000000e-01 0.0000e+00 1.0000e+00
      994 -1    0    0    0    0 -0.0000000000e+00 -0.0000000000e+00 +0.0000000000e+00 1.3100000000e+02 1.3100000000e+02 0.0000e+00 0.0000e+00
       13  1    1    2    0    0 +1.0839205018e+01 -4.8323700916e+00 +2.5120934257e+01 2.7783316362e+01 1.0566000000e-01 0.0000e+00 -1.0000e+00
      994  1    1    2    0    0 +1.8688477873e+01 +1.4226330733e+01 +1.7767194357e+01 1.3426958288e+02 1.3100000000e+02 0.0000e+00 0.0000e+00
      997  1    1    2    0    0 -2.9527682890e+01 -9.3939606415e+00 +4.5711186022e+02 4.6894710076e+02 1.0000000000e+02 0.0000e+00 0.0000e+00
</event>
<event>
 5      1 +8.5651000e-08 2.02227400e+02 7.95774700e-02 4.99863600e-01
       13 -1    0    0    0    0 +0.0000000000e+00 +0.0000000000e+00 +4.9999998884e+02 5.0000000000e+02 1.0566000000e-01 0.0000e+00 -1.0000e+00
      994 -1    0    0    0    0 -0.0000000000e+00 -0.0000000000e+00 +0.0000000000e+00 1.3100000000e+02 1.3100000000e+02 0.0000e+00 0.0000e+00
       13  1    1    2    0    0 -3.7371462025e+01 -3.5069041969e+01 +1.1803683616e+02 1.2868243755e+02 1.0566000000e-01 0.0000e+00 1.0000e+00
      994  1    1    2    0    0 +1.3024133797e+01 +1.4565919756e+01 +3.1038775627e+01 1.3603749363e+02 1.3100000000e+02 0.0000e+00 0.0000e+00
      997  1    1    2    0    0 +2.4347328228e+01 +2.0503122213e+01 +3.5092437705e+02 3.6628006883e+02 1.0000000000e+02 0.0000e+00 0.0000e+00
</event>
<event>
 5      1 +8.5651000e-08 1.95966100e+02 7.95774700e-02 5.11671100e-01
       13 -1    0    0    0    0 +0.0000000000e+00 +0.0000000000e+00 +4.9999998884e+02 5.0000000000e+02 1.0566000000e-01 0.0000e+00 -1.0000e+00
      994 -1    0    0    0    0 -0.0000000000e+00 -0.0000000000e+00 +0.0000000000e+00 1.3100000000e+02 1.3100000000e+02 0.0000e+00 0.0000e+00
       13  1    1    2    0    0 +1.3979960305e+01 -4.7052556020e+00 +2.5057599888e+01 2.9077021797e+01 1.0566000000e-01 0.0000e+00 1.0000e+00
      994  1    1    2    0    0 -1.0731837668e+01 -9.8366135035e-01 +1.6287859702e+01 1.3244785503e+02 1.3100000000e+02 0.0000e+00 0.0000e+00
      997  1    1    2    0    0 -3.2481226374e+00 +5.6889169523e+00 +4.5865452925e+02 4.6947512317e+02 1.0000000000e+02 0.0000e+00 0.0000e+00
</event>
<event>
 5      1 +8.5651000e-08 1.92529500e+02 7.95774700e-02 5.18583700e-01
       13 -1    0    0    0    0 +0.0000000000e+00 +0.0000000000e+00 +4.9999998884e+02 5.0000000000e+02 1.0566000000e-01 0.0000e+00 1.0000e+00
      994 -1    0    0    0    0 -0.0000000000e+00 -0.0000000000e+00 +0.0000000000e+00 1.3100000000e+02 1.3100000000e+02 0.0000e+00 0.0000e+00
       13  1    1    2    0    0 +1.2725685498e+01 -2.9116788415e+01 +1.0760904861e+02 1.1220271362e+02 1.0566000000e-01 0.0000e+00 -1.0000e+00
      994  1    1    2    0    0 +1.3048132759e+01 +3.1191917133e+01 +2.5539588412e+01 1.3768246090e+02 1.3100000000e+02 0.0000e+00 0.0000e+00
      997  1    1    2    0    0 -2.5773818256e+01 -2.0751287177e+00 +3.6685135182e+02 3.8111482548e+02 1.0000000000e+02 0.0000e+00 0.0000e+00
</event>
<event>
 5      1 +8.5651000e-08 2.06392900e+02 7.95774700e-02 4.92519000e-01
       13 -1    0    0    0    0 +0.0000000000e+00 +0.0000000000e+00 +4.9999998884e+02 5.0000000000e+02 1.0566000000e-01 0.0000e+00 -1.0000e+00
      994 -1    0    0    0    0 -0.0000000000e+00 -0.0000000000e+00 +0.0000000000e+00 1.3100000000e+02 1.3100000000e+02 0.0000e+00 0.0000e+00
       13  1    1    2    0    0 +1.1814791286e+01 -1.7445965528e+01 +2.8988333084e+00 2.1268883490e+01 1.0566000000e-01 0.0000e+00 1.0000e+00
      994  1    1    2    0    0 -1.1012439079e+01 +5.9828288563e+00 +3.4141064394e+01 1.3595469956e+02 1.3100000000e+02 0.0000e+00 0.0000e+00
      997  1    1    2    0    0 -8.0235220742e-01 +1.1463136671e+01 +4.6296009113e+02 4.7377641695e+02 1.0000000000e+02 0.0000e+00 0.0000e+00
</event>
<event>
 5      1 +8.5651000e-08 2.06230100e+02 7.95774700e-02 4.92798900e-01
       13 -1    0    0    0    0 +0.0000000000e+00 +0.0000000000e+00 +4.9999998884e+02 5.0000000000e+02 1.0566000000e-01 0.0000e+00 1.0000e+00
      994 -1    0    0    0    0 -0.0000000000e+00 -0.0000000000e+00 +0.0000000000e+00 1.3100000000e+02 1.3100000000e+02 0.0000e+00 0.0000e+00
       13  1    1    2    0    0 +1.3615824538e+01 -2.3978994469e+01 +3.3478860512e+01 4.3373126690e+01 1.0566000000e-01 0.0000e+00 -1.0000e+00
      994  1    1    2    0    0 +7.0739358695e+01 -9.4485358329e+01 +2.7952152503e+02 3.3049178925e+02 1.3100000000e+02 0.0000e+00 0.0000e+00
      997  1    1    2    0    0 -8.4355183233e+01 +1.1846435280e+02 +1.8699960329e+02 2.5713508406e+02 1.0000000000e+02 0.0000e+00 0.0000e+00
</event>
<event>
 5      1 +8.5651000e-08 2.14764800e+02 7.95774700e-02 4.78846700e-01
       13 -1    0    0    0    0 +0.0000000000e+00 +0.0000000000e+00 +4.9999998884e+02 5.0000000000e+02 1.0566000000e-01 0.0000e+00 1.0000e+00
      994 -1    0    0    0    0 -0.0000000000e+00 -0.0000000000e+00 +0.0000000000e+00 1.3100000000e+02 1.3100000000e+02 0.0000e+00 0.0000e+00
       13  1    1    2    0    0 -6.4746238274e+01 +1.3486169476e+01 +1.8195653206e+02 1.9360305489e+02 1.0566000000e-01 0.0000e+00 -1.0000e+00
      994  1    1    2    0    0 -6.8296811481e-01 -2.3371774893e+01 +4.7194999356e+01 1.4119162253e+02 1.3100000000e+02 0.0000e+00 0.0000e+00
      997  1    1    2    0    0 +6.5429206389e+01 +9.8856054176e+00 +2.7084845742e+02 2.9620532258e+02 1.0000000000e+02 0.0000e+00 0.0000e+00
</event>
<event>
 5      1 +8.5651000e-08 2.11888000e+02 7.95774700e-02 4.83390900e-01
       13 -1    0    0    0    0 +0.0000000000e+00 +0.0000000000e+00 +4.9999998884e+02 5.0000000000e+02 1.0566000000e-01 0.0000e+00 -1.0000e+00
      994 -1    0    0    0    0 -0.0000000000e+00 -0.0000000000e+00 +0.0000000000e+00 1.3100000000e+02 1.3100000000e+02 0.0000e+00 0.0000e+00
       13  1    1    2    0    0 +4.4772704341e+01 +5.0981118400e+00 +3.2243006168e+01 5.5409461368e+01 1.0566000000e-01 0.0000e+00 1.0000e+00
      994  1    1    2    0    0 -2.8831588244e+01 -1.6944919377e+01 +4.7748717442e+01 1.4338525304e+02 1.3100000000e+02 0.0000e+00 0.0000e+00
      997  1    1    2    0    0 -1.5941116096e+01 +1.1846807537e+01 +4.2000826523e+02 4.3220528559e+02 1.0000000000e+02 0.0000e+00 0.0000e+00
</event>
<event>
 5      1 +8.5651000e-08 1.96204600e+02 7.95774700e-02 5.11203100e-01
       13 -1    0    0    0    0 +0.0000000000e+00 +0.0000000000e+00 +4.9999998884e+02 5.0000000000e+02 1.0566000000e-01 0.0000e+00 -1.0000e+00
      994 -1    0    0    0    0 -0.0000000000e+00 -0.0000000000e+00 +0.0000000000e+00 1.3100000000e+02 1.3100000000e+02 0.0000e+00 0.0000e+00
       13  1    1    2    0    0 -3.0732650142e+00 +2.3703763835e+01 +9.1323770354e+01 9.4399976554e+01 1.0566000000e-01 0.0000e+00 1.0000e+00
      994  1    1    2    0    0 +9.2980255627e+00 -3.4272104210e+01 +2.2602267515e+01 1.3759684918e+02 1.3100000000e+02 0.0000e+00 0.0000e+00
      997  1    1    2    0    0 -6.2247605485e+00 +1.0568340374e+01 +3.8607395097e+02 3.9900317427e+02 1.0000000000e+02 0.0000e+00 0.0000e+00
</event>
<event>
 5      1 +8.5651000e-08 1.97630700e+02 7.95774700e-02 5.08436400e-01
       13 -1    0    0    0    0 +0.0000000000e+00 +0.0000000000e+00 +4.9999998884e+02 5.0000000000e+02 1.0566000000e-01 0.0000e+00 1.0000e+00
      994 -1    0    0    0    0 -0.0000000000e+00 -0.0000000000e+00 +0.0000000000e+00 1.3100000000e+02 1.3100000000e+02 0.0000e+00 0.0000e+00
       13  1    1    2    0    0 +5.8178457415e+01 -6.2370306755e+00 +1.1864863267e+02 1.3229188432e+02 1.0566000000e-01 0.0000e+00 -1.0000e+00
      994  1    1    2    0    0 -8.2105472542e+01 -3.4246343195e+01 +7.9341759770e+01 1.7711644612e+02 1.3100000000e+02 0.0000e+00 0.0000e+00
      997  1    1    2    0    0 +2.3927015127e+01 +4.0483373870e+01 +3.0200959640e+02 3.2159166956e+02 1.0000000000e+02 0.0000e+00 0.0000e+00
</event>
<event>
 5      1 +8.5651000e-08 2.10249500e+02 7.95774700e-02 4.86049500e-01
       13 -1    0    0    0    0 +0.0000000000e+00 +0.0000000000e+00 +4.9999998884e+02 5.0000000000e+02 1.0566000000e-01 0.0000e+00 -1.0000e+00
      994 -1    0    0    0    0 -0.0000000000e+00 -0.0000000000e+00 +0.0000000000e+00 1.3100000000e+02 1.3100000000e+02 0.0000e+00 0.0000e+00
       13  1    1    2    0    0 -2.3377511053e+01 -4.1028074266e+01 +3.2640755020e+01 5.7404189336e+01 1.0566000000e-01 0.0000e+00 1.0000e+00
      994  1    1    2    0    0 +2.3268934352e+01 +4.9700319986e+01 +6.0225840237e+01 1.5427156882e+02 1.3100000000e+02 0.0000e+00 0.0000e+00
      997  1    1    2    0    0 +1.0857670132e-01 -8.6722457199e+00 +4.0713339358e+02 4.1932424185e+02 1.0000000000e+02 0.0000e+00 0.0000e+00
</event>
<event>
 5      1 +8.5651000e-08 1.96212700e+02 7.95774700e-02 5.11187400e-01
       13 -1    0    0    0    0 +0.0000000000e+00 +0.0000000000e+00 +4.9999998884e+02 5.0000000000e+02 1.0566000000e-01 0.0000e+00 -1.0000e+00
      994 -1    0    0    0    0 -0.0000000000e+00 -0.0000000000e+00 +0.0000000000e+00 1.3100000000e+02 1.3100000000e+02 0.0000e+00 0.0000e+00
       13  1    1    2    0    0 +1.0896356072e+01 +5.1313804645e+00 +1.0548656754e+01 1.6010838968e+01 1.0566000000e-01 0.0000e+00 1.0000e+00
      994  1    1    2    0    0 -4.3443190011e+01 -4.3438471361e+01 +3.7618247324e+01 1.4950031466e+02 1.3100000000e+02 0.0000e+00 0.0000e+00
      997  1    1    2    0    0 +3.2546833939e+01 +3.8307090897e+01 +4.5183308476e+02 4.6548884637e+02 1.0000000000e+02 0.0000e+00 0.0000e+00
</event>
<event>
 5      1 +8.5651000e-08 2.14282100e+02 7.95774700e-02 4.79598500e-01
       13 -1    0    0    0    0 +0.0000000000e+00 +0.0000000000e+00 +4.9999998884e+02 5.0000000000e+02 1.0566000000e-01 0.0000e+00 -1.0000e+00
      994 -1    0    0    0    0 -0.0000000000e+00 -0.0000000000e+00 +0.0000000000e+00 1.3100000000e+02 1.3100000000e+02 0.0000e+00 0.0000e+00
       13  1    1    2    0    0 -1.3872159572e+01 -1.8591554538e+00 -8.8819999618e+00 1.6576922439e+01 1.0566000000e-01 0.0000e+00 1.0000e+00
      994  1    1    2    0    0 +1.5737314672e+01 -1.1929082289e+01 +4.5356381341e+01 1.4002916627e+02 1.3100000000e+02 0.0000e+00 0.0000e+00
      997  1    1    2    0    0 -1.8651550999e+00 +1.3788237743e+01 +4.6352560746e+02 4.7439391129e+02 1.0000000000e+02 0.0000e+00 0.0000e+00
</event>
<event>
 5      1 +8.5651000e-08 2.05166900e+02 7.95774700e-02 4.94640900e-01
       13 -1    0    0    0    0 +0.0000000000e+00 +0.0000000000e+00 +4.9999998884e+02 5.0000000000e+02 1.0566000000e-01 0.0000e+00 -1.0000e+00
      994 -1    0    0    0    0 -0.0000000000e+00 -0.0000000000e+00 +0.0000000000e+00 1.3100000000e+02 1.3100000000e+02 0.0000e+00 0.0000e+00
       13  1    1    2    0    0 +1.3225430098e+01 -6.6370615214e+00 -2.0805801651e+00 1.4943311707e+01 1.0566000000e-01 0.0000e+00 1.0000e+00
      994  1    1    2    0    0 +2.9025686178e+00 -7.6317249674e+00 +3.2167086894e+01 1.3513840908e+02 1.3100000000e+02 0.0000e+00 0.0000e+00
      997  1    1    2    0    0 -1.6127998716e+01 +1.4268786489e+01 +4.6991348211e+02 4.8091827921e+02 1.0000000000e+02 0.0000e+00 0.0000e+00
</event>
<event>
 5      1 +8.5651000e-08 1.94807800e+02 7.95774700e-02 5.13965000e-01
       13 -1    0    0    0    0 +0.0000000000e+00 +0.0000000000e+00 +4.9999998884e+02 5.0000000000e+02 1.0566000000e-01 0.0000e+00 1.0000e+00
      994 -1    0    0    0    0 -0.0000000000e+00 -0.0000000000e+00 +0.0000000000e+00 1.3100000000e+02 1.3100000000e+02 0.0000e+00 0.0000e+00
       13  1    1    2    0    0 +4.9476566935e+00 -1.9909742784e+01 +7.2558891718e+01 7.5403455463e+01 1.0566000000e-01 0.0000e+00 -1.0000e+00
      994  1    1    2    0    0 -2.9290084665e+01 -9.9112913787e+00 +2.2187964283e+01 1.3641645251e+02 1.3100000000e+02 0.0000e+00 0.0000e+00
      997  1    1    2    0    0 +2.4342427972e+01 +2.9821034163e+01 +4.0525313284e+02 4.1918009203e+02 1.0000000000e+02 0.0000e+00 0.0000e+00
</event>
<event>
 5      1 +8.5651000e-08 1.94385200e+02 7.95774700e-02 5.14810800e-01
       13 -1    0    0    0    0 +0.0000000000e+00 +0.0000000000e+00 +4.9999998884e+02 5.0000000000e+02 1.0566000000e-01 0.0000e+00 1.0000e+00
      994 -1    0    0    0    0 -0.0000000000e+00 -0.0000000000e+00 +0.0000000000e+00 1.3100000000e+02 1.3100000000e+02 0.0000e+00 0.0000e+00
       13  1    1    2    0    0 +1.0121737152e+01 -8.3683425849e+00 +6.9863725591e+00 1.4876131425e+01 1.0566000000e-01 0.0000e+00 -1.0000e+00
      994  1    1    2    0    0 +2.6024591476e+01 -1.5476482814e+00 +2.4757472361e+01 1.3584405403e+02 1.3100000000e+02 0.0000e+00 0.0000e+00
      997  1    1    2    0    0 -3.6146328628e+01 +9.9159908663e+00 +4.6825614392e+02 4.8027981455e+02 1.0000000000e+02 0.0000e+00 0.0000e+00
</event>
<event>
 5      1 +8.5651000e-08 1.95330600e+02 7.95774700e-02 5.12925200e-01
       13 -1    0    0    0    0 +0.0000000000e+00 +0.0000000000e+00 +4.9999998884e+02 5.0000000000e+02 1.0566000000e-01 0.0000e+00 -1.0000e+00
      994 -1    0    0    0    0 -0.0000000000e+00 -0.0000000000e+00 +0.0000000000e+00 1.3100000000e+02 1.3100000000e+02 0.0000e+00 0.0000e+00
       13  1    1    2    0    0 -9.6065852445e-01 +1.7296013654e+01 +3.8623940515e+01 4.2330779558e+01 1.0566000000e-01 0.0000e+00 1.0000e+00
      994  1    1    2    0    0 +5.8266406562e+00 +2.4380021338e+00 +1.6436725049e+01 1.3217813558e+02 1.3100000000e+02 0.0000e+00 0.0000e+00
      997  1    1    2    0    0 -4.8659821318e+00 -1.9734015788e+01 +4.4493932327e+02 4.5649108486e+02 1.0000000000e+02 0.0000e+00 0.0000e+00
</event>
<event>
 5      1 +8.5651000e-08 2.15565800e+02 7.95774700e-02 4.77608500e-01
       13 -1    0    0    0    0 +0.0000000000e+00 +0.0000000000e+00 +4.9999998884e+02 5.0000000000e+02 1.0566000000e-01 0.0000e+00 -1.0000e+00
      994 -1    0    0    0    0 -0.0000000000e+00 -0.0000000000e+00 +0.0000000000e+00 1.3100000000e+02 1.3100000000e+02 0.0000e+00 0.0000e+00
       13  1    1    2    0    0 -1.7266508636e+01 +4.7132537508e+00 -6.5576821964e+00 1.9062041895e+01 1.0566000000e-01 0.0000e+00 1.0000e+00
      994  1    1    2    0    0 -7.6601866141e+00 -5.5585036301e+00 +4.4728833093e+01 1.3874885200e+02 1.3100000000e+02 0.0000e+00 0.0000e+00
      997  1    1    2    0    0 +2.4926695250e+01 +8.4524987927e-01 +4.6182883794e+02 4.7318910610e+02 1.0000000000e+02 0.0000e+00 0.0000e+00
</event>
<event>
 5      1 +8.5651000e-08 1.93450500e+02 7.95774700e-02 5.16699000e-01
       13 -1    0    0    0    0 +0.0000000000e+00 +0.0000000000e+00 +4.9999998884e+02 5.0000000000e+02 1.0566000000e-01 0.0000e+00 1.0000e+00
      994 -1    0    0    0    0 -0.0000000000e+00 -0.0000000000e+00 +0.0000000000e+00 1.3100000000e+02 1.3100000000e+02 0.0000e+00 0.0000e+00
       13  1    1    2    0    0 -2.4539779736e+01 -1.0298779054e+01 +6.4222325339e+01 6.9518226930e+01 1.0566000000e-01 0.0000e+00 -1.0000e+00
      994  1    1    2    0    0 -6.1445869791e-01 -1.1971905727e+01 +2.0648104935e+01 1.3315798258e+02 1.3100000000e+02 0.0000e+00 0.0000e+00
      997  1    1    2    0    0 +2.5154238434e+01 +2.2270684781e+01 +4.1512955856e+02 4.2832379049e+02 1.0000000000e+02 0.0000e+00 0.0000e+00
</event>
<event>
 5      1 +8.5651000e-08 1.96418600e+02 7.95774700e-02 5.10784700e-01
       13 -1    0    0    0    0 +0.0000000000e+00 +0.0000000000e+00 +4.9999998884e+02 5.0000000000e+02 1.0566000000e-01 0.0000e+00 1.0000e+00
      994 -1    0    0    0    0 -0.0000000000e+00 -0.0000000000e+00 +0.0000000000e+00 1.3100000000e+02 1.3100000000e+02 0.0000e+00 0.0000e+00
       13  1    1    2    0    0 +2.6500973923e+00 -1.7984784862e+01 +7.2302804009e+01 7.4553216794e+01 1.0566000000e-01 0.0000e+00 -1.0000e+00
      994  1    1    2    0    0 +6.0455506340e+00 +7.0340438105e+00 +1.5707439121e+01 1.3226394104e+02 1.3100000000e+02 0.0000e+00 0.0000e+00
      997  1    1    2    0    0 -8.6956480263e+00 +1.0950741052e+01 +4.1198974571e+02 4.2418284217e+02 1.0000000000e+02 0.0000e+00 0.0000e+00
</event>
<event>
 5      1 +8.5651000e-08 2.18961700e+02 7.95774700e-02 4.72484000e-01
       13 -1    0    0    0    0 +0.0000000000e+00 +0.0000000000e+00 +4.9999998884e+02 5.0000000000e+02 1.0566000000e-01 0.0000e+00 -1.0000e+00
      994 -1    0    0    0    0 -0.0000000000e+00 -0.0000000000e+00 +0.0000000000e+00 1.3100000000e+02 1.3100000000e+02 0.0000e+00 0.0000e+00
       13  1    1    2    0    0 +3.1011221316e+01 +4.3884744535e+00 +5.4923194485e+00 3.1798290717e+01 1.0566000000e-01 0.0000e+00 1.0000e+00
      994  1    1    2    0    0 +2.3966764805e+01 +2.8742650213e+01 +6.0230201286e+01 1.4896047430e+02 1.3100000000e+02 0.0000e+00 0.0000e+00
      997  1    1    2    0    0 -5.4977986121e+01 -3.3131124666e+01 +4.3427746810e+02 4.5024123498e+02 1.0000000000e+02 0.0000e+00 0.0000e+00
</event>
<event>
 5      1 +8.5651000e-08 2.05506900e+02 7.95774700e-02 4.94049100e-01
       13 -1    0    0    0    0 +0.0000000000e+00 +0.0000000000e+00 +4.9999998884e+02 5.0000000000e+02 1.0566000000e-01 0.0000e+00 1.0000e+00
      994 -1    0    0    0    0 -0.0000000000e+00 -0.0000000000e+00 +0.0000000000e+00 1.3100000000e+02 1.3100000000e+02 0.0000e+00 0.0000e+00
       13  1    1    2    0    0 +1.8572649730e+01 +1.0178654801e+01 +5.1773727362e+00 2.1802859538e+01 1.0566000000e-01 0.0000e+00 -1.0000e+00
      994  1    1    2    0    0 +2.0714000216e+01 -1.2581855347e+01 +3.6062448583e+01 1.3801765498e+02 1.3100000000e+02 0.0000e+00 0.0000e+00
      997  1    1    2    0    0 -3.9286649946e+01 +2.4032005466e+00 +4.5876016752e+02 4.7117948548e+02 1.0000000000e+02 0.0000e+00 0.0000e+00
</event>
<event>
 5      1 +8.5651000e-08 1.56865000e+02 7.95774700e-02 6.16628900e-01
       13 -1    0    0    0    0 +0.0000000000e+00 +0.0000000000e+00 +4.9999998884e+02 5.0000000000e+02 1.0566000000e-01 0.0000e+00 1.0000e+00
      994 -1    0    0    0    0 -0.0000000000e+00 -0.0000000000e+00 +0.0000000000e+00 1.3100000000e+02 1.3100000000e+02 0.0000e+00 0.0000e+00
       13  1    1    2    0    0 +5.8823980995e+01 +4.1379141827e+01 +1.9318058135e+02 2.0613403963e+02 1.0566000000e-01 0.0000e+00 -1.0000e+00
      994  1    1    2    0    0 -3.1995401199e+01 +1.4120866761e+01 +5.3736854742e+01 1.4584839435e+02 1.3100000000e+02 0.0000e+00 0.0000e+00
      997  1    1    2    0    0 -2.6828579797e+01 -5.5500008588e+01 +2.5308255274e+02 2.7901756602e+02 1.0000000000e+02 0.0000e+00 0.0000e+00
</event>
<event>
 5      1 +8.5651000e-08 1.93929200e+02 7.95774700e-02 5.15729100e-01
       13 -1    0    0    0    0 +0.0000000000e+00 +0.0000000000e+00 +4.9999998884e+02 5.0000000000e+02 1.0566000000e-01 0.0000e+00 1.0000e+00
      994 -1    0    0    0    0 -0.0000000000e+00 -0.0000000000e+00 +0.0000000000e+00 1.3100000000e+02 1.3100000000e+02 0.0000e+00 0.0000e+00
       13  1    1    2    0    0 +2.2423372195e+01 +1.0456673761e+01 +3.6482338457e+01 4.4080855596e+01 1.0566000000e-01 0.0000e+00 -1.0000e+00
      994  1    1    2    0    0 -8.7346926049e+01 +4.6433904294e+01 +8.2640345829e+01 1.8378253376e+02 1.3100000000e+02 0.0000e+00 0.0000e+00
      997  1    1    2    0    0 +6.4923553854e+01 -5.6890578054e+01 +3.8087730455e+02 4.0313661064e+02 1.0000000000e+02 0.0000e+00 0.0000e+00
</event>
<event>
 5      1 +8.5651000e-08 1.96419500e+02 7.95774700e-02 5.10783000e-01
       13 -1    0    0    0    0 +0.0000000000e+00 +0.0000000000e+00 +4.9999998884e+02 5.0000000000e+02 1.0566000000e-01 0.0000e+00 -1.0000e+00
      994 -1    0    0    0    0 -0.0000000000e+00 -0.0000000000e+00 +0.0000000000e+00 1.3100000000e+02 1.3100000000e+02 0.0000e+00 0.0000e+00
       13  1    1    2    0    0 -5.7010207323e+00 +2.1026539912e+01 +6.7736407215e+01 7.1153700147e+01 1.0566000000e-01 0.0000e+00 1.0000e+00
      994  1    1    2    0    0 +7.5102104014e+00 -3.0539186089e+01 +2.0828973989e+01 1.3632274684e+02 1.3100000000e+02 0.0000e+00 0.0000e+00
      997  1    1    2    0    0 -1.8091896691e+00 +9.5126461766e+00 +4.1143460763e+02 4.2352355302e+02 1.0000000000e+02 0.0000e+00 0.0000e+00
</event>
<event>
 5      1 +8.5651000e-08 1.94910500e+02 7.95774700e-02 5.13760100e-01
       13 -1    0    0    0    0 +0.0000000000e+00 +0.0000000000e+00 +4.9999998884e+02 5.0000000000e+02 1.0566000000e-01 0.0000e+00 1.0000e+00
      994 -1    0    0    0    0 -0.0000000000e+00 -0.0000000000e+00 +0.0000000000e+00 1.3100000000e+02 1.3100000000e+02 0.0000e+00 0.0000e+00
       13  1    1    2    0    0 -2.4128952046e+01 -3.6030035283e+00 +4.0750358522e+01 4.7495166543e+01 1.0566000000e-01 0.0000e+00 -1.0000e+00
      994  1    1    2    0    0 +5.7314018864e+01 +1.1834942500e+01 +3.6918948815e+01 1.4815185252e+02 1.3100000000e+02 0.0000e+00 0.0000e+00
      997  1    1    2    0    0 -3.3185066818e+01 -8.2319389718e+00 +4.2233068150e+02 4.3535298094e+02 1.0000000000e+02 0.0000e+00 0.0000e+00
</event>
<event>
 5      1 +8.5651000e-08 1.94379800e+02 7.95774700e-02 5.14821700e-01
       13 -1    0    0    0    0 +0.0000000000e+00 +0.0000000000e+00 +4.9999998884e+02 5.0000000000e+02 1.0566000000e-01 0.0000e+00 -1.0000e+00
      994 -1    0    0    0    0 -0.0000000000e+00 -0.0000000000e+00 +0.0000000000e+00 1.3100000000e+02 1.3100000000e+02 0.0000e+00 0.0000e+00
       13  1    1    2    0    0 -7.1117809148e+00 -2.0470054569e+01 +6.6968568294e+01 7.0387505037e+01 1.0566000000e-01 0.0000e+00 1.0000e+00
      994  1    1    2    0    0 -2.0622599185e+01 +5.3849127427e+00 +1.9688749772e+01 1.3417501910e+02 1.3100000000e+02 0.0000e+00 0.0000e+00
      997  1    1    2    0    0 +2.7734380100e+01 +1.5085141826e+01 +4.1334267077e+02 4.2643747587e+02 1.0000000000e+02 0.0000e+00 0.0000e+00
</event>
<event>
 5      1 +8.5651000e-08 2.07015200e+02 7.95774700e-02 4.91454300e-01
       13 -1    0    0    0    0 +0.0000000000e+00 +0.0000000000e+00 +4.9999998884e+02 5.0000000000e+02 1.0566000000e-01 0.0000e+00 -1.0000e+00
      994 -1    0    0    0    0 -0.0000000000e+00 -0.0000000000e+00 +0.0000000000e+00 1.3100000000e+02 1.3100000000e+02 0.0000e+00 0.0000e+00
       13  1    1    2    0    0 -1.7845557422e+01 -9.8238434566e+00 +1.4388684314e+00 2.0421883517e+01 1.0566000000e-01 0.0000e+00 1.0000e+00
      994  1    1    2    0    0 +1.2708917348e+01 +2.5713206068e+00 +3.4921226437e+01 1.3619331968e+02 1.3100000000e+02 0.0000e+00 0.0000e+00
      997  1    1    2    0    0 +5.1366400739e+00 +7.2525228498e+00 +4.6363989397e+02 4.7438479680e+02 1.0000000000e+02 0.0000e+00 0.0000e+00
</event>
<event>
 5      1 +8.5651000e-08 1.94447900e+02 7.95774700e-02 5.14685100e-01
       13 -1    0    0    0    0 +0.0000000000e+00 +0.0000000000e+00 +4.9999998884e+02 5.0000000000e+02 1.0566000000e-01 0.0000e+00 1.0000e+00
      994 -1    0    0    0    0 -0.0000000000e+00 -0.0000000000e+00 +0.0000000000e+00 1.3100000000e+02 1.3100000000e+02 0.0000e+00 0.0000e+00
       13  1    1    2    0    0 -1.2295356331e+01 +1.3425806551e+01 +2.3332773866e+01 2.9594890931e+01 1.0566000000e-01 0.0000e+00 -1.0000e+00
      994  1    1    2    0    0 -3.7694236678e+01 +2.3630604365e+01 +3.2808292589e+01 1.4218524890e+02 1.3100000000e+02 0.0000e+00 0.0000e+00
      997  1    1    2    0    0 +4.9989593009e+01 -3.7056410917e+01 +4.4385892238e+02 4.5921986017e+02 1.0000000000e+02 0.0000e+00 0.0000e+00
</event>
<event>
 5      1 +8.5651000e-08 2.20245000e+02 7.95774700e-02 4.70598400e-01
       13 -1    0    0    0    0 +0.0000000000e+00 +0.0000000000e+00 +4.9999998884e+02 5.0000000000e+02 1.0566000000e-01 0.0000e+00 1.0000e+00
      994 -1    0    0    0    0 -0.0000000000e+00 -0.0000000000e+00 +0.0000000000e+00 1.3100000000e+02 1.3100000000e+02 0.0000e+00 0.0000e+00
       13  1    1    2    0    0 -4.3817209168e+01 -2.8798057597e+01 +3.3486949645e+01 6.2214651821e+01 1.0566000000e-01 0.0000e+00 -1.0000e+00
      994  1    1    2    0    0 -7.7988530889e-01 +3.6402278551e+01 +6.1616171362e+01 1.4927587440e+02 1.3100000000e+02 0.0000e+00 0.0000e+00
      997  1    1    2    0    0 +4.4597094477e+01 -7.6042209540e+00 +4.0489686783e+02 4.1950947378e+02 1.0000000000e+02 0.0000e+00 0.0000e+00
</event>
<event>
 5      1 +8.5651000e-08 1.99170900e+02 7.95774700e-02 5.05506500e-01
       13 -1    0    0    0    0 +0.0000000000e+00 +0.0000000000e+00 +4.9999998884e+02 5.0000000000e+02 1.0566000000e-01 0.0000e+00 -1.0000e+00
      994 -1    0    0    0    0 -0.0000000000e+00 -0.0000000000e+00 +0.0000000000e+00 1.3100000000e+02 1.3100000000e+02 0.0000e+00 0.0000e+00
       13  1    1    2    0    0 +3.1600997181e+01 +1.3699586315e+01 +4.9624143675e+01 6.0405864678e+01 1.0566000000e-01 0.0000e+00 1.0000e+00
      994  1    1    2    0    0 -4.0685284149e+00 -1.5648286298e+01 +2.7043112260e+01 1.3473585903e+02 1.3100000000e+02 0.0000e+00 0.0000e+00
      997  1    1    2    0    0 -2.7532468766e+01 +1.9486999833e+00 +4.2333273290e+02 4.3585827629e+02 1.0000000000e+02 0.0000e+00 0.0000e+00
</event>
<event>
 5      1 +8.5651000e-08 1.97362800e+02 7.95774700e-02 5.08952200e-01
       13 -1    0    0    0    0 +0.0000000000e+00 +0.0000000000e+00 +4.9999998884e+02 5.0000000000e+02 1.0566000000e-01 0.0000e+00 1.0000e+00
      994 -1    0    0    0    0 -0.0000000000e+00 -0.0000000000e+00 +0.0000000000e+00 1.3100000000e+02 1.3100000000e+02 0.0000e+00 0.0000e+00
       13  1    1    2    0    0 +1.0441163180e+01 -3.5262272553e+01 +1.3417195799e+02 1.3912070741e+02 1.0566000000e-01 0.0000e+00 -1.0000e+00
      994  1    1    2    0    0 -1.6000677222e+01 -6.9084750213e+00 +2.5460064463e+01 1.3458441062e+02 1.3100000000e+02 0.0000e+00 0.0000e+00
      997  1    1    2    0    0 +5.5595140421e+00 +4.2170747574e+01 +3.4036796638e+02 3.5729488197e+02 1.0000000000e+02 0.0000e+00 0.0000e+00
</event>
<event>
 5      1 +8.5651000e-08 1.97827400e+02 7.95774700e-02 5.08059000e-01
       13 -1    0    0    0    0 +0.0000000000e+00 +0.0000000000e+00 +4.9999998884e+02 5.0000000000e+02 1.0566000000e-01 0.0000e+00 1.0000e+00
      994 -1    0    0    0    0 -0.0000000000e+00 -0.0000000000e+00 +0.0000000000e+00 1.3100000000e+02 1.3100000000e+02 0.0000e+00 0.0000e+00
       13  1    1    2    0    0 -1.6294104390e+01 +6.9169717728e+00 +7.8762514376e+00 1.9374953861e+01 1.0566000000e-01 0.0000e+00 -1.0000e+00
      994  1    1    2    0    0 +6.4441604068e-01 -2.8910193778e+01 +2.9252209841e+01 1.3730588610e+02 1.3100000000e+02 0.0000e+00 0.0000e+00
      997  1    1    2    0    0 +1.5649688349e+01 +2.1993222006e+01 +4.6287152756e+02 4.7431916004e+02 1.0000000000e+02 0.0000e+00 0.0000e+00
</event>
<event>
 5      1 +8.5651000e-08 2.01797500e+02 7.95774700e-02 5.00643800e-01
       13 -1    0    0    0    0 +0.0000000000e+00 +0.0000000000e+00 +4.9999998884e+02 5.0000000000e+02 1.0566000000e-01 0.0000e+00 -1.0000e+00
      994 -1    0    0    0    0 -0.0000000000e+00 -0.0000000000e+00 +0.0000000000e+00 1.3100000000e+02 1.3100000000e+02 0.0000e+00 0.0000e+00
       13  1    1    2    0    0 +1.8905225206e+01 +3.9292504489e+01 +5.2256611092e+01 6.8059334525e+01 1.0566000000e-01 0.0000e+00 1.0000e+00
      994  1    1    2    0    0 -3.0710188914e+01 -3.5308690561e+01 +4.2646449673e+01 1.4549755669e+02 1.3100000000e+02 0.0000e+00 0.0000e+00
      997  1    1    2    0    0 +1.1804963709e+01 -3.9838139279e+00 +4.0509692807e+02 4.1744310879e+02 1.0000000000e+02 0.0000e+00 0.0000e+00
</event>
<event>
 5      1 +8.5651000e-08 2.00758300e+02 7.95774700e-02 5.02548000e-01
       13 -1    0    0    0    0 +0.0000000000e+00 +0.0000000000e+00 +4.9999998884e+02 5.0000000000e+02 1.0566000000e-01 0.0000e+00 -1.0000e+00
      994 -1    0    0    0    0 -0.0000000000e+00 -0.0000000000e+00 +0.0000000000e+00 1.3100000000e+02 1.3100000000e+02 0.0000e+00 0.0000e+00
       13  1    1    2    0    0 -5.9189045756e-01 +2.1106951109e+01 +1.3048012632e+01 2.4821674341e+01 1.0566000000e-01 0.0000e+00 1.0000e+00
      994  1    1    2    0    0 -2.5908903675e+01 +3.1258124905e+01 +3.7742594634e+01 1.4224572089e+02 1.3100000000e+02 0.0000e+00 0.0000e+00
      997  1    1    2    0    0 +2.6500794133e+01 -5.2365076014e+01 +4.4920938157e+02 4.6393260477e+02 1.0000000000e+02 0.0000e+00 0.0000e+00
</event>
<event>
 5      1 +8.5651000e-08 1.94256200e+02 7.95774700e-02 5.15070000e-01
       13 -1    0    0    0    0 +0.0000000000e+00 +0.0000000000e+00 +4.9999998884e+02 5.0000000000e+02 1.0566000000e-01 0.0000e+00 1.0000e+00
      994 -1    0    0    0    0 -0.0000000000e+00 -0.0000000000e+00 +0.0000000000e+00 1.3100000000e+02 1.3100000000e+02 0.0000e+00 0.0000e+00
       13  1    1    2    0    0 -1.2191348028e+01 -7.8643557491e+00 +1.6114454253e+01 2.1683262163e+01 1.0566000000e-01 0.0000e+00 -1.0000e+00
      994  1    1    2    0    0 -1.8166526071e-01 +1.8899061077e+01 +1.9245297886e+01 1.3374822990e+02 1.3100000000e+02 0.0000e+00 0.0000e+00
      997  1    1    2    0    0 +1.2373013289e+01 -1.1034705328e+01 +4.6464023670e+02 4.7556850793e+02 1.0000000000e+02 0.0000e+00 0.0000e+00
</event>
<event>
 5      1 +8.5651000e-08 1.98047600e+02 7.95774700e-02 5.07637500e-01
       13 -1    0    0    0    0 +0.0000000000e+00 +0.0000000000e+00 +4.9999998884e+02 5.0000000000e+02 1.0566000000e-01 0.0000e+00 1.0000e+00
      994 -1    0    0    0    0 -0.0000000000e+00 -0.0000000000e+00 +0.0000000000e+00 1.3100000000e+02 1.3100000000e+02 0.0000e+00 0.0000e+00
       13  1    1    2    0    0 +8.3918442504e+00 -1.2958991892e+01 +4.2357931777e+01 4.5083966876e+01 1.0566000000e-01 0.0000e+00 -1.0000e+00
      994  1    1    2    0    0 -3.1235747640e+01 +2.1265452975e+01 +2.1780401851e+01 1.3806982772e+02 1.3100000000e+02 0.0000e+00 0.0000e+00
      997  1    1    2    0    0 +2.2843903390e+01 -8.3064610832e+00 +4.3586165521e+02 4.4784620541e+02 1.0000000000e+02 0.0000e+00 0.0000e+00
</event>
<event>
 5      1 +8.5651000e-08 1.97469300e+02 7.95774700e-02 5.08747000e-01
       13 -1    0    0    0    0 +0.0000000000e+00 +0.0000000000e+00 +4.9999998884e+02 5.0000000000e+02 1.0566000000e-01 0.0000e+00 1.0000e+00
      994 -1    0    0    0    0 -0.0000000000e+00 -0.0000000000e+00 +0.0000000000e+00 1.3100000000e+02 1.3100000000e+02 0.0000e+00 0.0000e+00
       13  1    1    2    0    0 -3.6714332233e+00 +1.4725261773e+01 +3.6246868912e+01 3.9295794001e+01 1.0566000000e-01 0.0000e+00 -1.0000e+00
      994  1    1    2    0    0 +1.7125802117e+01 -2.1652915497e+01 +1.8548567295e+01 1.3515617336e+02 1.3100000000e+02 0.0000e+00 0.0000e+00
      997  1    1    2    0    0 -1.3454368894e+01 +6.9276537246e+00 +4.4520455263e+02 4.5654803264e+02 1.0000000000e+02 0.0000e+00 0.0000e+00
</event>
<event>
 5      1 +8.5651000e-08 1.97144300e+02 7.95774700e-02 5.09374200e-01
       13 -1    0    0    0    0 +0.0000000000e+00 +0.0000000000e+00 +4.9999998884e+02 5.0000000000e+02 1.0566000000e-01 0.0000e+00 -1.0000e+00
      994 -1    0    0    0    0 -0.0000000000e+00 -0.0000000000e+00 +0.0000000000e+00 1.3100000000e+02 1.3100000000e+02 0.0000e+00 0.0000e+00
       13  1    1    2    0    0 +1.3196529554e+01 -1.8510123015e+00 +2.9739426816e+00 1.3653942211e+01 1.0566000000e-01 0.0000e+00 1.0000e+00
      994  1    1    2    0    0 -8.8307897256e-01 -1.1032924491e+01 +2.4128520159e+01 1.3366260037e+02 1.3100000000e+02 0.0000e+00 0.0000e+00
      997  1    1    2    0    0 -1.2313450581e+01 +1.2883936792e+01 +4.7289752600e+02 4.8368345742e+02 1.0000000000e+02 0.0000e+00 0.0000e+00
</event>
<event>
 5      1 +8.5651000e-08 2.00074700e+02 7.95774700e-02 5.03814400e-01
       13 -1    0    0    0    0 +0.0000000000e+00 +0.0000000000e+00 +4.9999998884e+02 5.0000000000e+02 1.0566000000e-01 0.0000e+00 -1.0000e+00
      994 -1    0    0    0    0 -0.0000000000e+00 -0.0000000000e+00 +0.0000000000e+00 1.3100000000e+02 1.3100000000e+02 0.0000e+00 0.0000e+00
       13  1    1    2    0    0 +4.7248781063e+01 -1.0595708225e+01 +9.6958213621e+01 1.0837722407e+02 1.0566000000e-01 0.0000e+00 1.0000e+00
      994  1    1    2    0    0 -3.5420909373e+01 -1.0409327142e+01 +3.5076669678e+01 1.4055023183e+02 1.3100000000e+02 0.0000e+00 0.0000e+00
      997  1    1    2    0    0 -1.1827871690e+01 +2.1005035367e+01 +3.6796510554e+02 3.8207254410e+02 1.0000000000e+02 0.0000e+00 0.0000e+00
</event>
<event>
 5      1 +8.5651000e-08 2.00521000e+02 7.95774700e-02 5.02986400e-01
       13 -1    0    0    0    0 +0.0000000000e+00 +0.0000000000e+00 +4.9999998884e+02 5.0000000000e+02 1.0566000000e-01 0.0000e+00 1.0000e+00
      994 -1    0    0    0    0 -0.0000000000e+00 -0.0000000000e+00 +0.0000000000e+00 1.3100000000e+02 1.3100000000e+02 0.0000e+00 0.0000e+00
       13  1    1    2    0    0 +3.0135906723e+01 -1.7393172133e+01 +3.7151303780e+01 5.0901137979e+01 1.0566000000e-01 0.0000e+00 -1.0000e+00
      994  1    1    2    0    0 -7.0652431951e+00 +4.5495221190e+01 +4.0627812627e+01 1.4467671537e+02 1.3100000000e+02 0.0000e+00 0.0000e+00
      997  1    1    2    0    0 -2.3070663528e+01 -2.8102049056e+01 +4.2222087243e+02 4.3542214665e+02 1.0000000000e+02 0.0000e+00 0.0000e+00
</event>
<event>
 5      1 +8.5651000e-08 1.97459400e+02 7.95774700e-02 5.08765900e-01
       13 -1    0    0    0    0 +0.0000000000e+00 +0.0000000000e+00 +4.9999998884e+02 5.0000000000e+02 1.0566000000e-01 0.0000e+00 -1.0000e+00
      994 -1    0    0    0    0 -0.0000000000e+00 -0.0000000000e+00 +0.0000000000e+00 1.3100000000e+02 1.3100000000e+02 0.0000e+00 0.0000e+00
       13  1    1    2    0    0 -1.5107747146e+00 +1.5891536792e+01 +7.8061879872e+01 7.9677422367e+01 1.0566000000e-01 0.0000e+00 1.0000e+00
      994  1    1    2    0    0 -8.4398448376e+00 -1.5370740743e+01 +1.6003950013e+01 1.3313383142e+02 1.3100000000e+02 0.0000e+00 0.0000e+00
      997  1    1    2    0    0 +9.9506195522e+00 -5.2079604896e-01 +4.0593415895e+02 4.1818874622e+02 1.0000000000e+02 0.0000e+00 0.0000e+00
</event>
<event>
 5      1 +8.5651000e-08 1.92577700e+02 7.95774700e-02 5.18484500e-01
       13 -1    0    0    0    0 +0.0000000000e+00 +0.0000000000e+00 +4.9999998884e+02 5.0000000000e+02 1.0566000000e-01 0.0000e+00 1.0000e+00
      994 -1    0    0    0    0 -0.0000000000e+00 -0.0000000000e+00 +0.0000000000e+00 1.3100000000e+02 1.3100000000e+02 0.0000e+00 0.0000e+00
       13  1    1    2    0    0 +2.7290746444e+00 +2.1389520033e+01 +2.6047094674e+01 3.3814519376e+01 1.0566000000e-01 0.0000e+00 -1.0000e+00
      994  1    1    2    0    0 +2.4730624869e+01 -3.5741148778e+01 +3.0248230001e+01 1.4129751923e+02 1.3100000000e+02 0.0000e+00 0.0000e+00
      997  1    1    2    0    0 -2.7459699514e+01 +1.4351628745e+01 +4.4370466416e+02 4.5588796139e+02 1.0000000000e+02 0.0000e+00 0.0000e+00
</event>
<event>
 5      1 +8.5651000e-08 1.60211300e+02 7.95774700e-02 6.04672200e-01
       13 -1    0    0    0    0 +0.0000000000e+00 +0.0000000000e+00 +4.9999998884e+02 5.0000000000e+02 1.0566000000e-01 0.0000e+00 1.0000e+00
      994 -1    0    0    0    0 -0.0000000000e+00 -0.0000000000e+00 +0.0000000000e+00 1.3100000000e+02 1.3100000000e+02 0.0000e+00 0.0000e+00
       13  1    1    2    0    0 +9.5583103280e+01 -1.9890834684e+01 +1.2888165864e+02 1.6168570758e+02 1.0566000000e-01 0.0000e+00 -1.0000e+00
      994  1    1    2    0    0 -7.3402010549e+01 +5.5678908979e+00 +1.0365294750e+02 1.8254804871e+02 1.3100000000e+02 0.0000e+00 0.0000e+00
      997  1    1    2    0    0 -2.2181092731e+01 +1.4322943786e+01 +2.6746538270e+02 2.8676624372e+02 1.0000000000e+02 0.0000e+00 0.0000e+00
</event>
<event>
 5      1 +8.5651000e-08 1.96079000e+02 7.95774700e-02 5.11449300e-01
       13 -1    0    0    0    0 +0.0000000000e+00 +0.0000000000e+00 +4.9999998884e+02 5.0000000000e+02 1.0566000000e-01 0.0000e+00 1.0000e+00
      994 -1    0    0    0    0 -0.0000000000e+00 -0.0000000000e+00 +0.0000000000e+00 1.3100000000e+02 1.3100000000e+02 0.0000e+00 0.0000e+00
       13  1    1    2    0    0 -5.9105893456e+00 +1.8299371330e+01 +5.7815176746e+01 6.0929532115e+01 1.0566000000e-01 0.0000e+00 -1.0000e+00
      994  1    1    2    0    0 -5.7619266011e+00 -1.4151236438e+01 +1.6846831563e+01 1.3295966691e+02 1.3100000000e+02 0.0000e+00 0.0000e+00
      997  1    1    2    0    0 +1.1672515947e+01 -4.1481348922e+00 +4.2533798053e+02 4.3711080098e+02 1.0000000000e+02 0.0000e+00 0.0000e+00
</event>
<event>
 5      1 +8.5651000e-08 2.09473200e+02 7.95774700e-02 4.87327500e-01
       13 -1    0    0    0    0 +0.0000000000e+00 +0.0000000000e+00 +4.9999998884e+02 5.0000000000e+02 1.0566000000e-01 0.0000e+00 1.0000e+00
      994 -1    0    0    0    0 -0.0000000000e+00 -0.0000000000e+00 +0.0000000000e+00 1.3100000000e+02 1.3100000000e+02 0.0000e+00 0.0000e+00
       13  1    1    2    0    0 -4.9588333645e+00 -3.0827209887e+01 +1.4019013661e+01 3.4226463531e+01 1.0566000000e-01 0.0000e+00 -1.0000e+00
      994  1    1    2    0    0 +1.1463057358e+01 +7.8075638164e+00 +3.7941669253e+01 1.3708730796e+02 1.3100000000e+02 0.0000e+00 0.0000e+00
      997  1    1    2    0    0 -6.5042239939e+00 +2.3019646070e+01 +4.4803930592e+02 4.5968622851e+02 1.0000000000e+02 0.0000e+00 0.0000e+00
</event>
<event>
 5      1 +8.5651000e-08 1.97755400e+02 7.95774700e-02 5.08197100e-01
       13 -1    0    0    0    0 +0.0000000000e+00 +0.0000000000e+00 +4.9999998884e+02 5.0000000000e+02 1.0566000000e-01 0.0000e+00 -1.0000e+00
      994 -1    0    0    0    0 -0.0000000000e+00 -0.0000000000e+00 +0.0000000000e+00 1.3100000000e+02 1.3100000000e+02 0.0000e+00 0.0000e+00
       13  1    1    2    0    0 -3.5987475028e+01 +7.2020345500e+00 +7.0504993578e+01 7.9485425985e+01 1.0566000000e-01 0.0000e+00 1.0000e+00
      994  1    1    2    0    0 +4.6972237108e+00 -4.2634765328e+01 +3.5575085966e+01 1.4236001499e+02 1.3100000000e+02 0.0000e+00 0.0000e+00
      997  1    1    2    0    0 +3.1290251317e+01 +3.5432730778e+01 +3.9391990929e+02 4.0915455903e+02 1.0000000000e+02 0.0000e+00 0.0000e+00
</event>
<event>
 5      1 +8.5651000e-08 1.93626700e+02 7.95774700e-02 5.16341200e-01
       13 -1    0    0    0    0 +0.0000000000e+00 +0.0000000000e+00 +4.9999998884e+02 5.0000000000e+02 1.0566000000e-01 0.0000e+00 1.0000e+00
      994 -1    0    0    0    0 -0.0000000000e+00 -0.0000000000e+00 +0.0000000000e+00 1.3100000000e+02 1.3100000000e+02 0.0000e+00 0.0000e+00
       13  1    1    2    0    0 -1.4009003788e+01 +4.2093795419e+01 +1.0458086293e+02 1.1360153104e+02 1.0566000000e-01 0.0000e+00 -1.0000e+00
      994  1    1    2    0    0 -2.3340046743e+01 -8.0658952247e+01 +6.6081089482e+01 1.6905127845e+02 1.3100000000e+02 0.0000e+00 0.0000e+00
      997  1    1    2    0    0 +3.7349050530e+01 +3.8565156828e+01 +3.2933803643e+02 3.4834719051e+02 1.0000000000e+02 0.0000e+00 0.0000e+00
</event>
<event>
 5      1 +8.5651000e-08 1.93634600e+02 7.95774700e-02 5.16325400e-01
       13 -1    0    0    0    0 +0.0000000000e+00 +0.0000000000e+00 +4.9999998884e+02 5.0000000000e+02 1.0566000000e-01 0.0000e+00 -1.0000e+00
      994 -1    0    0    0    0 -0.0000000000e+00 -0.0000000000e+00 +0.0000000000e+00 1.3100000000e+02 1.3100000000e+02 0.0000e+00 0.0000e+00
       13  1    1    2    0    0 -2.8872737484e+01 +8.2262207478e+00 +1.4770958867e+02 1.5072968993e+02 1.0566000000e-01 0.0000e+00 1.0000e+00
      994  1    1    2    0    0 +8.0986880873e+00 -5.0415743570e+01 +3.5862550923e+01 1.4510154550e+02 1.3100000000e+02 0.0000e+00 0.0000e+00
      997  1    1    2    0    0 +2.0774049397e+01 +4.2189522822e+01 +3.1642784925e+02 3.3516876457e+02 1.0000000000e+02 0.0000e+00 0.0000e+00
</event>
<event>
 5      1 +8.5651000e-08 1.99202000e+02 7.95774700e-02 5.05447900e-01
       13 -1    0    0    0    0 +0.0000000000e+00 +0.0000000000e+00 +4.9999998884e+02 5.0000000000e+02 1.0566000000e-01 0.0000e+00 1.0000e+00
      994 -1    0    0    0    0 -0.0000000000e+00 -0.0000000000e+00 +0.0000000000e+00 1.3100000000e+02 1.3100000000e+02 0.0000e+00 0.0000e+00
       13  1    1    2    0    0 +1.0662273852e+01 -1.5831763370e+00 +3.1858282003e+01 3.3632600661e+01 1.0566000000e-01 0.0000e+00 -1.0000e+00
      994  1    1    2    0    0 -2.7804002705e+01 +1.0569997524e+01 +1.7631892523e+01 1.3548679289e+02 1.3100000000e+02 0.0000e+00 0.0000e+00
      997  1    1    2    0    0 +1.7141728853e+01 -8.9868211871e+00 +4.5050981431e+02 4.6188060645e+02 1.0000000000e+02 0.0000e+00 0.0000e+00
</event>
<event>
 5      1 +8.5651000e-08 1.97688300e+02 7.95774700e-02 5.08325800e-01
       13 -1    0    0    0    0 +0.0000000000e+00 +0.0000000000e+00 +4.9999998884e+02 5.0000000000e+02 1.0566000000e-01 0.0000e+00 1.0000e+00
      994 -1    0    0    0    0 -0.0000000000e+00 -0.0000000000e+00 +0.0000000000e+00 1.3100000000e+02 1.3100000000e+02 0.0000e+00 0.0000e+00
       13  1    1    2    0    0 +6.0213444316e+00 -1.7292128244e+01 +9.2942041372e+00 2.0534548511e+01 1.0566000000e-01 0.0000e+00 -1.0000e+00
      994  1    1    2    0    0 -1.5356607433e+01 +5.8068667528e+00 +2.5578589381e+01 1.3447977293e+02 1.3100000000e+02 0.0000e+00 0.0000e+00
      997  1    1    2    0    0 +9.3352630017e+00 +1.1485261491e+01 +4.6512719532e+02 4.7598567856e+02 1.0000000000e+02 0.0000e+00 0.0000e+00
</event>
<event>
 5      1 +8.5651000e-08 1.98899400e+02 7.95774700e-02 5.06018600e-01
       13 -1    0    0    0    0 +0.0000000000e+00 +0.0000000000e+00 +4.9999998884e+02 5.0000000000e+02 1.0566000000e-01 0.0000e+00 1.0000e+00
      994 -1    0    0    0    0 -0.0000000000e+00 -0.0000000000e+00 +0.0000000000e+00 1.3100000000e+02 1.3100000000e+02 0.0000e+00 0.0000e+00
       13  1    1    2    0    0 -5.3173008677e+00 -9.4430765526e+00 +5.1444096304e+01 5.2573297327e+01 1.0566000000e-01 0.0000e+00 -1.0000e+00
      994  1    1    2    0    0 +9.6867177336e+00 +5.7561160402e+00 +1.3712949491e+01 1.3219686213e+02 1.3100000000e+02 0.0000e+00 0.0000e+00
      997  1    1    2    0    0 -4.3694168659e+00 +3.6869605124e+00 +4.3484294304e+02 4.4622984055e+02 1.0000000000e+02 0.0000e+00 0.0000e+00
</event>
<event>
 5      1 +8.5651000e-08 1.98626100e+02 7.95774700e-02 5.06536000e-01
       13 -1    0    0    0    0 +0.0000000000e+00 +0.0000000000e+00 +4.9999998884e+02 5.0000000000e+02 1.0566000000e-01 0.0000e+00 -1.0000e+00
      994 -1    0    0    0    0 -0.0000000000e+00 -0.0000000000e+00 +0.0000000000e+00 1.3100000000e+02 1.3100000000e+02 0.0000e+00 0.0000e+00
       13  1    1    2    0    0 -1.3258909361e+01 -3.7099350966e+00 +1.9104309788e+00 1.3900475043e+01 1.0566000000e-01 0.0000e+00 1.0000e+00
      994  1    1    2    0    0 +1.5482043250e+00 +8.3273896524e+00 +2.5303926448e+01 1.3369005591e+02 1.3100000000e+02 0.0000e+00 0.0000e+00
      997  1    1    2    0    0 +1.1710705036e+01 -4.6174545558e+00 +4.7278563141e+02 4.8340946905e+02 1.0000000000e+02 0.0000e+00 0.0000e+00
</event>
<event>
 5      1 +8.5651000e-08 1.92930200e+02 7.95774700e-02 5.17760800e-01
       13 -1    0    0    0    0 +0.0000000000e+00 +0.0000000000e+00 +4.9999998884e+02 5.0000000000e+02 1.0566000000e-01 0.0000e+00 -1.0000e+00
      994 -1    0    0    0    0 -0.0000000000e+00 -0.0000000000e+00 +0.0000000000e+00 1.3100000000e+02 1.3100000000e+02 0.0000e+00 0.0000e+00
       13  1    1    2    0    0 -1.4533255527e+01 -6.3662394981e+00 +1.2380063528e+01 2.0125149902e+01 1.0566000000e-01 0.0000e+00 1.0000e+00
      994  1    1    2    0    0 +1.9659983488e+01 +4.2157687822e+00 +2.1684044915e+01 1.3429626004e+02 1.3100000000e+02 0.0000e+00 0.0000e+00
      997  1    1    2    0    0 -5.1267279614e+00 +2.1504707159e+00 +4.6593588039e+02 4.7657859006e+02 1.0000000000e+02 0.0000e+00 0.0000e+00
</event>
<event>
 5      1 +8.5651000e-08 1.92677700e+02 7.95774700e-02 5.18278700e-01
       13 -1    0    0    0    0 +0.0000000000e+00 +0.0000000000e+00 +4.9999998884e+02 5.0000000000e+02 1.0566000000e-01 0.0000e+00 1.0000e+00
      994 -1    0    0    0    0 -0.0000000000e+00 -0.0000000000e+00 +0.0000000000e+00 1.3100000000e+02 1.3100000000e+02 0.0000e+00 0.0000e+00
       13  1    1    2    0    0 +2.7213036582e+00 -1.4713645771e+01 +8.3221136742e+00 1.7122079474e+01 1.0566000000e-01 0.0000e+00 -1.0000e+00
      994  1    1    2    0    0 -1.0586971460e+01 +5.1275814585e+01 +3.5637919183e+01 1.4550723147e+02 1.3100000000e+02 0.0000e+00 0.0000e+00
      997  1    1    2    0    0 +7.8656678021e+00 -3.6562168814e+01 +4.5603995598e+02 4.6837068906e+02 1.0000000000e+02 0.0000e+00 0.0000e+00
</event>
<event>
 5      1 +8.5651000e-08 2.02264900e+02 7.95774700e-02 4.99795600e-01
       13 -1    0    0    0    0 +0.0000000000e+00 +0.0000000000e+00 +4.9999998884e+02 5.0000000000e+02 1.0566000000e-01 0.0000e+00 -1.0000e+00
      994 -1    0    0    0    0 -0.0000000000e+00 -0.0000000000e+00 +0.0000000000e+00 1.3100000000e+02 1.3100000000e+02 0.0000e+00 0.0000e+00
       13  1    1    2    0    0 +4.1425760154e+01 +3.7293597970e+01 +9.6639942956e+01 1.1156251966e+02 1.0566000000e-01 0.0000e+00 1.0000e+00
      994  1    1    2    0    0 -3.9717307006e+01 -2.7029850630e+01 +4.4040199557e+01 1.4631683593e+02 1.3100000000e+02 0.0000e+00 0.0000e+00
      997  1    1    2    0    0 -1.7084531478e+00 -1.0263747340e+01 +3.5931984632e+02 3.7312064441e+02 1.0000000000e+02 0.0000e+00 0.0000e+00
</event>
<event>
 5      1 +8.5651000e-08 2.00850100e+02 7.95774700e-02 5.02378800e-01
       13 -1    0    0    0    0 +0.0000000000e+00 +0.0000000000e+00 +4.9999998884e+02 5.0000000000e+02 1.0566000000e-01 0.0000e+00 -1.0000e+00
      994 -1    0    0    0    0 -0.0000000000e+00 -0.0000000000e+00 +0.0000000000e+00 1.3100000000e+02 1.3100000000e+02 0.0000e+00 0.0000e+00
       13  1    1    2    0    0 -2.7674863748e+00 +3.5434868505e+01 +7.3226489304e+01 8.1396675526e+01 1.0566000000e-01 0.0000e+00 1.0000e+00
      994  1    1    2    0    0 -3.6324874185e+01 +2.1538102694e+01 +3.8752571398e+01 1.4299002812e+02 1.3100000000e+02 0.0000e+00 0.0000e+00
      997  1    1    2    0    0 +3.9092360560e+01 -5.6972971199e+01 +3.8802092813e+02 4.0661329635e+02 1.0000000000e+02 0.0000e+00 0.0000e+00
</event>
<event>
 5      1 +8.5651000e-08 2.07438100e+02 7.95774700e-02 4.90735400e-01
       13 -1    0    0    0    0 +0.0000000000e+00 +0.0000000000e+00 +4.9999998884e+02 5.0000000000e+02 1.0566000000e-01 0.0000e+00 -1.0000e+00
      994 -1    0    0    0    0 -0.0000000000e+00 -0.0000000000e+00 +0.0000000000e+00 1.3100000000e+02 1.3100000000e+02 0.0000e+00 0.0000e+00
       13  1    1    2    0    0 +3.5491138438e+01 -4.7340413240e+01 +1.0642949530e+02 1.2177021092e+02 1.0566000000e-01 0.0000e+00 1.0000e+00
      994  1    1    2    0    0 -4.8520418358e+01 -2.5615079585e+00 +5.1136433425e+01 1.4878416295e+02 1.3100000000e+02 0.0000e+00 0.0000e+00
      997  1    1    2    0    0 +1.3029279920e+01 +4.9901921198e+01 +3.4243406011e+02 3.6044562613e+02 1.0000000000e+02 0.0000e+00 0.0000e+00
</event>
<event>
 5      1 +8.5651000e-08 2.02557300e+02 7.95774700e-02 4.99267700e-01
       13 -1    0    0    0    0 +0.0000000000e+00 +0.0000000000e+00 +4.9999998884e+02 5.0000000000e+02 1.0566000000e-01 0.0000e+00 -1.0000e+00
      994 -1    0    0    0    0 -0.0000000000e+00 -0.0000000000e+00 +0.0000000000e+00 1.3100000000e+02 1.3100000000e+02 0.0000e+00 0.0000e+00
       13  1    1    2    0    0 +3.2491980932e+00 -1.9859703252e+01 +8.0115161654e+00 2.1660116731e+01 1.0566000000e-01 0.0000e+00 1.0000e+00
      994  1    1    2    0    0 -2.8333744489e+01 -3.5062587053e+01 +4.2487480528e+01 1.4490815053e+02 1.3100000000e+02 0.0000e+00 0.0000e+00
      997  1    1    2    0    0 +2.5084546395e+01 +5.4922290305e+01 +4.4950099214e+02 4.6443173274e+02 1.0000000000e+02 0.0000e+00 0.0000e+00
</event>
<event>
 5      1 +8.5651000e-08 1.93485300e+02 7.95774700e-02 5.16628400e-01
       13 -1    0    0    0    0 +0.0000000000e+00 +0.0000000000e+00 +4.9999998884e+02 5.0000000000e+02 1.0566000000e-01 0.0000e+00 -1.0000e+00
      994 -1    0    0    0    0 -0.0000000000e+00 -0.0000000000e+00 +0.0000000000e+00 1.3100000000e+02 1.3100000000e+02 0.0000e+00 0.0000e+00
       13  1    1    2    0    0 +7.6568044174e+00 -1.4928305917e+01 +2.4794159417e+01 2.9937309108e+01 1.0566000000e-01 0.0000e+00 1.0000e+00
      994  1    1    2    0    0 +2.5118058899e+01 -6.6288862052e-01 +2.1571139983e+01 1.3512094724e+02 1.3100000000e+02 0.0000e+00 0.0000e+00
      997  1    1    2    0    0 -3.2774863316e+01 +1.5591194537e+01 +4.5363468944e+02 4.6594174365e+02 1.0000000000e+02 0.0000e+00 0.0000e+00
</event>
<event>
 5      1 +8.5651000e-08 1.93905900e+02 7.95774700e-02 5.15776100e-01
       13 -1    0    0    0    0 +0.0000000000e+00 +0.0000000000e+00 +4.9999998884e+02 5.0000000000e+02 1.0566000000e-01 0.0000e+00 -1.0000e+00
      994 -1    0    0    0    0 -0.0000000000e+00 -0.0000000000e+00 +0.0000000000e+00 1.3100000000e+02 1.3100000000e+02 0.0000e+00 0.0000e+00
       13  1    1    2    0    0 +5.1939600293e+00 +1.1104819145e+01 +4.0689662914e+00 1.2917502845e+01 1.0566000000e-01 0.0000e+00 1.0000e+00
      994  1    1    2    0    0 -1.7474588038e+01 -2.0803499400e+01 +2.4630875864e+01 1.3603612337e+02 1.3100000000e+02 0.0000e+00 0.0000e+00
      997  1    1    2    0    0 +1.2280628009e+01 +9.6986802552e+00 +4.7130014668e+02 4.8204637379e+02 1.0000000000e+02 0.0000e+00 0.0000e+00
</event>
<event>
 5      1 +8.5651000e-08 1.93478100e+02 7.95774700e-02 5.16643000e-01
       13 -1    0    0    0    0 +0.0000000000e+00 +0.0000000000e+00 +4.9999998884e+02 5.0000000000e+02 1.0566000000e-01 0.0000e+00 1.0000e+00
      994 -1    0    0    0    0 -0.0000000000e+00 -0.0000000000e+00 +0.0000000000e+00 1.3100000000e+02 1.3100000000e+02 0.0000e+00 0.0000e+00
       13  1    1    2    0    0 +9.9449509082e+00 -6.1317973566e+00 +4.1367444834e+00 1.2394547444e+01 1.0566000000e-01 0.0000e+00 -1.0000e+00
      994  1    1    2    0    0 -1.2884726068e+01 +1.3050789010e+01 +2.1812612850e+01 1.3406390021e+02 1.3100000000e+02 0.0000e+00 0.0000e+00
      997  1    1    2    0    0 +2.9397751598e+00 -6.9189916532e+00 +4.7405063150e+02 4.8454155235e+02 1.0000000000e+02 0.0000e+00 0.0000e+00
</event>
<event>
 5      1 +8.5651000e-08 1.98220600e+02 7.95774700e-02 5.07307200e-01
       13 -1    0    0    0    0 +0.0000000000e+00 +0.0000000000e+00 +4.9999998884e+02 5.0000000000e+02 1.0566000000e-01 0.0000e+00 1.0000e+00
      994 -1    0    0    0    0 -0.0000000000e+00 -0.0000000000e+00 +0.0000000000e+00 1.3100000000e+02 1.3100000000e+02 0.0000e+00 0.0000e+00
       13  1    1    2    0    0 +9.8927350624e+00 -5.8484379994e+00 +2.6474867542e+01 2.8861743008e+01 1.0566000000e-01 0.0000e+00 -1.0000e+00
      994  1    1    2    0    0 -3.2387490339e+00 +2.6133840530e+01 +1.7466923670e+01 1.3475741367e+02 1.3100000000e+02 0.0000e+00 0.0000e+00
      997  1    1    2    0    0 -6.6539860284e+00 -2.0285402530e+01 +4.5605819762e+02 4.6738084332e+02 1.0000000000e+02 0.0000e+00 0.0000e+00
</event>
<event>
 5      1 +8.5651000e-08 2.11256600e+02 7.95774700e-02 4.84409300e-01
       13 -1    0    0    0    0 +0.0000000000e+00 +0.0000000000e+00 +4.9999998884e+02 5.0000000000e+02 1.0566000000e-01 0.0000e+00 1.0000e+00
      994 -1    0    0    0    0 -0.0000000000e+00 -0.0000000000e+00 +0.0000000000e+00 1.3100000000e+02 1.3100000000e+02 0.0000e+00 0.0000e+00
       13  1    1    2    0    0 -4.2524931613e+01 -5.0534958426e+01 +1.4545004663e+02 1.5974316593e+02 1.0566000000e-01 0.0000e+00 -1.0000e+00
      994  1    1    2    0    0 +5.2164108804e+01 -1.4461949794e+01 +6.1104543371e+01 1.5435351457e+02 1.3100000000e+02 0.0000e+00 0.0000e+00
      997  1    1    2    0    0 -9.6391771907e+00 +6.4996908220e+01 +2.9344539883e+02 3.1690331950e+02 1.0000000000e+02 0.0000e+00 0.0000e+00
</event>
<event>
 5      1 +8.5651000e-08 1.94884500e+02 7.95774700e-02 5.13811900e-01
       13 -1    0    0    0    0 +0.0000000000e+00 +0.0000000000e+00 +4.9999998884e+02 5.0000000000e+02 1.0566000000e-01 0.0000e+00 -1.0000e+00
      994 -1    0    0    0    0 -0.0000000000e+00 -0.0000000000e+00 +0.0000000000e+00 1.3100000000e+02 1.3100000000e+02 0.0000e+00 0.0000e+00
       13  1    1    2    0    0 +3.1115174755e+01 +2.6564939359e+01 +7.4741758209e+01 8.5206758460e+01 1.0566000000e-01 0.0000e+00 1.0000e+00
      994  1    1    2    0    0 -3.9330240854e+01 -4.0484694536e+01 +4.1015461037e+01 1.4842218965e+02 1.3100000000e+02 0.0000e+00 0.0000e+00
      997  1    1    2    0    0 +8.2150660986e+00 +1.3919755177e+01 +3.8424276959e+02 3.9737105189e+02 1.0000000000e+02 0.0000e+00 0.0000e+00
</event>
<event>
 5      1 +8.5651000e-08 1.92637700e+02 7.95774700e-02 5.18360900e-01
       13 -1    0    0    0    0 +0.0000000000e+00 +0.0000000000e+00 +4.9999998884e+02 5.0000000000e+02 1.0566000000e-01 0.0000e+00 -1.0000e+00
      994 -1    0    0    0    0 -0.0000000000e+00 -0.0000000000e+00 +0.0000000000e+00 1.3100000000e+02 1.3100000000e+02 0.0000e+00 0.0000e+00
       13  1    1    2    0    0 +3.1040626528e+01 -1.7206768600e+01 +5.8107666296e+01 6.8088952315e+01 1.0566000000e-01 0.0000e+00 1.0000e+00
      994  1    1    2    0    0 -8.8125600546e+01 -9.7532205477e+00 +7.0570935991e+01 1.7321230842e+02 1.3100000000e+02 0.0000e+00 0.0000e+00
      997  1    1    2    0    0 +5.7084974018e+01 +2.6959989148e+01 +3.7132138655e+02 3.8969873926e+02 1.0000000000e+02 0.0000e+00 0.0000e+00
</event>
<event>
 5      1 +8.5651000e-08 1.94387300e+02 7.95774700e-02 5.14806600e-01
       13 -1    0    0    0    0 +0.0000000000e+00 +0.0000000000e+00 +4.9999998884e+02 5.0000000000e+02 1.0566000000e-01 0.0000e+00 -1.0000e+00
      994 -1    0    0    0    0 -0.0000000000e+00 -0.0000000000e+00 +0.0000000000e+00 1.3100000000e+02 1.3100000000e+02 0.0000e+00 0.0000e+00
       13  1    1    2    0    0 +2.0134666920e+01 +2.3363946979e+01 +1.3152342583e+02 1.3509145619e+02 1.0566000000e-01 0.0000e+00 1.0000e+00
      994  1    1    2    0    0 -7.9938935626e+00 +7.6817217516e+00 +2.1425766483e+01 1.3320275768e+02 1.3100000000e+02 0.0000e+00 0.0000e+00
      997  1    1    2    0    0 -1.2140773358e+01 -3.1045668731e+01 +3.4705079653e+02 3.6270578613e+02 1.0000000000e+02 0.0000e+00 0.0000e+00
</event>
<event>
 5      1 +8.5651000e-08 1.93831800e+02 7.95774700e-02 5.15926000e-01
       13 -1    0    0    0    0 +0.0000000000e+00 +0.0000000000e+00 +4.9999998884e+02 5.0000000000e+02 1.0566000000e-01 0.0000e+00 1.0000e+00
      994 -1    0    0    0    0 -0.0000000000e+00 -0.0000000000e+00 +0.0000000000e+00 1.3100000000e+02 1.3100000000e+02 0.0000e+00 0.0000e+00
       13  1    1    2    0    0 -2.1653620063e+01 -3.8061932998e+00 +2.7036583777e+01 3.4847588089e+01 1.0566000000e-01 0.0000e+00 -1.0000e+00
      994  1    1    2    0    0 +1.1078739687e+01 +1.2345998370e+01 +2.1792531752e+01 1.3383227036e+02 1.3100000000e+02 0.0000e+00 0.0000e+00
      997  1    1    2    0    0 +1.0574880376e+01 -8.5398050703e+00 +4.5117087331e+02 4.6232014155e+02 1.0000000000e+02 0.0000e+00 0.0000e+00
</event>
<event>
 5      1 +8.5651000e-08 2.12960300e+02 7.95774700e-02 4.81679000e-01
       13 -1    0    0    0    0 +0.0000000000e+00 +0.0000000000e+00 +4.9999998884e+02 5.0000000000e+02 1.0566000000e-01 0.0000e+00 1.0000e+00
      994 -1    0    0    0    0 -0.0000000000e+00 -0.0000000000e+00 +0.0000000000e+00 1.3100000000e+02 1.3100000000e+02 0.0000e+00 0.0000e+00
       13  1    1    2    0    0 +1.0952063656e+01 -9.2429412404e+00 -7.8661010911e+00 1.6348283442e+01 1.0566000000e-01 0.0000e+00 -1.0000e+00
      994  1    1    2    0    0 -9.4293696520e+00 +9.0551061192e+00 +4.2024674832e+01 1.3819544585e+02 1.3100000000e+02 0.0000e+00 0.0000e+00
      997  1    1    2    0    0 -1.5226940039e+00 +1.8783512120e-01 +4.6584141510e+02 4.7645627071e+02 1.0000000000e+02 0.0000e+00 0.0000e+00
</event>
<event>
 5      1 +8.5651000e-08 1.94176200e+02 7.95774700e-02 5.15231000e-01
       13 -1    0    0    0    0 +0.0000000000e+00 +0.0000000000e+00 +4.9999998884e+02 5.0000000000e+02 1.0566000000e-01 0.0000e+00 -1.0000e+00
      994 -1    0    0    0    0 -0.0000000000e+00 -0.0000000000e+00 +0.0000000000e+00 1.3100000000e+02 1.3100000000e+02 0.0000e+00 0.0000e+00
       13  1    1    2    0    0 -9.8061615913e+00 +9.9447259112e+00 +7.1408528350e+00 1.5686341889e+01 1.0566000000e-01 0.0000e+00 1.0000e+00
      994  1    1    2    0    0 +2.5834946448e+01 +1.2791975885e+01 +2.5462001934e+01 1.3652982329e+02 1.3100000000e+02 0.0000e+00 0.0000e+00
      997  1    1    2    0    0 -1.6028784856e+01 -2.2736701797e+01 +4.6739713407e+02 4.7878383482e+02 1.0000000000e+02 0.0000e+00 0.0000e+00
</event>
<event>
 5      1 +8.5651000e-08 1.96594200e+02 7.95774700e-02 5.10442200e-01
       13 -1    0    0    0    0 +0.0000000000e+00 +0.0000000000e+00 +4.9999998884e+02 5.0000000000e+02 1.0566000000e-01 0.0000e+00 -1.0000e+00
      994 -1    0    0    0    0 -0.0000000000e+00 -0.0000000000e+00 +0.0000000000e+00 1.3100000000e+02 1.3100000000e+02 0.0000e+00 0.0000e+00
       13  1    1    2    0    0 -1.1544154830e+01 -4.8819871297e-01 +1.1977341352e+01 1.6642527411e+01 1.0566000000e-01 0.0000e+00 1.0000e+00
      994  1    1    2    0    0 +4.1637841020e+01 +2.5916122671e+01 +2.8915775444e+01 1.4283724055e+02 1.3100000000e+02 0.0000e+00 0.0000e+00
      997  1    1    2    0    0 -3.0093686190e+01 -2.5427923958e+01 +4.5910687204e+02 4.7152023204e+02 1.0000000000e+02 0.0000e+00 0.0000e+00
</event>
<event>
 5      1 +8.5651000e-08 1.96071500e+02 7.95774700e-02 5.11464100e-01
       13 -1    0    0    0    0 +0.0000000000e+00 +0.0000000000e+00 +4.9999998884e+02 5.0000000000e+02 1.0566000000e-01 0.0000e+00 1.0000e+00
      994 -1    0    0    0    0 -0.0000000000e+00 -0.0000000000e+00 +0.0000000000e+00 1.3100000000e+02 1.3100000000e+02 0.0000e+00 0.0000e+00
       13  1    1    2    0    0 +7.9673585586e+00 +1.0868032350e+01 +1.0485841139e+01 1.7075039033e+01 1.0566000000e-01 0.0000e+00 -1.0000e+00
      994  1    1    2    0    0 -6.9493466014e+01 -5.1264529484e+01 +6.1938549782e+01 1.6868544025e+02 1.3100000000e+02 0.0000e+00 0.0000e+00
      997  1    1    2    0    0 +6.1526107456e+01 +4.0396497134e+01 +4.2757559791e+02 4.4523952072e+02 1.0000000000e+02 0.0000e+00 0.0000e+00
</event>
<event>
 5      1 +8.5651000e-08 1.98168000e+02 7.95774700e-02 5.07407600e-01
       13 -1    0    0    0    0 +0.0000000000e+00 +0.0000000000e+00 +4.9999998884e+02 5.0000000000e+02 1.0566000000e-01 0.0000e+00 -1.0000e+00
      994 -1    0    0    0    0 -0.0000000000e+00 -0.0000000000e+00 +0.0000000000e+00 1.3100000000e+02 1.3100000000e+02 0.0000e+00 0.0000e+00
       13  1    1    2    0    0 +1.0529728319e+01 -1.9971702955e+00 +3.5579114551e+01 3.7158423324e+01 1.0566000000e-01 0.0000e+00 1.0000e+00
      994  1    1    2    0    0 +1.4499993442e+01 +2.0103073729e+01 +1.7072832194e+01 1.3441303874e+02 1.3100000000e+02 0.0000e+00 0.0000e+00
      997  1    1    2    0    0 -2.5029721762e+01 -1.8105903434e+01 +4.4734804209e+02 4.5942853794e+02 1.0000000000e+02 0.0000e+00 0.0000e+00
</event>
<event>
 5      1 +8.5651000e-08 2.08835400e+02 7.95774700e-02 4.88386400e-01
       13 -1    0    0    0    0 +0.0000000000e+00 +0.0000000000e+00 +4.9999998884e+02 5.0000000000e+02 1.0566000000e-01 0.0000e+00 -1.0000e+00
      994 -1    0    0    0    0 -0.0000000000e+00 -0.0000000000e+00 +0.0000000000e+00 1.3100000000e+02 1.3100000000e+02 0.0000e+00 0.0000e+00
       13  1    1    2    0    0 +1.3280430691e+01 +1.2591035206e+00 -5.3810507852e+00 1.4384785455e+01 1.0566000000e-01 0.0000e+00 1.0000e+00
      994  1    1    2    0    0 +5.9207911328e+01 +2.9500336025e+01 +6.9216589544e+01 1.6225838301e+02 1.3100000000e+02 0.0000e+00 0.0000e+00
      997  1    1    2    0    0 -7.2488342019e+01 -3.0759439545e+01 +4.3616445008e+02 4.5435683153e+02 1.0000000000e+02 0.0000e+00 0.0000e+00
</event>
<event>
 5      1 +8.5651000e-08 1.93508200e+02 7.95774700e-02 5.16581900e-01
       13 -1    0    0    0    0 +0.0000000000e+00 +0.0000000000e+00 +4.9999998884e+02 5.0000000000e+02 1.0566000000e-01 0.0000e+00 -1.0000e+00
      994 -1    0    0    0    0 -0.0000000000e+00 -0.0000000000e+00 +0.0000000000e+00 1.3100000000e+02 1.3100000000e+02 0.0000e+00 0.0000e+00
       13  1    1    2    0    0 -1.3276092599e+01 +4.2503512624e+00 +1.1772267512e+01 1.8246028800e+01 1.0566000000e-01 0.0000e+00 1.0000e+00
      994  1    1    2    0    0 +1.4531721952e+01 -1.1864579335e+01 +1.9921153916e+01 1.3382746937e+02 1.3100000000e+02 0.0000e+00 0.0000e+00
      997  1    1    2    0    0 -1.2556293535e+00 +7.6142280731e+00 +4.6830656741e+02 4.7892650183e+02 1.0000000000e+02 0.0000e+00 0.0000e+00
</event>
<event>
 5      1 +8.5651000e-08 1.94277500e+02 7.95774700e-02 5.15027200e-01
       13 -1    0    0    0    0 +0.0000000000e+00 +0.0000000000e+00 +4.9999998884e+02 5.0000000000e+02 1.0566000000e-01 0.0000e+00 1.0000e+00
      994 -1    0    0    0    0 -0.0000000000e+00 -0.0000000000e+00 +0.0000000000e+00 1.3100000000e+02 1.3100000000e+02 0.0000e+00 0.0000e+00
       13  1    1    2    0    0 +5.0413127066e+00 +2.8166528543e+01 +9.5627185604e+01 9.9816521451e+01 1.0566000000e-01 0.0000e+00 -1.0000e+00
      994  1    1    2    0    0 +3.4759656729e+00 -3.0202970169e+01 +2.2516920509e+01 1.3635363381e+02 1.3100000000e+02 0.0000e+00 0.0000e+00
      997  1    1    2    0    0 -8.5172783795e+00 +2.0364416251e+00 +3.8185588272e+02 3.9482984474e+02 1.0000000000e+02 0.0000e+00 0.0000e+00
</event>
<event>
 5      1 +8.5651000e-08 1.93424900e+02 7.95774700e-02 5.16751200e-01
       13 -1    0    0    0    0 +0.0000000000e+00 +0.0000000000e+00 +4.9999998884e+02 5.0000000000e+02 1.0566000000e-01 0.0000e+00 -1.0000e+00
      994 -1    0    0    0    0 -0.0000000000e+00 -0.0000000000e+00 +0.0000000000e+00 1.3100000000e+02 1.3100000000e+02 0.0000e+00 0.0000e+00
       13  1    1    2    0    0 -1.4665110718e+01 +5.1552804694e+00 +9.6952600593e+00 1.8320797492e+01 1.0566000000e-01 0.0000e+00 1.0000e+00
      994  1    1    2    0    0 +2.5243460019e+01 -2.3390568307e+01 +2.6837813320e+01 1.3807830816e+02 1.3100000000e+02 0.0000e+00 0.0000e+00
      997  1    1    2    0    0 -1.0578349301e+01 +1.8235287837e+01 +4.6346691546e+02 4.7460089435e+02 1.0000000000e+02 0.0000e+00 0.0000e+00
</event>
<event>
 5      1 +8.5651000e-08 1.96427600e+02 7.95774700e-02 5.10767100e-01
       13 -1    0    0    0    0 +0.0000000000e+00 +0.0000000000e+00 +4.9999998884e+02 5.0000000000e+02 1.0566000000e-01 0.0000e+00 -1.0000e+00
      994 -1    0    0    0    0 -0.0000000000e+00 -0.0000000000e+00 +0.0000000000e+00 1.3100000000e+02 1.3100000000e+02 0.0000e+00 0.0000e+00
       13  1    1    2    0    0 +1.7377875413e+01 +1.3012042784e+00 +4.2054559767e+01 4.5522311537e+01 1.0566000000e-01 0.0000e+00 1.0000e+00
      994  1    1    2    0    0 -1.7258777376e+01 +5.9279017414e+00 +1.7089207286e+01 1.3336433714e+02 1.3100000000e+02 0.0000e+00 0.0000e+00
      997  1    1    2    0    0 -1.1909803652e-01 -7.2291060198e+00 +4.4085622178e+02 4.5211335132e+02 1.0000000000e+02 0.0000e+00 0.0000e+00
</event>
<event>
 5      1 +8.5651000e-08 1.97756000e+02 7.95774700e-02 5.08195900e-01
       13 -1    0    0    0    0 +0.0000000000e+00 +0.0000000000e+00 +4.9999998884e+02 5.0000000000e+02 1.0566000000e-01 0.0000e+00 1.0000e+00
      994 -1    0    0    0    0 -0.0000000000e+00 -0.0000000000e+00 +0.0000000000e+00 1.3100000000e+02 1.3100000000e+02 0.0000e+00 0.0000e+00
       13  1    1    2    0    0 +6.4402845230e+00 +1.6352910888e+01 +7.6625460199e+01 7.8615311956e+01 1.0566000000e-01 0.0000e+00 -1.0000e+00
      994  1    1    2    0    0 -4.3595376401e+01 -2.3883646258e+01 +2.8107709202e+01 1.4290566370e+02 1.3100000000e+02 0.0000e+00 0.0000e+00
      997  1    1    2    0    0 +3.7155091878e+01 +7.5307353701e+00 +3.9526681944e+02 4.0947902434e+02 1.0000000000e+02 0.0000e+00 0.0000e+00
</event>
<event>
 5      1 +8.5651000e-08 1.95223600e+02 7.95774700e-02 5.13137300e-01
       13 -1    0    0    0    0 +0.0000000000e+00 +0.0000000000e+00 +4.9999998884e+02 5.0000000000e+02 1.0566000000e-01 0.0000e+00 1.0000e+00
      994 -1    0    0    0    0 -0.0000000000e+00 -0.0000000000e+00 +0.0000000000e+00 1.3100000000e+02 1.3100000000e+02 0.0000e+00 0.0000e+00
       13  1    1    2    0    0 -7.6978546568e-01 -2.3822492026e+01 +2.9797938715e+01 3.8157987521e+01 1.0566000000e-01 0.0000e+00 -1.0000e+00
      994  1    1    2    0    0 +2.2191265834e+01 +3.8013524992e+00 +2.4550976656e+01 1.3516897948e+02 1.3100000000e+02 0.0000e+00 0.0000e+00
      997  1    1    2    0    0 -2.1421480368e+01 +2.0021139527e+01 +4.4565107347e+02 4.5767303299e+02 1.0000000000e+02 0.0000e+00 0.0000e+00
</event>
<event>
 5      1 +8.5651000e-08 1.95996200e+02 7.95774700e-02 5.11612000e-01
       13 -1    0    0    0    0 +0.0000000000e+00 +0.0000000000e+00 +4.9999998884e+02 5.0000000000e+02 1.0566000000e-01 0.0000e+00 1.0000e+00
      994 -1    0    0    0    0 -0.0000000000e+00 -0.0000000000e+00 +0.0000000000e+00 1.3100000000e+02 1.3100000000e+02 0.0000e+00 0.0000e+00
       13  1    1    2    0    0 +6.7288719510e+00 +1.0156931992e+01 +1.6703207055e+01 2.0674846437e+01 1.0566000000e-01 0.0000e+00 -1.0000e+00
      994  1    1    2    0    0 +1.0958887514e+01 -8.1385822540e+00 +1.6656508540e+01 1.3275832559e+02 1.3100000000e+02 0.0000e+00 0.0000e+00
      997  1    1    2    0    0 -1.7687759465e+01 -2.0183497381e+00 +4.6664027324e+02 4.7756682797e+02 1.0000000000e+02 0.0000e+00 0.0000e+00
</event>
<event>
 5      1 +8.5651000e-08 1.92700000e+02 7.95774700e-02 5.18232800e-01
       13 -1    0    0    0    0 +0.0000000000e+00 +0.0000000000e+00 +4.9999998884e+02 5.0000000000e+02 1.0566000000e-01 0.0000e+00 -1.0000e+00
      994 -1    0    0    0    0 -0.0000000000e+00 -0.0000000000e+00 +0.0000000000e+00 1.3100000000e+02 1.3100000000e+02 0.0000e+00 0.0000e+00
       13  1    1    2    0    0 -1.4279409180e+01 -3.8911946779e+01 +1.6325481699e+02 1.6843452011e+02 1.0566000000e-01 0.0000e+00 1.0000e+00
      994  1    1    2    0    0 +2.2403506792e+01 +6.1166903629e+01 +4.4718652828e+01 1.5298387211e+02 1.3100000000e+02 0.0000e+00 0.0000e+00
      997  1    1    2    0    0 -8.1240976116e+00 -2.2254956850e+01 +2.9202651902e+02 3.0958160778e+02 1.0000000000e+02 0.0000e+00 0.0000e+00
</event>
<event>
 5      1 +8.5651000e-08 1.94357800e+02 7.95774700e-02 5.14865800e-01
       13 -1    0    0    0    0 +0.0000000000e+00 +0.0000000000e+00 +4.9999998884e+02 5.0000000000e+02 1.0566000000e-01 0.0000e+00 1.0000e+00
      994 -1    0    0    0    0 -0.0000000000e+00 -0.0000000000e+00 +0.0000000000e+00 1.3100000000e+02 1.3100000000e+02 0.0000e+00 0.0000e+00
       13  1    1    2    0    0 +2.2130264667e+01 +2.3107261012e+01 +2.3937598646e+01 3.9958902871e+01 1.0566000000e-01 0.0000e+00 -1.0000e+00
      994  1    1    2    0    0 -3.0515623008e+01 -1.1358704488e+02 +1.2798020007e+02 2.1765374249e+02 1.3100000000e+02 0.0000e+00 0.0000e+00
      997  1    1    2    0    0 +8.3853583411e+00 +9.0479783866e+01 +3.4808219012e+02 3.7338735463e+02 1.0000000000e+02 0.0000e+00 0.0000e+00
</event>
<event>
 5      1 +8.5651000e-08 1.94479500e+02 7.95774700e-02 5.14621700e-01
       13 -1    0    0    0    0 +0.0000000000e+00 +0.0000000000e+00 +4.9999998884e+02 5.0000000000e+02 1.0566000000e-01 0.0000e+00 1.0000e+00
      994 -1    0    0    0    0 -0.0000000000e+00 -0.0000000000e+00 +0.0000000000e+00 1.3100000000e+02 1.3100000000e+02 0.0000e+00 0.0000e+00
       13  1    1    2    0    0 +3.0944258031e+00 -2.6840552003e+01 +7.1691084413e+01 7.6613402556e+01 1.0566000000e-01 0.0000e+00 -1.0000e+00
      994  1    1    2    0    0 +3.8778292609e+01 +4.1937793074e+01 +3.6392693938e+01 1.4747190457e+02 1.3100000000e+02 0.0000e+00 0.0000e+00
      997  1    1    2    0    0 -4.1872718412e+01 -1.5097241071e+01 +3.9191621049e+02 4.0691469287e+02 1.0000000000e+02 0.0000e+00 0.0000e+00
</event>
<event>
 5      1 +8.5651000e-08 1.96595700e+02 7.95774700e-02 5.10439100e-01
       13 -1    0    0    0    0 +0.0000000000e+00 +0.0000000000e+00 +4.9999998884e+02 5.0000000000e+02 1.0566000000e-01 0.0000e+00 1.0000e+00
      994 -1    0    0    0    0 -0.0000000000e+00 -0.0000000000e+00 +0.0000000000e+00 1.3100000000e+02 1.3100000000e+02 0.0000e+00 0.0000e+00
       13  1    1    2    0    0 +1.2724015970e+01 +7.0670695664e+00 +8.6634988179e+01 8.7849168440e+01 1.0566000000e-01 0.0000e+00 -1.0000e+00
      994  1    1    2    0    0 -7.7471984032e+00 +2.5644000735e+01 +1.9112354703e+01 1.3507004094e+02 1.3100000000e+02 0.0000e+00 0.0000e+00
      997  1    1    2    0    0 -4.9768175671e+00 -3.2711070302e+01 +3.9425264595e+02 4.0808079062e+02 1.0000000000e+02 0.0000e+00 0.0000e+00
</event>
<event>
 5      1 +8.5651000e-08 2.17210400e+02 7.95774700e-02 4.75101800e-01
       13 -1    0    0    0    0 +0.0000000000e+00 +0.0000000000e+00 +4.9999998884e+02 5.0000000000e+02 1.0566000000e-01 0.0000e+00 1.0000e+00
      994 -1    0    0    0    0 -0.0000000000e+00 -0.0000000000e+00 +0.0000000000e+00 1.3100000000e+02 1.3100000000e+02 0.0000e+00 0.0000e+00
       13  1    1    2    0    0 +5.5150051662e+00 +4.8214939897e+01 +4.7229927003e+01 6.7718334888e+01 1.0566000000e-01 0.0000e+00 -1.0000e+00
      994  1    1    2    0    0 -4.2580185996e+00 +2.6501802857e+01 +5.1928340304e+01 1.4345044024e+02 1.3100000000e+02 0.0000e+00 0.0000e+00
      997  1    1    2    0    0 -1.2569865667e+00 -7.4716742754e+01 +4.0084172153e+02 4.1983122488e+02 1.0000000000e+02 0.0000e+00 0.0000e+00
</event>
<event>
 5      1 +8.5651000e-08 1.97645800e+02 7.95774700e-02 5.08407300e-01
       13 -1    0    0    0    0 +0.0000000000e+00 +0.0000000000e+00 +4.9999998884e+02 5.0000000000e+02 1.0566000000e-01 0.0000e+00 1.0000e+00
      994 -1    0    0    0    0 -0.0000000000e+00 -0.0000000000e+00 +0.0000000000e+00 1.3100000000e+02 1.3100000000e+02 0.0000e+00 0.0000e+00
       13  1    1    2    0    0 +8.4220457465e+00 +6.7671249608e+00 +2.0049426822e+01 2.2775326885e+01 1.0566000000e-01 0.0000e+00 -1.0000e+00
      994  1    1    2    0    0 +8.7683144486e-01 -7.8558583105e+00 +1.4472230501e+01 1.3203381688e+02 1.3100000000e+02 0.0000e+00 0.0000e+00
      997  1    1    2    0    0 -9.2988771913e+00 +1.0887333497e+00 +4.6547833151e+02 4.7619085624e+02 1.0000000000e+02 0.0000e+00 0.0000e+00
</event>
<event>
 5      1 +8.5651000e-08 1.92476600e+02 7.95774700e-02 5.18692500e-01
       13 -1    0    0    0    0 +0.0000000000e+00 +0.0000000000e+00 +4.9999998884e+02 5.0000000000e+02 1.0566000000e-01 0.0000e+00 1.0000e+00
      994 -1    0    0    0    0 -0.0000000000e+00 -0.0000000000e+00 +0.0000000000e+00 1.3100000000e+02 1.3100000000e+02 0.0000e+00 0.0000e+00
       13  1    1    2    0    0 -9.1168312388e+00 -1.1540145577e+01 +1.2241634978e+01 1.9135317158e+01 1.0566000000e-01 0.0000e+00 -1.0000e+00
      994  1    1    2    0    0 +5.1348962055e+00 +2.6758113008e+00 +1.9044649446e+01 1.3250368220e+02 1.3100000000e+02 0.0000e+00 0.0000e+00
      997  1    1    2    0    0 +3.9819350332e+00 +8.8643342766e+00 +4.6871370441e+02 4.7936100064e+02 1.0000000000e+02 0.0000e+00 0.0000e+00
</event>
<event>
 5      1 +8.5651000e-08 1.96232800e+02 7.95774700e-02 5.11147900e-01
       13 -1    0    0    0    0 +0.0000000000e+00 +0.0000000000e+00 +4.9999998884e+02 5.0000000000e+02 1.0566000000e-01 0.0000e+00 1.0000e+00
      994 -1    0    0    0    0 -0.0000000000e+00 -0.0000000000e+00 +0.0000000000e+00 1.3100000000e+02 1.3100000000e+02 0.0000e+00 0.0000e+00
       13  1    1    2    0    0 -1.4770141133e+01 +8.8709241081e+00 +6.9391733684e+01 7.1498770838e+01 1.0566000000e-01 0.0000e+00 -1.0000e+00
      994  1    1    2    0    0 +6.7155152804e-01 +8.4791127705e+00 +1.5798908886e+01 1.3222311393e+02 1.3100000000e+02 0.0000e+00 0.0000e+00
      997  1    1    2    0    0 +1.4098589605e+01 -1.7350036879e+01 +4.1480934627e+02 4.2727811523e+02 1.0000000000e+02 0.0000e+00 0.0000e+00
</event>
<event>
 5      1 +8.5651000e-08 1.93609100e+02 7.95774700e-02 5.16377000e-01
       13 -1    0    0    0    0 +0.0000000000e+00 +0.0000000000e+00 +4.9999998884e+02 5.0000000000e+02 1.0566000000e-01 0.0000e+00 1.0000e+00
      994 -1    0    0    0    0 -0.0000000000e+00 -0.0000000000e+00 +0.0000000000e+00 1.3100000000e+02 1.3100000000e+02 0.0000e+00 0.0000e+00
       13  1    1    2    0    0 -3.3543570393e+00 -1.1524289521e+01 +4.5859526804e+00 1.2849244575e+01 1.0566000000e-01 0.0000e+00 -1.0000e+00
      994  1    1    2    0    0 -9.3276623222e+00 +1.7258719619e+01 +2.2227571374e+01 1.3431282000e+02 1.3100000000e+02 0.0000e+00 0.0000e+00
      997  1    1    2    0    0 +1.2682019362e+01 -5.7344300973e+00 +4.7318646478e+02 4.8383793542e+02 1.0000000000e+02 0.0000e+00 0.0000e+00
</event>
<event>
 5      1 +8.5651000e-08 1.94166100e+02 7.95774700e-02 5.15251200e-01
       13 -1    0    0    0    0 +0.0000000000e+00 +0.0000000000e+00 +4.9999998884e+02 5.0000000000e+02 1.0566000000e-01 0.0000e+00 -1.0000e+00
      994 -1    0    0    0    0 -0.0000000000e+00 -0.0000000000e+00 +0.0000000000e+00 1.3100000000e+02 1.3100000000e+02 0.0000e+00 0.0000e+00
       13  1    1    2    0    0 +1.6189426944e+01 +8.9881434616e+00 +1.8470268350e+01 2.6154277750e+01 1.0566000000e-01 0.0000e+00 1.0000e+00
      994  1    1    2    0    0 +9.1927047869e+00 -9.7169689087e+00 +2.1544840804e+01 1.3343202566e+02 1.3100000000e+02 0.0000e+00 0.0000e+00
      997  1    1    2    0    0 -2.5382131731e+01 +7.2882544704e-01 +4.5998487968e+02 4.7141369659e+02 1.0000000000e+02 0.0000e+00 0.0000e+00
</event>
<event>
 5      1 +8.5651000e-08 1.92674800e+02 7.95774700e-02 5.18284700e-01
       13 -1    0    0    0    0 +0.0000000000e+00 +0.0000000000e+00 +4.9999998884e+02 5.0000000000e+02 1.0566000000e-01 0.0000e+00 1.0000e+00
      994 -1    0    0    0    0 -0.0000000000e+00 -0.0000000000e+00 +0.0000000000e+00 1.3100000000e+02 1.3100000000e+02 0.0000e+00 0.0000e+00
       13  1    1    2    0    0 +2.0167005233e+01 +6.0821710712e+00 +3.0258283289e+01 3.6868357390e+01 1.0566000000e-01 0.0000e+00 -1.0000e+00
      994  1    1    2    0    0 -4.6756890430e+00 -1.2187697565e+01 +2.0064897444e+01 1.3316907355e+02 1.3100000000e+02 0.0000e+00 0.0000e+00
      997  1    1    2    0    0 -1.5491316190e+01 +6.1055264938e+00 +4.4967680810e+02 4.6096256906e+02 1.0000000000e+02 0.0000e+00 0.0000e+00
</event>
<event>
 5      1 +8.5651000e-08 2.11475100e+02 7.95774700e-02 4.84056000e-01
       13 -1    0    0    0    0 +0.0000000000e+00 +0.0000000000e+00 +4.9999998884e+02 5.0000000000e+02 1.0566000000e-01 0.0000e+00 1.0000e+00
      994 -1    0    0    0    0 -0.0000000000e+00 -0.0000000000e+00 +0.0000000000e+00 1.3100000000e+02 1.3100000000e+02 0.0000e+00 0.0000e+00
       13  1    1    2    0    0 +1.1946897973e+01 +1.1531167624e+01 -5.5877863148e+00 1.7519438287e+01 1.0566000000e-01 0.0000e+00 -1.0000e+00
      994  1    1    2    0    0 -1.1478808249e+01 -1.3442210790e+01 +4.1222287622e+01 1.3846563858e+02 1.3100000000e+02 0.0000e+00 0.0000e+00
      997  1    1    2    0    0 -4.6808972361e-01 +1.9110431663e+00 +4.6436548753e+02 4.7501492314e+02 1.0000000000e+02 0.0000e+00 0.0000e+00
</event>
<event>
 5      1 +8.5651000e-08 1.94184100e+02 7.95774700e-02 5.15215100e-01
       13 -1    0    0    0    0 +0.0000000000e+00 +0.0000000000e+00 +4.9999998884e+02 5.0000000000e+02 1.0566000000e-01 0.0000e+00 -1.0000e+00
      994 -1    0    0    0    0 -0.0000000000e+00 -0.0000000000e+00 +0.0000000000e+00 1.3100000000e+02 1.3100000000e+02 0.0000e+00 0.0000e+00
       13  1    1    2    0    0 +5.3068871343e+00 +2.4376623742e+01 +1.1903312026e+02 1.2161939697e+02 1.0566000000e-01 0.0000e+00 1.0000e+00
      994  1    1    2    0    0 +2.9014129652e+01 -2.6839520966e+01 +2.6371134891e+01 1.3935069559e+02 1.3100000000e+02 0.0000e+00 0.0000e+00
      997  1    1    2    0    0 -3.4321016786e+01 +2.4628972247e+00 +3.5459573368e+02 3.7002990744e+02 1.0000000000e+02 0.0000e+00 0.0000e+00
</event>
<event>
 5      1 +8.5651000e-08 2.14334300e+02 7.95774700e-02 4.79516900e-01
       13 -1    0    0    0    0 +0.0000000000e+00 +0.0000000000e+00 +4.9999998884e+02 5.0000000000e+02 1.0566000000e-01 0.0000e+00 -1.0000e+00
      994 -1    0    0    0    0 -0.0000000000e+00 -0.0000000000e+00 +0.0000000000e+00 1.3100000000e+02 1.3100000000e+02 0.0000e+00 0.0000e+00
       13  1    1    2    0    0 +1.0905516103e+01 +5.5467350006e+00 -9.9003663837e+00 1.5739281089e+01 1.0566000000e-01 0.0000e+00 1.0000e+00
      994  1    1    2    0    0 -2.2773659800e+01 +1.3681812824e+01 +4.7850430236e+01 1.4197357239e+02 1.3100000000e+02 0.0000e+00 0.0000e+00
      997  1    1    2    0    0 +1.1868143697e+01 -1.9228547824e+01 +4.6204992498e+02 4.7328714652e+02 1.0000000000e+02 0.0000e+00 0.0000e+00
</event>
<event>
 5      1 +8.5651000e-08 2.14283200e+02 7.95774700e-02 4.79596700e-01
       13 -1    0    0    0    0 +0.0000000000e+00 +0.0000000000e+00 +4.9999998884e+02 5.0000000000e+02 1.0566000000e-01 0.0000e+00 -1.0000e+00
      994 -1    0    0    0    0 -0.0000000000e+00 -0.0000000000e+00 +0.0000000000e+00 1.3100000000e+02 1.3100000000e+02 0.0000e+00 0.0000e+00
       13  1    1    2    0    0 +5.9383069104e+00 +4.3751673467e+01 +2.3694487976e+01 5.0109004626e+01 1.0566000000e-01 0.0000e+00 1.0000e+00
      994  1    1    2    0    0 +1.0294568628e+01 -3.9887416477e+01 +5.5618352903e+01 1.4815999904e+02 1.3100000000e+02 0.0000e+00 0.0000e+00
      997  1    1    2    0    0 -1.6232875538e+01 -3.8642569905e+00 +4.2068714796e+02 4.3273099633e+02 1.0000000000e+02 0.0000e+00 0.0000e+00
</event>
<event>
 5      1 +8.5651000e-08 1.99411000e+02 7.95774700e-02 5.05055100e-01
       13 -1    0    0    0    0 +0.0000000000e+00 +0.0000000000e+00 +4.9999998884e+02 5.0000000000e+02 1.0566000000e-01 0.0000e+00 1.0000e+00
      994 -1    0    0    0    0 -0.0000000000e+00 -0.0000000000e+00 +0.0000000000e+00 1.3100000000e+02 1.3100000000e+02 0.0000e+00 0.0000e+00
       13  1    1    2    0    0 -3.4173312462e+01 -1.6374176601e+01 +5.5738265522e+01 6.7399512991e+01 1.0566000000e-01 0.0000e+00 -1.0000e+00
      994  1    1    2    0    0 +2.6450758353e+01 -3.4992933259e+00 +3.0142706523e+01 1.3704550495e+02 1.3100000000e+02 0.0000e+00 0.0000e+00
      997  1    1    2    0    0 +7.7225541090e+00 +1.9873469927e+01 +4.1411901679e+02 4.2655498206e+02 1.0000000000e+02 0.0000e+00 0.0000e+00
</event>
<event>
 5      1 +8.5651000e-08 2.12592500e+02 7.95774700e-02 4.82263800e-01
       13 -1    0    0    0    0 +0.0000000000e+00 +0.0000000000e+00 +4.9999998884e+02 5.0000000000e+02 1.0566000000e-01 0.0000e+00 -1.0000e+00
      994 -1    0    0    0    0 -0.0000000000e+00 -0.0000000000e+00 +0.0000000000e+00 1.3100000000e+02 1.3100000000e+02 0.0000e+00 0.0000e+00
       13  1    1    2    0    0 +3.4524805700e+01 -1.7142917015e+01 +2.2686185808e+01 4.4727128266e+01 1.0566000000e-01 0.0000e+00 1.0000e+00
      994  1    1    2    0    0 -5.6325759287e+00 +7.6149823334e+00 +4.0969041600e+01 1.3758334288e+02 1.3100000000e+02 0.0000e+00 0.0000e+00
      997  1    1    2    0    0 -2.8892229771e+01 +9.5279346816e+00 +4.3634476143e+02 4.4868952886e+02 1.0000000000e+02 0.0000e+00 0.0000e+00
</event>
<event>
 5      1 +8.5651000e-08 1.98308800e+02 7.95774700e-02 5.07139100e-01
       13 -1    0    0    0    0 +0.0000000000e+00 +0.0000000000e+00 +4.9999998884e+02 5.0000000000e+02 1.0566000000e-01 0.0000e+00 -1.0000e+00
      994 -1    0    0    0    0 -0.0000000000e+00 -0.0000000000e+00 +0.0000000000e+00 1.3100000000e+02 1.3100000000e+02 0.0000e+00 0.0000e+00
       13  1    1    2    0    0 -3.0940797481e+01 -1.4754273361e+01 +4.9282104342e+01 6.0031312693e+01 1.0566000000e-01 0.0000e+00 1.0000e+00
      994  1    1    2    0    0 +3.7385844755e+01 -3.4788943480e+01 +4.1267850021e+01 1.4653329800e+02 1.3100000000e+02 0.0000e+00 0.0000e+00
      997  1    1    2    0    0 -6.4450472733e+00 +4.9543216841e+01 +4.0945003447e+02 4.2443538931e+02 1.0000000000e+02 0.0000e+00 0.0000e+00
</event>
<event>
 5      1 +8.5651000e-08 2.23033200e+02 7.95774700e-02 4.66594000e-01
       13 -1    0    0    0    0 +0.0000000000e+00 +0.0000000000e+00 +4.9999998884e+02 5.0000000000e+02 1.0566000000e-01 0.0000e+00 1.0000e+00
      994 -1    0    0    0    0 -0.0000000000e+00 -0.0000000000e+00 +0.0000000000e+00 1.3100000000e+02 1.3100000000e+02 0.0000e+00 0.0000e+00
       13  1    1    2    0    0 -8.3040193638e+00 +1.6957783347e+01 -1.0926534427e+01 2.1815670338e+01 1.0566000000e-01 0.0000e+00 -1.0000e+00
      994  1    1    2    0    0 +2.2124553925e+00 -8.9725979630e+00 +5.5111497881e+01 1.4242078385e+02 1.3100000000e+02 0.0000e+00 0.0000e+00
      997  1    1    2    0    0 +6.0915639713e+00 -7.9851853844e+00 +4.5581502538e+02 4.6676354581e+02 1.0000000000e+02 0.0000e+00 0.0000e+00
</event>
<event>
 5      1 +8.5651000e-08 2.12964600e+02 7.95774700e-02 4.81672200e-01
       13 -1    0    0    0    0 +0.0000000000e+00 +0.0000000000e+00 +4.9999998884e+02 5.0000000000e+02 1.0566000000e-01 0.0000e+00 1.0000e+00
      994 -1    0    0    0    0 -0.0000000000e+00 -0.0000000000e+00 +0.0000000000e+00 1.3100000000e+02 1.3100000000e+02 0.0000e+00 0.0000e+00
       13  1    1    2    0    0 +1.9371413536e+01 +3.7845980337e+01 +4.0139571376e+01 5.8470216729e+01 1.0566000000e-01 0.0000e+00 -1.0000e+00
      994  1    1    2    0    0 +3.2139885601e+01 +1.2340868938e+01 +4.9709060585e+01 1.4428187688e+02 1.3100000000e+02 0.0000e+00 0.0000e+00
      997  1    1    2    0    0 -5.1511299138e+01 -5.0186849275e+01 +4.1015135688e+02 4.2824790639e+02 1.0000000000e+02 0.0000e+00 0.0000e+00
</event>
<event>
 5      1 +8.5651000e-08 1.94569900e+02 7.95774700e-02 5.14440400e-01
       13 -1    0    0    0    0 +0.0000000000e+00 +0.0000000000e+00 +4.9999998884e+02 5.0000000000e+02 1.0566000000e-01 0.0000e+00 1.0000e+00
      994 -1    0    0    0    0 -0.0000000000e+00 -0.0000000000e+00 +0.0000000000e+00 1.3100000000e+02 1.3100000000e+02 0.0000e+00 0.0000e+00
       13  1    1    2    0    0 -2.3243406619e+01 +1.7659627114e+00 +5.6841509384e+01 6.1435681234e+01 1.0566000000e-01 0.0000e+00 -1.0000e+00
      994  1    1    2    0    0 +2.1130810652e+01 +1.7890217505e+01 +2.1315346480e+01 1.3557992122e+02 1.3100000000e+02 0.0000e+00 0.0000e+00
      997  1    1    2    0    0 +2.1125959662e+00 -1.9656180216e+01 +4.2184313297e+02 4.3398439755e+02 1.0000000000e+02 0.0000e+00 0.0000e+00
</event>
<event>
 5      1 +8.5651000e-08 1.93939900e+02 7.95774700e-02 5.15707400e-01
       13 -1    0    0    0    0 +0.0000000000e+00 +0.0000000000e+00 +4.9999998884e+02 5.0000000000e+02 1.0566000000e-01 0.0000e+00 1.0000e+00
      994 -1    0    0    0    0 -0.0000000000e+00 -0.0000000000e+00 +0.0000000000e+00 1.3100000000e+02 1.3100000000e+02 0.0000e+00 0.0000e+00
       13  1    1    2    0    0 -2.1003579614e+01 -3.0990955439e+00 +3.1646055558e+01 3.8108250369e+01 1.0566000000e-01 0.0000e+00 -1.0000e+00
      994  1    1    2    0    0 +3.3191175636e+01 +1.4129142808e+01 +2.5067863054e+01 1.3816904347e+02 1.3100000000e+02 0.0000e+00 0.0000e+00
      997  1    1    2    0    0 -1.2187596022e+01 -1.1030047264e+01 +4.4328607022e+02 4.5472270616e+02 1.0000000000e+02 0.0000e+00 0.0000e+00
</event>
<event>
 5      1 +8.5651000e-08 1.96462300e+02 7.95774700e-02 5.10699400e-01
       13 -1    0    0    0    0 +0.0000000000e+00 +0.0000000000e+00 +4.9999998884e+02 5.0000000000e+02 1.0566000000e-01 0.0000e+00 1.0000e+00
      994 -1    0    0    0    0 -0.0000000000e+00 -0.0000000000e+00 +0.0000000000e+00 1.3100000000e+02 1.3100000000e+02 0.0000e+00 0.0000e+00
       13  1    1    2    0    0 -7.2674367042e+00 -1.1324443730e+01 +3.7374470177e+00 1.3965612636e+01 1.0566000000e-01 0.0000e+00 -1.0000e+00
      994  1    1    2    0    0 -3.7384628696e+01 +2.1017263677e+01 +3.4130811483e+01 1.4200439475e+02 1.3100000000e+02 0.0000e+00 0.0000e+00
      997  1    1    2    0    0 +4.4652065400e+01 -9.6928199468e+00 +4.6213173034e+02 4.7502999262e+02 1.0000000000e+02 0.0000e+00 0.0000e+00
</event>
<event>
 5      1 +8.5651000e-08 1.94292400e+02 7.95774700e-02 5.14997100e-01
       13 -1    0    0    0    0 +0.0000000000e+00 +0.0000000000e+00 +4.9999998884e+02 5.0000000000e+02 1.0566000000e-01 0.0000e+00 -1.0000e+00
      994 -1    0    0    0    0 -0.0000000000e+00 -0.0000000000e+00 +0.0000000000e+00 1.3100000000e+02 1.3100000000e+02 0.0000e+00 0.0000e+00
       13  1    1    2    0    0 -1.7549040162e+01 -2.2887022995e+01 +8.7362839564e+01 9.2000334418e+01 1.0566000000e-01 0.0000e+00 1.0000e+00
      994  1    1    2    0    0 +1.1426419957e+01 +3.2249564964e+01 +2.3946543138e+01 1.3749557972e+02 1.3100000000e+02 0.0000e+00 0.0000e+00
      997  1    1    2    0    0 +6.1226202058e+00 -9.3625419696e+00 +3.8869060613e+02 4.0150408587e+02 1.0000000000e+02 0.0000e+00 0.0000e+00
</event>
<event>
 5      1 +8.5651000e-08 2.10432800e+02 7.95774700e-02 4.85749400e-01
       13 -1    0    0    0    0 +0.0000000000e+00 +0.0000000000e+00 +4.9999998884e+02 5.0000000000e+02 1.0566000000e-01 0.0000e+00 1.0000e+00
      994 -1    0    0    0    0 -0.0000000000e+00 -0.0000000000e+00 +0.0000000000e+00 1.3100000000e+02 1.3100000000e+02 0.0000e+00 0.0000e+00
       13  1    1    2    0    0 -2.2783683900e+01 +3.1139745951e+01 +2.4590756882e+01 4.5754743121e+01 1.0566000000e-01 0.0000e+00 -1.0000e+00
      994  1    1    2    0    0 +1.2038679596e+01 -1.4837170634e+01 +4.0326870271e+01 1.3839193584e+02 1.3100000000e+02 0.0000e+00 0.0000e+00
      997  1    1    2    0    0 +1.0745004304e+01 -1.6302575318e+01 +4.3508236168e+02 4.4685332104e+02 1.0000000000e+02 0.0000e+00 0.0000e+00
</event>
<event>
 5      1 +8.5651000e-08 2.07087300e+02 7.95774700e-02 4.91331500e-01
       13 -1    0    0    0    0 +0.0000000000e+00 +0.0000000000e+00 +4.9999998884e+02 5.0000000000e+02 1.0566000000e-01 0.0000e+00 1.0000e+00
      994 -1    0    0    0    0 -0.0000000000e+00 -0.0000000000e+00 +0.0000000000e+00 1.3100000000e+02 1.3100000000e+02 0.0000e+00 0.0000e+00
       13  1    1    2    0    0 +1.0766758596e+01 +1.8664582656e+01 +3.3122567400e+00 2.1800732675e+01 1.0566000000e-01 0.0000e+00 -1.0000e+00
      994  1    1    2    0    0 -4.4579274251e+01 +4.5197513362e+01 +6.3560474575e+01 1.5884288097e+02 1.3100000000e+02 0.0000e+00 0.0000e+00
      997  1    1    2    0    0 +3.3812515655e+01 -6.3862096018e+01 +4.3312725752e+02 4.5035638635e+02 1.0000000000e+02 0.0000e+00 0.0000e+00
</event>
<event>
 5      1 +8.5651000e-08 1.94799400e+02 7.95774700e-02 5.13981700e-01
       13 -1    0    0    0    0 +0.0000000000e+00 +0.0000000000e+00 +4.9999998884e+02 5.0000000000e+02 1.0566000000e-01 0.0000e+00 1.0000e+00
      994 -1    0    0    0    0 -0.0000000000e+00 -0.0000000000e+00 +0.0000000000e+00 1.3100000000e+02 1.3100000000e+02 0.0000e+00 0.0000e+00
       13  1    1    2    0    0 +2.4243570841e+01 -2.6014090324e+01 +1.0969221743e+02 1.1531208675e+02 1.0566000000e-01 0.0000e+00 -1.0000e+00
      994  1    1    2    0    0 +2.9591537556e-01 +1.8996737927e+01 +2.3249997756e+01 1.3439689734e+02 1.3100000000e+02 0.0000e+00 0.0000e+00
      997  1    1    2    0    0 -2.4539486216e+01 +7.0173523967e+00 +3.6705777365e+02 3.8129101591e+02 1.0000000000e+02 0.0000e+00 0.0000e+00
</event>
<event>
 5      1 +8.5651000e-08 1.96872100e+02 7.95774700e-02 5.09901700e-01
       13 -1    0    0    0    0 +0.0000000000e+00 +0.0000000000e+00 +4.9999998884e+02 5.0000000000e+02 1.0566000000e-01 0.0000e+00 -1.0000e+00
      994 -1    0    0    0    0 -0.0000000000e+00 -0.0000000000e+00 +0.0000000000e+00 1.3100000000e+02 1.3100000000e+02 0.0000e+00 0.0000e+00
       13  1    1    2    0    0 +7.8891383052e+00 +2.4386660746e+01 +5.6162600531e+01 6.1734889552e+01 1.0566000000e-01 0.0000e+00 1.0000e+00
      994  1    1    2    0    0 -5.3121624916e+01 -6.4647801723e+01 +5.7678712758e+01 1.6579830882e+02 1.3100000000e+02 0.0000e+00 0.0000e+00
      997  1    1    2    0    0 +4.5232486611e+01 +4.0261140977e+01 +3.8615867555e+02 4.0346680163e+02 1.0000000000e+02 0.0000e+00 0.0000e+00
</event>
<event>
 5      1 +8.5651000e-08 2.04180900e+02 7.95774700e-02 4.96371100e-01
       13 -1    0    0    0    0 +0.0000000000e+00 +0.0000000000e+00 +4.9999998884e+02 5.0000000000e+02 1.0566000000e-01 0.0000e+00 1.0000e+00
      994 -1    0    0    0    0 -0.0000000000e+00 -0.0000000000e+00 +0.0000000000e+00 1.3100000000e+02 1.3100000000e+02 0.0000e+00 0.0000e+00
       13  1    1    2    0    0 -4.7752281841e+01 -2.5698665117e+01 +8.2141004180e+01 9.8426914721e+01 1.0566000000e-01 0.0000e+00 -1.0000e+00
      994  1    1    2    0    0 +2.5752858738e+01 +4.1125083082e+01 +4.6786773168e+01 1.4732441867e+02 1.3100000000e+02 0.0000e+00 0.0000e+00
      997  1    1    2    0    0 +2.1999423103e+01 -1.5426417965e+01 +3.7107221149e+02 3.8524866661e+02 1.0000000000e+02 0.0000e+00 0.0000e+00
</event>
<event>
 5      1 +8.5651000e-08 1.92758200e+02 7.95774700e-02 5.18113300e-01
       13 -1    0    0    0    0 +0.0000000000e+00 +0.0000000000e+00 +4.9999998884e+02 5.0000000000e+02 1.0566000000e-01 0.0000e+00 1.0000e+00
      994 -1    0    0    0    0 -0.0000000000e+00 -0.0000000000e+00 +0.0000000000e+00 1.3100000000e+02 1.3100000000e+02 0.0000e+00 0.0000e+00
       13  1    1    2    0    0 +1.4094839269e+01 +1.3801657763e+01 +2.5856363151e+01 3.2522498835e+01 1.0566000000e-01 0.0000e+00 -1.0000e+00
      994  1    1    2    0    0 -1.6938912097e+01 +1.0979539052e+01 +2.1536716586e+01 1.3428442643e+02 1.3100000000e+02 0.0000e+00 0.0000e+00
      997  1    1    2    0    0 +2.8440728275e+00 -2.4781196816e+01 +4.5260690910e+02 4.6419307473e+02 1.0000000000e+02 0.0000e+00 0.0000e+00
</event>
<event>
 5      1 +8.5651000e-08 1.95556400e+02 7.95774700e-02 5.12478300e-01
       13 -1    0    0    0    0 +0.0000000000e+00 +0.0000000000e+00 +4.9999998884e+02 5.0000000000e+02 1.0566000000e-01 0.0000e+00 -1.0000e+00
      994 -1    0    0    0    0 -0.0000000000e+00 -0.0000000000e+00 +0.0000000000e+00 1.3100000000e+02 1.3100000000e+02 0.0000e+00 0.0000e+00
       13  1    1    2    0    0 -1.1769613619e+01 +8.9143774000e+00 +2.3569528918e+01 2.7812295602e+01 1.0566000000e-01 0.0000e+00 1.0000e+00
      994  1    1    2    0    0 +8.8018037343e+00 +2.1749463512e+00 +1.6469918975e+01 1.3234220933e+02 1.3100000000e+02 0.0000e+00 0.0000e+00
      997  1    1    2    0    0 +2.9678098851e+00 -1.1089323751e+01 +4.5996054094e+02 4.7084549506e+02 1.0000000000e+02 0.0000e+00 0.0000e+00
</event>
<event>
 5      1 +8.5651000e-08 1.96115100e+02 7.95774700e-02 5.11378600e-01
       13 -1    0    0    0    0 +0.0000000000e+00 +0.0000000000e+00 +4.9999998884e+02 5.0000000000e+02 1.0566000000e-01 0.0000e+00 1.0000e+00
      994 -1    0    0    0    0 -0.0000000000e+00 -0.0000000000e+00 +0.0000000000e+00 1.3100000000e+02 1.3100000000e+02 0.0000e+00 0.0000e+00
       13  1    1    2    0    0 -1.4943308368e+01 -7.1946755123e+00 +3.1698785935e+01 3.5775550513e+01 1.0566000000e-01 0.0000e+00 -1.0000e+00
      994  1    1    2    0    0 +1.4291672638e+01 +1.6613175504e+01 +1.8211578286e+01 1.3406308623e+02 1.3100000000e+02 0.0000e+00 0.0000e+00
      997  1    1    2    0    0 +6.5163572987e-01 -9.4184999920e+00 +4.5008962461e+02 4.6116136325e+02 1.0000000000e+02 0.0000e+00 0.0000e+00
</event>
<event>
 5      1 +8.5651000e-08 1.92705400e+02 7.95774700e-02 5.18221900e-01
       13 -1    0    0    0    0 +0.0000000000e+00 +0.0000000000e+00 +4.9999998884e+02 5.0000000000e+02 1.0566000000e-01 0.0000e+00 -1.0000e+00
      994 -1    0    0    0    0 -0.0000000000e+00 -0.0000000000e+00 +0.0000000000e+00 1.3100000000e+02 1.3100000000e+02 0.0000e+00 0.0000e+00
       13  1    1    2    0    0 -1.2860375463e+01 -2.3976348925e+01 +4.3746025712e+01 5.1516798177e+01 1.0566000000e-01 0.0000e+00 1.0000e+00
      994  1    1    2    0    0 -6.3429165458e-01 +4.2263019064e+01 +2.9756096889e+01 1.4082965032e+02 1.3100000000e+02 0.0000e+00 0.0000e+00
      997  1    1    2    0    0 +1.3494667118e+01 -1.8286670139e+01 +4.2649786624e+02 4.3865355151e+02 1.0000000000e+02 0.0000e+00 0.0000e+00
</event>
<event>
 5      1 +8.5651000e-08 1.97379600e+02 7.95774700e-02 5.08919800e-01
       13 -1    0    0    0    0 +0.0000000000e+00 +0.0000000000e+00 +4.9999998884e+02 5.0000000000e+02 1.0566000000e-01 0.0000e+00 -1.0000e+00
      994 -1    0    0    0    0 -0.0000000000e+00 -0.0000000000e+00 +0.0000000000e+00 1.3100000000e+02 1.3100000000e+02 0.0000e+00 0.0000e+00
       13  1    1    2    0    0 -1.8752701592e+01 -1.6024866529e+01 +2.5895674525e+01 3.5763910404e+01 1.0566000000e-01 0.0000e+00 1.0000e+00
      994  1    1    2    0    0 +1.3861997544e+01 -1.6960712381e+01 +2.6564352837e+01 1.3544919927e+02 1.3100000000e+02 0.0000e+00 0.0000e+00
      997  1    1    2    0    0 +4.8907040485e+00 +3.2985578910e+01 +4.4753996147e+02 4.5978689033e+02 1.0000000000e+02 0.0000e+00 0.0000e+00
</event>
<event>
 5      1 +8.5651000e-08 1.97514700e+02 7.95774700e-02 5.08659600e-01
       13 -1    0    0    0    0 +0.0000000000e+00 +0.0000000000e+00 +4.9999998884e+02 5.0000000000e+02 1.0566000000e-01 0.0000e+00 1.0000e+00
      994 -1    0    0    0    0 -0.0000000000e+00 -0.0000000000e+00 +0.0000000000e+00 1.3100000000e+02 1.3100000000e+02 0.0000e+00 0.0000e+00
       13  1    1    2    0    0 +7.9760256600e+00 -1.0132427537e+01 +1.7795371045e+00 1.3017718289e+01 1.0566000000e-01 0.0000e+00 -1.0000e+00
      994  1    1    2    0    0 -1.5815436380e+01 -3.2555005232e+00 +2.5348548045e+01 1.3440340472e+02 1.3100000000e+02 0.0000e+00 0.0000e+00
      997  1    1    2    0    0 +7.8394107204e+00 +1.3387928060e+01 +4.7287190369e+02 4.8357887699e+02 1.0000000000e+02 0.0000e+00 0.0000e+00
</event>
<event>
 5      1 +8.5651000e-08 1.57724400e+02 7.95774700e-02 6.13484200e-01
       13 -1    0    0    0    0 +0.0000000000e+00 +0.0000000000e+00 +4.9999998884e+02 5.0000000000e+02 1.0566000000e-01 0.0000e+00 -1.0000e+00
      994 -1    0    0    0    0 -0.0000000000e+00 -0.0000000000e+00 +0.0000000000e+00 1.3100000000e+02 1.3100000000e+02 0.0000e+00 0.0000e+00
       13  1    1    2    0    0 +5.3136630151e+01 -5.2988769772e+01 +1.9674144342e+02 2.1056713397e+02 1.0566000000e-01 0.0000e+00 1.0000e+00
      994  1    1    2    0    0 +5.6043352080e+00 +3.7116105037e+01 +5.6891510838e+01 1.4767077514e+02 1.3100000000e+02 0.0000e+00 0.0000e+00
      997  1    1    2    0    0 -5.8740965359e+01 +1.5872664735e+01 +2.4636703458e+02 2.7276209088e+02 1.0000000000e+02 0.0000e+00 0.0000e+00
</event>
<event>
 5      1 +8.5651000e-08 1.98067600e+02 7.95774700e-02 5.07599200e-01
       13 -1    0    0    0    0 +0.0000000000e+00 +0.0000000000e+00 +4.9999998884e+02 5.0000000000e+02 1.0566000000e-01 0.0000e+00 -1.0000e+00
      994 -1    0    0    0    0 -0.0000000000e+00 -0.0000000000e+00 +0.0000000000e+00 1.3100000000e+02 1.3100000000e+02 0.0000e+00 0.0000e+00
       13  1    1    2    0    0 -2.7550930873e+01 +1.0427756760e+01 +3.3821549257e+01 4.4851981686e+01 1.0566000000e-01 0.0000e+00 1.0000e+00
      994  1    1    2    0    0 +2.0021262751e+01 +5.6534410780e+00 +2.6978203834e+01 1.3535743733e+02 1.3100000000e+02 0.0000e+00 0.0000e+00
      997  1    1    2    0    0 +7.5296681224e+00 -1.6081197838e+01 +4.3920023575e+02 4.5079058098e+02 1.0000000000e+02 0.0000e+00 0.0000e+00
</event>
<event>
 5      1 +8.5651000e-08 1.93524800e+02 7.95774700e-02 5.16548000e-01
       13 -1    0    0    0    0 +0.0000000000e+00 +0.0000000000e+00 +4.9999998884e+02 5.0000000000e+02 1.0566000000e-01 0.0000e+00 1.0000e+00
      994 -1    0    0    0    0 -0.0000000000e+00 -0.0000000000e+00 +0.0000000000e+00 1.3100000000e+02 1.3100000000e+02 0.0000e+00 0.0000e+00
       13  1    1    2    0    0 -5.5049305187e+00 +2.5160207283e+01 +5.2221278407e+01 5.8227256272e+01 1.0566000000e-01 0.0000e+00 -1.0000e+00
      994  1    1    2    0    0 -3.1979103389e+00 -2.9591462764e+01 +2.3025750095e+01 1.3629771262e+02 1.3100000000e+02 0.0000e+00 0.0000e+00
      997  1    1    2    0    0 +8.7028408576e+00 +4.4312554803e+00 +4.2475296033e+02 4.3647503110e+02 1.0000000000e+02 0.0000e+00 0.0000e+00
</event>
<event>
 5      1 +8.5651000e-08 1.94145200e+02 7.95774700e-02 5.15293300e-01
       13 -1    0    0    0    0 +0.0000000000e+00 +0.0000000000e+00 +4.9999998884e+02 5.0000000000e+02 1.0566000000e-01 0.0000e+00 -1.0000e+00
      994 -1    0    0    0    0 -0.0000000000e+00 -0.0000000000e+00 +0.0000000000e+00 1.3100000000e+02 1.3100000000e+02 0.0000e+00 0.0000e+00
       13  1    1    2    0    0 -1.4769219035e+01 -2.2548754049e+00 +1.4144693797e+01 2.0574202794e+01 1.0566000000e-01 0.0000e+00 1.0000e+00
      994  1    1    2    0    0 +3.3350225630e+01 -7.4808133818e-01 +2.3751663125e+01 1.3725137040e+02 1.3100000000e+02 0.0000e+00 0.0000e+00
      997  1    1    2    0    0 -1.8581006595e+01 +3.0029567430e+00 +4.6210363191e+02 4.7317442681e+02 1.0000000000e+02 0.0000e+00 0.0000e+00
</event>
<event>
 5      1 +8.5651000e-08 1.97152500e+02 7.95774700e-02 5.09358400e-01
       13 -1    0    0    0    0 +0.0000000000e+00 +0.0000000000e+00 +4.9999998884e+02 5.0000000000e+02 1.0566000000e-01 0.0000e+00 1.0000e+00
      994 -1    0    0    0    0 -0.0000000000e+00 -0.0000000000e+00 +0.0000000000e+00 1.3100000000e+02 1.3100000000e+02 0.0000e+00 0.0000e+00
       13  1    1    2    0    0 -1.0645057145e+01 +4.0708061790e+00 +1.7565893529e+01 2.0939448037e+01 1.0566000000e-01 0.0000e+00 -1.0000e+00
      994  1    1    2    0    0 +1.1323171670e+01 -7.9989677888e+00 +1.5637814836e+01 1.3265646971e+02 1.3100000000e+02 0.0000e+00 0.0000e+00
      997  1    1    2    0    0 -6.7811452419e-01 +3.9281616098e+00 +4.6679628047e+02 4.7740408226e+02 1.0000000000e+02 0.0000e+00 0.0000e+00
</event>
<event>
 5      1 +8.5651000e-08 2.10047800e+02 7.95774700e-02 4.86380300e-01
       13 -1    0    0    0    0 +0.0000000000e+00 +0.0000000000e+00 +4.9999998884e+02 5.0000000000e+02 1.0566000000e-01 0.0000e+00 1.0000e+00
      994 -1    0    0    0    0 -0.0000000000e+00 -0.0000000000e+00 +0.0000000000e+00 1.3100000000e+02 1.3100000000e+02 0.0000e+00 0.0000e+00
       13  1    1    2    0    0 +2.8337372189e+01 +2.3835431353e+01 +2.3500830199e+01 4.3856979313e+01 1.0566000000e-01 0.0000e+00 -1.0000e+00
      994  1    1    2    0    0 -2.8558318562e+01 +1.7908920287e+01 +4.5476852543e+01 1.4270757199e+02 1.3100000000e+02 0.0000e+00 0.0000e+00
      997  1    1    2    0    0 +2.2094637286e-01 -4.1744351641e+01 +4.3102230609e+02 4.4443544870e+02 1.0000000000e+02 0.0000e+00 0.0000e+00
</event>
<event>
 5      1 +8.5651000e-08 1.92945800e+02 7.95774700e-02 5.17728800e-01
       13 -1    0    0    0    0 +0.0000000000e+00 +0.0000000000e+00 +4.9999998884e+02 5.0000000000e+02 1.0566000000e-01 0.0000e+00 1.0000e+00
      994 -1    0    0    0    0 -0.0000000000e+00 -0.0000000000e+00 +0.0000000000e+00 1.3100000000e+02 1.3100000000e+02 0.0000e+00 0.0000e+00
       13  1    1    2    0    0 +2.3997117695e+01 -8.1691324042e+00 +4.4708373751e+01 5.1395001988e+01 1.0566000000e-01 0.0000e+00 -1.0000e+00
      994  1    1    2    0    0 -1.5456806871e+01 +1.2402675752e-01 +2.0725278860e+01 1.3352702140e+02 1.3100000000e+02 0.0000e+00 0.0000e+00
      997  1    1    2    0    0 -8.5403108237e+00 +8.0451056467e+00 +4.3456633623e+02 4.4607797661e+02 1.0000000000e+02 0.0000e+00 0.0000e+00
</event>
<event>
 5      1 +8.5651000e-08 1.95165500e+02 7.95774700e-02 5.13252600e-01
       13 -1    0    0    0    0 +0.0000000000e+00 +0.0000000000e+00 +4.9999998884e+02 5.0000000000e+02 1.0566000000e-01 0.0000e+00 1.0000e+00
      994 -1    0    0    0    0 -0.0000000000e+00 -0.0000000000e+00 +0.0000000000e+00 1.3100000000e+02 1.3100000000e+02 0.0000e+00 0.0000e+00
       13  1    1    2    0    0 +1.1367908619e+01 -1.2755920281e+01 +3.1657558806e+01 3.5974366459e+01 1.0566000000e-01 0.0000e+00 -1.0000e+00
      994  1    1    2    0    0 -1.5102523794e+01 -5.1634412681e+00 +1.7809186552e+01 1.3316498968e+02 1.3100000000e+02 0.0000e+00 0.0000e+00
      997  1    1    2    0    0 +3.7346151751e+00 +1.7919361549e+01 +4.5053324348e+02 4.6186064386e+02 1.0000000000e+02 0.0000e+00 0.0000e+00
</event>
<event>
 5      1 +8.5651000e-08 2.02306700e+02 7.95774700e-02 4.99720100e-01
       13 -1    0    0    0    0 +0.0000000000e+00 +0.0000000000e+00 +4.9999998884e+02 5.0000000000e+02 1.0566000000e-01 0.0000e+00 -1.0000e+00
      994 -1    0    0    0    0 -0.0000000000e+00 -0.0000000000e+00 +0.0000000000e+00 1.3100000000e+02 1.3100000000e+02 0.0000e+00 0.0000e+00
       13  1    1    2    0    0 +2.4467211398e+01 +1.6737787822e+01 +2.7650137858e+01 4.0538121100e+01 1.0566000000e-01 0.0000e+00 1.0000e+00
      994  1    1    2    0    0 +2.4494766459e+00 +1.2259517172e+01 +2.9659500374e+01 1.3489618845e+02 1.3100000000e+02 0.0000e+00 0.0000e+00
      997  1    1    2    0    0 -2.6916688044e+01 -2.8997304995e+01 +4.4269035060e+02 4.5556569045e+02 1.0000000000e+02 0.0000e+00 0.0000e+00
</event>
<event>
 5      1 +8.5651000e-08 2.02575200e+02 7.95774700e-02 4.99235500e-01
       13 -1    0    0    0    0 +0.0000000000e+00 +0.0000000000e+00 +4.9999998884e+02 5.0000000000e+02 1.0566000000e-01 0.0000e+00 -1.0000e+00
      994 -1    0    0    0    0 -0.0000000000e+00 -0.0000000000e+00 +0.0000000000e+00 1.3100000000e+02 1.3100000000e+02 0.0000e+00 0.0000e+00
       13  1    1    2    0    0 -3.0652614122e+01 -3.5508130440e+01 +2.4517722206e+02 2.4962430062e+02 1.0566000000e-01 0.0000e+00 1.0000e+00
      994  1    1    2    0    0 +3.8910486808e+01 +1.0488095235e+01 +3.9707645328e+01 1.4269451014e+02 1.3100000000e+02 0.0000e+00 0.0000e+00
      997  1    1    2    0    0 -8.2578726858e+00 +2.5020035205e+01 +2.1511512145e+02 2.3868118924e+02 1.0000000000e+02 0.0000e+00 0.0000e+00
</event>
<event>
 5      1 +8.5651000e-08 1.98819300e+02 7.95774700e-02 5.06170200e-01
       13 -1    0    0    0    0 +0.0000000000e+00 +0.0000000000e+00 +4.9999998884e+02 5.0000000000e+02 1.0566000000e-01 0.0000e+00 -1.0000e+00
      994 -1    0    0    0    0 -0.0000000000e+00 -0.0000000000e+00 +0.0000000000e+00 1.3100000000e+02 1.3100000000e+02 0.0000e+00 0.0000e+00
       13  1    1    2    0    0 +6.6385471210e-01 +1.2724795962e+01 +3.7677089886e+01 3.9773551534e+01 1.0566000000e-01 0.0000e+00 1.0000e+00
      994  1    1    2    0    0 -3.7672293434e+01 -3.5488649839e+01 +2.8235344394e+01 1.4365542326e+02 1.3100000000e+02 0.0000e+00 0.0000e+00
      997  1    1    2    0    0 +3.7008438722e+01 +2.2763853877e+01 +4.3408755456e+02 4.4757102520e+02 1.0000000000e+02 0.0000e+00 0.0000e+00
</event>
<event>
 5      1 +8.5651000e-08 1.94237900e+02 7.95774700e-02 5.15106900e-01
       13 -1    0    0    0    0 +0.0000000000e+00 +0.0000000000e+00 +4.9999998884e+02 5.0000000000e+02 1.0566000000e-01 0.0000e+00 -1.0000e+00
      994 -1    0    0    0    0 -0.0000000000e+00 -0.0000000000e+00 +0.0000000000e+00 1.3100000000e+02 1.3100000000e+02 0.0000e+00 0.0000e+00
       13  1    1    2    0    0 -1.6727438194e+01 -1.3342476752e+01 +2.7510563183e+01 3.4852132289e+01 1.0566000000e-01 0.0000e+00 1.0000e+00
      994  1    1    2    0    0 -2.1569131485e+01 +2.0623062978e+01 +2.5884024033e+01 1.3682660874e+02 1.3100000000e+02 0.0000e+00 0.0000e+00
      997  1    1    2    0    0 +3.8296569679e+01 -7.2805862261e+00 +4.4660540162e+02 4.5932125897e+02 1.0000000000e+02 0.0000e+00 0.0000e+00
</event>
<event>
 5      1 +8.5651000e-08 2.18227900e+02 7.95774700e-02 4.73574400e-01
       13 -1    0    0    0    0 +0.0000000000e+00 +0.0000000000e+00 +4.9999998884e+02 5.0000000000e+02 1.0566000000e-01 0.0000e+00 -1.0000e+00
      994 -1    0    0    0    0 -0.0000000000e+00 -0.0000000000e+00 +0.0000000000e+00 1.3100000000e+02 1.3100000000e+02 0.0000e+00 0.0000e+00
       13  1    1    2    0    0 +2.4659354550e+01 -2.8456161443e+01 +8.9586508762e+00 3.8705367592e+01 1.0566000000e-01 0.0000e+00 1.0000e+00
      994  1    1    2    0    0 -1.6424902871e+01 +3.0239246776e+01 +5.7250479415e+01 1.4704695465e+02 1.3100000000e+02 0.0000e+00 0.0000e+00
      997  1    1    2    0    0 -8.2344516782e+00 -1.7830853327e+00 +4.3379085854e+02 4.4524767775e+02 1.0000000000e+02 0.0000e+00 0.0000e+00
</event>
<event>
 5      1 +8.5651000e-08 1.92482000e+02 7.95774700e-02 5.18681500e-01
       13 -1    0    0    0    0 +0.0000000000e+00 +0.0000000000e+00 +4.9999998884e+02 5.0000000000e+02 1.0566000000e-01 0.0000e+00 1.0000e+00
      994 -1    0    0    0    0 -0.0000000000e+00 -0.0000000000e+00 +0.0000000000e+00 1.3100000000e+02 1.3100000000e+02 0.0000e+00 0.0000e+00
       13  1    1    2    0    0 +3.5245661516e+00 -2.7950957824e+01 +9.0256829286e+01 9.4551493942e+01 1.0566000000e-01 0.0000e+00 -1.0000e+00
      994  1    1    2    0    0 +2.2269057674e+01 +9.5053756240e+00 +2.2323313548e+01 1.3507625040e+02 1.3100000000e+02 0.0000e+00 0.0000e+00
      997  1    1    2    0    0 -2.5793623826e+01 +1.8445582200e+01 +3.8741984600e+02 4.0137225565e+02 1.0000000000e+02 0.0000e+00 0.0000e+00
</event>
<event>
 5      1 +8.5651000e-08 1.99914700e+02 7.95774700e-02 5.04112700e-01
       13 -1    0    0    0    0 +0.0000000000e+00 +0.0000000000e+00 +4.9999998884e+02 5.0000000000e+02 1.0566000000e-01 0.0000e+00 1.0000e+00
      994 -1    0    0    0    0 -0.0000000000e+00 -0.0000000000e+00 +0.0000000000e+00 1.3100000000e+02 1.3100000000e+02 0.0000e+00 0.0000e+00
       13  1    1    2    0    0 +5.0102874209e+01 +1.8499524655e+01 +1.5372693328e+02 1.6274062675e+02 1.0566000000e-01 0.0000e+00 -1.0000e+00
      994  1    1    2    0    0 -2.4723927875e+01 -5.4064112053e+01 +4.9627421294e+01 1.5217779656e+02 1.3100000000e+02 0.0000e+00 0.0000e+00
      997  1    1    2    0    0 -2.5378946335e+01 +3.5564587398e+01 +2.9664563427e+02 3.1608157669e+02 1.0000000000e+02 0.0000e+00 0.0000e+00
</event>
<event>
 5      1 +8.5651000e-08 2.02490200e+02 7.95774700e-02 4.99388600e-01
       13 -1    0    0    0    0 +0.0000000000e+00 +0.0000000000e+00 +4.9999998884e+02 5.0000000000e+02 1.0566000000e-01 0.0000e+00 1.0000e+00
      994 -1    0    0    0    0 -0.0000000000e+00 -0.0000000000e+00 +0.0000000000e+00 1.3100000000e+02 1.3100000000e+02 0.0000e+00 0.0000e+00
       13  1    1    2    0    0 -3.7742544173e+01 +1.8558217115e+01 +6.8788240912e+01 8.0627168591e+01 1.0566000000e-01 0.0000e+00 -1.0000e+00
      994  1    1    2    0    0 -3.0980334537e-01 -1.2125451044e+01 +2.9795784153e+01 1.3489222103e+02 1.3100000000e+02 0.0000e+00 0.0000e+00
      997  1    1    2    0    0 +3.8052347519e+01 -6.4327660703e+00 +4.0141596377e+02 4.1548061038e+02 1.0000000000e+02 0.0000e+00 0.0000e+00
</event>
<event>
 5      1 +8.5651000e-08 1.96167300e+02 7.95774700e-02 5.11276400e-01
       13 -1    0    0    0    0 +0.0000000000e+00 +0.0000000000e+00 +4.9999998884e+02 5.0000000000e+02 1.0566000000e-01 0.0000e+00 -1.0000e+00
      994 -1    0    0    0    0 -0.0000000000e+00 -0.0000000000e+00 +0.0000000000e+00 1.3100000000e+02 1.3100000000e+02 0.0000e+00 0.0000e+00
       13  1    1    2    0    0 +1.9385949471e+01 -6.2780729444e-01 +8.9752375950e+01 9.1824339538e+01 1.0566000000e-01 0.0000e+00 1.0000e+00
      994  1    1    2    0    0 -1.0080287776e+01 +1.7413136194e+00 +1.6040058418e+01 1.3237419631e+02 1.3100000000e+02 0.0000e+00 0.0000e+00
      997  1    1    2    0    0 -9.3056616949e+00 -1.1135063250e+00 +3.9420755447e+02 4.0680146415e+02 1.0000000000e+02 0.0000e+00 0.0000e+00
</event>
<event>
 5      1 +8.5651000e-08 1.96367300e+02 7.95774700e-02 5.10884900e-01
       13 -1    0    0    0    0 +0.0000000000e+00 +0.0000000000e+00 +4.9999998884e+02 5.0000000000e+02 1.0566000000e-01 0.0000e+00 -1.0000e+00
      994 -1    0    0    0    0 -0.0000000000e+00 -0.0000000000e+00 +0.0000000000e+00 1.3100000000e+02 1.3100000000e+02 0.0000e+00 0.0000e+00
       13  1    1    2    0    0 -3.5115741909e+01 +1.0655496867e+01 +1.8697451607e+02 1.9054169036e+02 1.0566000000e-01 0.0000e+00 1.0000e+00
      994  1    1    2    0    0 +1.8585953186e+01 +1.7517909397e+00 +2.4732270822e+01 1.3461497557e+02 1.3100000000e+02 0.0000e+00 0.0000e+00
      997  1    1    2    0    0 +1.6529788723e+01 -1.2407287807e+01 +2.8829320194e+02 3.0584333407e+02 1.0000000000e+02 0.0000e+00 0.0000e+00
</event>
<event>
 5      1 +8.5651000e-08 1.62264200e+02 7.95774700e-02 5.97702400e-01
       13 -1    0    0    0    0 +0.0000000000e+00 +0.0000000000e+00 +4.9999998884e+02 5.0000000000e+02 1.0566000000e-01 0.0000e+00 1.0000e+00
      994 -1    0    0    0    0 -0.0000000000e+00 -0.0000000000e+00 +0.0000000000e+00 1.3100000000e+02 1.3100000000e+02 0.0000e+00 0.0000e+00
       13  1    1    2    0    0 -2.0545268512e+01 -8.8889522035e+01 +1.9681621550e+02 2.1693337464e+02 1.0566000000e-01 0.0000e+00 -1.0000e+00
      994  1    1    2    0    0 +1.9466118982e+01 +4.5931611002e+01 +6.9894426625e+01 1.5663611828e+02 1.3100000000e+02 0.0000e+00 0.0000e+00
      997  1    1    2    0    0 +1.0791495302e+00 +4.2957911034e+01 +2.3328934671e+02 2.5743050708e+02 1.0000000000e+02 0.0000e+00 0.0000e+00
</event>
<event>
 5      1 +8.5651000e-08 1.93154500e+02 7.95774700e-02 5.17302200e-01
       13 -1    0    0    0    0 +0.0000000000e+00 +0.0000000000e+00 +4.9999998884e+02 5.0000000000e+02 1.0566000000e-01 0.0000e+00 1.0000e+00
      994 -1    0    0    0    0 -0.0000000000e+00 -0.0000000000e+00 +0.0000000000e+00 1.3100000000e+02 1.3100000000e+02 0.0000e+00 0.0000e+00
       13  1    1    2    0    0 +3.0433528955e+01 -1.6241060010e+01 +1.0267112422e+02 1.0831132271e+02 1.0566000000e-01 0.0000e+00 -1.0000e+00
      994  1    1    2    0    0 -2.6690109180e+01 +4.9542164994e+00 +2.3876941453e+01 1.3589707327e+02 1.3100000000e+02 0.0000e+00 0.0000e+00
      997  1    1    2    0    0 -3.7434197746e+00 +1.1286843511e+01 +3.7345192317e+02 3.8679160403e+02 1.0000000000e+02 0.0000e+00 0.0000e+00
</event>
<event>
 5      1 +8.5651000e-08 1.93787800e+02 7.95774700e-02 5.16014900e-01
       13 -1    0    0    0    0 +0.0000000000e+00 +0.0000000000e+00 +4.9999998884e+02 5.0000000000e+02 1.0566000000e-01 0.0000e+00 -1.0000e+00
      994 -1    0    0    0    0 -0.0000000000e+00 -0.0000000000e+00 +0.0000000000e+00 1.3100000000e+02 1.3100000000e+02 0.0000e+00 0.0000e+00
       13  1    1    2    0    0 -1.6240159009e+01 -4.3435286962e+01 +1.0297187154e+02 1.1293176883e+02 1.0566000000e-01 0.0000e+00 1.0000e+00
      994  1    1    2    0    0 +1.2506964548e+01 +6.9173300662e+01 +5.1364541835e+01 1.5729172211e+02 1.3100000000e+02 0.0000e+00 0.0000e+00
      997  1    1    2    0    0 +3.7331944608e+00 -2.5738013701e+01 +3.4566357546e+02 3.6077650906e+02 1.0000000000e+02 0.0000e+00 0.0000e+00
</event>
<event>
 5      1 +8.5651000e-08 2.15579600e+02 7.95774700e-02 4.77587100e-01
       13 -1    0    0    0    0 +0.0000000000e+00 +0.0000000000e+00 +4.9999998884e+02 5.0000000000e+02 1.0566000000e-01 0.0000e+00 1.0000e+00
      994 -1    0    0    0    0 -0.0000000000e+00 -0.0000000000e+00 +0.0000000000e+00 1.3100000000e+02 1.3100000000e+02 0.0000e+00 0.0000e+00
       13  1    1    2    0    0 -2.3957629398e+01 -3.7800544576e+01 +2.5134011909e+01 5.1328149152e+01 1.0566000000e-01 0.0000e+00 -1.0000e+00
      994  1    1    2    0    0 +6.4331652829e+00 +2.8932388079e+01 +5.0904705167e+01 1.4363411052e+02 1.3100000000e+02 0.0000e+00 0.0000e+00
      997  1    1    2    0    0 +1.7524464115e+01 +8.8681564977e+00 +4.2396127176e+02 4.3603774033e+02 1.0000000000e+02 0.0000e+00 0.0000e+00
</event>
<event>
 5      1 +8.5651000e-08 1.98235800e+02 7.95774700e-02 5.07278200e-01
       13 -1    0    0    0    0 +0.0000000000e+00 +0.0000000000e+00 +4.9999998884e+02 5.0000000000e+02 1.0566000000e-01 0.0000e+00 -1.0000e+00
      994 -1    0    0    0    0 -0.0000000000e+00 -0.0000000000e+00 +0.0000000000e+00 1.3100000000e+02 1.3100000000e+02 0.0000e+00 0.0000e+00
       13  1    1    2    0    0 +2.5536515787e+01 -3.6650291974e+00 +2.6123832083e+01 3.6715280801e+01 1.0566000000e-01 0.0000e+00 1.0000e+00
      994  1    1    2    0    0 -2.8981395550e+00 -7.5850311586e+00 +2.4874226054e+01 1.3358764551e+02 1.3100000000e+02 0.0000e+00 0.0000e+00
      997  1    1    2    0    0 -2.2638376232e+01 +1.1250060356e+01 +4.4900193070e+02 4.6069707369e+02 1.0000000000e+02 0.0000e+00 0.0000e+00
</event>
<event>
 5      1 +8.5651000e-08 1.93177400e+02 7.95774700e-02 5.17255400e-01
       13 -1    0    0    0    0 +0.0000000000e+00 +0.0000000000e+00 +4.9999998884e+02 5.0000000000e+02 1.0566000000e-01 0.0000e+00 1.0000e+00
      994 -1    0    0    0    0 -0.0000000000e+00 -0.0000000000e+00 +0.0000000000e+00 1.3100000000e+02 1.3100000000e+02 0.0000e+00 0.0000e+00
       13  1    1    2    0    0 -1.0738165793e+01 +2.1251905292e+01 +4.4586991488e+01 5.0546638435e+01 1.0566000000e-01 0.0000e+00 -1.0000e+00
      994  1    1    2    0    0 -1.2638113188e+01 -2.8653847903e+00 +2.0529461910e+01 1.3323059386e+02 1.3100000000e+02 0.0000e+00 0.0000e+00
      997  1    1    2    0    0 +2.3376278982e+01 -1.8386520502e+01 +4.3488353544e+02 4.4722276770e+02 1.0000000000e+02 0.0000e+00 0.0000e+00
</event>
<event>
 5      1 +8.5651000e-08 2.27598600e+02 7.95774700e-02 4.60296200e-01
       13 -1    0    0    0    0 +0.0000000000e+00 +0.0000000000e+00 +4.9999998884e+02 5.0000000000e+02 1.0566000000e-01 0.0000e+00 1.0000e+00
      994 -1    0    0    0    0 -0.0000000000e+00 -0.0000000000e+00 +0.0000000000e+00 1.3100000000e+02 1.3100000000e+02 0.0000e+00 0.0000e+00
       13  1    1    2    0    0 +1.1882779840e+01 +1.8478336549e+01 -1.5041369878e+01 2.6625238970e+01 1.0566000000e-01 0.0000e+00 -1.0000e+00
      994  1    1    2    0    0 -1.9789854194e+01 -5.2756685280e+01 +9.5451577407e+01 1.7160101923e+02 1.3100000000e+02 0.0000e+00 0.0000e+00
      997  1    1    2    0    0 +7.9070743540e+00 +3.4278348731e+01 +4.1958978131e+02 4.3277374180e+02 1.0000000000e+02 0.0000e+00 0.0000e+00
</event>
<event>
 5      1 +8.5651000e-08 1.93704300e+02 7.95774700e-02 5.16184100e-01
       13 -1    0    0    0    0 +0.0000000000e+00 +0.0000000000e+00 +4.9999998884e+02 5.0000000000e+02 1.0566000000e-01 0.0000e+00 1.0000e+00
      994 -1    0    0    0    0 -0.0000000000e+00 -0.0000000000e+00 +0.0000000000e+00 1.3100000000e+02 1.3100000000e+02 0.0000e+00 0.0000e+00
       13  1    1    2    0    0 +1.4968403187e+01 +1.8685104861e+01 +3.4819130379e+01 4.2255996521e+01 1.0566000000e-01 0.0000e+00 -1.0000e+00
      994  1    1    2    0    0 -3.8657509929e+01 -3.3488252993e+01 +3.3247780813e+01 1.4450702783e+02 1.3100000000e+02 0.0000e+00 0.0000e+00
      997  1    1    2    0    0 +2.3689106742e+01 +1.4803148132e+01 +4.3193307764e+02 4.4423697565e+02 1.0000000000e+02 0.0000e+00 0.0000e+00
</event>
<event>
 5      1 +8.5651000e-08 1.92966100e+02 7.95774700e-02 5.17687200e-01
       13 -1    0    0    0    0 +0.0000000000e+00 +0.0000000000e+00 +4.9999998884e+02 5.0000000000e+02 1.0566000000e-01 0.0000e+00 -1.0000e+00
      994 -1    0    0    0    0 -0.0000000000e+00 -0.0000000000e+00 +0.0000000000e+00 1.3100000000e+02 1.3100000000e+02 0.0000e+00 0.0000e+00
       13  1    1    2    0    0 +2.0328077708e+01 +1.8240974691e+01 +4.6730811104e+01 5.4127107547e+01 1.0566000000e-01 0.0000e+00 1.0000e+00
      994  1    1    2    0    0 -1.3304666727e+01 -2.7407412974e+01 +2.4832702468e+01 1.3676930779e+02 1.3100000000e+02 0.0000e+00 0.0000e+00
      997  1    1    2    0    0 -7.0234109807e+00 +9.1664382828e+00 +4.2843647526e+02 4.4010358466e+02 1.0000000000e+02 0.0000e+00 0.0000e+00
</event>
<event>
 5      1 +8.5651000e-08 1.92995300e+02 7.95774700e-02 5.17627500e-01
       13 -1    0    0    0    0 +0.0000000000e+00 +0.0000000000e+00 +4.9999998884e+02 5.0000000000e+02 1.0566000000e-01 0.0000e+00 -1.0000e+00
      994 -1    0    0    0    0 -0.0000000000e+00 -0.0000000000e+00 +0.0000000000e+00 1.3100000000e+02 1.3100000000e+02 0.0000e+00 0.0000e+00
       13  1    1    2    0    0 -1.4461525412e+01 -1.4488358931e+01 +2.5711440371e+01 3.2865446775e+01 1.0566000000e-01 0.0000e+00 1.0000e+00
      994  1    1    2    0    0 +2.0224353331e+01 -3.6020884695e+00 +2.1851645683e+01 1.3438933711e+02 1.3100000000e+02 0.0000e+00 0.0000e+00
      997  1    1    2    0    0 -5.7628279196e+00 +1.8090447401e+01 +4.5243690278e+02 4.6374521612e+02 1.0000000000e+02 0.0000e+00 0.0000e+00
</event>
<event>
 5      1 +8.5651000e-08 2.35031600e+02 7.95774700e-02 4.50674900e-01
       13 -1    0    0    0    0 +0.0000000000e+00 +0.0000000000e+00 +4.9999998884e+02 5.0000000000e+02 1.0566000000e-01 0.0000e+00 -1.0000e+00
      994 -1    0    0    0    0 -0.0000000000e+00 -0.0000000000e+00 +0.0000000000e+00 1.3100000000e+02 1.3100000000e+02 0.0000e+00 0.0000e+00
       13  1    1    2    0    0 -2.1212101196e+01 +2.5785791166e+01 -7.8871834271e+00 3.4308586238e+01 1.0566000000e-01 0.0000e+00 1.0000e+00
      994  1    1    2    0    0 +9.2461786049e+00 +3.4863314878e+01 +9.0971392510e+01 1.6351677834e+02 1.3100000000e+02 0.0000e+00 0.0000e+00
      997  1    1    2    0    0 +1.1965922591e+01 -6.0649106043e+01 +4.1691577975e+02 4.3317463542e+02 1.0000000000e+02 0.0000e+00 0.0000e+00
</event>
<event>
 5      1 +8.5651000e-08 2.00153900e+02 7.95774700e-02 5.03667200e-01
       13 -1    0    0    0    0 +0.0000000000e+00 +0.0000000000e+00 +4.9999998884e+02 5.0000000000e+02 1.0566000000e-01 0.0000e+00 -1.0000e+00
      994 -1    0    0    0    0 -0.0000000000e+00 -0.0000000000e+00 +0.0000000000e+00 1.3100000000e+02 1.3100000000e+02 0.0000e+00 0.0000e+00
       13  1    1    2    0    0 +4.1694947383e+01 -2.0328628150e+00 +1.2236884775e+02 1.2929326058e+02 1.0566000000e-01 0.0000e+00 1.0000e+00
      994  1    1    2    0    0 -7.5530634719e+00 -5.4233174675e+01 +4.6189353714e+01 1.4930754301e+02 1.3100000000e+02 0.0000e+00 0.0000e+00
      997  1    1    2    0    0 -3.4141883911e+01 +5.6266037490e+01 +3.3144178737e+02 3.5239919641e+02 1.0000000000e+02 0.0000e+00 0.0000e+00
</event>
<event>
 5      1 +8.5651000e-08 1.96888600e+02 7.95774700e-02 5.09869600e-01
       13 -1    0    0    0    0 +0.0000000000e+00 +0.0000000000e+00 +4.9999998884e+02 5.0000000000e+02 1.0566000000e-01 0.0000e+00 -1.0000e+00
      994 -1    0    0    0    0 -0.0000000000e+00 -0.0000000000e+00 +0.0000000000e+00 1.3100000000e+02 1.3100000000e+02 0.0000e+00 0.0000e+00
       13  1    1    2    0    0 -5.2116368595e+01 +2.4825256206e+00 +1.3905243781e+02 1.4851892281e+02 1.0566000000e-01 0.0000e+00 1.0000e+00
      994  1    1    2    0    0 +5.2335676009e+01 -1.5103461667e+01 +4.1960881166e+01 1.4794881914e+02 1.3100000000e+02 0.0000e+00 0.0000e+00
      997  1    1    2    0    0 -2.1930741386e-01 +1.2620936047e+01 +3.1898666986e+02 3.3453225804e+02 1.0000000000e+02 0.0000e+00 0.0000e+00
</event>
<event>
 5      1 +8.5651000e-08 2.02719100e+02 7.95774700e-02 4.98976300e-01
       13 -1    0    0    0    0 +0.0000000000e+00 +0.0000000000e+00 +4.9999998884e+02 5.0000000000e+02 1.0566000000e-01 0.0000e+00 1.0000e+00
      994 -1    0    0    0    0 -0.0000000000e+00 -0.0000000000e+00 +0.0000000000e+00 1.3100000000e+02 1.3100000000e+02 0.0000e+00 0.0000e+00
       13  1    1    2    0    0 -2.6546484492e+01 +2.0757284193e+01 +4.2486194296e+01 5.4227931509e+01 1.0566000000e-01 0.0000e+00 -1.0000e+00
      994  1    1    2    0    0 -2.0738266858e+01 +2.2754910229e+00 +3.1922691177e+01 1.3643794114e+02 1.3100000000e+02 0.0000e+00 0.0000e+00
      997  1    1    2    0    0 +4.7284751350e+01 -2.3032775216e+01 +4.2559110336e+02 4.4033412735e+02 1.0000000000e+02 0.0000e+00 0.0000e+00
</event>
<event>
 5      1 +8.5651000e-08 2.16030800e+02 7.95774700e-02 4.76894800e-01
       13 -1    0    0    0    0 +0.0000000000e+00 +0.0000000000e+00 +4.9999998884e+02 5.0000000000e+02 1.0566000000e-01 0.0000e+00 -1.0000e+00
      994 -1    0    0    0    0 -0.0000000000e+00 -0.0000000000e+00 +0.0000000000e+00 1.3100000000e+02 1.3100000000e+02 0.0000e+00 0.0000e+00
       13  1    1    2    0    0 -4.9316423716e+01 +1.0615585238e+01 +5.1581585885e+01 7.2148953315e+01 1.0566000000e-01 0.0000e+00 1.0000e+00
      994  1    1    2    0    0 -2.6867568095e+01 -5.2713349231e+01 +7.4035048967e+01 1.6168720382e+02 1.3100000000e+02 0.0000e+00 0.0000e+00
      997  1    1    2    0    0 +7.6183991811e+01 +4.2097763992e+01 +3.7438335398e+02 3.9716384287e+02 1.0000000000e+02 0.0000e+00 0.0000e+00
</event>
<event>
 5      1 +8.5651000e-08 1.96592900e+02 7.95774700e-02 5.10444600e-01
       13 -1    0    0    0    0 +0.0000000000e+00 +0.0000000000e+00 +4.9999998884e+02 5.0000000000e+02 1.0566000000e-01 0.0000e+00 1.0000e+00
      994 -1    0    0    0    0 -0.0000000000e+00 -0.0000000000e+00 +0.0000000000e+00 1.3100000000e+02 1.3100000000e+02 0.0000e+00 0.0000e+00
       13  1    1    2    0    0 -1.6930802780e+01 +2.0940235825e+01 +3.1544844672e+01 4.1475703111e+01 1.0566000000e-01 0.0000e+00 -1.0000e+00
      994  1    1    2    0    0 -2.6435008659e+01 -4.1058041232e+01 +3.7787465411e+01 1.4482218399e+02 1.3100000000e+02 0.0000e+00 0.0000e+00
      997  1    1    2    0    0 +4.3365811439e+01 +2.0117805407e+01 +4.3066767875e+02 4.4470211290e+02 1.0000000000e+02 0.0000e+00 0.0000e+00
</event>
<event>
 5      1 +8.5651000e-08 2.11875300e+02 7.95774700e-02 4.83411400e-01
       13 -1    0    0    0    0 +0.0000000000e+00 +0.0000000000e+00 +4.9999998884e+02 5.0000000000e+02 1.0566000000e-01 0.0000e+00 -1.0000e+00
      994 -1    0    0    0    0 -0.0000000000e+00 -0.0000000000e+00 +0.0000000000e+00 1.3100000000e+02 1.3100000000e+02 0.0000e+00 0.0000e+00
       13  1    1    2    0    0 -6.1221045353e+01 +2.8847505808e+01 +1.6276894713e+02 1.7627800856e+02 1.0566000000e-01 0.0000e+00 1.0000e+00
      994  1    1    2    0    0 +2.3234961685e+01 +7.8005864020e+00 +4.3845565810e+01 1.4030020041e+02 1.3100000000e+02 0.0000e+00 0.0000e+00
      997  1    1    2    0    0 +3.7986083668e+01 -3.6648092210e+01 +2.9338547589e+02 3.1442179104e+02 1.0000000000e+02 0.0000e+00 0.0000e+00
</event>
<event>
 5      1 +8.5651000e-08 1.93069500e+02 7.95774700e-02 5.17475700e-01
       13 -1    0    0    0    0 +0.0000000000e+00 +0.0000000000e+00 +4.9999998884e+02 5.0000000000e+02 1.0566000000e-01 0.0000e+00 -1.0000e+00
      994 -1    0    0    0    0 -0.0000000000e+00 -0.0000000000e+00 +0.0000000000e+00 1.3100000000e+02 1.3100000000e+02 0.0000e+00 0.0000e+00
       13  1    1    2    0    0 -2.0781169404e+00 +1.1626563994e+01 +7.0951462735e+00 1.3778527679e+01 1.0566000000e-01 0.0000e+00 1.0000e+00
      994  1    1    2    0    0 -3.4837196920e+00 -9.7666449893e+00 +1.8917221185e+01 1.3276439626e+02 1.3100000000e+02 0.0000e+00 0.0000e+00
      997  1    1    2    0    0 +5.5618366324e+00 -1.8599190047e+00 +4.7398762138e+02 4.8445707606e+02 1.0000000000e+02 0.0000e+00 0.0000e+00
</event>
<event>
 5      1 +8.5651000e-08 1.94780700e+02 7.95774700e-02 5.14019000e-01
       13 -1    0    0    0    0 +0.0000000000e+00 +0.0000000000e+00 +4.9999998884e+02 5.0000000000e+02 1.0566000000e-01 0.0000e+00 -1.0000e+00
      994 -1    0    0    0    0 -0.0000000000e+00 -0.0000000000e+00 +0.0000000000e+00 1.3100000000e+02 1.3100000000e+02 0.0000e+00 0.0000e+00
       13  1    1    2    0    0 -4.6346328439e+00 -1.2527958481e+01 +4.6281704730e+00 1.4137209458e+01 1.0566000000e-01 0.0000e+00 1.0000e+00
      994  1    1    2    0    0 +1.1147908510e+01 +2.2182492409e+01 +2.4770476224e+01 1.3561310898e+02 1.3100000000e+02 0.0000e+00 0.0000e+00
      997  1    1    2    0    0 -6.5132756663e+00 -9.6545339286e+00 +4.7060134214e+02 4.8124968157e+02 1.0000000000e+02 0.0000e+00 0.0000e+00
</event>
<event>
 5      1 +8.5651000e-08 1.99462400e+02 7.95774700e-02 5.04958700e-01
       13 -1    0    0    0    0 +0.0000000000e+00 +0.0000000000e+00 +4.9999998884e+02 5.0000000000e+02 1.0566000000e-01 0.0000e+00 -1.0000e+00
      994 -1    0    0    0    0 -0.0000000000e+00 -0.0000000000e+00 +0.0000000000e+00 1.3100000000e+02 1.3100000000e+02 0.0000e+00 0.0000e+00
       13  1    1    2    0    0 -1.6203249389e+01 -3.8382367034e+01 +5.8198357644e+01 7.1573817744e+01 1.0566000000e-01 0.0000e+00 1.0000e+00
      994  1    1    2    0    0 +1.3859967757e+01 +3.9619800601e+01 +3.7002923254e+01 1.4245014438e+02 1.3100000000e+02 0.0000e+00 0.0000e+00
      997  1    1    2    0    0 +2.3432816321e+00 -1.2374335667e+00 +4.0479870794e+02 4.1697603787e+02 1.0000000000e+02 0.0000e+00 0.0000e+00
</event>
<event>
 5      1 +8.5651000e-08 2.20970200e+02 7.95774700e-02 4.69544800e-01
       13 -1    0    0    0    0 +0.0000000000e+00 +0.0000000000e+00 +4.9999998884e+02 5.0000000000e+02 1.0566000000e-01 0.0000e+00 -1.0000e+00
      994 -1    0    0    0    0 -0.0000000000e+00 -0.0000000000e+00 +0.0000000000e+00 1.3100000000e+02 1.3100000000e+02 0.0000e+00 0.0000e+00
       13  1    1    2    0    0 -2.4072812742e+01 -4.3751221948e+01 +2.7749041421e+00 5.0013808016e+01 1.0566000000e-01 0.0000e+00 1.0000e+00
      994  1    1    2    0    0 +8.7877964544e+01 +4.0590689745e+01 +1.8241079266e+02 2.4455027709e+02 1.3100000000e+02 0.0000e+00 0.0000e+00
      997  1    1    2    0    0 -6.3805151802e+01 +3.1605322029e+00 +3.1481429204e+02 3.3643591490e+02 1.0000000000e+02 0.0000e+00 0.0000e+00
</event>
</LesHouchesEvents>
