<event>
 5    1  0.1153629E-008  0.3813772E+03  0.7957747E-01  0.3445184E+00
         13   -1    0    0    0    0  0.00000000000E+00  0.00000000000E+00  0.14999999963E+04  0.15000000000E+04  0.10566000000E+00 0.  1.
        994   -1    0    0    0    0 -0.00000000000E+00 -0.00000000000E+00  0.11368683772E-12  0.17120000000E+03  0.17120000000E+03 0.  0.
         13    1    1    2    0    0  0.84764875469E+01 -0.28856950106E+02  0.13409643086E+03  0.13742793873E+03  0.10566000000E+00 0.  1.
        994    1    1    2    0    0 -0.33881301493E+01  0.13169981742E+02  0.40551796242E+01  0.17178711339E+03  0.17120000000E+03 0.  0.
        998    1    1    2    0    0 -0.50883573976E+01  0.15686968364E+02  0.13618483858E+04  0.13619849479E+04  0.10000000000E+02 0.  1.
</event>
<event>
 5    1  0.1153629E-008  0.3687919E+03  0.7957747E-01  0.3501462E+00
         13   -1    0    0    0    0  0.00000000000E+00  0.00000000000E+00  0.14999999963E+04  0.15000000000E+04  0.10566000000E+00 0.  1.
        994   -1    0    0    0    0 -0.00000000000E+00 -0.00000000000E+00  0.11368683772E-12  0.17120000000E+03  0.17120000000E+03 0.  0.
         13    1    1    2    0    0  0.13389371715E+02 -0.23739339109E+02  0.31333011432E+02  0.41528306800E+02  0.10566000000E+00 0.  1.
        994    1    1    2    0    0 -0.22204718467E+02  0.17045811582E+02  0.13034186587E+02  0.17396246502E+03  0.17120000000E+03 0.  0.
        998    1    1    2    0    0  0.88153467520E+01  0.66935275267E+01  0.14556327983E+04  0.14557092282E+04  0.10000000000E+02 0.  1.
</event>
<event>
 5    1  0.1153629E-008  0.3834320E+03  0.7957747E-01  0.3436349E+00
         13   -1    0    0    0    0  0.00000000000E+00  0.00000000000E+00  0.14999999963E+04  0.15000000000E+04  0.10566000000E+00 0. -1.
        994   -1    0    0    0    0 -0.00000000000E+00 -0.00000000000E+00  0.11368683772E-12  0.17120000000E+03  0.17120000000E+03 0.  0.
         13    1    1    2    0    0 -0.24907902412E+02  0.49662686843E+01  0.97204083313E+02  0.10046746938E+03  0.10566000000E+00 0. -1.
        994    1    1    2    0    0  0.63680389458E+02 -0.22311038670E+02  0.17608521111E+02  0.18485798458E+03  0.17120000000E+03 0.  0.
        998    1    1    2    0    0 -0.38772487046E+02  0.17344769986E+02  0.13851873919E+04  0.13858745460E+04  0.10000000000E+02 0. -1.
</event>
<event>
 5    1  0.1153629E-008  0.3831211E+03  0.7957747E-01  0.3437680E+00
         13   -1    0    0    0    0  0.00000000000E+00  0.00000000000E+00  0.14999999963E+04  0.15000000000E+04  0.10566000000E+00 0.  1.
        994   -1    0    0    0    0 -0.00000000000E+00 -0.00000000000E+00  0.11368683772E-12  0.17120000000E+03  0.17120000000E+03 0.  0.
         13    1    1    2    0    0  0.35020994200E+01  0.11473672874E+02  0.27195643836E+02  0.29724132910E+02  0.10566000000E+00 0.  1.
        994    1    1    2    0    0 -0.13099363148E+02 -0.43358316311E+01  0.31960647769E+01  0.17178488752E+03  0.17120000000E+03 0.  0.
        998    1    1    2    0    0  0.95972637277E+01 -0.71378412425E+01  0.14696082877E+04  0.14696909796E+04  0.10000000000E+02 0.  1.
</event>
<event>
 5    1  0.1153629E-008  0.3755138E+03  0.7957747E-01  0.3470928E+00
         13   -1    0    0    0    0  0.00000000000E+00  0.00000000000E+00  0.14999999963E+04  0.15000000000E+04  0.10566000000E+00 0.  1.
        994   -1    0    0    0    0 -0.00000000000E+00 -0.00000000000E+00  0.11368683772E-12  0.17120000000E+03  0.17120000000E+03 0.  0.
         13    1    1    2    0    0  0.35338904017E+02  0.19524707732E+01  0.94346174709E+02  0.10076637398E+03  0.10566000000E+00 0.  1.
        994    1    1    2    0    0 -0.24857013320E+02  0.90259221802E+01  0.87918329566E+01  0.17345337907E+03  0.17120000000E+03 0.  0.
        998    1    1    2    0    0 -0.10481890697E+02 -0.10978392953E+02  0.13968619886E+04  0.13969802470E+04  0.10000000000E+02 0.  1.
</event>
<event>
 5    1  0.1153629E-008  0.3779052E+03  0.7957747E-01  0.3460331E+00
         13   -1    0    0    0    0  0.00000000000E+00  0.00000000000E+00  0.14999999963E+04  0.15000000000E+04  0.10566000000E+00 0. -1.
        994   -1    0    0    0    0 -0.00000000000E+00 -0.00000000000E+00  0.11368683772E-12  0.17120000000E+03  0.17120000000E+03 0.  0.
         13    1    1    2    0    0  0.27247812977E+02 -0.60914771069E+00  0.70298635846E+02  0.75397106966E+02  0.10566000000E+00 0. -1.
        994    1    1    2    0    0 -0.14647097269E+02 -0.21138339028E+00  0.59169834670E+01  0.17192740571E+03  0.17120000000E+03 0.  0.
        998    1    1    2    0    0 -0.12600715708E+02  0.82053110096E+00  0.14237843770E+04  0.14238754873E+04  0.10000000000E+02 0. -1.
</event>
<event>
 5    1  0.1153629E-008  0.3845553E+03  0.7957747E-01  0.3431560E+00
         13   -1    0    0    0    0  0.00000000000E+00  0.00000000000E+00  0.14999999963E+04  0.15000000000E+04  0.10566000000E+00 0.  1.
        994   -1    0    0    0    0 -0.00000000000E+00 -0.00000000000E+00  0.11368683772E-12  0.17120000000E+03  0.17120000000E+03 0.  0.
         13    1    1    2    0    0 -0.19045241979E+02 -0.41097124586E+00  0.10091334069E+03  0.10269568459E+03  0.10566000000E+00 0.  1.
        994    1    1    2    0    0  0.79902072658E+01 -0.20037314461E+01  0.20745811152E+01  0.17141062464E+03  0.17120000000E+03 0.  0.
        998    1    1    2    0    0  0.11055034713E+02  0.24147026920E+01  0.13970120745E+04  0.13970936908E+04  0.10000000000E+02 0.  1.
</event>
<event>
 5    1  0.1153629E-008  0.3779883E+03  0.7957747E-01  0.3459965E+00
         13   -1    0    0    0    0  0.00000000000E+00  0.00000000000E+00  0.14999999963E+04  0.15000000000E+04  0.10566000000E+00 0. -1.
        994   -1    0    0    0    0 -0.00000000000E+00 -0.00000000000E+00  0.11368683772E-12  0.17120000000E+03  0.17120000000E+03 0.  0.
         13    1    1    2    0    0 -0.30704652069E+02  0.13789433277E+02  0.10747034530E+03  0.11261798440E+03  0.10566000000E+00 0. -1.
        994    1    1    2    0    0  0.21357116328E+02 -0.52528347971E+01  0.67816559576E+01  0.17274012142E+03  0.17120000000E+03 0.  0.
        998    1    1    2    0    0  0.93475357410E+01 -0.85365984794E+01  0.13857479950E+04  0.13858418942E+04  0.10000000000E+02 0. -1.
</event>
<event>
 5    1  0.1153629E-008  0.3711786E+03  0.7957747E-01  0.3490492E+00
         13   -1    0    0    0    0  0.00000000000E+00  0.00000000000E+00  0.14999999963E+04  0.15000000000E+04  0.10566000000E+00 0.  1.
        994   -1    0    0    0    0 -0.00000000000E+00 -0.00000000000E+00  0.11368683772E-12  0.17120000000E+03  0.17120000000E+03 0.  0.
         13    1    1    2    0    0 -0.75624186615E+02  0.42335822145E+02  0.26337518905E+03  0.27726853555E+03  0.10566000000E+00 0.  1.
        994    1    1    2    0    0  0.86279400858E+02 -0.24248756510E+02  0.40320772910E+02  0.19740147399E+03  0.17120000000E+03 0.  0.
        998    1    1    2    0    0 -0.10655214243E+02 -0.18087065635E+02  0.11963040343E+04  0.11965299905E+04  0.10000000000E+02 0.  1.
</event>
<event>
 5    1  0.1153629E-008  0.3820193E+03  0.7957747E-01  0.3442413E+00
         13   -1    0    0    0    0  0.00000000000E+00  0.00000000000E+00  0.14999999963E+04  0.15000000000E+04  0.10566000000E+00 0.  1.
        994   -1    0    0    0    0 -0.00000000000E+00 -0.00000000000E+00  0.11368683772E-12  0.17120000000E+03  0.17120000000E+03 0.  0.
         13    1    1    2    0    0  0.16322871532E+02 -0.19390739855E+02  0.10653601122E+03  0.10950967892E+03  0.10566000000E+00 0.  1.
        994    1    1    2    0    0 -0.22856448428E+02 -0.75390013578E+01  0.50431882643E+01  0.17295701062E+03  0.17120000000E+03 0.  0.
        998    1    1    2    0    0  0.65335768967E+01  0.26929741213E+02  0.13884207968E+04  0.13887333105E+04  0.10000000000E+02 0.  1.
</event>
<event>
 5    1  0.1153629E-008  0.3307745E+03  0.7957747E-01  0.3698185E+00
         13   -1    0    0    0    0  0.00000000000E+00  0.00000000000E+00  0.14999999963E+04  0.15000000000E+04  0.10566000000E+00 0. -1.
        994   -1    0    0    0    0 -0.00000000000E+00 -0.00000000000E+00  0.11368683772E-12  0.17120000000E+03  0.17120000000E+03 0.  0.
         13    1    1    2    0    0 -0.19389399249E+02  0.28489470213E+03  0.83894682995E+03  0.88621257876E+03  0.10566000000E+00 0. -1.
        994    1    1    2    0    0 -0.65387444083E+02 -0.22416542959E+03  0.33638465187E+03  0.44383525286E+03  0.17120000000E+03 0.  0.
        998    1    1    2    0    0  0.84776843332E+02 -0.60729272546E+02  0.32466851446E+03  0.34115216838E+03  0.10000000000E+02 0.  1.
</event>
<event>
 5    1  0.1153629E-008  0.3768886E+03  0.7957747E-01  0.3464819E+00
         13   -1    0    0    0    0  0.00000000000E+00  0.00000000000E+00  0.14999999963E+04  0.15000000000E+04  0.10566000000E+00 0. -1.
        994   -1    0    0    0    0 -0.00000000000E+00 -0.00000000000E+00  0.11368683772E-12  0.17120000000E+03  0.17120000000E+03 0.  0.
         13    1    1    2    0    0  0.33847206104E+01 -0.49725997446E+02  0.29563110511E+03  0.29980308975E+03  0.10566000000E+00 0. -1.
        994    1    1    2    0    0  0.36831411348E+02 -0.38779874067E+01  0.10358894029E+02  0.17546606035E+03  0.17120000000E+03 0.  0.
        998    1    1    2    0    0 -0.40216131959E+02  0.53603984852E+02  0.11940099971E+04  0.11959308499E+04  0.10000000000E+02 0. -1.
</event>
<event>
 5    1  0.1153629E-008  0.3838181E+03  0.7957747E-01  0.3434700E+00
         13   -1    0    0    0    0  0.00000000000E+00  0.00000000000E+00  0.14999999963E+04  0.15000000000E+04  0.10566000000E+00 0.  1.
        994   -1    0    0    0    0 -0.00000000000E+00 -0.00000000000E+00  0.11368683772E-12  0.17120000000E+03  0.17120000000E+03 0.  0.
         13    1    1    2    0    0 -0.87905212512E+01  0.11310450906E+02  0.43663384496E+02  0.45953257482E+02  0.10566000000E+00 0.  1.
        994    1    1    2    0    0  0.98038549400E+01 -0.17226329005E+02  0.35161039734E+01  0.17237942154E+03  0.17120000000E+03 0.  0.
        998    1    1    2    0    0 -0.10133336888E+01  0.59158780985E+01  0.14528205078E+04  0.14528673210E+04  0.10000000000E+02 0.  1.
</event>
<event>
 5    1  0.1153629E-008  0.3814546E+03  0.7957747E-01  0.3444849E+00
         13   -1    0    0    0    0  0.00000000000E+00  0.00000000000E+00  0.14999999963E+04  0.15000000000E+04  0.10566000000E+00 0. -1.
        994   -1    0    0    0    0 -0.00000000000E+00 -0.00000000000E+00  0.11368683772E-12  0.17120000000E+03  0.17120000000E+03 0.  0.
         13    1    1    2    0    0 -0.99051094492E+01  0.11812357555E+02  0.33260344807E+02  0.36659305570E+02  0.10566000000E+00 0. -1.
        994    1    1    2    0    0  0.61941624689E+01 -0.13087415266E+02  0.40984803592E+01  0.17186007573E+03  0.17120000000E+03 0.  0.
        998    1    1    2    0    0  0.37109469803E+01  0.12750577115E+01  0.14626411711E+04  0.14626806187E+04  0.10000000000E+02 0. -1.
</event>
<event>
 5    1  0.1153629E-008  0.3795675E+03  0.7957747E-01  0.3453044E+00
         13   -1    0    0    0    0  0.00000000000E+00  0.00000000000E+00  0.14999999963E+04  0.15000000000E+04  0.10566000000E+00 0. -1.
        994   -1    0    0    0    0 -0.00000000000E+00 -0.00000000000E+00  0.11368683772E-12  0.17120000000E+03  0.17120000000E+03 0.  0.
         13    1    1    2    0    0 -0.15672315285E+01 -0.33845378649E+02  0.12985659847E+03  0.13420399845E+03  0.10566000000E+00 0. -1.
        994    1    1    2    0    0 -0.24086133231E+02  0.22629334289E+02  0.80167540264E+01  0.17454494243E+03  0.17120000000E+03 0.  0.
        998    1    1    2    0    0  0.25653364759E+02  0.11216044360E+02  0.13621266438E+04  0.13624510591E+04  0.10000000000E+02 0. -1.
</event>
<event>
 5    1  0.1153629E-008  0.3853715E+03  0.7957747E-01  0.3428098E+00
         13   -1    0    0    0    0  0.00000000000E+00  0.00000000000E+00  0.14999999963E+04  0.15000000000E+04  0.10566000000E+00 0. -1.
        994   -1    0    0    0    0 -0.00000000000E+00 -0.00000000000E+00  0.11368683772E-12  0.17120000000E+03  0.17120000000E+03 0.  0.
         13    1    1    2    0    0  0.39630215831E+01 -0.11841801387E+02  0.54529607008E+02  0.55941246006E+02  0.10566000000E+00 0. -1.
        994    1    1    2    0    0 -0.54206710875E+01  0.56420466136E+01  0.16469173131E+01  0.17138660596E+03  0.17120000000E+03 0.  0.
        998    1    1    2    0    0  0.14576495044E+01  0.61997547735E+01  0.14438234720E+04  0.14438721480E+04  0.10000000000E+02 0. -1.
</event>
<event>
 5    1  0.1153629E-008  0.3695394E+03  0.7957747E-01  0.3498011E+00
         13   -1    0    0    0    0  0.00000000000E+00  0.00000000000E+00  0.14999999963E+04  0.15000000000E+04  0.10566000000E+00 0. -1.
        994   -1    0    0    0    0 -0.00000000000E+00 -0.00000000000E+00  0.11368683772E-12  0.17120000000E+03  0.17120000000E+03 0.  0.
         13    1    1    2    0    0 -0.55792535841E+02 -0.57269973998E+02  0.26044703273E+03  0.27244325097E+03  0.10566000000E+00 0. -1.
        994    1    1    2    0    0  0.41447796354E+02  0.56132062111E+02  0.27887898786E+02  0.18696497832E+03  0.17120000000E+03 0.  0.
        998    1    1    2    0    0  0.14344739487E+02  0.11379118873E+01  0.12116650648E+04  0.12117917707E+04  0.10000000000E+02 0. -1.
</event>
<event>
 5    1  0.1153629E-008  0.3730615E+03  0.7957747E-01  0.3481938E+00
         13   -1    0    0    0    0  0.00000000000E+00  0.00000000000E+00  0.14999999963E+04  0.15000000000E+04  0.10566000000E+00 0. -1.
        994   -1    0    0    0    0 -0.00000000000E+00 -0.00000000000E+00  0.11368683772E-12  0.17120000000E+03  0.17120000000E+03 0.  0.
         13    1    1    2    0    0 -0.39295223892E+02  0.32646803037E+02  0.15324997963E+03  0.16154100343E+03  0.10566000000E+00 0. -1.
        994    1    1    2    0    0  0.37572738049E+02 -0.30527493576E+02  0.15739353354E+02  0.17860796665E+03  0.17120000000E+03 0.  0.
        998    1    1    2    0    0  0.17224858427E+01 -0.21193094610E+01  0.13310106633E+04  0.13310510299E+04  0.10000000000E+02 0. -1.
</event>
<event>
 5    1  0.1153629E-008  0.3814345E+03  0.7957747E-01  0.3444936E+00
         13   -1    0    0    0    0  0.00000000000E+00  0.00000000000E+00  0.14999999963E+04  0.15000000000E+04  0.10566000000E+00 0. -1.
        994   -1    0    0    0    0 -0.00000000000E+00 -0.00000000000E+00  0.11368683772E-12  0.17120000000E+03  0.17120000000E+03 0.  0.
         13    1    1    2    0    0 -0.29131238930E+02  0.19396080720E+02  0.18896169267E+03  0.19217536130E+03  0.10566000000E+00 0. -1.
        994    1    1    2    0    0  0.17768454289E+02  0.26203254502E+01  0.44847706157E+01  0.17219795946E+03  0.17120000000E+03 0.  0.
        998    1    1    2    0    0  0.11362784641E+02 -0.22016406171E+02  0.13065535330E+04  0.13068266792E+04  0.10000000000E+02 0. -1.
</event>
<event>
 5    1  0.1153629E-008  0.3764624E+03  0.7957747E-01  0.3466708E+00
         13   -1    0    0    0    0  0.00000000000E+00  0.00000000000E+00  0.14999999963E+04  0.15000000000E+04  0.10566000000E+00 0.  1.
        994   -1    0    0    0    0 -0.00000000000E+00 -0.00000000000E+00  0.11368683772E-12  0.17120000000E+03  0.17120000000E+03 0.  0.
         13    1    1    2    0    0 -0.88513748554E+02  0.10524665708E+03  0.82213554519E+03  0.83355768147E+03  0.10566000000E+00 0.  1.
        994    1    1    2    0    0  0.95078109046E+02 -0.86980339706E+02  0.64338844194E+02  0.22372830216E+03  0.17120000000E+03 0.  0.
        998    1    1    2    0    0 -0.65643604920E+01 -0.18266317377E+02  0.61352560690E+03  0.61391401637E+03  0.10000000000E+02 0.  1.
</event>
<event>
 5    1  0.1153629E-008  0.3967515E+03  0.7957747E-01  0.3381312E+00
         13   -1    0    0    0    0  0.00000000000E+00  0.00000000000E+00  0.14999999963E+04  0.15000000000E+04  0.10566000000E+00 0.  1.
        994   -1    0    0    0    0 -0.00000000000E+00 -0.00000000000E+00  0.11368683772E-12  0.17120000000E+03  0.17120000000E+03 0.  0.
         13    1    1    2    0    0  0.40375354748E+02  0.85386003529E+01  0.22539909648E+02  0.47022714277E+02  0.10566000000E+00 0.  1.
        994    1    1    2    0    0 -0.36889542388E+02 -0.14185120657E+02  0.31909534267E+02  0.17857691442E+03  0.17120000000E+03 0.  0.
        998    1    1    2    0    0 -0.34858123598E+01  0.56465203038E+01  0.14455505524E+04  0.14456003713E+04  0.10000000000E+02 0.  1.
</event>
<event>
 5    1  0.1153629E-008  0.3810565E+03  0.7957747E-01  0.3446571E+00
         13   -1    0    0    0    0  0.00000000000E+00  0.00000000000E+00  0.14999999963E+04  0.15000000000E+04  0.10566000000E+00 0.  1.
        994   -1    0    0    0    0 -0.00000000000E+00 -0.00000000000E+00  0.11368683772E-12  0.17120000000E+03  0.17120000000E+03 0.  0.
         13    1    1    2    0    0  0.63020268541E+01  0.94068448287E+01  0.16324722784E+02  0.19867360421E+02  0.10566000000E+00 0.  1.
        994    1    1    2    0    0 -0.18910836427E+01 -0.76374102293E+01  0.38070365815E+01  0.17142298492E+03  0.17120000000E+03 0.  0.
        998    1    1    2    0    0 -0.44109432114E+01 -0.17694345994E+01  0.14798682369E+04  0.14799096547E+04  0.10000000000E+02 0.  1.
</event>
<event>
 5    1  0.1153629E-008  0.3839849E+03  0.7957747E-01  0.3433989E+00
         13   -1    0    0    0    0  0.00000000000E+00  0.00000000000E+00  0.14999999963E+04  0.15000000000E+04  0.10566000000E+00 0.  1.
        994   -1    0    0    0    0 -0.00000000000E+00 -0.00000000000E+00  0.11368683772E-12  0.17120000000E+03  0.17120000000E+03 0.  0.
         13    1    1    2    0    0  0.63034990264E+01  0.92987967427E+01  0.29301724278E+02  0.31381585851E+02  0.10566000000E+00 0.  1.
        994    1    1    2    0    0 -0.92128685088E+01  0.64980265222E+00  0.24164651307E+01  0.17146596891E+03  0.17120000000E+03 0.  0.
        998    1    1    2    0    0  0.29093694824E+01 -0.99485993950E+01  0.14682818069E+04  0.14683524452E+04  0.10000000000E+02 0.  1.
</event>
<event>
 5    1  0.1153629E-008  0.3840627E+03  0.7957747E-01  0.3433657E+00
         13   -1    0    0    0    0  0.00000000000E+00  0.00000000000E+00  0.14999999963E+04  0.15000000000E+04  0.10566000000E+00 0. -1.
        994   -1    0    0    0    0 -0.00000000000E+00 -0.00000000000E+00  0.11368683772E-12  0.17120000000E+03  0.17120000000E+03 0.  0.
         13    1    1    2    0    0  0.25320300777E+01  0.12042708071E+02  0.35253183126E+02  0.37339470786E+02  0.10566000000E+00 0. -1.
        994    1    1    2    0    0 -0.12672876761E+02 -0.82389836005E+01  0.28502397699E+01  0.17188963472E+03  0.17120000000E+03 0.  0.
        998    1    1    2    0    0  0.10140846684E+02 -0.38037244703E+01  0.14618965734E+04  0.14619708945E+04  0.10000000000E+02 0. -1.
</event>
<event>
 5    1  0.1153629E-008  0.3802502E+03  0.7957747E-01  0.3450070E+00
         13   -1    0    0    0    0  0.00000000000E+00  0.00000000000E+00  0.14999999963E+04  0.15000000000E+04  0.10566000000E+00 0. -1.
        994   -1    0    0    0    0 -0.00000000000E+00 -0.00000000000E+00  0.11368683772E-12  0.17120000000E+03  0.17120000000E+03 0.  0.
         13    1    1    2    0    0  0.37478737702E+02 -0.39130921986E+02  0.79197682139E+02  0.95959204121E+02  0.10566000000E+00 0. -1.
        994    1    1    2    0    0 -0.40014621957E+02  0.37493973840E+02  0.27452371535E+02  0.18185169988E+03  0.17120000000E+03 0.  0.
        998    1    1    2    0    0  0.25358842549E+01  0.16369481461E+01  0.13933499426E+04  0.13933890960E+04  0.10000000000E+02 0. -1.
</event>
<event>
 5    1  0.1153629E-008  0.3798461E+03  0.7957747E-01  0.3451829E+00
         13   -1    0    0    0    0  0.00000000000E+00  0.00000000000E+00  0.14999999963E+04  0.15000000000E+04  0.10566000000E+00 0. -1.
        994   -1    0    0    0    0 -0.00000000000E+00 -0.00000000000E+00  0.11368683772E-12  0.17120000000E+03  0.17120000000E+03 0.  0.
         13    1    1    2    0    0 -0.40887155866E+01 -0.35959162853E+02  0.14239152503E+03  0.14691880939E+03  0.10566000000E+00 0. -1.
        994    1    1    2    0    0  0.11392819320E+01  0.34497313542E+02  0.82058100587E+01  0.17483746144E+03  0.17120000000E+03 0.  0.
        998    1    1    2    0    0  0.29494336546E+01  0.14618493116E+01  0.13494026612E+04  0.13494437292E+04  0.10000000000E+02 0. -1.
</event>
<event>
 5    1  0.1153629E-008  0.3808269E+03  0.7957747E-01  0.3447566E+00
         13   -1    0    0    0    0  0.00000000000E+00  0.00000000000E+00  0.14999999963E+04  0.15000000000E+04  0.10566000000E+00 0.  1.
        994   -1    0    0    0    0 -0.00000000000E+00 -0.00000000000E+00  0.11368683772E-12  0.17120000000E+03  0.17120000000E+03 0.  0.
         13    1    1    2    0    0 -0.27421466512E+02  0.15468394589E+02  0.12119806178E+03  0.12522056301E+03  0.10566000000E+00 0.  1.
        994    1    1    2    0    0  0.30045010309E+02 -0.14954235580E+02  0.74803711347E+01  0.17461880700E+03  0.17120000000E+03 0.  0.
        998    1    1    2    0    0 -0.26235437969E+01 -0.51415900860E+00  0.13713215634E+04  0.13713606300E+04  0.10000000000E+02 0.  1.
</event>
<event>
 5    1  0.1153629E-008  0.3813817E+03  0.7957747E-01  0.3445164E+00
         13   -1    0    0    0    0  0.00000000000E+00  0.00000000000E+00  0.14999999963E+04  0.15000000000E+04  0.10566000000E+00 0. -1.
        994   -1    0    0    0    0 -0.00000000000E+00 -0.00000000000E+00  0.11368683772E-12  0.17120000000E+03  0.17120000000E+03 0.  0.
         13    1    1    2    0    0 -0.96516071033E+01 -0.10411206627E+02  0.27548223488E+02  0.30991329827E+02  0.10566000000E+00 0. -1.
        994    1    1    2    0    0  0.89734304437E+00  0.19304523955E+02  0.46810846341E+01  0.17235087010E+03  0.17120000000E+03 0.  0.
        998    1    1    2    0    0  0.87542640590E+01 -0.88933173282E+01  0.14677706882E+04  0.14678578001E+04  0.10000000000E+02 0. -1.
</event>
<event>
 5    1  0.1153629E-008  0.3847576E+03  0.7957747E-01  0.3430701E+00
         13   -1    0    0    0    0  0.00000000000E+00  0.00000000000E+00  0.14999999963E+04  0.15000000000E+04  0.10566000000E+00 0.  1.
        994   -1    0    0    0    0 -0.00000000000E+00 -0.00000000000E+00  0.11368683772E-12  0.17120000000E+03  0.17120000000E+03 0.  0.
         13    1    1    2    0    0 -0.17359442120E+02 -0.13288393624E+02  0.12458743161E+03  0.12649099143E+03  0.10566000000E+00 0.  1.
        994    1    1    2    0    0  0.22120110483E+02  0.11280950544E+02  0.37824115363E+01  0.17303267255E+03  0.17120000000E+03 0.  0.
        998    1    1    2    0    0 -0.47606683629E+01  0.20074430804E+01  0.13716301531E+04  0.13716763360E+04  0.10000000000E+02 0.  1.
</event>
<event>
 5    1  0.1153629E-008  0.4198896E+03  0.7957747E-01  0.3293962E+00
         13   -1    0    0    0    0  0.00000000000E+00  0.00000000000E+00  0.14999999963E+04  0.15000000000E+04  0.10566000000E+00 0.  1.
        994   -1    0    0    0    0 -0.00000000000E+00 -0.00000000000E+00  0.11368683772E-12  0.17120000000E+03  0.17120000000E+03 0.  0.
         13    1    1    2    0    0  0.11745759137E+02  0.12425015000E+03  0.24783007068E+03  0.27748120248E+03  0.10566000000E+00 0.  1.
        994    1    1    2    0    0  0.47851957838E+02 -0.94426512558E+01  0.50460656627E+02  0.18502619112E+03  0.17120000000E+03 0.  0.
        998    1    1    2    0    0 -0.59597716976E+02 -0.11480749875E+03  0.12017092690E+04  0.12086926064E+04  0.10000000000E+02 0.  1.
</event>
<event>
 5    1  0.1153629E-008  0.3805925E+03  0.7957747E-01  0.3448583E+00
         13   -1    0    0    0    0  0.00000000000E+00  0.00000000000E+00  0.14999999963E+04  0.15000000000E+04  0.10566000000E+00 0. -1.
        994   -1    0    0    0    0 -0.00000000000E+00 -0.00000000000E+00  0.11368683772E-12  0.17120000000E+03  0.17120000000E+03 0.  0.
         13    1    1    2    0    0  0.26150780377E+02  0.32830567214E+01  0.91472345827E+02  0.95193712980E+02  0.10566000000E+00 0. -1.
        994    1    1    2    0    0 -0.12544827570E+02  0.75689222106E+01  0.45508799282E+01  0.17188604304E+03  0.17120000000E+03 0.  0.
        998    1    1    2    0    0 -0.13605952807E+02 -0.10851978932E+02  0.14039767705E+04  0.14041202440E+04  0.10000000000E+02 0. -1.
</event>
<event>
 5    1  0.1153629E-008  0.3778725E+03  0.7957747E-01  0.3460475E+00
         13   -1    0    0    0    0  0.00000000000E+00  0.00000000000E+00  0.14999999963E+04  0.15000000000E+04  0.10566000000E+00 0. -1.
        994   -1    0    0    0    0 -0.00000000000E+00 -0.00000000000E+00  0.11368683772E-12  0.17120000000E+03  0.17120000000E+03 0.  0.
         13    1    1    2    0    0  0.12978314792E+02 -0.46844377299E+02  0.74818033830E+02  0.89222091937E+02  0.10566000000E+00 0. -1.
        994    1    1    2    0    0  0.21130650904E+02  0.28929876474E+02  0.19792063588E+02  0.17602445268E+03  0.17120000000E+03 0.  0.
        998    1    1    2    0    0 -0.34108965697E+02  0.17914500826E+02  0.14053898989E+04  0.14059534554E+04  0.10000000000E+02 0. -1.
</event>
<event>
 5    1  0.1153629E-008  0.3830612E+03  0.7957747E-01  0.3437937E+00
         13   -1    0    0    0    0  0.00000000000E+00  0.00000000000E+00  0.14999999963E+04  0.15000000000E+04  0.10566000000E+00 0.  1.
        994   -1    0    0    0    0 -0.00000000000E+00 -0.00000000000E+00  0.11368683772E-12  0.17120000000E+03  0.17120000000E+03 0.  0.
         13    1    1    2    0    0  0.17830954361E+01  0.13791626875E+02  0.39542921968E+02  0.41917087721E+02  0.10566000000E+00 0.  1.
        994    1    1    2    0    0 -0.45769030367E+02  0.15546895882E+02  0.10367122757E+02  0.17819491392E+03  0.17120000000E+03 0.  0.
        998    1    1    2    0    0  0.43985934931E+02 -0.29338522757E+02  0.14500899516E+04  0.14510879984E+04  0.10000000000E+02 0.  1.
</event>
<event>
 5    1  0.1153629E-008  0.3506261E+03  0.7957747E-01  0.3589960E+00
         13   -1    0    0    0    0  0.00000000000E+00  0.00000000000E+00  0.14999999963E+04  0.15000000000E+04  0.10566000000E+00 0. -1.
        994   -1    0    0    0    0 -0.00000000000E+00 -0.00000000000E+00  0.11368683772E-12  0.17120000000E+03  0.17120000000E+03 0.  0.
         13    1    1    2    0    0 -0.15195425895E+03  0.25434324878E+03  0.78458076698E+03  0.83865819980E+03  0.10566000000E+00 0. -1.
        994    1    1    2    0    0  0.15626742786E+03 -0.22919786632E+03  0.40031670095E+03  0.51625000920E+03  0.17120000000E+03 0.  0.
        998    1    1    2    0    0 -0.43131689119E+01 -0.25145382463E+02  0.31510252835E+03  0.31629179100E+03  0.10000000000E+02 0.  1.
</event>
<event>
 5    1  0.1190193E-008  0.3859685E+03  0.7957747E-01  0.3425575E+00
         13   -1    0    0    0    0  0.00000000000E+00  0.00000000000E+00  0.14999999963E+04  0.15000000000E+04  0.10566000000E+00 0.  1.
        994   -1    0    0    0    0 -0.00000000000E+00 -0.00000000000E+00  0.11368683772E-12  0.17120000000E+03  0.17120000000E+03 0.  0.
         13    1    1    2    0    0  0.89421528765E+01  0.92812422495E+01  0.77466673642E+02  0.78531523893E+02  0.10566000000E+00 0.  1.
        994    1    1    2    0    0 -0.59267452315E+01  0.37154170803E+01  0.13105051988E+01  0.17134785688E+03  0.17120000000E+03 0.  0.
        998    1    1    2    0    0 -0.30154076450E+01 -0.12996659330E+02  0.14212228174E+04  0.14213206192E+04  0.10000000000E+02 0.  1.
</event>
<event>
 5    1  0.1153629E-008  0.3691746E+03  0.7957747E-01  0.3499693E+00
         13   -1    0    0    0    0  0.00000000000E+00  0.00000000000E+00  0.14999999963E+04  0.15000000000E+04  0.10566000000E+00 0. -1.
        994   -1    0    0    0    0 -0.00000000000E+00 -0.00000000000E+00  0.11368683772E-12  0.17120000000E+03  0.17120000000E+03 0.  0.
         13    1    1    2    0    0  0.93307379218E+01 -0.10191870586E+02  0.42006691442E+01  0.14442772639E+02  0.10566000000E+00 0. -1.
        994    1    1    2    0    0 -0.80242899141E+01  0.14945383464E+02  0.11506702145E+02  0.17242273026E+03  0.17120000000E+03 0.  0.
        998    1    1    2    0    0 -0.13064480077E+01 -0.47535128776E+01  0.14842926250E+04  0.14843344971E+04  0.10000000000E+02 0. -1.
</event>
<event>
 5    1  0.1153629E-008  0.3793158E+03  0.7957747E-01  0.3454143E+00
         13   -1    0    0    0    0  0.00000000000E+00  0.00000000000E+00  0.14999999963E+04  0.15000000000E+04  0.10566000000E+00 0.  1.
        994   -1    0    0    0    0 -0.00000000000E+00 -0.00000000000E+00  0.11368683772E-12  0.17120000000E+03  0.17120000000E+03 0.  0.
         13    1    1    2    0    0 -0.27497958247E+02 -0.13891103340E+02  0.98703557630E+02  0.10339972878E+03  0.10566000000E+00 0.  1.
        994    1    1    2    0    0  0.28230937764E+02  0.10917153490E+02  0.75546077842E+01  0.17401920062E+03  0.17120000000E+03 0.  0.
        998    1    1    2    0    0 -0.73297951707E+00  0.29739498494E+01  0.13937418309E+04  0.13937810706E+04  0.10000000000E+02 0.  1.
</event>
<event>
 5    1  0.1153629E-008  0.3807319E+03  0.7957747E-01  0.3447978E+00
         13   -1    0    0    0    0  0.00000000000E+00  0.00000000000E+00  0.14999999963E+04  0.15000000000E+04  0.10566000000E+00 0.  1.
        994   -1    0    0    0    0 -0.00000000000E+00 -0.00000000000E+00  0.11368683772E-12  0.17120000000E+03  0.17120000000E+03 0.  0.
         13    1    1    2    0    0 -0.16519531281E+02 -0.24120525292E+02  0.10163674774E+03  0.10575790424E+03  0.10566000000E+00 0.  1.
        994    1    1    2    0    0  0.26768432578E+02  0.25771958173E+02  0.83824566518E+01  0.17538656844E+03  0.17120000000E+03 0.  0.
        998    1    1    2    0    0 -0.10248901297E+02 -0.16514328813E+01  0.13899807919E+04  0.13900555273E+04  0.10000000000E+02 0.  1.
</event>
<event>
 5    1  0.1153629E-008  0.3786911E+03  0.7957747E-01  0.3456878E+00
         13   -1    0    0    0    0  0.00000000000E+00  0.00000000000E+00  0.14999999963E+04  0.15000000000E+04  0.10566000000E+00 0.  1.
        994   -1    0    0    0    0 -0.00000000000E+00 -0.00000000000E+00  0.11368683772E-12  0.17120000000E+03  0.17120000000E+03 0.  0.
         13    1    1    2    0    0  0.51461876586E+02 -0.23682744265E+02  0.33536347251E+03  0.34011449098E+03  0.10566000000E+00 0.  1.
        994    1    1    2    0    0 -0.35324748737E+02 -0.43773150093E+00  0.89969193888E+01  0.17503832163E+03  0.17120000000E+03 0.  0.
        998    1    1    2    0    0 -0.16137127849E+02  0.24120475766E+02  0.11556396044E+04  0.11560471874E+04  0.10000000000E+02 0.  1.
</event>
<event>
 5    1  0.1153629E-008  0.3792012E+03  0.7957747E-01  0.3454644E+00
         13   -1    0    0    0    0  0.00000000000E+00  0.00000000000E+00  0.14999999963E+04  0.15000000000E+04  0.10566000000E+00 0.  1.
        994   -1    0    0    0    0 -0.00000000000E+00 -0.00000000000E+00  0.11368683772E-12  0.17120000000E+03  0.17120000000E+03 0.  0.
         13    1    1    2    0    0 -0.24777140451E+02 -0.45937025576E+01  0.66915600992E+02  0.71503269941E+02  0.10566000000E+00 0.  1.
        994    1    1    2    0    0  0.19843124010E+02  0.83727735124E+01  0.60931795496E+01  0.17265694236E+03  0.17120000000E+03 0.  0.
        998    1    1    2    0    0  0.49340164419E+01 -0.37790709548E+01  0.14269912157E+04  0.14270397877E+04  0.10000000000E+02 0.  1.
</event>
<event>
 5    1  0.1669020E-008  0.3864851E+03  0.7957747E-01  0.3423398E+00
         13   -1    0    0    0    0  0.00000000000E+00  0.00000000000E+00  0.14999999963E+04  0.15000000000E+04  0.10566000000E+00 0. -1.
        994   -1    0    0    0    0 -0.00000000000E+00 -0.00000000000E+00  0.11368683772E-12  0.17120000000E+03  0.17120000000E+03 0.  0.
         13    1    1    2    0    0 -0.78661135498E+01  0.77226339172E+01  0.66496010184E+02  0.67403600434E+02  0.10566000000E+00 0. -1.
        994    1    1    2    0    0  0.10686705063E+02 -0.67083917590E+01  0.14158228370E+01  0.17167018594E+03  0.17120000000E+03 0.  0.
        998    1    1    2    0    0 -0.28205915133E+01 -0.10142421582E+01  0.14320881633E+04  0.14321262136E+04  0.10000000000E+02 0. -1.
</event>
<event>
 5    1  0.1153629E-008  0.3751079E+03  0.7957747E-01  0.3472740E+00
         13   -1    0    0    0    0  0.00000000000E+00  0.00000000000E+00  0.14999999963E+04  0.15000000000E+04  0.10566000000E+00 0.  1.
        994   -1    0    0    0    0 -0.00000000000E+00 -0.00000000000E+00  0.11368683772E-12  0.17120000000E+03  0.17120000000E+03 0.  0.
         13    1    1    2    0    0 -0.34837295048E+02 -0.20250638759E+01  0.82989853118E+02  0.90028133906E+02  0.10566000000E+00 0.  1.
        994    1    1    2    0    0  0.40630626362E+02  0.11035148054E+02  0.12670507542E+02  0.17675577516E+03  0.17120000000E+03 0.  0.
        998    1    1    2    0    0 -0.57933313143E+01 -0.90100841777E+01  0.14043396356E+04  0.14044160909E+04  0.10000000000E+02 0.  1.
</event>
<event>
 5    1  0.1153629E-008  0.3773518E+03  0.7957747E-01  0.3462771E+00
         13   -1    0    0    0    0  0.00000000000E+00  0.00000000000E+00  0.14999999963E+04  0.15000000000E+04  0.10566000000E+00 0. -1.
        994   -1    0    0    0    0 -0.00000000000E+00 -0.00000000000E+00  0.11368683772E-12  0.17120000000E+03  0.17120000000E+03 0.  0.
         13    1    1    2    0    0 -0.86923720479E+02 -0.29698650389E+02  0.43789297747E+03  0.44742375205E+03  0.10566000000E+00 0. -1.
        994    1    1    2    0    0  0.10599370238E+03  0.32816525921E+02  0.48191004690E+02  0.20962681663E+03  0.17120000000E+03 0.  0.
        998    1    1    2    0    0 -0.19069981902E+02 -0.31178755319E+01  0.10139160141E+04  0.10141494313E+04  0.10000000000E+02 0. -1.
</event>
<event>
 5    1  0.1153629E-008  0.3821045E+03  0.7957747E-01  0.3442046E+00
         13   -1    0    0    0    0  0.00000000000E+00  0.00000000000E+00  0.14999999963E+04  0.15000000000E+04  0.10566000000E+00 0.  1.
        994   -1    0    0    0    0 -0.00000000000E+00 -0.00000000000E+00  0.11368683772E-12  0.17120000000E+03  0.17120000000E+03 0.  0.
         13    1    1    2    0    0  0.97008691759E+01  0.78214054713E+01  0.23765552049E+02  0.26834564921E+02  0.10566000000E+00 0.  1.
        994    1    1    2    0    0 -0.84823814959E+01 -0.99257632336E+01  0.36407158974E+01  0.17173574580E+03  0.17120000000E+03 0.  0.
        998    1    1    2    0    0 -0.12184876800E+01  0.21043577623E+01  0.14725937283E+04  0.14726296893E+04  0.10000000000E+02 0.  1.
</event>
<event>
 5    1  0.1153629E-008  0.3835294E+03  0.7957747E-01  0.3435933E+00
         13   -1    0    0    0    0  0.00000000000E+00  0.00000000000E+00  0.14999999963E+04  0.15000000000E+04  0.10566000000E+00 0. -1.
        994   -1    0    0    0    0 -0.00000000000E+00 -0.00000000000E+00  0.11368683772E-12  0.17120000000E+03  0.17120000000E+03 0.  0.
         13    1    1    2    0    0  0.61027400851E+01  0.98864751771E+01  0.29325663261E+02  0.31543486138E+02  0.10566000000E+00 0. -1.
        994    1    1    2    0    0 -0.11978081557E+01  0.78344755088E+01  0.25696302394E+01  0.17140261594E+03  0.17120000000E+03 0.  0.
        998    1    1    2    0    0 -0.49049319294E+01 -0.17720950686E+02  0.14681047028E+04  0.14682538979E+04  0.10000000000E+02 0. -1.
</event>
<event>
 5    1  0.1153629E-008  0.3842415E+03  0.7957747E-01  0.3432896E+00
         13   -1    0    0    0    0  0.00000000000E+00  0.00000000000E+00  0.14999999963E+04  0.15000000000E+04  0.10566000000E+00 0. -1.
        994   -1    0    0    0    0 -0.00000000000E+00 -0.00000000000E+00  0.11368683772E-12  0.17120000000E+03  0.17120000000E+03 0.  0.
         13    1    1    2    0    0 -0.59313420961E+01  0.88640008840E+01  0.24148136791E+02  0.26398769010E+02  0.10566000000E+00 0. -1.
        994    1    1    2    0    0 -0.42592251982E+01 -0.57909372613E+02  0.13202899453E+02  0.18126056656E+03  0.17120000000E+03 0.  0.
        998    1    1    2    0    0  0.10190567294E+02  0.49045371729E+02  0.14626489600E+04  0.14635406644E+04  0.10000000000E+02 0. -1.
</event>
<event>
 5    1  0.1153629E-008  0.3757155E+03  0.7957747E-01  0.3470029E+00
         13   -1    0    0    0    0  0.00000000000E+00  0.00000000000E+00  0.14999999963E+04  0.15000000000E+04  0.10566000000E+00 0.  1.
        994   -1    0    0    0    0 -0.00000000000E+00 -0.00000000000E+00  0.11368683772E-12  0.17120000000E+03  0.17120000000E+03 0.  0.
         13    1    1    2    0    0 -0.11349309075E+02  0.12553468792E+02  0.19867433588E+02  0.26098323253E+02  0.10566000000E+00 0.  1.
        994    1    1    2    0    0  0.78940585691E+01 -0.12207417956E+02  0.70287424330E+01  0.17195982215E+03  0.17120000000E+03 0.  0.
        998    1    1    2    0    0  0.34552505058E+01 -0.34605083658E+00  0.14731038203E+04  0.14731418546E+04  0.10000000000E+02 0.  1.
</event>
<event>
 5    1  0.1153629E-008  0.3723903E+03  0.7957747E-01  0.3484977E+00
         13   -1    0    0    0    0  0.00000000000E+00  0.00000000000E+00  0.14999999963E+04  0.15000000000E+04  0.10566000000E+00 0. -1.
        994   -1    0    0    0    0 -0.00000000000E+00 -0.00000000000E+00  0.11368683772E-12  0.17120000000E+03  0.17120000000E+03 0.  0.
         13    1    1    2    0    0 -0.11747993639E+00 -0.22280296907E+02  0.27025628510E+02  0.35026007369E+02  0.10566000000E+00 0. -1.
        994    1    1    2    0    0 -0.10041941299E+02  0.23726446307E+02  0.10304727805E+02  0.17343417268E+03  0.17120000000E+03 0.  0.
        998    1    1    2    0    0  0.10159421236E+02 -0.14461493999E+01  0.14626696400E+04  0.14627398199E+04  0.10000000000E+02 0. -1.
</event>
<event>
 5    1  0.1153629E-008  0.3685263E+03  0.7957747E-01  0.3502691E+00
         13   -1    0    0    0    0  0.00000000000E+00  0.00000000000E+00  0.14999999963E+04  0.15000000000E+04  0.10566000000E+00 0. -1.
        994   -1    0    0    0    0 -0.00000000000E+00 -0.00000000000E+00  0.11368683772E-12  0.17120000000E+03  0.17120000000E+03 0.  0.
         13    1    1    2    0    0  0.30638755819E+02 -0.20637538890E+02  0.64194390762E+02  0.74064649725E+02  0.10566000000E+00 0. -1.
        994    1    1    2    0    0 -0.21699728381E+02  0.11535577284E+02  0.12143166530E+02  0.17338063401E+03  0.17120000000E+03 0.  0.
        998    1    1    2    0    0 -0.89390274380E+01  0.91019616059E+01  0.14236624390E+04  0.14237547163E+04  0.10000000000E+02 0. -1.
</event>
<event>
 5    1  0.1153629E-008  0.3849780E+03  0.7957747E-01  0.3429766E+00
         13   -1    0    0    0    0  0.00000000000E+00  0.00000000000E+00  0.14999999963E+04  0.15000000000E+04  0.10566000000E+00 0.  1.
        994   -1    0    0    0    0 -0.00000000000E+00 -0.00000000000E+00  0.11368683772E-12  0.17120000000E+03  0.17120000000E+03 0.  0.
         13    1    1    2    0    0  0.14723405989E+02  0.11764384650E+01  0.68049560064E+02  0.69634161733E+02  0.10566000000E+00 0.  1.
        994    1    1    2    0    0 -0.53864219299E+01 -0.11037992725E+02  0.21373693591E+01  0.17165331099E+03  0.17120000000E+03 0.  0.
        998    1    1    2    0    0 -0.93369840590E+01  0.98615542604E+01  0.14298130669E+04  0.14299125273E+04  0.10000000000E+02 0.  1.
</event>
<event>
 5    1  0.1153629E-008  0.3856272E+03  0.7957747E-01  0.3427016E+00
         13   -1    0    0    0    0  0.00000000000E+00  0.00000000000E+00  0.14999999963E+04  0.15000000000E+04  0.10566000000E+00 0. -1.
        994   -1    0    0    0    0 -0.00000000000E+00 -0.00000000000E+00  0.11368683772E-12  0.17120000000E+03  0.17120000000E+03 0.  0.
         13    1    1    2    0    0  0.92296049880E+01  0.77004148432E+01  0.54895600645E+02  0.56196264388E+02  0.10566000000E+00 0. -1.
        994    1    1    2    0    0 -0.63571183509E+01 -0.59035294087E+01  0.15661007377E+01  0.17142682779E+03  0.17120000000E+03 0.  0.
        998    1    1    2    0    0 -0.28724866372E+01 -0.17968854345E+01  0.14435382949E+04  0.14435769078E+04  0.10000000000E+02 0. -1.
</event>
<event>
 5    1  0.1153629E-008  0.3913995E+03  0.7957747E-01  0.3402977E+00
         13   -1    0    0    0    0  0.00000000000E+00  0.00000000000E+00  0.14999999963E+04  0.15000000000E+04  0.10566000000E+00 0. -1.
        994   -1    0    0    0    0 -0.00000000000E+00 -0.00000000000E+00  0.11368683772E-12  0.17120000000E+03  0.17120000000E+03 0.  0.
         13    1    1    2    0    0  0.24475615283E+02 -0.18944493499E+02  0.12169193612E+02  0.33257330239E+02  0.10566000000E+00 0. -1.
        994    1    1    2    0    0 -0.17194377590E+02 -0.67153516525E+01  0.24025599310E+02  0.17386032322E+03  0.17120000000E+03 0.  0.
        998    1    1    2    0    0 -0.72812376933E+01  0.25659845152E+02  0.14638052034E+04  0.14640823465E+04  0.10000000000E+02 0. -1.
</event>
<event>
 5    1  0.1153629E-008  0.3824627E+03  0.7957747E-01  0.3440505E+00
         13   -1    0    0    0    0  0.00000000000E+00  0.00000000000E+00  0.14999999963E+04  0.15000000000E+04  0.10566000000E+00 0.  1.
        994   -1    0    0    0    0 -0.00000000000E+00 -0.00000000000E+00  0.11368683772E-12  0.17120000000E+03  0.17120000000E+03 0.  0.
         13    1    1    2    0    0 -0.23646426211E+02  0.11529753908E+02  0.12848200843E+03  0.13114772721E+03  0.10566000000E+00 0.  1.
        994    1    1    2    0    0 -0.10849524689E+02 -0.36858983484E+02  0.78059223170E+01  0.17563219885E+03  0.17120000000E+03 0.  0.
        998    1    1    2    0    0  0.34495950900E+02  0.25329229576E+02  0.13637120655E+04  0.13644200739E+04  0.10000000000E+02 0.  1.
</event>
<event>
 5    1  0.1153629E-008  0.3854894E+03  0.7957747E-01  0.3427599E+00
         13   -1    0    0    0    0  0.00000000000E+00  0.00000000000E+00  0.14999999963E+04  0.15000000000E+04  0.10566000000E+00 0. -1.
        994   -1    0    0    0    0 -0.00000000000E+00 -0.00000000000E+00  0.11368683772E-12  0.17120000000E+03  0.17120000000E+03 0.  0.
         13    1    1    2    0    0  0.10503953485E+02 -0.93807446161E+01  0.78412854038E+02  0.79667548291E+02  0.10566000000E+00 0. -1.
        994    1    1    2    0    0  0.10584902142E+02  0.89820184404E+01  0.20204032709E+01  0.17177380137E+03  0.17120000000E+03 0.  0.
        998    1    1    2    0    0 -0.21088855627E+02  0.39872617566E+00  0.14195667390E+04  0.14197586503E+04  0.10000000000E+02 0. -1.
</event>
<event>
 5    1  0.1153629E-008  0.3795444E+03  0.7957747E-01  0.3453145E+00
         13   -1    0    0    0    0  0.00000000000E+00  0.00000000000E+00  0.14999999963E+04  0.15000000000E+04  0.10566000000E+00 0. -1.
        994   -1    0    0    0    0 -0.00000000000E+00 -0.00000000000E+00  0.11368683772E-12  0.17120000000E+03  0.17120000000E+03 0.  0.
         13    1    1    2    0    0  0.27090318047E+02  0.10743427160E+02  0.76010179175E+02  0.81405559155E+02  0.10566000000E+00 0. -1.
        994    1    1    2    0    0 -0.56443620338E+02 -0.50887839970E+02  0.23948419602E+02  0.18883437541E+03  0.17120000000E+03 0.  0.
        998    1    1    2    0    0  0.29353302290E+02  0.40144412810E+02  0.14000413975E+04  0.14009600654E+04  0.10000000000E+02 0. -1.
</event>
<event>
 5    1  0.1153629E-008  0.3833017E+03  0.7957747E-01  0.3436907E+00
         13   -1    0    0    0    0  0.00000000000E+00  0.00000000000E+00  0.14999999963E+04  0.15000000000E+04  0.10566000000E+00 0. -1.
        994   -1    0    0    0    0 -0.00000000000E+00 -0.00000000000E+00  0.11368683772E-12  0.17120000000E+03  0.17120000000E+03 0.  0.
         13    1    1    2    0    0 -0.10611378525E+01  0.14500552745E+02  0.40921820672E+02  0.43428085550E+02  0.10566000000E+00 0. -1.
        994    1    1    2    0    0 -0.15654206174E+02 -0.16991456335E+02  0.42427294147E+01  0.17280394820E+03  0.17120000000E+03 0.  0.
        998    1    1    2    0    0  0.16715344026E+02  0.24909035903E+01  0.14548354462E+04  0.14549679663E+04  0.10000000000E+02 0. -1.
</event>
<event>
 5    1  0.1153629E-008  0.3837838E+03  0.7957747E-01  0.3434846E+00
         13   -1    0    0    0    0  0.00000000000E+00  0.00000000000E+00  0.14999999963E+04  0.15000000000E+04  0.10566000000E+00 0.  1.
        994   -1    0    0    0    0 -0.00000000000E+00 -0.00000000000E+00  0.11368683772E-12  0.17120000000E+03  0.17120000000E+03 0.  0.
         13    1    1    2    0    0  0.59054429024E+01  0.22389439712E+02  0.11671977371E+03  0.11899444527E+03  0.10566000000E+00 0.  1.
        994    1    1    2    0    0  0.12059109467E+02 -0.21622570652E+02  0.42615455096E+01  0.17303340271E+03  0.17120000000E+03 0.  0.
        998    1    1    2    0    0 -0.17964552369E+02 -0.76686905992E+00  0.13790186771E+04  0.13791721520E+04  0.10000000000E+02 0.  1.
</event>
<event>
 5    1  0.1153629E-008  0.3777083E+03  0.7957747E-01  0.3461198E+00
         13   -1    0    0    0    0  0.00000000000E+00  0.00000000000E+00  0.14999999963E+04  0.15000000000E+04  0.10566000000E+00 0.  1.
        994   -1    0    0    0    0 -0.00000000000E+00 -0.00000000000E+00  0.11368683772E-12  0.17120000000E+03  0.17120000000E+03 0.  0.
         13    1    1    2    0    0 -0.29682227057E+02  0.15139606919E+03  0.75448651804E+03  0.77009851412E+03  0.10566000000E+00 0.  1.
        994    1    1    2    0    0  0.52315636180E+02 -0.16409162441E+03  0.11277317237E+03  0.26775028552E+03  0.17120000000E+03 0.  0.
        998    1    1    2    0    0 -0.22633409123E+02  0.12695555215E+02  0.63274030587E+03  0.63335120036E+03  0.10000000000E+02 0. -1.
</event>
<event>
 5    1  0.1153629E-008  0.3745488E+03  0.7957747E-01  0.3475243E+00
         13   -1    0    0    0    0  0.00000000000E+00  0.00000000000E+00  0.14999999963E+04  0.15000000000E+04  0.10566000000E+00 0. -1.
        994   -1    0    0    0    0 -0.00000000000E+00 -0.00000000000E+00  0.11368683772E-12  0.17120000000E+03  0.17120000000E+03 0.  0.
         13    1    1    2    0    0 -0.23017976598E+02 -0.28847318960E+02  0.91364778274E+02  0.98536941960E+02  0.10566000000E+00 0. -1.
        994    1    1    2    0    0  0.19505894024E+02  0.29691692691E+02  0.11219313302E+02  0.17520670509E+03  0.17120000000E+03 0.  0.
        998    1    1    2    0    0  0.35120825739E+01 -0.84437373138E+00  0.13974159047E+04  0.13974563530E+04  0.10000000000E+02 0.  1.
</event>
<event>
 5    1  0.1377228E-008  0.3851056E+03  0.7957747E-01  0.3429225E+00
         13   -1    0    0    0    0  0.00000000000E+00  0.00000000000E+00  0.14999999963E+04  0.15000000000E+04  0.10566000000E+00 0.  1.
        994   -1    0    0    0    0 -0.00000000000E+00 -0.00000000000E+00  0.11368683772E-12  0.17120000000E+03  0.17120000000E+03 0.  0.
         13    1    1    2    0    0  0.11788599360E+02 -0.72681038379E+01  0.62121712107E+02  0.63646796364E+02  0.10566000000E+00 0.  1.
        994    1    1    2    0    0 -0.67152406924E+01  0.31611634896E+00  0.17263208552E+01  0.17134063899E+03  0.17120000000E+03 0.  0.
        998    1    1    2    0    0 -0.50733586679E+01  0.69519874889E+01  0.14361519633E+04  0.14362125646E+04  0.10000000000E+02 0.  1.
</event>
<event>
 5    1  0.1153629E-008  0.3854235E+03  0.7957747E-01  0.3427878E+00
         13   -1    0    0    0    0  0.00000000000E+00  0.00000000000E+00  0.14999999963E+04  0.15000000000E+04  0.10566000000E+00 0.  1.
        994   -1    0    0    0    0 -0.00000000000E+00 -0.00000000000E+00  0.11368683772E-12  0.17120000000E+03  0.17120000000E+03 0.  0.
         13    1    1    2    0    0  0.11265238840E+02 -0.10405031965E+02  0.80810702427E+02  0.82252970081E+02  0.10566000000E+00 0.  1.
        994    1    1    2    0    0 -0.64893704688E+01  0.13399312624E+02  0.21483208210E+01  0.17185956124E+03  0.17120000000E+03 0.  0.
        998    1    1    2    0    0 -0.47758683708E+01 -0.29942806587E+01  0.14170409730E+04  0.14170874687E+04  0.10000000000E+02 0.  1.
</event>
<event>
 5    1  0.1153629E-008  0.3782200E+03  0.7957747E-01  0.3458946E+00
         13   -1    0    0    0    0  0.00000000000E+00  0.00000000000E+00  0.14999999963E+04  0.15000000000E+04  0.10566000000E+00 0. -1.
        994   -1    0    0    0    0 -0.00000000000E+00 -0.00000000000E+00  0.11368683772E-12  0.17120000000E+03  0.17120000000E+03 0.  0.
         13    1    1    2    0    0  0.41165193917E+02 -0.21926161919E+02  0.18782268545E+03  0.19352700613E+03  0.10566000000E+00 0. -1.
        994    1    1    2    0    0 -0.38297456997E+02  0.29396737321E+02  0.12912729491E+02  0.17834528859E+03  0.17120000000E+03 0.  0.
        998    1    1    2    0    0 -0.28677369197E+01 -0.74705754025E+01  0.12992645813E+04  0.12993277053E+04  0.10000000000E+02 0. -1.
</event>
<event>
 5    1  0.1153629E-008  0.3780029E+03  0.7957747E-01  0.3459901E+00
         13   -1    0    0    0    0  0.00000000000E+00  0.00000000000E+00  0.14999999963E+04  0.15000000000E+04  0.10566000000E+00 0.  1.
        994   -1    0    0    0    0 -0.00000000000E+00 -0.00000000000E+00  0.11368683772E-12  0.17120000000E+03  0.17120000000E+03 0.  0.
         13    1    1    2    0    0 -0.34446688281E+02  0.43008610481E+01  0.12425004651E+03  0.12900836004E+03  0.10566000000E+00 0.  1.
        994    1    1    2    0    0  0.75951738601E+01  0.69195939887E+01  0.54999924487E+01  0.17159620440E+03  0.17120000000E+03 0.  0.
        998    1    1    2    0    0  0.26851514421E+02 -0.11220455037E+02  0.13702499573E+04  0.13705954356E+04  0.10000000000E+02 0.  1.
</event>
<event>
 5    1  0.1153629E-008  0.4084231E+03  0.7957747E-01  0.3336026E+00
         13   -1    0    0    0    0  0.00000000000E+00  0.00000000000E+00  0.14999999963E+04  0.15000000000E+04  0.10566000000E+00 0. -1.
        994   -1    0    0    0    0 -0.00000000000E+00 -0.00000000000E+00  0.11368683772E-12  0.17120000000E+03  0.17120000000E+03 0.  0.
         13    1    1    2    0    0  0.95296737270E+02  0.17382791987E+02  0.11976645662E+03  0.15403780343E+03  0.10566000000E+00 0. -1.
        994    1    1    2    0    0 -0.96303834376E+02 -0.42650105318E+02  0.79517311255E+02  0.21616175145E+03  0.17120000000E+03 0.  0.
        998    1    1    2    0    0  0.10070971056E+01  0.25267313331E+02  0.13007162284E+04  0.13010004451E+04  0.10000000000E+02 0. -1.
</event>
<event>
 5    1  0.1153629E-008  0.3804419E+03  0.7957747E-01  0.3449237E+00
         13   -1    0    0    0    0  0.00000000000E+00  0.00000000000E+00  0.14999999963E+04  0.15000000000E+04  0.10566000000E+00 0. -1.
        994   -1    0    0    0    0 -0.00000000000E+00 -0.00000000000E+00  0.11368683772E-12  0.17120000000E+03  0.17120000000E+03 0.  0.
         13    1    1    2    0    0 -0.21555983545E+02  0.42282909061E+02  0.25037573989E+03  0.25483431306E+03  0.10566000000E+00 0. -1.
        994    1    1    2    0    0  0.34975053995E+02 -0.31228261021E+02  0.11283925192E+02  0.17786294065E+03  0.17120000000E+03 0.  0.
        998    1    1    2    0    0 -0.13419070449E+02 -0.11054648040E+02  0.12383403312E+04  0.12385027463E+04  0.10000000000E+02 0. -1.
</event>
<event>
 5    1  0.1153629E-008  0.3807510E+03  0.7957747E-01  0.3447895E+00
         13   -1    0    0    0    0  0.00000000000E+00  0.00000000000E+00  0.14999999963E+04  0.15000000000E+04  0.10566000000E+00 0.  1.
        994   -1    0    0    0    0 -0.00000000000E+00 -0.00000000000E+00  0.11368683772E-12  0.17120000000E+03  0.17120000000E+03 0.  0.
         13    1    1    2    0    0 -0.28202726980E+02 -0.14014071055E+02  0.12481074480E+03  0.12872265215E+03  0.10566000000E+00 0.  1.
        994    1    1    2    0    0  0.12511409656E+02  0.36498482689E+02  0.87346917113E+01  0.17571115346E+03  0.17120000000E+03 0.  0.
        998    1    1    2    0    0  0.15691317324E+02 -0.22484411634E+02  0.13664545598E+04  0.13667661944E+04  0.10000000000E+02 0.  1.
</event>
<event>
 5    1  0.1153629E-008  0.3839571E+03  0.7957747E-01  0.3434107E+00
         13   -1    0    0    0    0  0.00000000000E+00  0.00000000000E+00  0.14999999963E+04  0.15000000000E+04  0.10566000000E+00 0. -1.
        994   -1    0    0    0    0 -0.00000000000E+00 -0.00000000000E+00  0.11368683772E-12  0.17120000000E+03  0.17120000000E+03 0.  0.
         13    1    1    2    0    0  0.45753723170E+01  0.21002105762E+02  0.11645806463E+03  0.11842514285E+03  0.10566000000E+00 0. -1.
        994    1    1    2    0    0  0.73820474877E+01 -0.40354908582E+01  0.23823828103E+01  0.17142314768E+03  0.17120000000E+03 0.  0.
        998    1    1    2    0    0 -0.11957419805E+02 -0.16966614904E+02  0.13811595488E+04  0.13813517095E+04  0.10000000000E+02 0. -1.
</event>
<event>
 5    1  0.1153629E-008  0.3844926E+03  0.7957747E-01  0.3431827E+00
         13   -1    0    0    0    0  0.00000000000E+00  0.00000000000E+00  0.14999999963E+04  0.15000000000E+04  0.10566000000E+00 0. -1.
        994   -1    0    0    0    0 -0.00000000000E+00 -0.00000000000E+00  0.11368683772E-12  0.17120000000E+03  0.17120000000E+03 0.  0.
         13    1    1    2    0    0 -0.87606344917E+01 -0.68876925311E+01  0.33067952570E+02  0.34895410533E+02  0.10566000000E+00 0. -1.
        994    1    1    2    0    0  0.54374137948E+01 -0.72107687639E-01  0.19796668500E+01  0.17129778092E+03  0.17120000000E+03 0.  0.
        998    1    1    2    0    0  0.33232206969E+01  0.69598002187E+01  0.14649523769E+04  0.14650068085E+04  0.10000000000E+02 0. -1.
</event>
<event>
 5    1  0.1153629E-008  0.3800971E+03  0.7957747E-01  0.3450736E+00
         13   -1    0    0    0    0  0.00000000000E+00  0.00000000000E+00  0.14999999963E+04  0.15000000000E+04  0.10566000000E+00 0. -1.
        994   -1    0    0    0    0 -0.00000000000E+00 -0.00000000000E+00  0.11368683772E-12  0.17120000000E+03  0.17120000000E+03 0.  0.
         13    1    1    2    0    0  0.63449258224E+02  0.27019775254E+02  0.12505658438E+03  0.14281119384E+03  0.10566000000E+00 0. -1.
        994    1    1    2    0    0 -0.67918751811E+02 -0.36147367451E+02  0.38165604515E+02  0.19153496388E+03  0.17120000000E+03 0.  0.
        998    1    1    2    0    0  0.44694935868E+01  0.91275921977E+01  0.13367778074E+04  0.13368538423E+04  0.10000000000E+02 0. -1.
</event>
<event>
 5    1  0.1153629E-008  0.3851495E+03  0.7957747E-01  0.3429038E+00
         13   -1    0    0    0    0  0.00000000000E+00  0.00000000000E+00  0.14999999963E+04  0.15000000000E+04  0.10566000000E+00 0. -1.
        994   -1    0    0    0    0 -0.00000000000E+00 -0.00000000000E+00  0.11368683772E-12  0.17120000000E+03  0.17120000000E+03 0.  0.
         13    1    1    2    0    0  0.24518649863E+01  0.12167876620E+02  0.49301620479E+02  0.50840238092E+02  0.10566000000E+00 0. -1.
        994    1    1    2    0    0 -0.29710678754E+01 -0.87034306539E+01  0.18340014249E+01  0.17145664324E+03  0.17120000000E+03 0.  0.
        998    1    1    2    0    0  0.51920288915E+00 -0.34644459660E+01  0.14488643744E+04  0.14489031187E+04  0.10000000000E+02 0. -1.
</event>
<event>
 5    1  0.1153629E-008  0.3840127E+03  0.7957747E-01  0.3433870E+00
         13   -1    0    0    0    0  0.00000000000E+00  0.00000000000E+00  0.14999999963E+04  0.15000000000E+04  0.10566000000E+00 0.  1.
        994   -1    0    0    0    0 -0.00000000000E+00 -0.00000000000E+00  0.11368683772E-12  0.17120000000E+03  0.17120000000E+03 0.  0.
         13    1    1    2    0    0 -0.12147529566E+02  0.18606369850E+02  0.12005150101E+03  0.12209067750E+03  0.10566000000E+00 0.  1.
        994    1    1    2    0    0  0.34275133026E+01 -0.87880058446E+01  0.24147240523E+01  0.17147666834E+03  0.17120000000E+03 0.  0.
        998    1    1    2    0    0  0.87200162637E+01 -0.98183640053E+01  0.13775337712E+04  0.13776326542E+04  0.10000000000E+02 0.  1.
</event>
<event>
 5    1  0.1153629E-008  0.3805892E+03  0.7957747E-01  0.3448597E+00
         13   -1    0    0    0    0  0.00000000000E+00  0.00000000000E+00  0.14999999963E+04  0.15000000000E+04  0.10566000000E+00 0. -1.
        994   -1    0    0    0    0 -0.00000000000E+00 -0.00000000000E+00  0.11368683772E-12  0.17120000000E+03  0.17120000000E+03 0.  0.
         13    1    1    2    0    0  0.18987947420E+02 -0.10306843093E+02  0.59282587563E+02  0.63096826497E+02  0.10566000000E+00 0. -1.
        994    1    1    2    0    0 -0.92876522478E+01  0.13569196971E+02  0.47386489733E+01  0.17205312663E+03  0.17120000000E+03 0.  0.
        998    1    1    2    0    0 -0.97002951723E+01 -0.32623538785E+01  0.14359787597E+04  0.14360500469E+04  0.10000000000E+02 0. -1.
</event>
<event>
 5    1  0.1153629E-008  0.3792321E+03  0.7957747E-01  0.3454509E+00
         13   -1    0    0    0    0  0.00000000000E+00  0.00000000000E+00  0.14999999963E+04  0.15000000000E+04  0.10566000000E+00 0. -1.
        994   -1    0    0    0    0 -0.00000000000E+00 -0.00000000000E+00  0.11368683772E-12  0.17120000000E+03  0.17120000000E+03 0.  0.
         13    1    1    2    0    0 -0.14024496867E+02  0.19481141120E+02  0.61871535168E+02  0.66364895840E+02  0.10566000000E+00 0. -1.
        994    1    1    2    0    0  0.11951856638E+01 -0.18975319858E+02  0.57337268755E+01  0.17234792385E+03  0.17120000000E+03 0.  0.
        998    1    1    2    0    0  0.12829311203E+02 -0.50582126177E+00  0.14323947342E+04  0.14324871803E+04  0.10000000000E+02 0. -1.
</event>
<event>
 5    1  0.1153629E-008  0.3803389E+03  0.7957747E-01  0.3449684E+00
         13   -1    0    0    0    0  0.00000000000E+00  0.00000000000E+00  0.14999999963E+04  0.15000000000E+04  0.10566000000E+00 0.  1.
        994   -1    0    0    0    0 -0.00000000000E+00 -0.00000000000E+00  0.11368683772E-12  0.17120000000E+03  0.17120000000E+03 0.  0.
         13    1    1    2    0    0 -0.69487187772E+02 -0.51671702481E+01  0.37576587910E+03  0.38217165773E+03  0.10566000000E+00 0.  1.
        994    1    1    2    0    0  0.87731440072E+02  0.50480743654E+01  0.30194307198E+02  0.19479072057E+03  0.17120000000E+03 0.  0.
        998    1    1    2    0    0 -0.18244252300E+02  0.11909588270E+00  0.10940398100E+04  0.10942376217E+04  0.10000000000E+02 0.  1.
</event>
<event>
 5    1  0.1153629E-008  0.3850344E+03  0.7957747E-01  0.3429526E+00
         13   -1    0    0    0    0  0.00000000000E+00  0.00000000000E+00  0.14999999963E+04  0.15000000000E+04  0.10566000000E+00 0.  1.
        994   -1    0    0    0    0 -0.00000000000E+00 -0.00000000000E+00  0.11368683772E-12  0.17120000000E+03  0.17120000000E+03 0.  0.
         13    1    1    2    0    0  0.11399167517E+02 -0.43922676125E+01  0.46361354644E+02  0.47943919357E+02  0.10566000000E+00 0.  1.
        994    1    1    2    0    0 -0.79303630476E+01  0.37725871961E+00  0.18203555976E+01  0.17139365997E+03  0.17120000000E+03 0.  0.
        998    1    1    2    0    0 -0.34688044691E+01  0.40150088929E+01  0.14518182860E+04  0.14518624207E+04  0.10000000000E+02 0.  1.
</event>
<event>
 5    1  0.1153629E-008  0.3769623E+03  0.7957747E-01  0.3464493E+00
         13   -1    0    0    0    0  0.00000000000E+00  0.00000000000E+00  0.14999999963E+04  0.15000000000E+04  0.10566000000E+00 0. -1.
        994   -1    0    0    0    0 -0.00000000000E+00 -0.00000000000E+00  0.11368683772E-12  0.17120000000E+03  0.17120000000E+03 0.  0.
         13    1    1    2    0    0  0.19921089145E+02 -0.39274547131E+02  0.18539635954E+03  0.19055487698E+03  0.10566000000E+00 0. -1.
        994    1    1    2    0    0 -0.21889948587E+02  0.13887613549E+01  0.73007746743E+01  0.17275369697E+03  0.17120000000E+03 0.  0.
        998    1    1    2    0    0  0.19688594414E+01  0.37885785776E+02  0.13073028621E+04  0.13078914260E+04  0.10000000000E+02 0. -1.
</event>
<event>
 5    1  0.1153629E-008  0.3828941E+03  0.7957747E-01  0.3438653E+00
         13   -1    0    0    0    0  0.00000000000E+00  0.00000000000E+00  0.14999999963E+04  0.15000000000E+04  0.10566000000E+00 0.  1.
        994   -1    0    0    0    0 -0.00000000000E+00 -0.00000000000E+00  0.11368683772E-12  0.17120000000E+03  0.17120000000E+03 0.  0.
         13    1    1    2    0    0  0.71818114310E+01 -0.71468076502E+01  0.18672126413E+02  0.21244169643E+02  0.10566000000E+00 0.  1.
        994    1    1    2    0    0  0.90654546387E+01  0.54147522437E+01  0.30485851571E+01  0.17155242896E+03  0.17120000000E+03 0.  0.
        998    1    1    2    0    0 -0.16247266070E+02  0.17320554065E+01  0.14782792847E+04  0.14784034014E+04  0.10000000000E+02 0.  1.
</event>
<event>
 5    1  0.1153629E-008  0.3812073E+03  0.7957747E-01  0.3445918E+00
         13   -1    0    0    0    0  0.00000000000E+00  0.00000000000E+00  0.14999999963E+04  0.15000000000E+04  0.10566000000E+00 0. -1.
        994   -1    0    0    0    0 -0.00000000000E+00 -0.00000000000E+00  0.11368683772E-12  0.17120000000E+03  0.17120000000E+03 0.  0.
         13    1    1    2    0    0 -0.32311676103E+02 -0.22947074013E+01  0.16477736576E+03  0.16793124046E+03  0.10566000000E+00 0. -1.
        994    1    1    2    0    0  0.33504233499E+01  0.12186310497E+02  0.40569754957E+01  0.17171380419E+03  0.17120000000E+03 0.  0.
        998    1    1    2    0    0  0.28961252753E+02 -0.98916030954E+01  0.13311656550E+04  0.13315549553E+04  0.10000000000E+02 0. -1.
</event>
<event>
 5    1  0.1153629E-008  0.3754511E+03  0.7957747E-01  0.3471208E+00
         13   -1    0    0    0    0  0.00000000000E+00  0.00000000000E+00  0.14999999963E+04  0.15000000000E+04  0.10566000000E+00 0.  1.
        994   -1    0    0    0    0 -0.00000000000E+00 -0.00000000000E+00  0.11368683772E-12  0.17120000000E+03  0.17120000000E+03 0.  0.
         13    1    1    2    0    0 -0.10419891732E+02 -0.34264615017E+01  0.64552261897E+01  0.12727760656E+02  0.10566000000E+00 0.  1.
        994    1    1    2    0    0  0.69214313192E+01 -0.13146672638E+02  0.71967923232E+01  0.17199411337E+03  0.17120000000E+03 0.  0.
        998    1    1    2    0    0  0.34984604128E+01  0.16573134140E+02  0.14863479778E+04  0.14864781260E+04  0.10000000000E+02 0.  1.
</event>
<event>
 5    1  0.1153629E-008  0.3842220E+03  0.7957747E-01  0.3432979E+00
         13   -1    0    0    0    0  0.00000000000E+00  0.00000000000E+00  0.14999999963E+04  0.15000000000E+04  0.10566000000E+00 0. -1.
        994   -1    0    0    0    0 -0.00000000000E+00 -0.00000000000E+00  0.11368683772E-12  0.17120000000E+03  0.17120000000E+03 0.  0.
         13    1    1    2    0    0 -0.82016157648E+01  0.79365371552E+01  0.31766785946E+02  0.33754925219E+02  0.10566000000E+00 0. -1.
        994    1    1    2    0    0  0.75937669086E+01 -0.35808752477E+01  0.22493374747E+01  0.17142049901E+03  0.17120000000E+03 0.  0.
        998    1    1    2    0    0  0.60784885616E+00 -0.43556619075E+01  0.14659838729E+04  0.14660245758E+04  0.10000000000E+02 0. -1.
</event>
<event>
 5    1  0.2095856E-008  0.3857725E+03  0.7957747E-01  0.3426403E+00
         13   -1    0    0    0    0  0.00000000000E+00  0.00000000000E+00  0.14999999963E+04  0.15000000000E+04  0.10566000000E+00 0.  1.
        994   -1    0    0    0    0 -0.00000000000E+00 -0.00000000000E+00  0.11368683772E-12  0.17120000000E+03  0.17120000000E+03 0.  0.
         13    1    1    2    0    0  0.88337222146E+01 -0.76572081199E+01  0.55873394899E+02  0.57083403068E+02  0.10566000000E+00 0.  1.
        994    1    1    2    0    0 -0.52838703407E+01  0.32995300682E+01  0.13744194350E+01  0.17131881162E+03  0.17120000000E+03 0.  0.
        998    1    1    2    0    0 -0.35498518740E+01  0.43576780516E+01  0.14427521819E+04  0.14427977853E+04  0.10000000000E+02 0.  1.
</event>
<event>
 5    1  0.1153629E-008  0.3839427E+03  0.7957747E-01  0.3434169E+00
         13   -1    0    0    0    0  0.00000000000E+00  0.00000000000E+00  0.14999999963E+04  0.15000000000E+04  0.10566000000E+00 0. -1.
        994   -1    0    0    0    0 -0.00000000000E+00 -0.00000000000E+00  0.11368683772E-12  0.17120000000E+03  0.17120000000E+03 0.  0.
         13    1    1    2    0    0 -0.18220897678E+02  0.36241825240E+00  0.77436969350E+02  0.79552673401E+02  0.10566000000E+00 0. -1.
        994    1    1    2    0    0  0.10013638230E+02  0.50539971159E+01  0.25712846422E+01  0.17158632621E+03  0.17120000000E+03 0.  0.
        998    1    1    2    0    0  0.82072594476E+01 -0.54164153683E+01  0.14199917423E+04  0.14200610004E+04  0.10000000000E+02 0. -1.
</event>
<event>
 5    1  0.1153629E-008  0.3806100E+03  0.7957747E-01  0.3448507E+00
         13   -1    0    0    0    0  0.00000000000E+00  0.00000000000E+00  0.14999999963E+04  0.15000000000E+04  0.10566000000E+00 0. -1.
        994   -1    0    0    0    0 -0.00000000000E+00 -0.00000000000E+00  0.11368683772E-12  0.17120000000E+03  0.17120000000E+03 0.  0.
         13    1    1    2    0    0  0.18846450550E+02 -0.50823334122E+02  0.30420784611E+03  0.30899939286E+03  0.10566000000E+00 0. -1.
        994    1    1    2    0    0 -0.15916622564E+02  0.53088526702E+02  0.14142215287E+02  0.18050255620E+03  0.17120000000E+03 0.  0.
        998    1    1    2    0    0 -0.29298279853E+01 -0.22651925803E+01  0.11816499349E+04  0.11816980509E+04  0.10000000000E+02 0.  0.
</event>
<event>
 5    1  0.1153629E-008  0.3825408E+03  0.7957747E-01  0.3440170E+00
         13   -1    0    0    0    0  0.00000000000E+00  0.00000000000E+00  0.14999999963E+04  0.15000000000E+04  0.10566000000E+00 0. -1.
        994   -1    0    0    0    0 -0.00000000000E+00 -0.00000000000E+00  0.11368683772E-12  0.17120000000E+03  0.17120000000E+03 0.  0.
         13    1    1    2    0    0 -0.18150876092E+02  0.16486243421E+02  0.10078334699E+03  0.10372340488E+03  0.10566000000E+00 0. -1.
        994    1    1    2    0    0  0.16342019764E+02 -0.13085377352E+02  0.43103679541E+01  0.17252915111E+03  0.17120000000E+03 0.  0.
        998    1    1    2    0    0  0.18088563274E+01 -0.34008660695E+01  0.13949062813E+04  0.13949474440E+04  0.10000000000E+02 0. -1.
</event>
<event>
 5    1  0.1153629E-008  0.3744402E+03  0.7957747E-01  0.3475730E+00
         13   -1    0    0    0    0  0.00000000000E+00  0.00000000000E+00  0.14999999963E+04  0.15000000000E+04  0.10566000000E+00 0. -1.
        994   -1    0    0    0    0 -0.00000000000E+00 -0.00000000000E+00  0.11368683772E-12  0.17120000000E+03  0.17120000000E+03 0.  0.
         13    1    1    2    0    0 -0.17182262606E+02 -0.44443459644E+02  0.15021966419E+03  0.15759571671E+03  0.10566000000E+00 0. -1.
        994    1    1    2    0    0  0.22223198094E+02  0.35932787346E+02  0.13070018395E+02  0.17681996811E+03  0.17120000000E+03 0.  0.
        998    1    1    2    0    0 -0.50409354879E+01  0.85106722978E+01  0.13367103137E+04  0.13367843152E+04  0.10000000000E+02 0.  1.
</event>
<event>
 5    1  0.1153629E-008  0.3736615E+03  0.7957747E-01  0.3479231E+00
         13   -1    0    0    0    0  0.00000000000E+00  0.00000000000E+00  0.14999999963E+04  0.15000000000E+04  0.10566000000E+00 0.  1.
        994   -1    0    0    0    0 -0.00000000000E+00 -0.00000000000E+00  0.11368683772E-12  0.17120000000E+03  0.17120000000E+03 0.  0.
         13    1    1    2    0    0  0.34148082769E+02 -0.15396088405E+02  0.87974423799E+02  0.95617161126E+02  0.10566000000E+00 0.  1.
        994    1    1    2    0    0 -0.32238582782E+02  0.17498733024E+02  0.11976049728E+02  0.17549472255E+03  0.17120000000E+03 0.  0.
        998    1    1    2    0    0 -0.19094999863E+01 -0.21026446193E+01  0.14000495228E+04  0.14000881163E+04  0.10000000000E+02 0.  1.
</event>
<event>
 5    1  0.1153629E-008  0.3850933E+03  0.7957747E-01  0.3429277E+00
         13   -1    0    0    0    0  0.00000000000E+00  0.00000000000E+00  0.14999999963E+04  0.15000000000E+04  0.10566000000E+00 0.  1.
        994   -1    0    0    0    0 -0.00000000000E+00 -0.00000000000E+00  0.11368683772E-12  0.17120000000E+03  0.17120000000E+03 0.  0.
         13    1    1    2    0    0  0.15767798535E+02  0.73823746531E+01  0.92345914390E+02  0.93972879039E+02  0.10566000000E+00 0.  1.
        994    1    1    2    0    0 -0.14068414164E+02 -0.77857371655E+01  0.24342752435E+01  0.17197064772E+03  0.17120000000E+03 0.  0.
        998    1    1    2    0    0 -0.16993843710E+01  0.40336251242E+00  0.14052198066E+04  0.14052564732E+04  0.10000000000E+02 0.  0.
</event>
<event>
 5    1  0.1153629E-008  0.3756759E+03  0.7957747E-01  0.3470205E+00
         13   -1    0    0    0    0  0.00000000000E+00  0.00000000000E+00  0.14999999963E+04  0.15000000000E+04  0.10566000000E+00 0. -1.
        994   -1    0    0    0    0 -0.00000000000E+00 -0.00000000000E+00  0.11368683772E-12  0.17120000000E+03  0.17120000000E+03 0.  0.
         13    1    1    2    0    0  0.43066611140E+02  0.37818952874E+02  0.20206435832E+03  0.21003576424E+03  0.10566000000E+00 0. -1.
        994    1    1    2    0    0 -0.67632613875E+02 -0.34800952968E+02  0.26212326845E+02  0.18916078575E+03  0.17120000000E+03 0.  0.
        998    1    1    2    0    0  0.24566002735E+02 -0.30179999056E+01  0.12717233111E+04  0.12720034500E+04  0.10000000000E+02 0. -1.
</event>
<event>
 5    1  0.1153629E-008  0.3846648E+03  0.7957747E-01  0.3431095E+00
         13   -1    0    0    0    0  0.00000000000E+00  0.00000000000E+00  0.14999999963E+04  0.15000000000E+04  0.10566000000E+00 0. -1.
        994   -1    0    0    0    0 -0.00000000000E+00 -0.00000000000E+00  0.11368683772E-12  0.17120000000E+03  0.17120000000E+03 0.  0.
         13    1    1    2    0    0 -0.18760859707E+02  0.90420997492E+01  0.11738072084E+03  0.11921398498E+03  0.10566000000E+00 0. -1.
        994    1    1    2    0    0  0.18860744398E+02  0.12388115557E+01  0.29737238090E+01  0.17226591470E+03  0.17120000000E+03 0.  0.
        998    1    1    2    0    0 -0.99884690756E-01 -0.10280911305E+02  0.13796455516E+04  0.13797201003E+04  0.10000000000E+02 0. -1.
</event>
<event>
 5    1  0.1153629E-008  0.3841331E+03  0.7957747E-01  0.3433357E+00
         13   -1    0    0    0    0  0.00000000000E+00  0.00000000000E+00  0.14999999963E+04  0.15000000000E+04  0.10566000000E+00 0.  1.
        994   -1    0    0    0    0 -0.00000000000E+00 -0.00000000000E+00  0.11368683772E-12  0.17120000000E+03  0.17120000000E+03 0.  0.
         13    1    1    2    0    0  0.77276761866E+01 -0.65148423314E+01  0.23879097148E+02  0.25930341195E+02  0.10566000000E+00 0.  1.
        994    1    1    2    0    0 -0.64767595872E+01  0.84351170140E+01  0.24342180469E+01  0.17154726763E+03  0.17120000000E+03 0.  0.
        998    1    1    2    0    0 -0.12509165995E+01 -0.19202746825E+01  0.14736866811E+04  0.14737223912E+04  0.10000000000E+02 0.  1.
</event>
<event>
 5    1  0.1153629E-008  0.3810336E+03  0.7957747E-01  0.3446670E+00
         13   -1    0    0    0    0  0.00000000000E+00  0.00000000000E+00  0.14999999963E+04  0.15000000000E+04  0.10566000000E+00 0. -1.
        994   -1    0    0    0    0 -0.00000000000E+00 -0.00000000000E+00  0.11368683772E-12  0.17120000000E+03  0.17120000000E+03 0.  0.
         13    1    1    2    0    0  0.14931759863E+01  0.17275240498E+02  0.39866570680E+02  0.43474338760E+02  0.10566000000E+00 0. -1.
        994    1    1    2    0    0  0.37642107978E+00 -0.14493922989E+02  0.43129406541E+01  0.17186697459E+03  0.17120000000E+03 0.  0.
        998    1    1    2    0    0 -0.18695970661E+01 -0.27813175093E+01  0.14558204849E+04  0.14558586867E+04  0.10000000000E+02 0. -1.
</event>
<event>
 5    1  0.1153629E-008  0.3817640E+03  0.7957747E-01  0.3443514E+00
         13   -1    0    0    0    0  0.00000000000E+00  0.00000000000E+00  0.14999999963E+04  0.15000000000E+04  0.10566000000E+00 0.  1.
        994   -1    0    0    0    0 -0.00000000000E+00 -0.00000000000E+00  0.11368683772E-12  0.17120000000E+03  0.17120000000E+03 0.  0.
         13    1    1    2    0    0 -0.21877656885E+02  0.10213975392E+02  0.88093905572E+02  0.91342785851E+02  0.10566000000E+00 0.  1.
        994    1    1    2    0    0  0.13666583530E+02 -0.94358505145E+01  0.41625511256E+01  0.17205399621E+03  0.17120000000E+03 0.  0.
        998    1    1    2    0    0  0.82110733548E+01 -0.77812487721E+00  0.14077435396E+04  0.14078032179E+04  0.10000000000E+02 0.  1.
</event>
<event>
 5    1  0.1153629E-008  0.3806092E+03  0.7957747E-01  0.3448510E+00
         13   -1    0    0    0    0  0.00000000000E+00  0.00000000000E+00  0.14999999963E+04  0.15000000000E+04  0.10566000000E+00 0. -1.
        994   -1    0    0    0    0 -0.00000000000E+00 -0.00000000000E+00  0.11368683772E-12  0.17120000000E+03  0.17120000000E+03 0.  0.
         13    1    1    2    0    0 -0.33345336706E+01 -0.95404741627E+01  0.11644064800E+02  0.15418663079E+02  0.10566000000E+00 0. -1.
        994    1    1    2    0    0  0.80506448541E+01  0.63565398882E+01  0.41770712802E+01  0.17155788063E+03  0.17120000000E+03 0.  0.
        998    1    1    2    0    0 -0.47161111835E+01  0.31839342745E+01  0.14841788602E+04  0.14842234563E+04  0.10000000000E+02 0. -1.
</event>
<event>
 5    1  0.1153629E-008  0.3841302E+03  0.7957747E-01  0.3433370E+00
         13   -1    0    0    0    0  0.00000000000E+00  0.00000000000E+00  0.14999999963E+04  0.15000000000E+04  0.10566000000E+00 0.  1.
        994   -1    0    0    0    0 -0.00000000000E+00 -0.00000000000E+00  0.11368683772E-12  0.17120000000E+03  0.17120000000E+03 0.  0.
         13    1    1    2    0    0  0.13417835764E+02 -0.17708231008E+01  0.43682753485E+02  0.45731479826E+02  0.10566000000E+00 0.  1.
        994    1    1    2    0    0 -0.97987866829E+01  0.51021625868E+01  0.24652250957E+01  0.17157379059E+03  0.17120000000E+03 0.  0.
        998    1    1    2    0    0 -0.36190490812E+01 -0.33313394860E+01  0.14538520177E+04  0.14538947296E+04  0.10000000000E+02 0.  1.
</event>
<event>
 5    1  0.1153629E-008  0.3691090E+03  0.7957747E-01  0.3499996E+00
         13   -1    0    0    0    0  0.00000000000E+00  0.00000000000E+00  0.14999999963E+04  0.15000000000E+04  0.10566000000E+00 0. -1.
        994   -1    0    0    0    0 -0.00000000000E+00 -0.00000000000E+00  0.11368683772E-12  0.17120000000E+03  0.17120000000E+03 0.  0.
         13    1    1    2    0    0 -0.17766882310E+02  0.13025947218E+02  0.18876597274E+02  0.29011626922E+02  0.10566000000E+00 0. -1.
        994    1    1    2    0    0  0.10835511299E+02 -0.58557939088E+01  0.10997275074E+02  0.17199441470E+03  0.17120000000E+03 0.  0.
        998    1    1    2    0    0  0.69313710112E+01 -0.71701533093E+01  0.14701261239E+04  0.14701939584E+04  0.10000000000E+02 0. -1.
</event>
<event>
 5    1  0.1153629E-008  0.3851020E+03  0.7957747E-01  0.3429240E+00
         13   -1    0    0    0    0  0.00000000000E+00  0.00000000000E+00  0.14999999963E+04  0.15000000000E+04  0.10566000000E+00 0. -1.
        994   -1    0    0    0    0 -0.00000000000E+00 -0.00000000000E+00  0.11368683772E-12  0.17120000000E+03  0.17120000000E+03 0.  0.
         13    1    1    2    0    0 -0.66439615909E+01 -0.14567550433E+02  0.74327565284E+02  0.76032584306E+02  0.10566000000E+00 0. -1.
        994    1    1    2    0    0  0.54312966574E+01  0.23537713462E+02  0.35002194612E+01  0.17293124204E+03  0.17120000000E+03 0.  0.
        998    1    1    2    0    0  0.12126649335E+01 -0.89701630286E+01  0.14221722115E+04  0.14222361737E+04  0.10000000000E+02 0. -1.
</event>
<event>
 5    1  0.1153629E-008  0.3728097E+03  0.7957747E-01  0.3483077E+00
         13   -1    0    0    0    0  0.00000000000E+00  0.00000000000E+00  0.14999999963E+04  0.15000000000E+04  0.10566000000E+00 0. -1.
        994   -1    0    0    0    0 -0.00000000000E+00 -0.00000000000E+00  0.11368683772E-12  0.17120000000E+03  0.17120000000E+03 0.  0.
         13    1    1    2    0    0  0.41142117446E+02  0.59456103526E+02  0.35165751663E+03  0.35901354047E+03  0.10566000000E+00 0. -1.
        994    1    1    2    0    0 -0.64936649031E+02 -0.18362684200E+01  0.22400748272E+02  0.18447594367E+03  0.17120000000E+03 0.  0.
        998    1    1    2    0    0  0.23794531584E+02 -0.57619835106E+02  0.11259417314E+04  0.11277105159E+04  0.10000000000E+02 0. -1.
</event>
<event>
 5    1  0.1153629E-008  0.4019276E+03  0.7957747E-01  0.3360907E+00
         13   -1    0    0    0    0  0.00000000000E+00  0.00000000000E+00  0.14999999963E+04  0.15000000000E+04  0.10566000000E+00 0.  1.
        994   -1    0    0    0    0 -0.00000000000E+00 -0.00000000000E+00  0.11368683772E-12  0.17120000000E+03  0.17120000000E+03 0.  0.
         13    1    1    2    0    0  0.10407542197E+03  0.53056294197E+02  0.21934109333E+03  0.24850993984E+03  0.10566000000E+00 0.  1.
        994    1    1    2    0    0 -0.84641205850E+02 -0.23981384102E+02  0.60179370692E+02  0.20166863209E+03  0.17120000000E+03 0.  0.
        998    1    1    2    0    0 -0.19434216120E+02 -0.29074910096E+02  0.12204795323E+04  0.12210214281E+04  0.10000000000E+02 0.  1.
</event>
<event>
 5    1  0.1153629E-008  0.3733372E+03  0.7957747E-01  0.3480693E+00
         13   -1    0    0    0    0  0.00000000000E+00  0.00000000000E+00  0.14999999963E+04  0.15000000000E+04  0.10566000000E+00 0.  1.
        994   -1    0    0    0    0 -0.00000000000E+00 -0.00000000000E+00  0.11368683772E-12  0.17120000000E+03  0.17120000000E+03 0.  0.
         13    1    1    2    0    0 -0.16211663248E+02 -0.62467054862E+01  0.16866007442E+02  0.24213895304E+02  0.10566000000E+00 0.  1.
        994    1    1    2    0    0  0.98982224359E+01  0.11392926221E+01  0.78745096525E+01  0.17167038387E+03  0.17120000000E+03 0.  0.
        998    1    1    2    0    0  0.63134408124E+01  0.51074128641E+01  0.14752594792E+04  0.14753157208E+04  0.10000000000E+02 0.  1.
</event>
<event>
 5    1  0.1153629E-008  0.3802812E+03  0.7957747E-01  0.3449935E+00
         13   -1    0    0    0    0  0.00000000000E+00  0.00000000000E+00  0.14999999963E+04  0.15000000000E+04  0.10566000000E+00 0. -1.
        994   -1    0    0    0    0 -0.00000000000E+00 -0.00000000000E+00  0.11368683772E-12  0.17120000000E+03  0.17120000000E+03 0.  0.
         13    1    1    2    0    0  0.39204908696E+01  0.35927599315E+02  0.13033962697E+03  0.13525750317E+03  0.10566000000E+00 0. -1.
        994    1    1    2    0    0  0.29364248793E+02 -0.63903996580E+02  0.20690597753E+02  0.18623512215E+03  0.17120000000E+03 0.  0.
        998    1    1    2    0    0 -0.33284739662E+02  0.27976397265E+02  0.13489697716E+04  0.13497073747E+04  0.10000000000E+02 0. -1.
</event>
<event>
 5    1  0.1153629E-008  0.3811351E+03  0.7957747E-01  0.3446231E+00
         13   -1    0    0    0    0  0.00000000000E+00  0.00000000000E+00  0.14999999963E+04  0.15000000000E+04  0.10566000000E+00 0.  1.
        994   -1    0    0    0    0 -0.00000000000E+00 -0.00000000000E+00  0.11368683772E-12  0.17120000000E+03  0.17120000000E+03 0.  0.
         13    1    1    2    0    0  0.59532744419E+01 -0.10788757048E+02  0.19659789176E+02  0.23202526364E+02  0.10566000000E+00 0.  1.
        994    1    1    2    0    0 -0.49433197473E+01  0.11422779171E+02  0.40773491961E+01  0.17170026520E+03  0.17120000000E+03 0.  0.
        998    1    1    2    0    0 -0.10099546945E+01 -0.63402212301E+00  0.14762628579E+04  0.14762972084E+04  0.10000000000E+02 0.  1.
</event>
<event>
 5    1  0.1153629E-008  0.3721817E+03  0.7957747E-01  0.3485924E+00
         13   -1    0    0    0    0  0.00000000000E+00  0.00000000000E+00  0.14999999963E+04  0.15000000000E+04  0.10566000000E+00 0. -1.
        994   -1    0    0    0    0 -0.00000000000E+00 -0.00000000000E+00  0.11368683772E-12  0.17120000000E+03  0.17120000000E+03 0.  0.
         13    1    1    2    0    0  0.13041932741E+02 -0.23370494384E+02  0.42235201700E+02  0.50000954431E+02  0.10566000000E+00 0. -1.
        994    1    1    2    0    0 -0.17377983368E+02 -0.31705424461E+01  0.92047841696E+01  0.17235490912E+03  0.17120000000E+03 0.  0.
        998    1    1    2    0    0  0.43360506267E+01  0.26541036830E+02  0.14485600104E+04  0.14488441365E+04  0.10000000000E+02 0. -1.
</event>
<event>
 5    1  0.1153629E-008  0.3750233E+03  0.7957747E-01  0.3473119E+00
         13   -1    0    0    0    0  0.00000000000E+00  0.00000000000E+00  0.14999999963E+04  0.15000000000E+04  0.10566000000E+00 0. -1.
        994   -1    0    0    0    0 -0.00000000000E+00 -0.00000000000E+00  0.11368683772E-12  0.17120000000E+03  0.17120000000E+03 0.  0.
         13    1    1    2    0    0 -0.31759657004E+02  0.38389363136E+02  0.16267557345E+03  0.17013457137E+03  0.10566000000E+00 0. -1.
        994    1    1    2    0    0  0.35057356179E+02 -0.39022026239E+02  0.16077835956E+02  0.17977673254E+03  0.17120000000E+03 0.  0.
        998    1    1    2    0    0 -0.32976991754E+01  0.63266310334E+00  0.13212465869E+04  0.13212886961E+04  0.10000000000E+02 0.  0.
</event>
<event>
 5    1  0.1153629E-008  0.3766935E+03  0.7957747E-01  0.3465683E+00
         13   -1    0    0    0    0  0.00000000000E+00  0.00000000000E+00  0.14999999963E+04  0.15000000000E+04  0.10566000000E+00 0. -1.
        994   -1    0    0    0    0 -0.00000000000E+00 -0.00000000000E+00  0.11368683772E-12  0.17120000000E+03  0.17120000000E+03 0.  0.
         13    1    1    2    0    0 -0.41852914042E+02  0.74286866206E+01  0.57079090920E+02  0.71168009548E+02  0.10566000000E+00 0. -1.
        994    1    1    2    0    0  0.26055235534E+02 -0.13504210342E+02  0.17612195459E+02  0.17458770983E+03  0.17120000000E+03 0.  0.
        998    1    1    2    0    0  0.15797678507E+02  0.60755237215E+01  0.14253087099E+04  0.14254442806E+04  0.10000000000E+02 0. -1.
</event>
<event>
 5    1  0.1153629E-008  0.3742593E+03  0.7957747E-01  0.3476542E+00
         13   -1    0    0    0    0  0.00000000000E+00  0.00000000000E+00  0.14999999963E+04  0.15000000000E+04  0.10566000000E+00 0. -1.
        994   -1    0    0    0    0 -0.00000000000E+00 -0.00000000000E+00  0.11368683772E-12  0.17120000000E+03  0.17120000000E+03 0.  0.
         13    1    1    2    0    0 -0.60542849804E+02  0.93075695799E+02  0.47826786779E+03  0.49098746047E+03  0.10566000000E+00 0. -1.
        994    1    1    2    0    0  0.79448165604E+02 -0.10218994982E+03  0.66492091949E+02  0.22468964185E+03  0.17120000000E+03 0.  0.
        998    1    1    2    0    0 -0.18905315801E+02  0.91142540225E+01  0.95524003653E+03  0.95552289768E+03  0.10000000000E+02 0. -1.
</event>
<event>
 5    1  0.1153629E-008  0.3908729E+03  0.7957747E-01  0.3405140E+00
         13   -1    0    0    0    0  0.00000000000E+00  0.00000000000E+00  0.14999999963E+04  0.15000000000E+04  0.10566000000E+00 0.  1.
        994   -1    0    0    0    0 -0.00000000000E+00 -0.00000000000E+00  0.11368683772E-12  0.17120000000E+03  0.17120000000E+03 0.  0.
         13    1    1    2    0    0  0.51184599436E+01 -0.28046590098E+02  0.86118286721E+01  0.29782286773E+02  0.10566000000E+00 0.  1.
        994    1    1    2    0    0 -0.18501654011E+02  0.21434324332E+02  0.25464822343E+02  0.17538425995E+03  0.17120000000E+03 0.  0.
        998    1    1    2    0    0  0.13383194067E+02  0.66122657662E+01  0.14659233453E+04  0.14660334533E+04  0.10000000000E+02 0.  1.
</event>
<event>
 5    1  0.1153629E-008  0.3775290E+03  0.7957747E-01  0.3461989E+00
         13   -1    0    0    0    0  0.00000000000E+00  0.00000000000E+00  0.14999999963E+04  0.15000000000E+04  0.10566000000E+00 0.  1.
        994   -1    0    0    0    0 -0.00000000000E+00 -0.00000000000E+00  0.11368683772E-12  0.17120000000E+03  0.17120000000E+03 0.  0.
         13    1    1    2    0    0  0.12298419761E+02  0.31327537243E+02  0.12368825996E+03  0.12818526645E+03  0.10566000000E+00 0.  1.
        994    1    1    2    0    0 -0.14954634405E+02  0.20783102764E+02  0.75984769165E+01  0.17327075720E+03  0.17120000000E+03 0.  0.
        998    1    1    2    0    0  0.26562146443E+01 -0.52110640007E+02  0.13687132594E+04  0.13697439763E+04  0.10000000000E+02 0.  1.
</event>
<event>
 5    1  0.1153629E-008  0.3808037E+03  0.7957747E-01  0.3447666E+00
         13   -1    0    0    0    0  0.00000000000E+00  0.00000000000E+00  0.14999999963E+04  0.15000000000E+04  0.10566000000E+00 0.  1.
        994   -1    0    0    0    0 -0.00000000000E+00 -0.00000000000E+00  0.11368683772E-12  0.17120000000E+03  0.17120000000E+03 0.  0.
         13    1    1    2    0    0 -0.21131729328E+02  0.21155452586E+02  0.11147938587E+03  0.11541996273E+03  0.10566000000E+00 0.  1.
        994    1    1    2    0    0  0.21750820908E+02 -0.19397047106E+02  0.65648959205E+01  0.17378688531E+03  0.17120000000E+03 0.  0.
        998    1    1    2    0    0 -0.61909158053E+00 -0.17584054800E+01  0.13819557145E+04  0.13819931520E+04  0.10000000000E+02 0.  1.
</event>
<event>
 5    1  0.1153629E-008  0.3760913E+03  0.7957747E-01  0.3468357E+00
         13   -1    0    0    0    0  0.00000000000E+00  0.00000000000E+00  0.14999999963E+04  0.15000000000E+04  0.10566000000E+00 0.  1.
        994   -1    0    0    0    0 -0.00000000000E+00 -0.00000000000E+00  0.11368683772E-12  0.17120000000E+03  0.17120000000E+03 0.  0.
         13    1    1    2    0    0  0.22583087692E+02 -0.50876729726E+02  0.21067555510E+03  0.21790511274E+03  0.10566000000E+00 0.  1.
        994    1    1    2    0    0  0.10599924791E+02  0.72312689475E+02  0.24429590727E+02  0.18774378383E+03  0.17120000000E+03 0.  0.
        998    1    1    2    0    0 -0.33183012483E+02 -0.21435959749E+02  0.12648948505E+04  0.12655511034E+04  0.10000000000E+02 0.  1.
</event>
<event>
 5    1  0.1153629E-008  0.3735790E+03  0.7957747E-01  0.3479602E+00
         13   -1    0    0    0    0  0.00000000000E+00  0.00000000000E+00  0.14999999963E+04  0.15000000000E+04  0.10566000000E+00 0. -1.
        994   -1    0    0    0    0 -0.00000000000E+00 -0.00000000000E+00  0.11368683772E-12  0.17120000000E+03  0.17120000000E+03 0.  0.
         13    1    1    2    0    0  0.11303653552E+03  0.28100824935E+02  0.62011256687E+03  0.63095683013E+03  0.10566000000E+00 0. -1.
        994    1    1    2    0    0 -0.10096528867E+03 -0.19202870848E+02  0.44394382125E+02  0.20455571595E+03  0.17120000000E+03 0.  0.
        998    1    1    2    0    0 -0.12071246846E+02 -0.88979540864E+01  0.83549304728E+03  0.83568745392E+03  0.10000000000E+02 0. -1.
</event>
<event>
 5    1  0.1153629E-008  0.3779685E+03  0.7957747E-01  0.3460052E+00
         13   -1    0    0    0    0  0.00000000000E+00  0.00000000000E+00  0.14999999963E+04  0.15000000000E+04  0.10566000000E+00 0. -1.
        994   -1    0    0    0    0 -0.00000000000E+00 -0.00000000000E+00  0.11368683772E-12  0.17120000000E+03  0.17120000000E+03 0.  0.
         13    1    1    2    0    0 -0.96391080193E+01  0.22284332719E+02  0.12977330076E+02  0.27530458552E+02  0.10566000000E+00 0. -1.
        994    1    1    2    0    0 -0.14392113739E+02 -0.21237247663E+02  0.17586538795E+02  0.17400252864E+03  0.17120000000E+03 0.  0.
        998    1    1    2    0    0  0.24031221758E+02 -0.10470850560E+01  0.14694361274E+04  0.14696670128E+04  0.10000000000E+02 0. -1.
</event>
<event>
 5    1  0.1153629E-008  0.3799043E+03  0.7957747E-01  0.3451575E+00
         13   -1    0    0    0    0  0.00000000000E+00  0.00000000000E+00  0.14999999963E+04  0.15000000000E+04  0.10566000000E+00 0. -1.
        994   -1    0    0    0    0 -0.00000000000E+00 -0.00000000000E+00  0.11368683772E-12  0.17120000000E+03  0.17120000000E+03 0.  0.
         13    1    1    2    0    0  0.51443573656E+01 -0.56280776121E+02  0.86690016673E+02  0.10348507297E+03  0.10566000000E+00 0. -1.
        994    1    1    2    0    0 -0.41181272020E+01  0.59510833638E+02  0.29279647382E+02  0.18364431939E+03  0.17120000000E+03 0.  0.
        998    1    1    2    0    0 -0.10262301636E+01 -0.32300575170E+01  0.13840303322E+04  0.13840706076E+04  0.10000000000E+02 0. -1.
</event>
<event>
 5    1  0.1153629E-008  0.3842367E+03  0.7957747E-01  0.3432916E+00
         13   -1    0    0    0    0  0.00000000000E+00  0.00000000000E+00  0.14999999963E+04  0.15000000000E+04  0.10566000000E+00 0.  1.
        994   -1    0    0    0    0 -0.00000000000E+00 -0.00000000000E+00  0.11368683772E-12  0.17120000000E+03  0.17120000000E+03 0.  0.
         13    1    1    2    0    0 -0.14957956246E+02  0.65277268211E+01  0.68431361598E+02  0.70350650933E+02  0.10566000000E+00 0.  1.
        994    1    1    2    0    0 -0.16967798274E+00 -0.11615335868E+02  0.24546055752E+01  0.17161121731E+03  0.17120000000E+03 0.  0.
        998    1    1    2    0    0  0.15127634229E+02  0.50876090472E+01  0.14291140291E+04  0.14292381318E+04  0.10000000000E+02 0.  1.
</event>
<event>
 5    1  0.1153629E-008  0.3809960E+03  0.7957747E-01  0.3446833E+00
         13   -1    0    0    0    0  0.00000000000E+00  0.00000000000E+00  0.14999999963E+04  0.15000000000E+04  0.10566000000E+00 0. -1.
        994   -1    0    0    0    0 -0.00000000000E+00 -0.00000000000E+00  0.11368683772E-12  0.17120000000E+03  0.17120000000E+03 0.  0.
         13    1    1    2    0    0  0.54507916921E+02 -0.88714359228E+02  0.56678540911E+03  0.57626995557E+03  0.10566000000E+00 0. -1.
        994    1    1    2    0    0 -0.52492632345E+02  0.12837461957E+03  0.70628947303E+02  0.23137287567E+03  0.17120000000E+03 0.  0.
        998    1    1    2    0    0 -0.20152845757E+01 -0.39660260341E+02  0.86258563986E+03  0.86355716876E+03  0.10000000000E+02 0. -1.
</event>
<event>
 5    1  0.1153629E-008  0.3801138E+03  0.7957747E-01  0.3450663E+00
         13   -1    0    0    0    0  0.00000000000E+00  0.00000000000E+00  0.14999999963E+04  0.15000000000E+04  0.10566000000E+00 0. -1.
        994   -1    0    0    0    0 -0.00000000000E+00 -0.00000000000E+00  0.11368683772E-12  0.17120000000E+03  0.17120000000E+03 0.  0.
         13    1    1    2    0    0 -0.40707987170E+01  0.35237852068E+02  0.15846858209E+03  0.16239020997E+03  0.10566000000E+00 0. -1.
        994    1    1    2    0    0 -0.62853230893E+01 -0.16361756113E+02  0.51029857924E+01  0.17217053410E+03  0.17120000000E+03 0.  0.
        998    1    1    2    0    0  0.10356121806E+02 -0.18876095956E+02  0.13364284284E+04  0.13366392559E+04  0.10000000000E+02 0. -1.
</event>
<event>
 5    1  0.1153629E-008  0.3859073E+03  0.7957747E-01  0.3425833E+00
         13   -1    0    0    0    0  0.00000000000E+00  0.00000000000E+00  0.14999999963E+04  0.15000000000E+04  0.10566000000E+00 0. -1.
        994   -1    0    0    0    0 -0.00000000000E+00 -0.00000000000E+00  0.11368683772E-12  0.17120000000E+03  0.17120000000E+03 0.  0.
         13    1    1    2    0    0  0.59063986871E+01 -0.85675804938E+01  0.45867482235E+02  0.47033244323E+02  0.10566000000E+00 0. -1.
        994    1    1    2    0    0 -0.32557176041E+01  0.82371998257E+01  0.14376287962E+01  0.17143499624E+03  0.17120000000E+03 0.  0.
        998    1    1    2    0    0 -0.26506810830E+01  0.33038066814E+00  0.14526948852E+04  0.14527317594E+04  0.10000000000E+02 0. -1.
</event>
<event>
 5    1  0.1153629E-008  0.3843850E+03  0.7957747E-01  0.3432285E+00
         13   -1    0    0    0    0  0.00000000000E+00  0.00000000000E+00  0.14999999963E+04  0.15000000000E+04  0.10566000000E+00 0.  1.
        994   -1    0    0    0    0 -0.00000000000E+00 -0.00000000000E+00  0.11368683772E-12  0.17120000000E+03  0.17120000000E+03 0.  0.
         13    1    1    2    0    0  0.98611493238E+01  0.17773187586E+02  0.11251271817E+03  0.11433394674E+03  0.10566000000E+00 0.  1.
        994    1    1    2    0    0 -0.33845170199E+01 -0.45397379857E+01  0.20414333196E+01  0.17130578398E+03  0.17120000000E+03 0.  0.
        998    1    1    2    0    0 -0.64766323039E+01 -0.13233449601E+02  0.13854458448E+04  0.13855602693E+04  0.10000000000E+02 0.  1.
</event>
<event>
 5    1  0.1153629E-008  0.3837186E+03  0.7957747E-01  0.3435125E+00
         13   -1    0    0    0    0  0.00000000000E+00  0.00000000000E+00  0.14999999963E+04  0.15000000000E+04  0.10566000000E+00 0. -1.
        994   -1    0    0    0    0 -0.00000000000E+00 -0.00000000000E+00  0.11368683772E-12  0.17120000000E+03  0.17120000000E+03 0.  0.
         13    1    1    2    0    0 -0.52487462535E+01 -0.10659202856E+02  0.30791404080E+02  0.33004388678E+02  0.10566000000E+00 0. -1.
        994    1    1    2    0    0  0.14338788586E+01  0.51547277887E+01  0.23622310646E+01  0.17129987555E+03  0.17120000000E+03 0.  0.
        998    1    1    2    0    0  0.38148673949E+01  0.55044750677E+01  0.14668463611E+04  0.14668957358E+04  0.10000000000E+02 0. -1.
</event>
<event>
 5    1  0.1153629E-008  0.3735318E+03  0.7957747E-01  0.3479815E+00
         13   -1    0    0    0    0  0.00000000000E+00  0.00000000000E+00  0.14999999963E+04  0.15000000000E+04  0.10566000000E+00 0. -1.
        994   -1    0    0    0    0 -0.00000000000E+00 -0.00000000000E+00  0.11368683772E-12  0.17120000000E+03  0.17120000000E+03 0.  0.
         13    1    1    2    0    0 -0.12364710269E+03 -0.39631601788E+02  0.63084199076E+03  0.64406591149E+03  0.10566000000E+00 0. -1.
        994    1    1    2    0    0  0.11845343741E+03  0.53176077606E+02  0.67412512157E+02  0.22519502405E+03  0.17120000000E+03 0.  0.
        998    1    1    2    0    0  0.51936652839E+01 -0.13544475818E+02  0.80174549336E+03  0.80193906446E+03  0.10000000000E+02 0. -1.
</event>
<event>
 5    1  0.1153629E-008  0.3792706E+03  0.7957747E-01  0.3454341E+00
         13   -1    0    0    0    0  0.00000000000E+00  0.00000000000E+00  0.14999999963E+04  0.15000000000E+04  0.10566000000E+00 0.  1.
        994   -1    0    0    0    0 -0.00000000000E+00 -0.00000000000E+00  0.11368683772E-12  0.17120000000E+03  0.17120000000E+03 0.  0.
         13    1    1    2    0    0 -0.86075356066E+01 -0.27203050635E+02  0.82428927759E+02  0.87227489524E+02  0.10566000000E+00 0.  1.
        994    1    1    2    0    0 -0.27911829012E+02  0.45584753454E+02  0.14135942248E+02  0.17990637790E+03  0.17120000000E+03 0.  0.
        998    1    1    2    0    0  0.36519364618E+02 -0.18381702819E+02  0.14034351263E+04  0.14040661326E+04  0.10000000000E+02 0.  1.
</event>
<event>
 5    1  0.1153629E-008  0.3799377E+03  0.7957747E-01  0.3451430E+00
         13   -1    0    0    0    0  0.00000000000E+00  0.00000000000E+00  0.14999999963E+04  0.15000000000E+04  0.10566000000E+00 0.  1.
        994   -1    0    0    0    0 -0.00000000000E+00 -0.00000000000E+00  0.11368683772E-12  0.17120000000E+03  0.17120000000E+03 0.  0.
         13    1    1    2    0    0  0.26461522924E+02 -0.49370957018E+01  0.91185584684E+02  0.95075807268E+02  0.10566000000E+00 0.  1.
        994    1    1    2    0    0 -0.24969256576E+01  0.66662003259E+01  0.43340493372E+01  0.17140273291E+03  0.17120000000E+03 0.  0.
        998    1    1    2    0    0 -0.23964597266E+02 -0.17291046241E+01  0.14044803623E+04  0.14047214598E+04  0.10000000000E+02 0.  1.
</event>
<event>
 5    1  0.1153629E-008  0.3817930E+03  0.7957747E-01  0.3443388E+00
         13   -1    0    0    0    0  0.00000000000E+00  0.00000000000E+00  0.14999999963E+04  0.15000000000E+04  0.10566000000E+00 0.  1.
        994   -1    0    0    0    0 -0.00000000000E+00 -0.00000000000E+00  0.11368683772E-12  0.17120000000E+03  0.17120000000E+03 0.  0.
         13    1    1    2    0    0 -0.54051225241E+02 -0.28352977049E+01  0.80886710210E+02  0.97325458723E+02  0.10566000000E+00 0.  1.
        994    1    1    2    0    0  0.29087786821E+02 -0.51341859224E+02  0.30128611239E+02  0.18357357943E+03  0.17120000000E+03 0.  0.
        998    1    1    2    0    0  0.24963438420E+02  0.54177156929E+02  0.13889846748E+04  0.13903009618E+04  0.10000000000E+02 0.  1.
</event>
<event>
 5    1  0.1153629E-008  0.3822587E+03  0.7957747E-01  0.3441382E+00
         13   -1    0    0    0    0  0.00000000000E+00  0.00000000000E+00  0.14999999963E+04  0.15000000000E+04  0.10566000000E+00 0. -1.
        994   -1    0    0    0    0 -0.00000000000E+00 -0.00000000000E+00  0.11368683772E-12  0.17120000000E+03  0.17120000000E+03 0.  0.
         13    1    1    2    0    0 -0.51220886588E+02  0.41411208387E+02  0.34638783931E+03  0.35259468769E+03  0.10566000000E+00 0. -1.
        994    1    1    2    0    0  0.56072512617E+02 -0.11433519435E+03  0.58815568662E+02  0.22132639801E+03  0.17120000000E+03 0.  0.
        998    1    1    2    0    0 -0.48516260296E+01  0.72923985959E+02  0.10947965883E+04  0.10972789143E+04  0.10000000000E+02 0. -1.
</event>
<event>
 5    1  0.1153629E-008  0.3813344E+03  0.7957747E-01  0.3445369E+00
         13   -1    0    0    0    0  0.00000000000E+00  0.00000000000E+00  0.14999999963E+04  0.15000000000E+04  0.10566000000E+00 0.  1.
        994   -1    0    0    0    0 -0.00000000000E+00 -0.00000000000E+00  0.11368683772E-12  0.17120000000E+03  0.17120000000E+03 0.  0.
         13    1    1    2    0    0 -0.16212553785E+02 -0.51300727077E+01  0.41201821823E+02  0.44573151468E+02  0.10566000000E+00 0.  1.
        994    1    1    2    0    0  0.13521348691E+00  0.22360952645E+02  0.51270334456E+01  0.17273030122E+03  0.17120000000E+03 0.  0.
        998    1    1    2    0    0  0.16077340298E+02 -0.17230879937E+02  0.14536711410E+04  0.14538965473E+04  0.10000000000E+02 0.  1.
</event>
<event>
 5    1  0.1153629E-008  0.3838452E+03  0.7957747E-01  0.3434585E+00
         13   -1    0    0    0    0  0.00000000000E+00  0.00000000000E+00  0.14999999963E+04  0.15000000000E+04  0.10566000000E+00 0. -1.
        994   -1    0    0    0    0 -0.00000000000E+00 -0.00000000000E+00  0.11368683772E-12  0.17120000000E+03  0.17120000000E+03 0.  0.
         13    1    1    2    0    0  0.10397306133E+01 -0.24603762612E+02  0.13843412957E+03  0.14060741648E+03  0.10566000000E+00 0. -1.
        994    1    1    2    0    0  0.17690815588E+02  0.15046567323E+02  0.39870156203E+01  0.17281406319E+03  0.17120000000E+03 0.  0.
        998    1    1    2    0    0 -0.18730546201E+02  0.95571952886E+01  0.13575788511E+04  0.13577785203E+04  0.10000000000E+02 0. -1.
</event>
<event>
 5    1  0.1153629E-008  0.3711707E+03  0.7957747E-01  0.3490528E+00
         13   -1    0    0    0    0  0.00000000000E+00  0.00000000000E+00  0.14999999963E+04  0.15000000000E+04  0.10566000000E+00 0.  1.
        994   -1    0    0    0    0 -0.00000000000E+00 -0.00000000000E+00  0.11368683772E-12  0.17120000000E+03  0.17120000000E+03 0.  0.
         13    1    1    2    0    0 -0.15736757035E+02  0.42967511855E+02  0.11791666256E+03  0.12648400322E+03  0.10566000000E+00 0.  1.
        994    1    1    2    0    0 -0.85535595010E+01 -0.33157298169E+02  0.12707193043E+02  0.17505279934E+03  0.17120000000E+03 0.  0.
        998    1    1    2    0    0  0.24290316536E+02 -0.98102136860E+01  0.13693761407E+04  0.13696631974E+04  0.10000000000E+02 0.  1.
</event>
<event>
 5    1  0.1153629E-008  0.3795469E+03  0.7957747E-01  0.3453134E+00
         13   -1    0    0    0    0  0.00000000000E+00  0.00000000000E+00  0.14999999963E+04  0.15000000000E+04  0.10566000000E+00 0. -1.
        994   -1    0    0    0    0 -0.00000000000E+00 -0.00000000000E+00  0.11368683772E-12  0.17120000000E+03  0.17120000000E+03 0.  0.
         13    1    1    2    0    0 -0.92535265489E+01 -0.19923290394E+02  0.49205465793E+02  0.53886494427E+02  0.10566000000E+00 0. -1.
        994    1    1    2    0    0  0.65162070596E+01  0.39003227986E+02  0.96150682974E+01  0.17597045856E+03  0.17120000000E+03 0.  0.
        998    1    1    2    0    0  0.27373194893E+01 -0.19079937592E+02  0.14411794622E+04  0.14413430470E+04  0.10000000000E+02 0. -1.
</event>
<event>
 5    1  0.1153629E-008  0.3764943E+03  0.7957747E-01  0.3466567E+00
         13   -1    0    0    0    0  0.00000000000E+00  0.00000000000E+00  0.14999999963E+04  0.15000000000E+04  0.10566000000E+00 0. -1.
        994   -1    0    0    0    0 -0.00000000000E+00 -0.00000000000E+00  0.11368683772E-12  0.17120000000E+03  0.17120000000E+03 0.  0.
         13    1    1    2    0    0  0.43938879854E+02  0.15086141063E+03  0.30989080886E+03  0.34745088136E+03  0.10566000000E+00 0. -1.
        994    1    1    2    0    0 -0.38171489159E+02 -0.25052864948E+03  0.30137503948E+03  0.42936932961E+03  0.17120000000E+03 0.  0.
        998    1    1    2    0    0 -0.57673906946E+01  0.99667238851E+02  0.88873414794E+03  0.89437978902E+03  0.10000000000E+02 0. -1.
</event>
<event>
 5    1  0.1153629E-008  0.3858501E+03  0.7957747E-01  0.3426075E+00
         13   -1    0    0    0    0  0.00000000000E+00  0.00000000000E+00  0.14999999963E+04  0.15000000000E+04  0.10566000000E+00 0. -1.
        994   -1    0    0    0    0 -0.00000000000E+00 -0.00000000000E+00  0.11368683772E-12  0.17120000000E+03  0.17120000000E+03 0.  0.
         13    1    1    2    0    0 -0.44312023480E+01  0.10875041365E+02  0.57000831599E+02  0.58198007233E+02  0.10566000000E+00 0. -1.
        994    1    1    2    0    0  0.49931107333E+01 -0.80741409157E+01  0.15042943826E+01  0.17146960608E+03  0.17120000000E+03 0.  0.
        998    1    1    2    0    0 -0.56190838530E+00 -0.28009004492E+01  0.14414948703E+04  0.14415323867E+04  0.10000000000E+02 0. -1.
</event>
<event>
 5    1  0.1153629E-008  0.3860199E+03  0.7957747E-01  0.3425358E+00
         13   -1    0    0    0    0  0.00000000000E+00  0.00000000000E+00  0.14999999963E+04  0.15000000000E+04  0.10566000000E+00 0. -1.
        994   -1    0    0    0    0 -0.00000000000E+00 -0.00000000000E+00  0.11368683772E-12  0.17120000000E+03  0.17120000000E+03 0.  0.
         13    1    1    2    0    0  0.99017278519E+01  0.74939935530E+01  0.64004530381E+02  0.65198122881E+02  0.10566000000E+00 0. -1.
        994    1    1    2    0    0 -0.15920348665E+02 -0.10725362309E+02  0.23333787687E+01  0.17228864024E+03  0.17120000000E+03 0.  0.
        998    1    1    2    0    0  0.60186208129E+01  0.32313687562E+01  0.14336620871E+04  0.14337132369E+04  0.10000000000E+02 0. -1.
</event>
<event>
 5    1  0.1153629E-008  0.3783817E+03  0.7957747E-01  0.3458235E+00
         13   -1    0    0    0    0  0.00000000000E+00  0.00000000000E+00  0.14999999963E+04  0.15000000000E+04  0.10566000000E+00 0.  1.
        994   -1    0    0    0    0 -0.00000000000E+00 -0.00000000000E+00  0.11368683772E-12  0.17120000000E+03  0.17120000000E+03 0.  0.
         13    1    1    2    0    0  0.34567583402E+02  0.35776551752E+02  0.24391248645E+03  0.24893411114E+03  0.10566000000E+00 0.  1.
        994    1    1    2    0    0 -0.30854909756E+02 -0.13278737654E+02  0.87538737799E+01  0.17468377325E+03  0.17120000000E+03 0.  0.
        998    1    1    2    0    0 -0.37126736458E+01 -0.22497814098E+02  0.12473336360E+04  0.12475821156E+04  0.10000000000E+02 0.  1.
</event>
<event>
 5    1  0.1153629E-008  0.3849022E+03  0.7957747E-01  0.3430087E+00
         13   -1    0    0    0    0  0.00000000000E+00  0.00000000000E+00  0.14999999963E+04  0.15000000000E+04  0.10566000000E+00 0. -1.
        994   -1    0    0    0    0 -0.00000000000E+00 -0.00000000000E+00  0.11368683772E-12  0.17120000000E+03  0.17120000000E+03 0.  0.
         13    1    1    2    0    0 -0.28947537752E+01 -0.17262199105E+02  0.93341637991E+02  0.94968603571E+02  0.10566000000E+00 0. -1.
        994    1    1    2    0    0  0.95030934791E+00  0.81738821623E+01  0.19014989103E+01  0.17140820032E+03  0.17120000000E+03 0.  0.
        998    1    1    2    0    0  0.19444444273E+01  0.90883169431E+01  0.14047568594E+04  0.14048231961E+04  0.10000000000E+02 0. -1.
</event>
<event>
 5    1  0.1153629E-008  0.3811359E+03  0.7957747E-01  0.3446228E+00
         13   -1    0    0    0    0  0.00000000000E+00  0.00000000000E+00  0.14999999963E+04  0.15000000000E+04  0.10566000000E+00 0. -1.
        994   -1    0    0    0    0 -0.00000000000E+00 -0.00000000000E+00  0.11368683772E-12  0.17120000000E+03  0.17120000000E+03 0.  0.
         13    1    1    2    0    0  0.29407845991E+02  0.61489431734E+01  0.12826842760E+03  0.13174001515E+03  0.10566000000E+00 0. -1.
        994    1    1    2    0    0 -0.14387374100E+02 -0.22434192151E+01  0.42673262569E+01  0.17187111315E+03  0.17120000000E+03 0.  0.
        998    1    1    2    0    0 -0.15020471891E+02 -0.39055239583E+01  0.13674642424E+04  0.13675888717E+04  0.10000000000E+02 0. -1.
</event>
<event>
 5    1  0.1153629E-008  0.3798299E+03  0.7957747E-01  0.3451900E+00
         13   -1    0    0    0    0  0.00000000000E+00  0.00000000000E+00  0.14999999963E+04  0.15000000000E+04  0.10566000000E+00 0.  1.
        994   -1    0    0    0    0 -0.00000000000E+00 -0.00000000000E+00  0.11368683772E-12  0.17120000000E+03  0.17120000000E+03 0.  0.
         13    1    1    2    0    0  0.33427314094E+02  0.14777274324E+02  0.16306934491E+03  0.16711485744E+03  0.10566000000E+00 0.  1.
        994    1    1    2    0    0 -0.12257917737E+02 -0.10670025697E+02  0.51029125950E+01  0.17204530134E+03  0.17120000000E+03 0.  0.
        998    1    1    2    0    0 -0.21169396356E+02 -0.41072486265E+01  0.13318277388E+04  0.13320398412E+04  0.10000000000E+02 0.  1.
</event>
<event>
 5    1  0.1153629E-008  0.3798340E+03  0.7957747E-01  0.3451882E+00
         13   -1    0    0    0    0  0.00000000000E+00  0.00000000000E+00  0.14999999963E+04  0.15000000000E+04  0.10566000000E+00 0.  1.
        994   -1    0    0    0    0 -0.00000000000E+00 -0.00000000000E+00  0.11368683772E-12  0.17120000000E+03  0.17120000000E+03 0.  0.
         13    1    1    2    0    0 -0.18380140501E+02  0.74195000054E+01  0.44280905158E+02  0.48514825268E+02  0.10566000000E+00 0.  1.
        994    1    1    2    0    0 -0.17281137423E+01 -0.51868431772E+02  0.13278622046E+02  0.17938529035E+03  0.17120000000E+03 0.  0.
        998    1    1    2    0    0  0.20108254243E+02  0.44448931766E+02  0.14424404691E+04  0.14432998844E+04  0.10000000000E+02 0.  1.
</event>
<event>
 5    1  0.1153629E-008  0.3831020E+03  0.7957747E-01  0.3437762E+00
         13   -1    0    0    0    0  0.00000000000E+00  0.00000000000E+00  0.14999999963E+04  0.15000000000E+04  0.10566000000E+00 0.  1.
        994   -1    0    0    0    0 -0.00000000000E+00 -0.00000000000E+00  0.11368683772E-12  0.17120000000E+03  0.17120000000E+03 0.  0.
         13    1    1    2    0    0  0.25706408325E+02 -0.20230166228E+01  0.12360997196E+03  0.12627093235E+03  0.10566000000E+00 0.  1.
        994    1    1    2    0    0 -0.20995282221E+02  0.94459660105E+00  0.40383382855E+01  0.17253243844E+03  0.17120000000E+03 0.  0.
        998    1    1    2    0    0 -0.47111261048E+01  0.10784200217E+01  0.13723516860E+04  0.13723966292E+04  0.10000000000E+02 0.  1.
</event>
<event>
 5    1  0.1153629E-008  0.3829171E+03  0.7957747E-01  0.3438554E+00
         13   -1    0    0    0    0  0.00000000000E+00  0.00000000000E+00  0.14999999963E+04  0.15000000000E+04  0.10566000000E+00 0. -1.
        994   -1    0    0    0    0 -0.00000000000E+00 -0.00000000000E+00  0.11368683772E-12  0.17120000000E+03  0.17120000000E+03 0.  0.
         13    1    1    2    0    0 -0.12027124007E+02  0.61428288249E+01  0.32114561235E+02  0.34838804015E+02  0.10566000000E+00 0. -1.
        994    1    1    2    0    0  0.10573736057E+02 -0.20950218414E+02  0.44933623080E+01  0.17285932388E+03  0.17120000000E+03 0.  0.
        998    1    1    2    0    0  0.14533879501E+01  0.14807389589E+02  0.14633920727E+04  0.14635018721E+04  0.10000000000E+02 0. -1.
</event>
<event>
 5    1  0.1153629E-008  0.3807919E+03  0.7957747E-01  0.3447718E+00
         13   -1    0    0    0    0  0.00000000000E+00  0.00000000000E+00  0.14999999963E+04  0.15000000000E+04  0.10566000000E+00 0. -1.
        994   -1    0    0    0    0 -0.00000000000E+00 -0.00000000000E+00  0.11368683772E-12  0.17120000000E+03  0.17120000000E+03 0.  0.
         13    1    1    2    0    0  0.15514690198E+02  0.26441259803E+01  0.31170787912E+02  0.34918851603E+02  0.10566000000E+00 0. -1.
        994    1    1    2    0    0 -0.15724943263E+02 -0.37970483316E+01  0.46069640083E+01  0.17202428763E+03  0.17120000000E+03 0.  0.
        998    1    1    2    0    0  0.21025306453E+00  0.11529223513E+01  0.14642222444E+04  0.14642568608E+04  0.10000000000E+02 0. -1.
</event>
<event>
 5    1  0.1153629E-008  0.3743234E+03  0.7957747E-01  0.3476254E+00
         13   -1    0    0    0    0  0.00000000000E+00  0.00000000000E+00  0.14999999963E+04  0.15000000000E+04  0.10566000000E+00 0. -1.
        994   -1    0    0    0    0 -0.00000000000E+00 -0.00000000000E+00  0.11368683772E-12  0.17120000000E+03  0.17120000000E+03 0.  0.
         13    1    1    2    0    0  0.20123189456E+02  0.22646280377E+02  0.28335094948E+02  0.41481146784E+02  0.10566000000E+00 0. -1.
        994    1    1    2    0    0 -0.25743472350E+02 -0.24492858950E+02  0.17738673125E+02  0.17574620062E+03  0.17120000000E+03 0.  0.
        998    1    1    2    0    0  0.56202828947E+01  0.18465785732E+01  0.14539262282E+04  0.14539726526E+04  0.10000000000E+02 0. -1.
</event>
<event>
 5    1  0.1153629E-008  0.3825370E+03  0.7957747E-01  0.3440186E+00
         13   -1    0    0    0    0  0.00000000000E+00  0.00000000000E+00  0.14999999963E+04  0.15000000000E+04  0.10566000000E+00 0. -1.
        994   -1    0    0    0    0 -0.00000000000E+00 -0.00000000000E+00  0.11368683772E-12  0.17120000000E+03  0.17120000000E+03 0.  0.
         13    1    1    2    0    0  0.11627605124E+02 -0.19335060724E+01  0.23181245075E+02  0.26006171074E+02  0.10566000000E+00 0. -1.
        994    1    1    2    0    0 -0.95122336721E+01 -0.24346392998E+01  0.31776226074E+01  0.17151077909E+03  0.17120000000E+03 0.  0.
        998    1    1    2    0    0 -0.21153714519E+01  0.43681453722E+01  0.14736411286E+04  0.14736830498E+04  0.10000000000E+02 0. -1.
</event>
<event>
 5    1  0.1153629E-008  0.3837805E+03  0.7957747E-01  0.3434861E+00
         13   -1    0    0    0    0  0.00000000000E+00  0.00000000000E+00  0.14999999963E+04  0.15000000000E+04  0.10566000000E+00 0. -1.
        994   -1    0    0    0    0 -0.00000000000E+00 -0.00000000000E+00  0.11368683772E-12  0.17120000000E+03  0.17120000000E+03 0.  0.
         13    1    1    2    0    0 -0.89137234232E+01  0.21123145382E+02  0.12347762359E+03  0.12558812216E+03  0.10566000000E+00 0. -1.
        994    1    1    2    0    0 -0.91325545069E+01 -0.11768354185E+02  0.29697930768E+01  0.17187250328E+03  0.17120000000E+03 0.  0.
        998    1    1    2    0    0  0.18046277930E+02 -0.93547911973E+01  0.13735525796E+04  0.13737393746E+04  0.10000000000E+02 0. -1.
</event>
<event>
 5    1  0.1153629E-008  0.3770996E+03  0.7957747E-01  0.3463885E+00
         13   -1    0    0    0    0  0.00000000000E+00  0.00000000000E+00  0.14999999963E+04  0.15000000000E+04  0.10566000000E+00 0. -1.
        994   -1    0    0    0    0 -0.00000000000E+00 -0.00000000000E+00  0.11368683772E-12  0.17120000000E+03  0.17120000000E+03 0.  0.
         13    1    1    2    0    0  0.71419387321E+01 -0.41106328813E+02  0.16699706577E+03  0.17213009236E+03  0.10566000000E+00 0. -1.
        994    1    1    2    0    0 -0.54097455350E+01  0.93051455365E+01  0.59955798056E+01  0.17164276290E+03  0.17120000000E+03 0.  0.
        998    1    1    2    0    0 -0.17321931971E+01  0.31801183277E+02  0.13270073507E+04  0.13274271447E+04  0.10000000000E+02 0. -1.
</event>
<event>
 5    1  0.1153629E-008  0.3848844E+03  0.7957747E-01  0.3430163E+00
         13   -1    0    0    0    0  0.00000000000E+00  0.00000000000E+00  0.14999999963E+04  0.15000000000E+04  0.10566000000E+00 0.  1.
        994   -1    0    0    0    0 -0.00000000000E+00 -0.00000000000E+00  0.11368683772E-12  0.17120000000E+03  0.17120000000E+03 0.  0.
         13    1    1    2    0    0  0.46682428808E+01 -0.13446087271E+02  0.58059342004E+02  0.59778659340E+02  0.10566000000E+00 0.  1.
        994    1    1    2    0    0 -0.63107542254E+01  0.13595112281E+02  0.24269877833E+01  0.17187199588E+03  0.17120000000E+03 0.  0.
        998    1    1    2    0    0  0.16425113446E+01 -0.14902501017E+00  0.14395136665E+04  0.14395493448E+04  0.10000000000E+02 0.  1.
</event>
<event>
 5    1  0.1153629E-008  0.3852815E+03  0.7957747E-01  0.3428479E+00
         13   -1    0    0    0    0  0.00000000000E+00  0.00000000000E+00  0.14999999963E+04  0.15000000000E+04  0.10566000000E+00 0. -1.
        994   -1    0    0    0    0 -0.00000000000E+00 -0.00000000000E+00  0.11368683772E-12  0.17120000000E+03  0.17120000000E+03 0.  0.
         13    1    1    2    0    0  0.11963334107E+02  0.49409532360E+01  0.60147114529E+02  0.61524149178E+02  0.10566000000E+00 0. -1.
        994    1    1    2    0    0 -0.82259397060E+00  0.59271960921E+01  0.16080980143E+01  0.17131209617E+03  0.17120000000E+03 0.  0.
        998    1    1    2    0    0 -0.11140740136E+02 -0.10868149328E+02  0.14382447837E+04  0.14383637547E+04  0.10000000000E+02 0. -1.
</event>
<event>
 5    1  0.1153629E-008  0.3832393E+03  0.7957747E-01  0.3437174E+00
         13   -1    0    0    0    0  0.00000000000E+00  0.00000000000E+00  0.14999999963E+04  0.15000000000E+04  0.10566000000E+00 0. -1.
        994   -1    0    0    0    0 -0.00000000000E+00 -0.00000000000E+00  0.11368683772E-12  0.17120000000E+03  0.17120000000E+03 0.  0.
         13    1    1    2    0    0  0.12897531672E+02  0.16425802188E+02  0.94936782079E+02  0.97206774745E+02  0.10566000000E+00 0. -1.
        994    1    1    2    0    0  0.96947275190E+01 -0.54660217391E+01  0.29166324078E+01  0.17158616459E+03  0.17120000000E+03 0.  0.
        998    1    1    2    0    0 -0.22592259191E+02 -0.10959780449E+02  0.14021465818E+04  0.14024070607E+04  0.10000000000E+02 0. -1.
</event>
<event>
 5    1  0.1153629E-008  0.4155637E+03  0.7957747E-01  0.3309563E+00
         13   -1    0    0    0    0  0.00000000000E+00  0.00000000000E+00  0.14999999963E+04  0.15000000000E+04  0.10566000000E+00 0.  1.
        994   -1    0    0    0    0 -0.00000000000E+00 -0.00000000000E+00  0.11368683772E-12  0.17120000000E+03  0.17120000000E+03 0.  0.
         13    1    1    2    0    0  0.68801012309E+02  0.44172617173E+02  0.73076312352E+02  0.10965836946E+03  0.10566000000E+00 0.  1.
        994    1    1    2    0    0 -0.68997368653E+02 -0.51347564841E+02  0.69111841600E+02  0.20367399428E+03  0.17120000000E+03 0.  0.
        998    1    1    2    0    0  0.19635634429E+00  0.71749476674E+01  0.13578118423E+04  0.13578676363E+04  0.10000000000E+02 0.  1.
</event>
<event>
 5    1  0.1153629E-008  0.3839506E+03  0.7957747E-01  0.3434135E+00
         13   -1    0    0    0    0  0.00000000000E+00  0.00000000000E+00  0.14999999963E+04  0.15000000000E+04  0.10566000000E+00 0.  1.
        994   -1    0    0    0    0 -0.00000000000E+00 -0.00000000000E+00  0.11368683772E-12  0.17120000000E+03  0.17120000000E+03 0.  0.
         13    1    1    2    0    0  0.67421612754E+01  0.20680041446E+02  0.11319932324E+03  0.11527019909E+03  0.10566000000E+00 0.  1.
        994    1    1    2    0    0 -0.47349510542E+01 -0.79145387747E+01  0.24327994480E+01  0.17146550148E+03  0.17120000000E+03 0.  0.
        998    1    1    2    0    0 -0.20072102212E+01 -0.12765502672E+02  0.13843678736E+04  0.13844642994E+04  0.10000000000E+02 0.  1.
</event>
<event>
 5    1  0.1484296E-008  0.3856979E+03  0.7957747E-01  0.3426718E+00
         13   -1    0    0    0    0  0.00000000000E+00  0.00000000000E+00  0.14999999963E+04  0.15000000000E+04  0.10566000000E+00 0. -1.
        994   -1    0    0    0    0 -0.00000000000E+00 -0.00000000000E+00  0.11368683772E-12  0.17120000000E+03  0.17120000000E+03 0.  0.
         13    1    1    2    0    0  0.10831865090E+02 -0.19614172875E+01  0.46362391654E+02  0.47651432119E+02  0.10566000000E+00 0. -1.
        994    1    1    2    0    0 -0.11712505113E+02 -0.22534258243E+00  0.17344841652E+01  0.17160909647E+03  0.17120000000E+03 0.  0.
        998    1    1    2    0    0  0.88064002275E+00  0.21867598699E+01  0.14519031205E+04  0.14519394714E+04  0.10000000000E+02 0. -1.
</event>
<event>
 5    1  0.1153629E-008  0.3838909E+03  0.7957747E-01  0.3434390E+00
         13   -1    0    0    0    0  0.00000000000E+00  0.00000000000E+00  0.14999999963E+04  0.15000000000E+04  0.10566000000E+00 0.  1.
        994   -1    0    0    0    0 -0.00000000000E+00 -0.00000000000E+00  0.11368683772E-12  0.17120000000E+03  0.17120000000E+03 0.  0.
         13    1    1    2    0    0  0.16306130221E+02  0.13971466728E+02  0.86197979209E+02  0.88832395831E+02  0.10566000000E+00 0.  1.
        994    1    1    2    0    0 -0.34488008360E+02 -0.30181152692E+02  0.91449755802E+01  0.17746378582E+03  0.17120000000E+03 0.  0.
        998    1    1    2    0    0  0.18181878139E+02  0.16209685964E+02  0.14046570415E+04  0.14049038184E+04  0.10000000000E+02 0.  1.
</event>
<event>
 5    1  0.1153629E-008  0.3703467E+03  0.7957747E-01  0.3494299E+00
         13   -1    0    0    0    0  0.00000000000E+00  0.00000000000E+00  0.14999999963E+04  0.15000000000E+04  0.10566000000E+00 0.  1.
        994   -1    0    0    0    0 -0.00000000000E+00 -0.00000000000E+00  0.11368683772E-12  0.17120000000E+03  0.17120000000E+03 0.  0.
         13    1    1    2    0    0  0.40655370345E+02  0.65492262032E+02  0.38494592343E+03  0.39258816927E+03  0.10566000000E+00 0.  1.
        994    1    1    2    0    0  0.13468128923E+02 -0.36778116772E+02  0.14404356009E+02  0.17621278569E+03  0.17120000000E+03 0.  0.
        998    1    1    2    0    0 -0.54123499267E+02 -0.28714145260E+02  0.11006497168E+04  0.11023990450E+04  0.10000000000E+02 0.  1.
</event>
<event>
 5    1  0.1153629E-008  0.4556270E+03  0.7957747E-01  0.3176152E+00
         13   -1    0    0    0    0  0.00000000000E+00  0.00000000000E+00  0.14999999963E+04  0.15000000000E+04  0.10566000000E+00 0.  1.
        994   -1    0    0    0    0 -0.00000000000E+00 -0.00000000000E+00  0.11368683772E-12  0.17120000000E+03  0.17120000000E+03 0.  0.
         13    1    1    2    0    0  0.22900037163E+02 -0.34863578839E+02 -0.11846489968E+02  0.43361634196E+02  0.10566000000E+00 0.  1.
        994    1    1    2    0    0 -0.26006845352E+02  0.40586452925E+02  0.78446241627E+02  0.19438844871E+03  0.17120000000E+03 0.  0.
        998    1    1    2    0    0  0.31068081896E+01 -0.57228740852E+01  0.14334002446E+04  0.14334499171E+04  0.10000000000E+02 0.  1.
</event>
<event>
 5    1  0.1153629E-008  0.3789478E+03  0.7957747E-01  0.3455753E+00
         13   -1    0    0    0    0  0.00000000000E+00  0.00000000000E+00  0.14999999963E+04  0.15000000000E+04  0.10566000000E+00 0. -1.
        994   -1    0    0    0    0 -0.00000000000E+00 -0.00000000000E+00  0.11368683772E-12  0.17120000000E+03  0.17120000000E+03 0.  0.
         13    1    1    2    0    0 -0.10004226793E+03 -0.43120171021E+02  0.47207154255E+03  0.48447843809E+03  0.10566000000E+00 0. -1.
        994    1    1    2    0    0  0.79510494032E+01  0.78368713744E+02  0.38504423109E+02  0.19234579559E+03  0.17120000000E+03 0.  0.
        998    1    1    2    0    0  0.92091218524E+02 -0.35248542722E+02  0.98942403062E+03  0.99437576633E+03  0.10000000000E+02 0. -1.
</event>
<event>
 5    1  0.1153629E-008  0.3777289E+03  0.7957747E-01  0.3461107E+00
         13   -1    0    0    0    0  0.00000000000E+00  0.00000000000E+00  0.14999999963E+04  0.15000000000E+04  0.10566000000E+00 0. -1.
        994   -1    0    0    0    0 -0.00000000000E+00 -0.00000000000E+00  0.11368683772E-12  0.17120000000E+03  0.17120000000E+03 0.  0.
         13    1    1    2    0    0  0.49647738436E+01  0.13321451160E+02  0.16681098542E+02  0.21917578628E+02  0.10566000000E+00 0. -1.
        994    1    1    2    0    0 -0.57963972676E+01 -0.12800869779E+02  0.59493688576E+01  0.17187872317E+03  0.17120000000E+03 0.  0.
        998    1    1    2    0    0  0.83162342392E+00 -0.52058138074E+00  0.14773695289E+04  0.14774036982E+04  0.10000000000E+02 0. -1.
</event>
<event>
 5    1  0.1153629E-008  0.4058245E+03  0.7957747E-01  0.3345885E+00
         13   -1    0    0    0    0  0.00000000000E+00  0.00000000000E+00  0.14999999963E+04  0.15000000000E+04  0.10566000000E+00 0. -1.
        994   -1    0    0    0    0 -0.00000000000E+00 -0.00000000000E+00  0.11368683772E-12  0.17120000000E+03  0.17120000000E+03 0.  0.
         13    1    1    2    0    0  0.74371878849E+02  0.15186750169E+02  0.79697179130E+02  0.11006118875E+03  0.10566000000E+00 0. -1.
        994    1    1    2    0    0 -0.67326554767E+02 -0.12319910013E+02  0.50346978410E+02  0.19112536042E+03  0.17120000000E+03 0.  0.
        998    1    1    2    0    0 -0.70453240826E+01 -0.28668401559E+01  0.13699558387E+04  0.13700134508E+04  0.10000000000E+02 0. -1.
</event>
<event>
 5    1  0.1153629E-008  0.3824312E+03  0.7957747E-01  0.3440640E+00
         13   -1    0    0    0    0  0.00000000000E+00  0.00000000000E+00  0.14999999963E+04  0.15000000000E+04  0.10566000000E+00 0. -1.
        994   -1    0    0    0    0 -0.00000000000E+00 -0.00000000000E+00  0.11368683772E-12  0.17120000000E+03  0.17120000000E+03 0.  0.
         13    1    1    2    0    0 -0.93007767905E+01  0.79044398895E+01  0.24730715169E+02  0.27579051029E+02  0.10566000000E+00 0. -1.
        994    1    1    2    0    0  0.20170995362E+01 -0.63295224383E+01  0.30572697158E+01  0.17135611586E+03  0.17120000000E+03 0.  0.
        998    1    1    2    0    0  0.72836772543E+01 -0.15749174512E+01  0.14722120114E+04  0.14722648331E+04  0.10000000000E+02 0. -1.
</event>
<event>
 5    1  0.1153629E-008  0.3811143E+03  0.7957747E-01  0.3446321E+00
         13   -1    0    0    0    0  0.00000000000E+00  0.00000000000E+00  0.14999999963E+04  0.15000000000E+04  0.10566000000E+00 0.  1.
        994   -1    0    0    0    0 -0.00000000000E+00 -0.00000000000E+00  0.11368683772E-12  0.17120000000E+03  0.17120000000E+03 0.  0.
         13    1    1    2    0    0  0.13197351868E+02  0.13527435734E+02  0.48585953141E+02  0.52132212888E+02  0.10566000000E+00 0.  1.
        994    1    1    2    0    0 -0.10498987182E+02 -0.79952163259E+01  0.41519515523E+01  0.17175805925E+03  0.17120000000E+03 0.  0.
        998    1    1    2    0    0 -0.26983646865E+01 -0.55322194078E+01  0.14472620916E+04  0.14473097279E+04  0.10000000000E+02 0.  1.
</event>
<event>
 5    1  0.1153629E-008  0.3856184E+03  0.7957747E-01  0.3427054E+00
         13   -1    0    0    0    0  0.00000000000E+00  0.00000000000E+00  0.14999999963E+04  0.15000000000E+04  0.10566000000E+00 0. -1.
        994   -1    0    0    0    0 -0.00000000000E+00 -0.00000000000E+00  0.11368683772E-12  0.17120000000E+03  0.17120000000E+03 0.  0.
         13    1    1    2    0    0 -0.71516075647E+01 -0.15222490175E+02  0.10064513201E+03  0.10204079312E+03  0.10566000000E+00 0. -1.
        994    1    1    2    0    0  0.88662631014E+01  0.16180066394E+02  0.24414419367E+01  0.17220861131E+03  0.17120000000E+03 0.  0.
        998    1    1    2    0    0 -0.17146555367E+01 -0.95757621851E+00  0.13969134223E+04  0.13969505956E+04  0.10000000000E+02 0.  0.
</event>
<event>
 5    1  0.1153629E-008  0.3817001E+03  0.7957747E-01  0.3443789E+00
         13   -1    0    0    0    0  0.00000000000E+00  0.00000000000E+00  0.14999999963E+04  0.15000000000E+04  0.10566000000E+00 0.  1.
        994   -1    0    0    0    0 -0.00000000000E+00 -0.00000000000E+00  0.11368683772E-12  0.17120000000E+03  0.17120000000E+03 0.  0.
         13    1    1    2    0    0 -0.15268135655E+02  0.14097021273E+02  0.61504130233E+02  0.64920036775E+02  0.10566000000E+00 0.  1.
        994    1    1    2    0    0  0.98426796261E+01 -0.26091057926E+02  0.58666892148E+01  0.17355540812E+03  0.17120000000E+03 0.  0.
        998    1    1    2    0    0  0.54254560286E+01  0.11994036653E+02  0.14326291768E+04  0.14327245551E+04  0.10000000000E+02 0.  1.
</event>
<event>
 5    1  0.1153629E-008  0.3795898E+03  0.7957747E-01  0.3452946E+00
         13   -1    0    0    0    0  0.00000000000E+00  0.00000000000E+00  0.14999999963E+04  0.15000000000E+04  0.10566000000E+00 0.  1.
        994   -1    0    0    0    0 -0.00000000000E+00 -0.00000000000E+00  0.11368683772E-12  0.17120000000E+03  0.17120000000E+03 0.  0.
         13    1    1    2    0    0 -0.16980691795E+02 -0.11337335647E+01  0.30975413712E+02  0.35342844598E+02  0.10566000000E+00 0.  1.
        994    1    1    2    0    0  0.18284470538E+02  0.32674466142E+01  0.54960500593E+01  0.17229232321E+03  0.17120000000E+03 0.  0.
        998    1    1    2    0    0 -0.13037787429E+01 -0.21337130496E+01  0.14635285325E+04  0.14635648322E+04  0.10000000000E+02 0.  1.
</event>
<event>
 5    1  0.1153629E-008  0.3807602E+03  0.7957747E-01  0.3447855E+00
         13   -1    0    0    0    0  0.00000000000E+00  0.00000000000E+00  0.14999999963E+04  0.15000000000E+04  0.10566000000E+00 0.  1.
        994   -1    0    0    0    0 -0.00000000000E+00 -0.00000000000E+00  0.11368683772E-12  0.17120000000E+03  0.17120000000E+03 0.  0.
         13    1    1    2    0    0  0.46603999286E+00  0.15916260587E+02  0.32770469962E+02  0.36434316378E+02  0.10566000000E+00 0.  1.
        994    1    1    2    0    0  0.15238039070E+00 -0.69760442433E+01  0.39122481275E+01  0.17138679674E+03  0.17120000000E+03 0.  0.
        998    1    1    2    0    0 -0.61842038356E+00 -0.89402163433E+01  0.14633172782E+04  0.14633788869E+04  0.10000000000E+02 0.  1.
</event>
<event>
 5    1  0.1153629E-008  0.3758508E+03  0.7957747E-01  0.3469426E+00
         13   -1    0    0    0    0  0.00000000000E+00  0.00000000000E+00  0.14999999963E+04  0.15000000000E+04  0.10566000000E+00 0.  1.
        994   -1    0    0    0    0 -0.00000000000E+00 -0.00000000000E+00  0.11368683772E-12  0.17120000000E+03  0.17120000000E+03 0.  0.
         13    1    1    2    0    0  0.46236533586E+02  0.53010659191E+02  0.31360529580E+03  0.32139732380E+03  0.10566000000E+00 0.  1.
        994    1    1    2    0    0 -0.40648029085E+02 -0.57155854954E+02  0.23102048333E+02  0.18644623531E+03  0.17120000000E+03 0.  0.
        998    1    1    2    0    0 -0.55885045007E+01  0.41451957628E+01  0.11632926521E+04  0.11633564409E+04  0.10000000000E+02 0.  1.
</event>
<event>
 5    1  0.1153629E-008  0.3720895E+03  0.7957747E-01  0.3486343E+00
         13   -1    0    0    0    0  0.00000000000E+00  0.00000000000E+00  0.14999999963E+04  0.15000000000E+04  0.10566000000E+00 0. -1.
        994   -1    0    0    0    0 -0.00000000000E+00 -0.00000000000E+00  0.11368683772E-12  0.17120000000E+03  0.17120000000E+03 0.  0.
         13    1    1    2    0    0 -0.15606351447E+02  0.57046531965E+02  0.17340015759E+03  0.18320887214E+03  0.10566000000E+00 0. -1.
        994    1    1    2    0    0 -0.91778025651E+01  0.77479558495E+01  0.12556160328E+02  0.17207951663E+03  0.17120000000E+03 0.  0.
        998    1    1    2    0    0  0.24784154012E+02 -0.64794487814E+02  0.13140436784E+04  0.13159116112E+04  0.10000000000E+02 0. -1.
</event>
<event>
 5    1  0.1153629E-008  0.3859505E+03  0.7957747E-01  0.3425651E+00
         13   -1    0    0    0    0  0.00000000000E+00  0.00000000000E+00  0.14999999963E+04  0.15000000000E+04  0.10566000000E+00 0.  1.
        994   -1    0    0    0    0 -0.00000000000E+00 -0.00000000000E+00  0.11368683772E-12  0.17120000000E+03  0.17120000000E+03 0.  0.
         13    1    1    2    0    0  0.86298062010E+01  0.60140960311E+01  0.49820112251E+02  0.50918539402E+02  0.10566000000E+00 0.  1.
        994    1    1    2    0    0  0.24033994769E+01 -0.74541690192E+01  0.13601119335E+01  0.17138445341E+03  0.17120000000E+03 0.  0.
        998    1    1    2    0    0 -0.11033205678E+02  0.14400729882E+01  0.14488197721E+04  0.14488970072E+04  0.10000000000E+02 0.  1.
</event>
<event>
 5    1  0.1153629E-008  0.3840287E+03  0.7957747E-01  0.3433802E+00
         13   -1    0    0    0    0  0.00000000000E+00  0.00000000000E+00  0.14999999963E+04  0.15000000000E+04  0.10566000000E+00 0. -1.
        994   -1    0    0    0    0 -0.00000000000E+00 -0.00000000000E+00  0.11368683772E-12  0.17120000000E+03  0.17120000000E+03 0.  0.
         13    1    1    2    0    0  0.76389716330E+01 -0.65931789627E+01  0.23006634700E+02  0.25122505860E+02  0.10566000000E+00 0. -1.
        994    1    1    2    0    0 -0.12012577692E+02  0.49566408309E+01  0.26704299569E+01  0.17171325373E+03  0.17120000000E+03 0.  0.
        998    1    1    2    0    0  0.43736060589E+01  0.16365381318E+01  0.14743229316E+04  0.14743642404E+04  0.10000000000E+02 0. -1.
</event>
<event>
 5    1  0.1153629E-008  0.3854980E+03  0.7957747E-01  0.3427563E+00
         13   -1    0    0    0    0  0.00000000000E+00  0.00000000000E+00  0.14999999963E+04  0.15000000000E+04  0.10566000000E+00 0. -1.
        994   -1    0    0    0    0 -0.00000000000E+00 -0.00000000000E+00  0.11368683772E-12  0.17120000000E+03  0.17120000000E+03 0.  0.
         13    1    1    2    0    0 -0.16487789886E+01  0.12212258378E+02  0.57472449175E+02  0.58778833818E+02  0.10566000000E+00 0. -1.
        994    1    1    2    0    0  0.13284632093E+02 -0.35021841852E+00  0.19631444016E+01  0.17172622991E+03  0.17120000000E+03 0.  0.
        998    1    1    2    0    0 -0.11635853104E+02 -0.11862039959E+02  0.14405644027E+04  0.14406949363E+04  0.10000000000E+02 0. -1.
</event>
<event>
 5    1  0.1153629E-008  0.3769889E+03  0.7957747E-01  0.3464375E+00
         13   -1    0    0    0    0  0.00000000000E+00  0.00000000000E+00  0.14999999963E+04  0.15000000000E+04  0.10566000000E+00 0. -1.
        994   -1    0    0    0    0 -0.00000000000E+00 -0.00000000000E+00  0.11368683772E-12  0.17120000000E+03  0.17120000000E+03 0.  0.
         13    1    1    2    0    0 -0.77898447813E+02 -0.67134667684E+02  0.25227942154E+03  0.27243375244E+03  0.10566000000E+00 0. -1.
        994    1    1    2    0    0  0.10040380957E+03  0.82033329331E+02  0.77681272346E+02  0.22837296725E+03  0.17120000000E+03 0.  0.
        998    1    1    2    0    0 -0.22505361760E+02 -0.14898661647E+02  0.11700393024E+04  0.11703932803E+04  0.10000000000E+02 0. -1.
</event>
<event>
 5    1  0.1153629E-008  0.3803460E+03  0.7957747E-01  0.3449654E+00
         13   -1    0    0    0    0  0.00000000000E+00  0.00000000000E+00  0.14999999963E+04  0.15000000000E+04  0.10566000000E+00 0. -1.
        994   -1    0    0    0    0 -0.00000000000E+00 -0.00000000000E+00  0.11368683772E-12  0.17120000000E+03  0.17120000000E+03 0.  0.
         13    1    1    2    0    0 -0.13138528758E+02  0.30813536095E+02  0.13474091429E+03  0.13884242901E+03  0.10566000000E+00 0. -1.
        994    1    1    2    0    0  0.61042086657E+01 -0.26366170730E+02  0.64081345224E+01  0.17344434413E+03  0.17120000000E+03 0.  0.
        998    1    1    2    0    0  0.70343200922E+01 -0.44473653643E+01  0.13588509475E+04  0.13589132269E+04  0.10000000000E+02 0. -1.
</event>
<event>
 5    1  0.1153629E-008  0.3735666E+03  0.7957747E-01  0.3479658E+00
         13   -1    0    0    0    0  0.00000000000E+00  0.00000000000E+00  0.14999999963E+04  0.15000000000E+04  0.10566000000E+00 0. -1.
        994   -1    0    0    0    0 -0.00000000000E+00 -0.00000000000E+00  0.11368683772E-12  0.17120000000E+03  0.17120000000E+03 0.  0.
         13    1    1    2    0    0 -0.42306040753E+02 -0.68768572943E+02  0.36312231224E+03  0.37199024519E+03  0.10566000000E+00 0. -1.
        994    1    1    2    0    0  0.11249686951E+02 -0.15363506403E+02  0.14121929885E+02  0.17283362430E+03  0.17120000000E+03 0.  0.
        998    1    1    2    0    0  0.31056353802E+02  0.84132079345E+02  0.11227557542E+04  0.11263761305E+04  0.10000000000E+02 0. -1.
</event>
<event>
 5    1  0.1153629E-008  0.3853907E+03  0.7957747E-01  0.3428017E+00
         13   -1    0    0    0    0  0.00000000000E+00  0.00000000000E+00  0.14999999963E+04  0.15000000000E+04  0.10566000000E+00 0.  1.
        994   -1    0    0    0    0 -0.00000000000E+00 -0.00000000000E+00  0.11368683772E-12  0.17120000000E+03  0.17120000000E+03 0.  0.
         13    1    1    2    0    0  0.58697005339E+01  0.94852867426E+01  0.42777299281E+02  0.44207833545E+02  0.10566000000E+00 0.  1.
        994    1    1    2    0    0 -0.51425592594E+01 -0.87989778739E+01  0.17775228535E+01  0.17151229552E+03  0.17120000000E+03 0.  0.
        998    1    1    2    0    0 -0.72714127447E+00 -0.68630886871E+00  0.14554451741E+04  0.14554798709E+04  0.10000000000E+02 0.  1.
</event>
<event>
 5    1  0.1153629E-008  0.3713098E+03  0.7957747E-01  0.3489893E+00
         13   -1    0    0    0    0  0.00000000000E+00  0.00000000000E+00  0.14999999963E+04  0.15000000000E+04  0.10566000000E+00 0. -1.
        994   -1    0    0    0    0 -0.00000000000E+00 -0.00000000000E+00  0.11368683772E-12  0.17120000000E+03  0.17120000000E+03 0.  0.
         13    1    1    2    0    0  0.85801646432E+02  0.99365102407E+01  0.26043265960E+03  0.27438264908E+03  0.10566000000E+00 0. -1.
        994    1    1    2    0    0 -0.13361126614E+03 -0.81503647452E+01  0.73038558140E+02  0.22926506463E+03  0.17120000000E+03 0.  0.
        998    1    1    2    0    0  0.47809619712E+02 -0.17861454955E+01  0.11665287785E+04  0.11675522863E+04  0.10000000000E+02 0. -1.
</event>
<event>
 5    1  0.1153629E-008  0.3843105E+03  0.7957747E-01  0.3432602E+00
         13   -1    0    0    0    0  0.00000000000E+00  0.00000000000E+00  0.14999999963E+04  0.15000000000E+04  0.10566000000E+00 0.  1.
        994   -1    0    0    0    0 -0.00000000000E+00 -0.00000000000E+00  0.11368683772E-12  0.17120000000E+03  0.17120000000E+03 0.  0.
         13    1    1    2    0    0  0.14050607015E+02  0.36073166167E+01  0.51140270636E+02  0.53157979038E+02  0.10566000000E+00 0.  1.
        994    1    1    2    0    0 -0.16637751156E+02 -0.16509911589E+01  0.28947542761E+01  0.17203883323E+03  0.17120000000E+03 0.  0.
        998    1    1    2    0    0  0.25871441414E+01 -0.19563254579E+01  0.14459649714E+04  0.14460031877E+04  0.10000000000E+02 0.  1.
</event>
<event>
 5    1  0.1153629E-008  0.3818664E+03  0.7957747E-01  0.3443072E+00
         13   -1    0    0    0    0  0.00000000000E+00  0.00000000000E+00  0.14999999963E+04  0.15000000000E+04  0.10566000000E+00 0.  1.
        994   -1    0    0    0    0 -0.00000000000E+00 -0.00000000000E+00  0.11368683772E-12  0.17120000000E+03  0.17120000000E+03 0.  0.
         13    1    1    2    0    0  0.24346950671E+02 -0.69669557644E+01  0.10945695335E+03  0.11234833457E+03  0.10566000000E+00 0.  1.
        994    1    1    2    0    0 -0.26897775650E+01 -0.10076136380E+02  0.35553890743E+01  0.17155420199E+03  0.17120000000E+03 0.  0.
        998    1    1    2    0    0 -0.21657173106E+02  0.17043092145E+02  0.13869876539E+04  0.13872974634E+04  0.10000000000E+02 0.  1.
</event>
<event>
 5    1  0.1153629E-008  0.3783257E+03  0.7957747E-01  0.3458481E+00
         13   -1    0    0    0    0  0.00000000000E+00  0.00000000000E+00  0.14999999963E+04  0.15000000000E+04  0.10566000000E+00 0. -1.
        994   -1    0    0    0    0 -0.00000000000E+00 -0.00000000000E+00  0.11368683772E-12  0.17120000000E+03  0.17120000000E+03 0.  0.
         13    1    1    2    0    0 -0.45815377981E+02  0.87493902365E+01  0.20884877452E+03  0.21399397765E+03  0.10566000000E+00 0. -1.
        994    1    1    2    0    0  0.33597272849E+02  0.36792723567E+01  0.88301976262E+01  0.17472757704E+03  0.17120000000E+03 0.  0.
        998    1    1    2    0    0  0.12218105132E+02 -0.12428662593E+02  0.12823210241E+04  0.12824784453E+04  0.10000000000E+02 0. -1.
</event>
<event>
 5    1  0.1153629E-008  0.3848132E+03  0.7957747E-01  0.3430465E+00
         13   -1    0    0    0    0  0.00000000000E+00  0.00000000000E+00  0.14999999963E+04  0.15000000000E+04  0.10566000000E+00 0. -1.
        994   -1    0    0    0    0 -0.00000000000E+00 -0.00000000000E+00  0.11368683772E-12  0.17120000000E+03  0.17120000000E+03 0.  0.
         13    1    1    2    0    0 -0.77975980067E+01  0.15835280859E+02  0.10582328237E+03  0.10728530613E+03  0.10566000000E+00 0. -1.
        994    1    1    2    0    0  0.17871259832E+01  0.98664586743E+01  0.20538203418E+01  0.17150568213E+03  0.17120000000E+03 0.  0.
        998    1    1    2    0    0  0.60104720235E+01 -0.25701739533E+02  0.13921228936E+04  0.13924090117E+04  0.10000000000E+02 0. -1.
</event>
<event>
 5    1  0.1153629E-008  0.3773321E+03  0.7957747E-01  0.3462858E+00
         13   -1    0    0    0    0  0.00000000000E+00  0.00000000000E+00  0.14999999963E+04  0.15000000000E+04  0.10566000000E+00 0.  1.
        994   -1    0    0    0    0 -0.00000000000E+00 -0.00000000000E+00  0.11368683772E-12  0.17120000000E+03  0.17120000000E+03 0.  0.
         13    1    1    2    0    0 -0.13759230667E+02  0.15755249122E+02  0.38928232004E+02  0.44192337735E+02  0.10566000000E+00 0.  1.
        994    1    1    2    0    0 -0.26705546742E+01 -0.70014072371E+01  0.56753828057E+01  0.17145787102E+03  0.17120000000E+03 0.  0.
        998    1    1    2    0    0  0.16429785342E+02 -0.87538418852E+01  0.14553963815E+04  0.14555497912E+04  0.10000000000E+02 0.  1.
</event>
<event>
 5    1  0.1153629E-008  0.3809975E+03  0.7957747E-01  0.3446827E+00
         13   -1    0    0    0    0  0.00000000000E+00  0.00000000000E+00  0.14999999963E+04  0.15000000000E+04  0.10566000000E+00 0. -1.
        994   -1    0    0    0    0 -0.00000000000E+00 -0.00000000000E+00  0.11368683772E-12  0.17120000000E+03  0.17120000000E+03 0.  0.
         13    1    1    2    0    0  0.30056430665E+02  0.16910944877E+01  0.14943103866E+03  0.15243324868E+03  0.10566000000E+00 0. -1.
        994    1    1    2    0    0  0.92095162516E+01  0.57392221918E+01  0.40229262103E+01  0.17159072759E+03  0.17120000000E+03 0.  0.
        998    1    1    2    0    0 -0.39265946917E+02 -0.74303166796E+01  0.13465460314E+04  0.13471760237E+04  0.10000000000E+02 0. -1.
</event>
<event>
 5    1  0.1153629E-008  0.3908434E+03  0.7957747E-01  0.3405262E+00
         13   -1    0    0    0    0  0.00000000000E+00  0.00000000000E+00  0.14999999963E+04  0.15000000000E+04  0.10566000000E+00 0. -1.
        994   -1    0    0    0    0 -0.00000000000E+00 -0.00000000000E+00  0.11368683772E-12  0.17120000000E+03  0.17120000000E+03 0.  0.
         13    1    1    2    0    0  0.24202685116E+02  0.59055498791E+02  0.83822288225E+02  0.10535420766E+03  0.10566000000E+00 0. -1.
        994    1    1    2    0    0 -0.95268550939E+01 -0.43658850344E+02  0.29990746913E+02  0.17945958064E+03  0.17120000000E+03 0.  0.
        998    1    1    2    0    0 -0.14675830022E+02 -0.15396648447E+02  0.13861869611E+04  0.13863862117E+04  0.10000000000E+02 0. -1.
</event>
<event>
 5    1  0.1153629E-008  0.3822113E+03  0.7957747E-01  0.3441586E+00
         13   -1    0    0    0    0  0.00000000000E+00  0.00000000000E+00  0.14999999963E+04  0.15000000000E+04  0.10566000000E+00 0.  1.
        994   -1    0    0    0    0 -0.00000000000E+00 -0.00000000000E+00  0.11368683772E-12  0.17120000000E+03  0.17120000000E+03 0.  0.
         13    1    1    2    0    0  0.15594811122E+02 -0.21841251258E+02  0.11035976086E+03  0.11357608186E+03  0.10566000000E+00 0.  1.
        994    1    1    2    0    0 -0.17643923201E+02  0.21244818288E+02  0.55561359988E+01  0.17350204891E+03  0.17120000000E+03 0.  0.
        998    1    1    2    0    0  0.20491120788E+01  0.59643297058E+00  0.13840840994E+04  0.13841218692E+04  0.10000000000E+02 0.  1.
</event>
<event>
 5    1  0.1153629E-008  0.3809248E+03  0.7957747E-01  0.3447142E+00
         13   -1    0    0    0    0  0.00000000000E+00  0.00000000000E+00  0.14999999963E+04  0.15000000000E+04  0.10566000000E+00 0.  1.
        994   -1    0    0    0    0 -0.00000000000E+00 -0.00000000000E+00  0.11368683772E-12  0.17120000000E+03  0.17120000000E+03 0.  0.
         13    1    1    2    0    0 -0.20484590980E+02  0.19271439417E+02  0.10891228072E+03  0.11248512302E+03  0.10566000000E+00 0.  1.
        994    1    1    2    0    0  0.68264066192E+01 -0.12172652827E+02  0.43164483971E+01  0.17182213196E+03  0.17120000000E+03 0.  0.
        998    1    1    2    0    0  0.13658184360E+02 -0.70987865900E+01  0.13867712672E+04  0.13868927450E+04  0.10000000000E+02 0.  1.
</event>
<event>
 5    1  0.1153629E-008  0.3825098E+03  0.7957747E-01  0.3440303E+00
         13   -1    0    0    0    0  0.00000000000E+00  0.00000000000E+00  0.14999999963E+04  0.15000000000E+04  0.10566000000E+00 0. -1.
        994   -1    0    0    0    0 -0.00000000000E+00 -0.00000000000E+00  0.11368683772E-12  0.17120000000E+03  0.17120000000E+03 0.  0.
         13    1    1    2    0    0  0.89326588104E+01 -0.11986277210E+02  0.38460419613E+02  0.41263522336E+02  0.10566000000E+00 0. -1.
        994    1    1    2    0    0 -0.66280454644E+01  0.31729968305E+01  0.30506155382E+01  0.17138478681E+03  0.17120000000E+03 0.  0.
        998    1    1    2    0    0 -0.23046133460E+01  0.88132803793E+01  0.14584889611E+04  0.14585516909E+04  0.10000000000E+02 0. -1.
</event>
<event>
 5    1  0.1153629E-008  0.3740415E+03  0.7957747E-01  0.3477521E+00
         13   -1    0    0    0    0  0.00000000000E+00  0.00000000000E+00  0.14999999963E+04  0.15000000000E+04  0.10566000000E+00 0.  1.
        994   -1    0    0    0    0 -0.00000000000E+00 -0.00000000000E+00  0.11368683772E-12  0.17120000000E+03  0.17120000000E+03 0.  0.
         13    1    1    2    0    0  0.67071725811E+02 -0.46528695077E+01  0.29169144682E+03  0.29933956790E+03  0.10566000000E+00 0.  1.
        994    1    1    2    0    0 -0.47392084975E+02  0.38652317801E+02  0.20035116210E+02  0.18289575520E+03  0.17120000000E+03 0.  0.
        998    1    1    2    0    0 -0.19679640836E+02 -0.33999448293E+02  0.11882734332E+04  0.11889646769E+04  0.10000000000E+02 0.  1.
</event>
<event>
 5    1  0.1153629E-008  0.3701232E+03  0.7957747E-01  0.3495325E+00
         13   -1    0    0    0    0  0.00000000000E+00  0.00000000000E+00  0.14999999963E+04  0.15000000000E+04  0.10566000000E+00 0.  1.
        994   -1    0    0    0    0 -0.00000000000E+00 -0.00000000000E+00  0.11368683772E-12  0.17120000000E+03  0.17120000000E+03 0.  0.
         13    1    1    2    0    0  0.10031604355E+02  0.13742059713E+03  0.55611441081E+03  0.57292957916E+03  0.10566000000E+00 0.  1.
        994    1    1    2    0    0 -0.17481146575E+02 -0.14513211158E+03  0.87133755196E+02  0.24139314736E+03  0.17120000000E+03 0.  0.
        998    1    1    2    0    0  0.74495422199E+01  0.77115144540E+01  0.85675183027E+03  0.85687727348E+03  0.10000000000E+02 0.  1.
</event>
<event>
 5    1  0.1153629E-008  0.3808518E+03  0.7957747E-01  0.3447458E+00
         13   -1    0    0    0    0  0.00000000000E+00  0.00000000000E+00  0.14999999963E+04  0.15000000000E+04  0.10566000000E+00 0.  1.
        994   -1    0    0    0    0 -0.00000000000E+00 -0.00000000000E+00  0.11368683772E-12  0.17120000000E+03  0.17120000000E+03 0.  0.
         13    1    1    2    0    0  0.10763029895E+02 -0.76650898480E+01  0.21755138951E+02  0.25453755120E+02  0.10566000000E+00 0.  1.
        994    1    1    2    0    0 -0.13278266818E+02  0.58768941941E+01  0.44069747213E+01  0.17187120667E+03  0.17120000000E+03 0.  0.
        998    1    1    2    0    0  0.25152369226E+01  0.17881956539E+01  0.14738378826E+04  0.14738750382E+04  0.10000000000E+02 0.  1.
</event>
<event>
 5    1  0.1153629E-008  0.3822861E+03  0.7957747E-01  0.3441264E+00
         13   -1    0    0    0    0  0.00000000000E+00  0.00000000000E+00  0.14999999963E+04  0.15000000000E+04  0.10566000000E+00 0.  1.
        994   -1    0    0    0    0 -0.00000000000E+00 -0.00000000000E+00  0.11368683772E-12  0.17120000000E+03  0.17120000000E+03 0.  0.
         13    1    1    2    0    0  0.12262476159E+02  0.73267749108E+00  0.25031134574E+02  0.27883220760E+02  0.10566000000E+00 0.  1.
        994    1    1    2    0    0  0.20815386252E+01  0.59043460569E+01  0.31136308010E+01  0.17134272323E+03  0.17120000000E+03 0.  0.
        998    1    1    2    0    0 -0.14344014785E+02 -0.66370235480E+01  0.14718552309E+04  0.14719740560E+04  0.10000000000E+02 0.  1.
</event>
<event>
 5    1  0.1153629E-008  0.3796294E+03  0.7957747E-01  0.3452774E+00
         13   -1    0    0    0    0  0.00000000000E+00  0.00000000000E+00  0.14999999963E+04  0.15000000000E+04  0.10566000000E+00 0. -1.
        994   -1    0    0    0    0 -0.00000000000E+00 -0.00000000000E+00  0.11368683772E-12  0.17120000000E+03  0.17120000000E+03 0.  0.
         13    1    1    2    0    0  0.30397128734E+02  0.47353833544E+02  0.32777110049E+03  0.33256619862E+03  0.10566000000E+00 0. -1.
        994    1    1    2    0    0 -0.34730786477E+02 -0.29569506625E+02  0.11315749990E+02  0.17753329110E+03  0.17120000000E+03 0.  0.
        998    1    1    2    0    0  0.43336577433E+01 -0.17784326920E+02  0.11609131458E+04  0.11611005103E+04  0.10000000000E+02 0. -1.
</event>
<event>
 5    1  0.1153629E-008  0.3792422E+03  0.7957747E-01  0.3454465E+00
         13   -1    0    0    0    0  0.00000000000E+00  0.00000000000E+00  0.14999999963E+04  0.15000000000E+04  0.10566000000E+00 0.  1.
        994   -1    0    0    0    0 -0.00000000000E+00 -0.00000000000E+00  0.11368683772E-12  0.17120000000E+03  0.17120000000E+03 0.  0.
         13    1    1    2    0    0 -0.29146229083E+02 -0.28256813563E+02  0.20788034687E+03  0.21180698752E+03  0.10566000000E+00 0.  1.
        994    1    1    2    0    0 -0.33068777453E+01  0.10439507845E+02  0.49181294453E+01  0.17162035649E+03  0.17120000000E+03 0.  0.
        998    1    1    2    0    0  0.32453106828E+02  0.17817305718E+02  0.12872015200E+04  0.12877726560E+04  0.10000000000E+02 0.  1.
</event>
<event>
 5    1  0.1153629E-008  0.3834997E+03  0.7957747E-01  0.3436060E+00
         13   -1    0    0    0    0  0.00000000000E+00  0.00000000000E+00  0.14999999963E+04  0.15000000000E+04  0.10566000000E+00 0.  1.
        994   -1    0    0    0    0 -0.00000000000E+00 -0.00000000000E+00  0.11368683772E-12  0.17120000000E+03  0.17120000000E+03 0.  0.
         13    1    1    2    0    0  0.86648959551E+01 -0.67872973040E+01  0.23731808400E+02  0.26160231661E+02  0.10566000000E+00 0.  1.
        994    1    1    2    0    0 -0.10394356957E+02  0.17852630424E+02  0.37884477315E+01  0.17248348154E+03  0.17120000000E+03 0.  0.
        998    1    1    2    0    0  0.17294610015E+01 -0.11065333120E+02  0.14724797401E+04  0.14725562868E+04  0.10000000000E+02 0.  1.
</event>
<event>
 5    1  0.1153629E-008  0.3785637E+03  0.7957747E-01  0.3457437E+00
         13   -1    0    0    0    0  0.00000000000E+00  0.00000000000E+00  0.14999999963E+04  0.15000000000E+04  0.10566000000E+00 0. -1.
        994   -1    0    0    0    0 -0.00000000000E+00 -0.00000000000E+00  0.11368683772E-12  0.17120000000E+03  0.17120000000E+03 0.  0.
         13    1    1    2    0    0  0.23991291001E+02  0.82412645013E+01  0.63018770993E+02  0.67932887072E+02  0.10566000000E+00 0. -1.
        994    1    1    2    0    0 -0.21223945970E+02 -0.51132784730E+01  0.64624409088E+01  0.17270728022E+03  0.17120000000E+03 0.  0.
        998    1    1    2    0    0 -0.27673450307E+01 -0.31279860283E+01  0.14305187844E+04  0.14305598327E+04  0.10000000000E+02 0. -1.
</event>
<event>
 5    1  0.1153629E-008  0.3694229E+03  0.7957747E-01  0.3498547E+00
         13   -1    0    0    0    0  0.00000000000E+00  0.00000000000E+00  0.14999999963E+04  0.15000000000E+04  0.10566000000E+00 0.  1.
        994   -1    0    0    0    0 -0.00000000000E+00 -0.00000000000E+00  0.11368683772E-12  0.17120000000E+03  0.17120000000E+03 0.  0.
         13    1    1    2    0    0  0.75174777543E+02  0.67164749606E+01  0.28309263203E+03  0.29298089987E+03  0.10566000000E+00 0.  1.
        994    1    1    2    0    0 -0.49606126488E+02 -0.76386075516E+01  0.18349812230E+02  0.17934679177E+03  0.17120000000E+03 0.  0.
        998    1    1    2    0    0 -0.25568651055E+02  0.92213259098E+00  0.11985575520E+04  0.11988723084E+04  0.10000000000E+02 0.  1.
</event>
<event>
 5    1  0.1153629E-008  0.3461930E+03  0.7957747E-01  0.3613009E+00
         13   -1    0    0    0    0  0.00000000000E+00  0.00000000000E+00  0.14999999963E+04  0.15000000000E+04  0.10566000000E+00 0. -1.
        994   -1    0    0    0    0 -0.00000000000E+00 -0.00000000000E+00  0.11368683772E-12  0.17120000000E+03  0.17120000000E+03 0.  0.
         13    1    1    2    0    0 -0.89873555918E+02 -0.25181813264E+03  0.82165841339E+03  0.86406723548E+03  0.10566000000E+00 0. -1.
        994    1    1    2    0    0  0.71301724078E+02  0.25385536693E+03  0.32150704566E+03  0.44966954932E+03  0.17120000000E+03 0.  0.
        998    1    1    2    0    0  0.18571831840E+02 -0.20372342840E+01  0.35683453723E+03  0.35746321520E+03  0.10000000000E+02 0. -1.
</event>
<event>
 5    1  0.1153629E-008  0.3764780E+03  0.7957747E-01  0.3466639E+00
         13   -1    0    0    0    0  0.00000000000E+00  0.00000000000E+00  0.14999999963E+04  0.15000000000E+04  0.10566000000E+00 0.  1.
        994   -1    0    0    0    0 -0.00000000000E+00 -0.00000000000E+00  0.11368683772E-12  0.17120000000E+03  0.17120000000E+03 0.  0.
         13    1    1    2    0    0  0.10098158769E+03 -0.10697818829E+02  0.58761596549E+03  0.59632563122E+03  0.10566000000E+00 0.  1.
        994    1    1    2    0    0 -0.53324782734E+01  0.99396722954E+01  0.14861269747E+02  0.17221361662E+03  0.17120000000E+03 0.  0.
        998    1    1    2    0    0 -0.95649109416E+02  0.75814653359E+00  0.89752276104E+03  0.90266075216E+03  0.10000000000E+02 0. -1.
</event>
<event>
 5    1  0.1153629E-008  0.3857550E+03  0.7957747E-01  0.3426476E+00
         13   -1    0    0    0    0  0.00000000000E+00  0.00000000000E+00  0.14999999963E+04  0.15000000000E+04  0.10566000000E+00 0. -1.
        994   -1    0    0    0    0 -0.00000000000E+00 -0.00000000000E+00  0.11368683772E-12  0.17120000000E+03  0.17120000000E+03 0.  0.
         13    1    1    2    0    0  0.94339374491E+01  0.34795907179E+01  0.44029122587E+02  0.45162833472E+02  0.10566000000E+00 0. -1.
        994    1    1    2    0    0  0.51514389452E+01  0.60205061890E+01  0.14617294364E+01  0.17138949930E+03  0.17120000000E+03 0.  0.
        998    1    1    2    0    0 -0.14585376394E+02 -0.95000969068E+01  0.14545091443E+04  0.14546476672E+04  0.10000000000E+02 0. -1.
</event>
<event>
 5    1  0.1153629E-008  0.3270114E+03  0.7957747E-01  0.3720252E+00
         13   -1    0    0    0    0  0.00000000000E+00  0.00000000000E+00  0.14999999963E+04  0.15000000000E+04  0.10566000000E+00 0. -1.
        994   -1    0    0    0    0 -0.00000000000E+00 -0.00000000000E+00  0.11368683772E-12  0.17120000000E+03  0.17120000000E+03 0.  0.
         13    1    1    2    0    0 -0.23084799975E+03 -0.22552006630E+01  0.73177113492E+03  0.76732319787E+03  0.10566000000E+00 0. -1.
        994    1    1    2    0    0  0.24418373825E+03 -0.33577281194E+02  0.26879341075E+03  0.40288021732E+03  0.17120000000E+03 0.  0.
        998    1    1    2    0    0 -0.13335738508E+02  0.35832481857E+02  0.49943545060E+03  0.50099658482E+03  0.10000000000E+02 0.  1.
</event>
<event>
 5    1  0.1153629E-008  0.3857788E+03  0.7957747E-01  0.3426376E+00
         13   -1    0    0    0    0  0.00000000000E+00  0.00000000000E+00  0.14999999963E+04  0.15000000000E+04  0.10566000000E+00 0.  1.
        994   -1    0    0    0    0 -0.00000000000E+00 -0.00000000000E+00  0.11368683772E-12  0.17120000000E+03  0.17120000000E+03 0.  0.
         13    1    1    2    0    0  0.98709128646E+01 -0.33700770629E+01  0.43846450554E+02  0.45070109057E+02  0.10566000000E+00 0.  1.
        994    1    1    2    0    0 -0.89997239432E+01 -0.19133518340E+01  0.15217004806E+01  0.17145381745E+03  0.17120000000E+03 0.  0.
        998    1    1    2    0    0 -0.87118892141E+00  0.52834288969E+01  0.14546318452E+04  0.14546760735E+04  0.10000000000E+02 0.  1.
</event>
<event>
 5    1  0.1153629E-008  0.3785749E+03  0.7957747E-01  0.3457387E+00
         13   -1    0    0    0    0  0.00000000000E+00  0.00000000000E+00  0.14999999963E+04  0.15000000000E+04  0.10566000000E+00 0. -1.
        994   -1    0    0    0    0 -0.00000000000E+00 -0.00000000000E+00  0.11368683772E-12  0.17120000000E+03  0.17120000000E+03 0.  0.
         13    1    1    2    0    0  0.56537266286E+02  0.44310566113E+02  0.42036079069E+03  0.42645409397E+03  0.10566000000E+00 0. -1.
        994    1    1    2    0    0 -0.16946948140E+02 -0.98620163566E+02  0.39257605746E+02  0.20214780563E+03  0.17120000000E+03 0.  0.
        998    1    1    2    0    0 -0.39590318146E+02  0.54309597453E+02  0.10403815998E+04  0.10425981004E+04  0.10000000000E+02 0. -1.
</event>
<event>
 5    1  0.1153629E-008  0.3847132E+03  0.7957747E-01  0.3430890E+00
         13   -1    0    0    0    0  0.00000000000E+00  0.00000000000E+00  0.14999999963E+04  0.15000000000E+04  0.10566000000E+00 0. -1.
        994   -1    0    0    0    0 -0.00000000000E+00 -0.00000000000E+00  0.11368683772E-12  0.17120000000E+03  0.17120000000E+03 0.  0.
         13    1    1    2    0    0  0.92880081602E+01 -0.89927849512E+01  0.46750553705E+02  0.48505285408E+02  0.10566000000E+00 0. -1.
        994    1    1    2    0    0 -0.31592683606E+01  0.10320848803E+02  0.21561954412E+01  0.17155346127E+03  0.17120000000E+03 0.  0.
        998    1    1    2    0    0 -0.61287397996E+01 -0.13280638520E+01  0.14510932471E+04  0.14511412533E+04  0.10000000000E+02 0. -1.
</event>
<event>
 5    1  0.1153629E-008  0.3779226E+03  0.7957747E-01  0.3460254E+00
         13   -1    0    0    0    0  0.00000000000E+00  0.00000000000E+00  0.14999999963E+04  0.15000000000E+04  0.10566000000E+00 0.  1.
        994   -1    0    0    0    0 -0.00000000000E+00 -0.00000000000E+00  0.11368683772E-12  0.17120000000E+03  0.17120000000E+03 0.  0.
         13    1    1    2    0    0  0.59500942125E+02  0.79769317745E+02  0.55949825738E+03  0.56827969993E+03  0.10566000000E+00 0.  1.
        994    1    1    2    0    0 -0.49597143413E+02 -0.92116523678E+02  0.42960442087E+02  0.20518374729E+03  0.17120000000E+03 0.  0.
        998    1    1    2    0    0 -0.99037987123E+01  0.12347205933E+02  0.89754129681E+03  0.89773655278E+03  0.10000000000E+02 0.  1.
</event>
<event>
 5    1  0.1153629E-008  0.3803931E+03  0.7957747E-01  0.3449449E+00
         13   -1    0    0    0    0  0.00000000000E+00  0.00000000000E+00  0.14999999963E+04  0.15000000000E+04  0.10566000000E+00 0.  1.
        994   -1    0    0    0    0 -0.00000000000E+00 -0.00000000000E+00  0.11368683772E-12  0.17120000000E+03  0.17120000000E+03 0.  0.
         13    1    1    2    0    0  0.11543204002E+02 -0.71275647702E+01  0.21332595239E+02  0.25281189091E+02  0.10566000000E+00 0.  1.
        994    1    1    2    0    0 -0.13681975422E+02  0.97856485658E+01  0.48800744567E+01  0.17209360969E+03  0.17120000000E+03 0.  0.
        998    1    1    2    0    0  0.21387714202E+01 -0.26580837956E+01  0.14737873266E+04  0.14738252012E+04  0.10000000000E+02 0.  1.
</event>
<event>
 5    1  0.1153629E-008  0.3851586E+03  0.7957747E-01  0.3429000E+00
         13   -1    0    0    0    0  0.00000000000E+00  0.00000000000E+00  0.14999999963E+04  0.15000000000E+04  0.10566000000E+00 0. -1.
        994   -1    0    0    0    0 -0.00000000000E+00 -0.00000000000E+00  0.11368683772E-12  0.17120000000E+03  0.17120000000E+03 0.  0.
         13    1    1    2    0    0 -0.10239701805E+02  0.11611330890E+02  0.76746178399E+02  0.78292155169E+02  0.10566000000E+00 0. -1.
        994    1    1    2    0    0  0.56723656338E+01 -0.10061589802E+02  0.19900693806E+01  0.17160073338E+03  0.17120000000E+03 0.  0.
        998    1    1    2    0    0  0.45673361716E+01 -0.15497410886E+01  0.14212637485E+04  0.14213071114E+04  0.10000000000E+02 0. -1.
</event>
<event>
 5    1  0.1153629E-008  0.3694550E+03  0.7957747E-01  0.3498399E+00
         13   -1    0    0    0    0  0.00000000000E+00  0.00000000000E+00  0.14999999963E+04  0.15000000000E+04  0.10566000000E+00 0.  1.
        994   -1    0    0    0    0 -0.00000000000E+00 -0.00000000000E+00  0.11368683772E-12  0.17120000000E+03  0.17120000000E+03 0.  0.
         13    1    1    2    0    0  0.47766265896E+02 -0.39019853129E+02  0.18212721302E+03  0.19228753986E+03  0.10566000000E+00 0.  1.
        994    1    1    2    0    0 -0.16526151418E+02  0.25226447717E+02  0.13830998648E+02  0.17438527423E+03  0.17120000000E+03 0.  0.
        998    1    1    2    0    0 -0.31240114479E+02  0.13793405412E+02  0.13040417846E+04  0.13045271859E+04  0.10000000000E+02 0.  1.
</event>
<event>
 5    1  0.1153629E-008  0.3801795E+03  0.7957747E-01  0.3450377E+00
         13   -1    0    0    0    0  0.00000000000E+00  0.00000000000E+00  0.14999999963E+04  0.15000000000E+04  0.10566000000E+00 0. -1.
        994   -1    0    0    0    0 -0.00000000000E+00 -0.00000000000E+00  0.11368683772E-12  0.17120000000E+03  0.17120000000E+03 0.  0.
         13    1    1    2    0    0  0.79310514576E+00  0.13468607502E+02  0.21056830609E+02  0.25008672158E+02  0.10566000000E+00 0. -1.
        994    1    1    2    0    0  0.37468637519E+01 -0.59613554379E+01  0.42082374953E+01  0.17139640022E+03  0.17120000000E+03 0.  0.
        998    1    1    2    0    0 -0.45399688977E+01 -0.75072520638E+01  0.14747349282E+04  0.14747949276E+04  0.10000000000E+02 0. -1.
</event>
<event>
 5    1  0.1153629E-008  0.3755489E+03  0.7957747E-01  0.3470772E+00
         13   -1    0    0    0    0  0.00000000000E+00  0.00000000000E+00  0.14999999963E+04  0.15000000000E+04  0.10566000000E+00 0. -1.
        994   -1    0    0    0    0 -0.00000000000E+00 -0.00000000000E+00  0.11368683772E-12  0.17120000000E+03  0.17120000000E+03 0.  0.
         13    1    1    2    0    0 -0.73077294502E+02  0.48316765447E+02  0.50111671685E+03  0.50871679338E+03  0.10566000000E+00 0. -1.
        994    1    1    2    0    0  0.73101395494E+02 -0.14633265011E+02  0.25494524175E+02  0.18846049249E+03  0.17120000000E+03 0.  0.
        998    1    1    2    0    0 -0.24100992390E-01 -0.33683500436E+02  0.97338875525E+03  0.97402271413E+03  0.10000000000E+02 0. -1.
</event>
<event>
 5    1  0.1153629E-008  0.3840083E+03  0.7957747E-01  0.3433889E+00
         13   -1    0    0    0    0  0.00000000000E+00  0.00000000000E+00  0.14999999963E+04  0.15000000000E+04  0.10566000000E+00 0.  1.
        994   -1    0    0    0    0 -0.00000000000E+00 -0.00000000000E+00  0.11368683772E-12  0.17120000000E+03  0.17120000000E+03 0.  0.
         13    1    1    2    0    0  0.55087801244E+01 -0.15267794554E+02  0.62445391453E+02  0.64520464092E+02  0.10566000000E+00 0.  1.
        994    1    1    2    0    0  0.63419972361E+00  0.89144089573E+01  0.23868348860E+01  0.17144971822E+03  0.17120000000E+03 0.  0.
        998    1    1    2    0    0 -0.61429798480E+01  0.63533855963E+01  0.14351677699E+04  0.14352298177E+04  0.10000000000E+02 0.  1.
</event>
<event>
 5    1  0.1153629E-008  0.3843971E+03  0.7957747E-01  0.3432233E+00
         13   -1    0    0    0    0  0.00000000000E+00  0.00000000000E+00  0.14999999963E+04  0.15000000000E+04  0.10566000000E+00 0.  1.
        994   -1    0    0    0    0 -0.00000000000E+00 -0.00000000000E+00  0.11368683772E-12  0.17120000000E+03  0.17120000000E+03 0.  0.
         13    1    1    2    0    0  0.62756134133E+01  0.24122928591E+02  0.14588245790E+03  0.14799662730E+03  0.10566000000E+00 0.  1.
        994    1    1    2    0    0 -0.10201692528E+02 -0.24498716612E+02  0.42538128316E+01  0.17329684524E+03  0.17120000000E+03 0.  0.
        998    1    1    2    0    0  0.39260791145E+01  0.37578802118E+00  0.13498637256E+04  0.13499065275E+04  0.10000000000E+02 0.  1.
</event>
<event>
 5    1  0.1153629E-008  0.3852611E+03  0.7957747E-01  0.3428566E+00
         13   -1    0    0    0    0  0.00000000000E+00  0.00000000000E+00  0.14999999963E+04  0.15000000000E+04  0.10566000000E+00 0. -1.
        994   -1    0    0    0    0 -0.00000000000E+00 -0.00000000000E+00  0.11368683772E-12  0.17120000000E+03  0.17120000000E+03 0.  0.
         13    1    1    2    0    0  0.12990519601E+02  0.55200680911E+01  0.67403563292E+02  0.68865639180E+02  0.10566000000E+00 0. -1.
        994    1    1    2    0    0 -0.58195015379E+01 -0.53406911197E+01  0.17055972976E+01  0.17139060255E+03  0.17120000000E+03 0.  0.
        998    1    1    2    0    0 -0.71710180628E+01 -0.17937697141E+00  0.14308908357E+04  0.14309437583E+04  0.10000000000E+02 0. -1.
</event>
<event>
 5    1  0.1153629E-008  0.3812938E+03  0.7957747E-01  0.3445544E+00
         13   -1    0    0    0    0  0.00000000000E+00  0.00000000000E+00  0.14999999963E+04  0.15000000000E+04  0.10566000000E+00 0. -1.
        994   -1    0    0    0    0 -0.00000000000E+00 -0.00000000000E+00  0.11368683772E-12  0.17120000000E+03  0.17120000000E+03 0.  0.
         13    1    1    2    0    0  0.39599109725E+02 -0.83103846098E+01  0.21600040407E+03  0.21975745200E+03  0.10566000000E+00 0. -1.
        994    1    1    2    0    0 -0.33028649881E+02  0.33424794324E+01  0.71585821256E+01  0.17453581059E+03  0.17120000000E+03 0.  0.
        998    1    1    2    0    0 -0.65704598436E+01  0.49679051773E+01  0.12768410101E+04  0.12769067374E+04  0.10000000000E+02 0. -1.
</event>
<event>
 5    1  0.1153629E-008  0.3765325E+03  0.7957747E-01  0.3466397E+00
         13   -1    0    0    0    0  0.00000000000E+00  0.00000000000E+00  0.14999999963E+04  0.15000000000E+04  0.10566000000E+00 0.  1.
        994   -1    0    0    0    0 -0.00000000000E+00 -0.00000000000E+00  0.11368683772E-12  0.17120000000E+03  0.17120000000E+03 0.  0.
         13    1    1    2    0    0  0.24781621768E+02 -0.32640584686E+02  0.18043338039E+03  0.18502905845E+03  0.10566000000E+00 0.  1.
        994    1    1    2    0    0  0.23608818004E+02 -0.21658334729E+01  0.77969103811E+01  0.17300953423E+03  0.17120000000E+03 0.  0.
        998    1    1    2    0    0 -0.48390439772E+02  0.34806418159E+02  0.13117697055E+04  0.13131614073E+04  0.10000000000E+02 0.  1.
</event>
<event>
 5    1  0.1153629E-008  0.3708890E+03  0.7957747E-01  0.3491815E+00
         13   -1    0    0    0    0  0.00000000000E+00  0.00000000000E+00  0.14999999963E+04  0.15000000000E+04  0.10566000000E+00 0. -1.
        994   -1    0    0    0    0 -0.00000000000E+00 -0.00000000000E+00  0.11368683772E-12  0.17120000000E+03  0.17120000000E+03 0.  0.
         13    1    1    2    0    0 -0.12333248004E+02  0.68258798818E+00  0.13481066010E+01  0.12425920012E+02  0.10566000000E+00 0. -1.
        994    1    1    2    0    0  0.15338959229E+02 -0.31229495500E+00  0.12235539782E+02  0.17232100752E+03  0.17120000000E+03 0.  0.
        998    1    1    2    0    0 -0.30057112244E+01 -0.37029303317E+00  0.14864163499E+04  0.14864530725E+04  0.10000000000E+02 0. -1.
</event>
<event>
 5    1  0.1153629E-008  0.3855002E+03  0.7957747E-01  0.3427554E+00
         13   -1    0    0    0    0  0.00000000000E+00  0.00000000000E+00  0.14999999963E+04  0.15000000000E+04  0.10566000000E+00 0.  1.
        994   -1    0    0    0    0 -0.00000000000E+00 -0.00000000000E+00  0.11368683772E-12  0.17120000000E+03  0.17120000000E+03 0.  0.
         13    1    1    2    0    0  0.33422309936E+01  0.20762401890E+02  0.11662597904E+03  0.11850686897E+03  0.10566000000E+00 0.  1.
        994    1    1    2    0    0 -0.69302195557E+01 -0.49605730826E+02  0.96628215481E+01  0.17863808831E+03  0.17120000000E+03 0.  0.
        998    1    1    2    0    0  0.35879885621E+01  0.28843328936E+02  0.13737111957E+04  0.13740550427E+04  0.10000000000E+02 0.  1.
</event>
<event>
 5    1  0.1153629E-008  0.3688756E+03  0.7957747E-01  0.3501075E+00
         13   -1    0    0    0    0  0.00000000000E+00  0.00000000000E+00  0.14999999963E+04  0.15000000000E+04  0.10566000000E+00 0.  1.
        994   -1    0    0    0    0 -0.00000000000E+00 -0.00000000000E+00  0.11368683772E-12  0.17120000000E+03  0.17120000000E+03 0.  0.
         13    1    1    2    0    0 -0.48023405262E+02  0.12567905840E+01  0.12165016475E+03  0.13079220436E+03  0.10566000000E+00 0.  1.
        994    1    1    2    0    0 -0.85290158224E+00 -0.50683758366E+02  0.19347502292E+02  0.17959213972E+03  0.17120000000E+03 0.  0.
        998    1    1    2    0    0  0.48876306844E+02  0.49426967782E+02  0.13590023292E+04  0.13608156559E+04  0.10000000000E+02 0.  1.
</event>
<event>
 5    1  0.1153629E-008  0.3855462E+03  0.7957747E-01  0.3427359E+00
         13   -1    0    0    0    0  0.00000000000E+00  0.00000000000E+00  0.14999999963E+04  0.15000000000E+04  0.10566000000E+00 0.  1.
        994   -1    0    0    0    0 -0.00000000000E+00 -0.00000000000E+00  0.11368683772E-12  0.17120000000E+03  0.17120000000E+03 0.  0.
         13    1    1    2    0    0  0.12188170162E+02 -0.35111200771E-01  0.54883661589E+02  0.56220816413E+02  0.10566000000E+00 0.  1.
        994    1    1    2    0    0 -0.83055335187E+01  0.66864835580E+00  0.15871481943E+01  0.17140999976E+03  0.17120000000E+03 0.  0.
        998    1    1    2    0    0 -0.38826366432E+01 -0.63353715503E+00  0.14435291865E+04  0.14435691838E+04  0.10000000000E+02 0.  1.
</event>
<event>
 5    1  0.1153629E-008  0.3849475E+03  0.7957747E-01  0.3429895E+00
         13   -1    0    0    0    0  0.00000000000E+00  0.00000000000E+00  0.14999999963E+04  0.15000000000E+04  0.10566000000E+00 0.  1.
        994   -1    0    0    0    0 -0.00000000000E+00 -0.00000000000E+00  0.11368683772E-12  0.17120000000E+03  0.17120000000E+03 0.  0.
         13    1    1    2    0    0 -0.12587408573E+02  0.14161703228E+02  0.10228368137E+03  0.10402384021E+03  0.10566000000E+00 0.  1.
        994    1    1    2    0    0  0.13216225392E+02 -0.14307703090E+02  0.29050763499E+01  0.17232892517E+03  0.17120000000E+03 0.  0.
        998    1    1    2    0    0 -0.62881681869E+00  0.14599986209E+00  0.13948112386E+04  0.13948472346E+04  0.10000000000E+02 0.  0.
</event>
<event>
 5    1  0.1153629E-008  0.3702757E+03  0.7957747E-01  0.3494625E+00
         13   -1    0    0    0    0  0.00000000000E+00  0.00000000000E+00  0.14999999963E+04  0.15000000000E+04  0.10566000000E+00 0. -1.
        994   -1    0    0    0    0 -0.00000000000E+00 -0.00000000000E+00  0.11368683772E-12  0.17120000000E+03  0.17120000000E+03 0.  0.
         13    1    1    2    0    0 -0.56804973879E+02  0.87641477021E+01  0.17137699356E+03  0.18075868009E+03  0.10566000000E+00 0. -1.
        994    1    1    2    0    0  0.39660050309E+02 -0.19377688827E+02  0.15885784368E+02  0.17751116179E+03  0.17120000000E+03 0.  0.
        998    1    1    2    0    0  0.17144923569E+02  0.10613541125E+02  0.13127372184E+04  0.13129301581E+04  0.10000000000E+02 0. -1.
</event>
<event>
 5    1  0.1153629E-008  0.3758002E+03  0.7957747E-01  0.3469652E+00
         13   -1    0    0    0    0  0.00000000000E+00  0.00000000000E+00  0.14999999963E+04  0.15000000000E+04  0.10566000000E+00 0. -1.
        994   -1    0    0    0    0 -0.00000000000E+00 -0.00000000000E+00  0.11368683772E-12  0.17120000000E+03  0.17120000000E+03 0.  0.
         13    1    1    2    0    0 -0.11818729128E+02 -0.41027254882E+02  0.58295381544E+02  0.72258429783E+02  0.10566000000E+00 0. -1.
        994    1    1    2    0    0  0.81308429425E+01  0.37587117998E+02  0.19335311859E+02  0.17652817433E+03  0.17120000000E+03 0.  0.
        998    1    1    2    0    0  0.36878861851E+01  0.34401368840E+01  0.14223693029E+04  0.14224133959E+04  0.10000000000E+02 0. -1.
</event>
<event>
 5    1  0.1153629E-008  0.3761808E+03  0.7957747E-01  0.3467959E+00
         13   -1    0    0    0    0  0.00000000000E+00  0.00000000000E+00  0.14999999963E+04  0.15000000000E+04  0.10566000000E+00 0. -1.
        994   -1    0    0    0    0 -0.00000000000E+00 -0.00000000000E+00  0.11368683772E-12  0.17120000000E+03  0.17120000000E+03 0.  0.
         13    1    1    2    0    0 -0.86099529640E+01 -0.44065078209E+02  0.15916653581E+03  0.16537792989E+03  0.10566000000E+00 0. -1.
        994    1    1    2    0    0  0.56522618888E+01  0.31167802203E+02  0.94782765013E+01  0.17436357901E+03  0.17120000000E+03 0.  0.
        998    1    1    2    0    0  0.29576910752E+01  0.12897276005E+02  0.13313551840E+04  0.13314584911E+04  0.10000000000E+02 0. -1.
</event>
<event>
 5    1  0.1153629E-008  0.3830842E+03  0.7957747E-01  0.3437838E+00
         13   -1    0    0    0    0  0.00000000000E+00  0.00000000000E+00  0.14999999963E+04  0.15000000000E+04  0.10566000000E+00 0.  1.
        994   -1    0    0    0    0 -0.00000000000E+00 -0.00000000000E+00  0.11368683772E-12  0.17120000000E+03  0.17120000000E+03 0.  0.
         13    1    1    2    0    0  0.15953398748E+00 -0.14823880718E+02  0.42411227288E+02  0.44927678048E+02  0.10566000000E+00 0.  1.
        994    1    1    2    0    0 -0.35871788418E+01  0.60255626832E+01  0.27470341843E+01  0.17136557838E+03  0.17120000000E+03 0.  0.
        998    1    1    2    0    0  0.34276448544E+01  0.87983180353E+01  0.14548417348E+04  0.14549067436E+04  0.10000000000E+02 0.  1.
</event>
<event>
 5    1  0.1153629E-008  0.3845533E+03  0.7957747E-01  0.3431569E+00
         13   -1    0    0    0    0  0.00000000000E+00  0.00000000000E+00  0.14999999963E+04  0.15000000000E+04  0.10566000000E+00 0. -1.
        994   -1    0    0    0    0 -0.00000000000E+00 -0.00000000000E+00  0.11368683772E-12  0.17120000000E+03  0.17120000000E+03 0.  0.
         13    1    1    2    0    0  0.54972852064E+01  0.17502203172E+02  0.91857675461E+02  0.93671719135E+02  0.10566000000E+00 0. -1.
        994    1    1    2    0    0 -0.15968572450E+02 -0.56229344275E+01  0.27965935538E+01  0.17205776249E+03  0.17120000000E+03 0.  0.
        998    1    1    2    0    0  0.10471287244E+02 -0.11879268745E+02  0.14053457273E+04  0.14054705184E+04  0.10000000000E+02 0. -1.
</event>
<event>
 5    1  0.1153629E-008  0.3816906E+03  0.7957747E-01  0.3443830E+00
         13   -1    0    0    0    0  0.00000000000E+00  0.00000000000E+00  0.14999999963E+04  0.15000000000E+04  0.10566000000E+00 0. -1.
        994   -1    0    0    0    0 -0.00000000000E+00 -0.00000000000E+00  0.11368683772E-12  0.17120000000E+03  0.17120000000E+03 0.  0.
         13    1    1    2    0    0  0.25784015670E+02  0.52032099254E+01  0.10649249053E+03  0.10969298319E+03  0.10566000000E+00 0. -1.
        994    1    1    2    0    0 -0.13264818261E+02  0.21247165118E+01  0.38823232816E+01  0.17177014367E+03  0.17120000000E+03 0.  0.
        998    1    1    2    0    0 -0.12519197409E+02 -0.73279264373E+01  0.13896251825E+04  0.13897368731E+04  0.10000000000E+02 0. -1.
</event>
<event>
 5    1  0.1153629E-008  0.3759457E+03  0.7957747E-01  0.3469004E+00
         13   -1    0    0    0    0  0.00000000000E+00  0.00000000000E+00  0.14999999963E+04  0.15000000000E+04  0.10566000000E+00 0.  1.
        994   -1    0    0    0    0 -0.00000000000E+00 -0.00000000000E+00  0.11368683772E-12  0.17120000000E+03  0.17120000000E+03 0.  0.
         13    1    1    2    0    0 -0.15983310179E+02  0.23104008771E+02  0.59802404851E+02  0.66072688878E+02  0.10566000000E+00 0.  1.
        994    1    1    2    0    0  0.14111277913E+02 -0.21223035724E+02  0.83979089131E+01  0.17329024867E+03  0.17120000000E+03 0.  0.
        998    1    1    2    0    0  0.18720322663E+01 -0.18809730471E+01  0.14317996825E+04  0.14318370625E+04  0.10000000000E+02 0.  1.
</event>
<event>
 5    1  0.1153629E-008  0.3801364E+03  0.7957747E-01  0.3450565E+00
         13   -1    0    0    0    0  0.00000000000E+00  0.00000000000E+00  0.14999999963E+04  0.15000000000E+04  0.10566000000E+00 0.  1.
        994   -1    0    0    0    0 -0.00000000000E+00 -0.00000000000E+00  0.11368683772E-12  0.17120000000E+03  0.17120000000E+03 0.  0.
         13    1    1    2    0    0  0.11181074502E+02  0.26725130673E+01  0.14427513608E+02  0.18447847193E+02  0.10566000000E+00 0.  1.
        994    1    1    2    0    0 -0.72103871881E+01 -0.14902928401E+02  0.49806600287E+01  0.17207072364E+03  0.17120000000E+03 0.  0.
        998    1    1    2    0    0 -0.39706873139E+01  0.12230415334E+02  0.14805918226E+04  0.14806814292E+04  0.10000000000E+02 0.  1.
</event>
<event>
 5    1  0.1153629E-008  0.3687716E+03  0.7957747E-01  0.3501555E+00
         13   -1    0    0    0    0  0.00000000000E+00  0.00000000000E+00  0.14999999963E+04  0.15000000000E+04  0.10566000000E+00 0. -1.
        994   -1    0    0    0    0 -0.00000000000E+00 -0.00000000000E+00  0.11368683772E-12  0.17120000000E+03  0.17120000000E+03 0.  0.
         13    1    1    2    0    0 -0.10955847857E+03  0.13788611452E+03  0.60479133030E+03  0.62991126770E+03  0.10566000000E+00 0. -1.
        994    1    1    2    0    0  0.11459154466E+03 -0.16165215793E+03  0.16266167657E+03  0.30827082784E+03  0.17120000000E+03 0.  0.
        998    1    1    2    0    0 -0.50330660931E+01  0.23766043414E+02  0.73254698941E+03  0.73301790447E+03  0.10000000000E+02 0.  1.
</event>
<event>
 5    1  0.1153629E-008  0.3874819E+03  0.7957747E-01  0.3419214E+00
         13   -1    0    0    0    0  0.00000000000E+00  0.00000000000E+00  0.14999999963E+04  0.15000000000E+04  0.10566000000E+00 0.  1.
        994   -1    0    0    0    0 -0.00000000000E+00 -0.00000000000E+00  0.11368683772E-12  0.17120000000E+03  0.17120000000E+03 0.  0.
         13    1    1    2    0    0 -0.73532942433E+02  0.34487732803E+02  0.13791905465E+03  0.16005678410E+03  0.10566000000E+00 0.  1.
        994    1    1    2    0    0  0.89720297448E+02 -0.11764985315E+02  0.51698076874E+02  0.20042524244E+03  0.17120000000E+03 0.  0.
        998    1    1    2    0    0 -0.16187355014E+02 -0.22722747488E+02  0.13103828648E+04  0.13107179735E+04  0.10000000000E+02 0.  1.
</event>
<event>
 5    1  0.1153629E-008  0.3854362E+03  0.7957747E-01  0.3427825E+00
         13   -1    0    0    0    0  0.00000000000E+00  0.00000000000E+00  0.14999999963E+04  0.15000000000E+04  0.10566000000E+00 0.  1.
        994   -1    0    0    0    0 -0.00000000000E+00 -0.00000000000E+00  0.11368683772E-12  0.17120000000E+03  0.17120000000E+03 0.  0.
         13    1    1    2    0    0 -0.76462392145E+01  0.80045225314E+01  0.43868792439E+02  0.45243999262E+02  0.10566000000E+00 0.  1.
        994    1    1    2    0    0  0.13405801795E+02  0.45813448987E+01  0.20731406717E+01  0.17179767797E+03  0.17120000000E+03 0.  0.
        998    1    1    2    0    0 -0.57595625802E+01 -0.12585867430E+02  0.14540580632E+04  0.14541583228E+04  0.10000000000E+02 0.  1.
</event>
<event>
 5    1  0.1153629E-008  0.3775128E+03  0.7957747E-01  0.3462060E+00
         13   -1    0    0    0    0  0.00000000000E+00  0.00000000000E+00  0.14999999963E+04  0.15000000000E+04  0.10566000000E+00 0.  1.
        994   -1    0    0    0    0 -0.00000000000E+00 -0.00000000000E+00  0.11368683772E-12  0.17120000000E+03  0.17120000000E+03 0.  0.
         13    1    1    2    0    0  0.94753718724E+01  0.10449515411E+02  0.15859021756E+02  0.21224862297E+02  0.10566000000E+00 0.  1.
        994    1    1    2    0    0 -0.15204729033E+02 -0.82479201818E+01  0.64031627081E+01  0.17219074442E+03  0.17120000000E+03 0.  0.
        998    1    1    2    0    0  0.57293571611E+01 -0.22015952288E+01  0.14777378118E+04  0.14777843933E+04  0.10000000000E+02 0.  1.
</event>
<event>
 5    1  0.1153629E-008  0.3848046E+03  0.7957747E-01  0.3430501E+00
         13   -1    0    0    0    0  0.00000000000E+00  0.00000000000E+00  0.14999999963E+04  0.15000000000E+04  0.10566000000E+00 0.  1.
        994   -1    0    0    0    0 -0.00000000000E+00 -0.00000000000E+00  0.11368683772E-12  0.17120000000E+03  0.17120000000E+03 0.  0.
         13    1    1    2    0    0 -0.69547083153E+01 -0.93246265852E+01  0.38286177136E+02  0.40014486782E+02  0.10566000000E+00 0.  1.
        994    1    1    2    0    0  0.48351757586E+01  0.10666797169E+02  0.21786639021E+01  0.17161394484E+03  0.17120000000E+03 0.  0.
        998    1    1    2    0    0  0.21195325567E+01 -0.13421705841E+01  0.14595351552E+04  0.14595715684E+04  0.10000000000E+02 0.  1.
</event>
<event>
 5    1  0.1153629E-008  0.3764206E+03  0.7957747E-01  0.3466894E+00
         13   -1    0    0    0    0  0.00000000000E+00  0.00000000000E+00  0.14999999963E+04  0.15000000000E+04  0.10566000000E+00 0.  1.
        994   -1    0    0    0    0 -0.00000000000E+00 -0.00000000000E+00  0.11368683772E-12  0.17120000000E+03  0.17120000000E+03 0.  0.
         13    1    1    2    0    0  0.74997157215E+01 -0.13144694586E+02  0.16404808460E+02  0.22319445251E+02  0.10566000000E+00 0.  1.
        994    1    1    2    0    0 -0.15326448036E+02  0.10971945956E+02  0.71538481375E+01  0.17238300714E+03  0.17120000000E+03 0.  0.
        998    1    1    2    0    0  0.78267323149E+01  0.21727486305E+01  0.14764413397E+04  0.14764975476E+04  0.10000000000E+02 0.  1.
</event>
<event>
 5    1  0.1153629E-008  0.3849002E+03  0.7957747E-01  0.3430096E+00
         13   -1    0    0    0    0  0.00000000000E+00  0.00000000000E+00  0.14999999963E+04  0.15000000000E+04  0.10566000000E+00 0.  1.
        994   -1    0    0    0    0 -0.00000000000E+00 -0.00000000000E+00  0.11368683772E-12  0.17120000000E+03  0.17120000000E+03 0.  0.
         13    1    1    2    0    0 -0.76039487275E+01  0.73186526374E+01  0.32551189167E+02  0.34219494340E+02  0.10566000000E+00 0.  1.
        994    1    1    2    0    0  0.80822687911E+01 -0.54881309079E+01  0.19937510544E+01  0.17149010961E+03  0.17120000000E+03 0.  0.
        998    1    1    2    0    0 -0.47832006359E+00 -0.18305217296E+01  0.14654550561E+04  0.14654903961E+04  0.10000000000E+02 0.  1.
</event>
<event>
 5    1  0.1153629E-008  0.3831888E+03  0.7957747E-01  0.3437390E+00
         13   -1    0    0    0    0  0.00000000000E+00  0.00000000000E+00  0.14999999963E+04  0.15000000000E+04  0.10566000000E+00 0.  1.
        994   -1    0    0    0    0 -0.00000000000E+00 -0.00000000000E+00  0.11368683772E-12  0.17120000000E+03  0.17120000000E+03 0.  0.
         13    1    1    2    0    0  0.46872604896E+01 -0.25213708690E+02  0.12599424269E+03  0.12857784363E+03  0.10566000000E+00 0.  1.
        994    1    1    2    0    0  0.26529180578E+02  0.25680089344E+02  0.70549183476E+01  0.17527828241E+03  0.17120000000E+03 0.  0.
        998    1    1    2    0    0 -0.31216441067E+02 -0.46638065466E+00  0.13669508352E+04  0.13673438740E+04  0.10000000000E+02 0.  1.
</event>
<event>
 5    1  0.1153629E-008  0.3815466E+03  0.7957747E-01  0.3444452E+00
         13   -1    0    0    0    0  0.00000000000E+00  0.00000000000E+00  0.14999999963E+04  0.15000000000E+04  0.10566000000E+00 0.  1.
        994   -1    0    0    0    0 -0.00000000000E+00 -0.00000000000E+00  0.11368683772E-12  0.17120000000E+03  0.17120000000E+03 0.  0.
         13    1    1    2    0    0 -0.13692228752E+02 -0.34637057778E+02  0.18464861406E+03  0.18836752570E+03  0.10566000000E+00 0.  1.
        994    1    1    2    0    0  0.43565503277E+01  0.36860137081E+02  0.79499811890E+01  0.17535761015E+03  0.17120000000E+03 0.  0.
        998    1    1    2    0    0  0.93356784247E+01 -0.22230793036E+01  0.13074014010E+04  0.13074748642E+04  0.10000000000E+02 0.  1.
</event>
<event>
 5    1  0.1153629E-008  0.3078928E+03  0.7957747E-01  0.3841234E+00
         13   -1    0    0    0    0  0.00000000000E+00  0.00000000000E+00  0.14999999963E+04  0.15000000000E+04  0.10566000000E+00 0. -1.
        994   -1    0    0    0    0 -0.00000000000E+00 -0.00000000000E+00  0.11368683772E-12  0.17120000000E+03  0.17120000000E+03 0.  0.
         13    1    1    2    0    0  0.10308461415E+03  0.14689177473E+03  0.73937508040E+03  0.76084108185E+03  0.10566000000E+00 0. -1.
        994    1    1    2    0    0 -0.56431820937E+02 -0.15910561881E+03  0.12159266213E+03  0.26943155686E+03  0.17120000000E+03 0.  0.
        998    1    1    2    0    0 -0.46652793213E+02  0.12213844084E+02  0.63903225375E+03  0.64092736128E+03  0.10000000000E+02 0. -1.
</event>
<event>
 5    1  0.1153629E-008  0.3729940E+03  0.7957747E-01  0.3482243E+00
         13   -1    0    0    0    0  0.00000000000E+00  0.00000000000E+00  0.14999999963E+04  0.15000000000E+04  0.10566000000E+00 0.  1.
        994   -1    0    0    0    0 -0.00000000000E+00 -0.00000000000E+00  0.11368683772E-12  0.17120000000E+03  0.17120000000E+03 0.  0.
         13    1    1    2    0    0 -0.96870948979E+01  0.50418257259E+02  0.14981234992E+03  0.15836537445E+03  0.10566000000E+00 0.  1.
        994    1    1    2    0    0 -0.24916198845E+01 -0.56267187643E+02  0.18647932509E+02  0.18118882405E+03  0.17120000000E+03 0.  0.
        998    1    1    2    0    0  0.12178714782E+02  0.58489303832E+01  0.13315397139E+04  0.13316458015E+04  0.10000000000E+02 0.  1.
</event>
<event>
 5    1  0.1153629E-008  0.3819924E+03  0.7957747E-01  0.3442529E+00
         13   -1    0    0    0    0  0.00000000000E+00  0.00000000000E+00  0.14999999963E+04  0.15000000000E+04  0.10566000000E+00 0.  1.
        994   -1    0    0    0    0 -0.00000000000E+00 -0.00000000000E+00  0.11368683772E-12  0.17120000000E+03  0.17120000000E+03 0.  0.
         13    1    1    2    0    0 -0.10874188295E+02 -0.18747506647E+02  0.71689147103E+02  0.74893670981E+02  0.10566000000E+00 0.  1.
        994    1    1    2    0    0  0.59463621954E+01  0.19868001715E+02  0.45604452653E+01  0.17251183837E+03  0.17120000000E+03 0.  0.
        998    1    1    2    0    0  0.49278260994E+01 -0.11204950673E+01  0.14237504039E+04  0.14237944907E+04  0.10000000000E+02 0.  1.
</event>
<event>
 5    1  0.1153629E-008  0.3687111E+03  0.7957747E-01  0.3501836E+00
         13   -1    0    0    0    0  0.00000000000E+00  0.00000000000E+00  0.14999999963E+04  0.15000000000E+04  0.10566000000E+00 0. -1.
        994   -1    0    0    0    0 -0.00000000000E+00 -0.00000000000E+00  0.11368683772E-12  0.17120000000E+03  0.17120000000E+03 0.  0.
         13    1    1    2    0    0  0.55612938088E+02  0.74493867897E+02  0.31748698599E+03  0.33081737057E+03  0.10566000000E+00 0. -1.
        994    1    1    2    0    0 -0.69914427634E+02 -0.74492305966E+02  0.47123430061E+02  0.20485894782E+03  0.17120000000E+03 0.  0.
        998    1    1    2    0    0  0.14301489546E+02 -0.15619310585E-02  0.11353895802E+04  0.11355236816E+04  0.10000000000E+02 0. -1.
</event>
<event>
 5    1  0.1153629E-008  0.3838616E+03  0.7957747E-01  0.3434515E+00
         13   -1    0    0    0    0  0.00000000000E+00  0.00000000000E+00  0.14999999963E+04  0.15000000000E+04  0.10566000000E+00 0.  1.
        994   -1    0    0    0    0 -0.00000000000E+00 -0.00000000000E+00  0.11368683772E-12  0.17120000000E+03  0.17120000000E+03 0.  0.
         13    1    1    2    0    0  0.11878257628E+02 -0.12878303643E+02  0.71821883830E+02  0.73927923479E+02  0.10566000000E+00 0.  1.
        994    1    1    2    0    0 -0.58769356302E+01  0.19866755599E+01  0.23234450722E+01  0.17132811693E+03  0.17120000000E+03 0.  0.
        998    1    1    2    0    0 -0.60013219976E+01  0.10891628083E+02  0.14258546674E+04  0.14259439596E+04  0.10000000000E+02 0.  0.
</event>
<event>
 5    1  0.1153629E-008  0.3858701E+03  0.7957747E-01  0.3425990E+00
         13   -1    0    0    0    0  0.00000000000E+00  0.00000000000E+00  0.14999999963E+04  0.15000000000E+04  0.10566000000E+00 0. -1.
        994   -1    0    0    0    0 -0.00000000000E+00 -0.00000000000E+00  0.11368683772E-12  0.17120000000E+03  0.17120000000E+03 0.  0.
         13    1    1    2    0    0  0.11428381490E+02 -0.50650452622E+01  0.64761828778E+02  0.65957321184E+02  0.10566000000E+00 0. -1.
        994    1    1    2    0    0 -0.80352839880E+01  0.78849368633E+01  0.16144963996E+01  0.17157734296E+03  0.17120000000E+03 0.  0.
        998    1    1    2    0    0 -0.33930975021E+01 -0.28198916010E+01  0.14336236711E+04  0.14336653359E+04  0.10000000000E+02 0. -1.
</event>
<event>
 5    1  0.1153629E-008  0.3698810E+03  0.7957747E-01  0.3496438E+00
         13   -1    0    0    0    0  0.00000000000E+00  0.00000000000E+00  0.14999999963E+04  0.15000000000E+04  0.10566000000E+00 0. -1.
        994   -1    0    0    0    0 -0.00000000000E+00 -0.00000000000E+00  0.11368683772E-12  0.17120000000E+03  0.17120000000E+03 0.  0.
         13    1    1    2    0    0 -0.43618588068E+02  0.59023893670E+02  0.30731669036E+03  0.31595879571E+03  0.10566000000E+00 0. -1.
        994    1    1    2    0    0  0.14075333752E+02  0.14916214331E+01  0.11576310944E+02  0.17217372311E+03  0.17120000000E+03 0.  0.
        998    1    1    2    0    0  0.29543254316E+02 -0.60515515103E+02  0.11811069950E+04  0.11830674812E+04  0.10000000000E+02 0. -1.
</event>
<event>
 5    1  0.1153629E-008  0.3828745E+03  0.7957747E-01  0.3438737E+00
         13   -1    0    0    0    0  0.00000000000E+00  0.00000000000E+00  0.14999999963E+04  0.15000000000E+04  0.10566000000E+00 0. -1.
        994   -1    0    0    0    0 -0.00000000000E+00 -0.00000000000E+00  0.11368683772E-12  0.17120000000E+03  0.17120000000E+03 0.  0.
         13    1    1    2    0    0 -0.20544994965E+02 -0.22984509111E+02  0.17195691416E+03  0.17469852882E+03  0.10566000000E+00 0. -1.
        994    1    1    2    0    0  0.20474723190E+02  0.99266446279E+01  0.44054802825E+01  0.17276168794E+03  0.17120000000E+03 0.  0.
        998    1    1    2    0    0  0.70271774825E-01  0.13057864483E+02  0.13236376018E+04  0.13237397832E+04  0.10000000000E+02 0.  1.
</event>
<event>
 5    1  0.1153629E-008  0.3815872E+03  0.7957747E-01  0.3444277E+00
         13   -1    0    0    0    0  0.00000000000E+00  0.00000000000E+00  0.14999999963E+04  0.15000000000E+04  0.10566000000E+00 0.  1.
        994   -1    0    0    0    0 -0.00000000000E+00 -0.00000000000E+00  0.11368683772E-12  0.17120000000E+03  0.17120000000E+03 0.  0.
         13    1    1    2    0    0  0.43444407762E+02  0.28829738799E+02  0.30454838947E+03  0.30897945417E+03  0.10566000000E+00 0.  1.
        994    1    1    2    0    0 -0.72245108253E+02 -0.33062814694E+01  0.20927052453E+02  0.18702317687E+03  0.17120000000E+03 0.  0.
        998    1    1    2    0    0  0.28800700491E+02 -0.25523457330E+02  0.11745245544E+04  0.11751973690E+04  0.10000000000E+02 0.  1.
</event>
<event>
 5    1  0.1153629E-008  0.3806964E+03  0.7957747E-01  0.3448132E+00
         13   -1    0    0    0    0  0.00000000000E+00  0.00000000000E+00  0.14999999963E+04  0.15000000000E+04  0.10566000000E+00 0. -1.
        994   -1    0    0    0    0 -0.00000000000E+00 -0.00000000000E+00  0.11368683772E-12  0.17120000000E+03  0.17120000000E+03 0.  0.
         13    1    1    2    0    0 -0.21095408996E+02 -0.15406792143E+01  0.68073902351E+02  0.71284341328E+02  0.10566000000E+00 0. -1.
        994    1    1    2    0    0 -0.21327265763E+02 -0.15425314831E+02  0.60961032340E+01  0.17331876724E+03  0.17120000000E+03 0.  0.
        998    1    1    2    0    0  0.42422674758E+02  0.16965994045E+02  0.14258299907E+04  0.14265968914E+04  0.10000000000E+02 0. -1.
</event>
<event>
 5    1  0.1153629E-008  0.3844623E+03  0.7957747E-01  0.3431956E+00
         13   -1    0    0    0    0  0.00000000000E+00  0.00000000000E+00  0.14999999963E+04  0.15000000000E+04  0.10566000000E+00 0. -1.
        994   -1    0    0    0    0 -0.00000000000E+00 -0.00000000000E+00  0.11368683772E-12  0.17120000000E+03  0.17120000000E+03 0.  0.
         13    1    1    2    0    0  0.16505631531E+01  0.16409487039E+02  0.69353597539E+02  0.71287644647E+02  0.10566000000E+00 0. -1.
        994    1    1    2    0    0  0.39529154238E+00 -0.15754773348E+02  0.27159727265E+01  0.17194529841E+03  0.17120000000E+03 0.  0.
        998    1    1    2    0    0 -0.20458546955E+01 -0.65471369093E+00  0.14279304260E+04  0.14279670569E+04  0.10000000000E+02 0. -1.
</event>
<event>
 5    1  0.1153629E-008  0.3850713E+03  0.7957747E-01  0.3429370E+00
         13   -1    0    0    0    0  0.00000000000E+00  0.00000000000E+00  0.14999999963E+04  0.15000000000E+04  0.10566000000E+00 0. -1.
        994   -1    0    0    0    0 -0.00000000000E+00 -0.00000000000E+00  0.11368683772E-12  0.17120000000E+03  0.17120000000E+03 0.  0.
         13    1    1    2    0    0  0.18492170268E+02  0.21236062385E+01  0.10557854592E+03  0.10720685886E+03  0.10566000000E+00 0. -1.
        994    1    1    2    0    0 -0.13890294657E+02 -0.19154464495E+02  0.34375991523E+01  0.17286147889E+03  0.17120000000E+03 0.  0.
        998    1    1    2    0    0 -0.46018756104E+01  0.17030858257E+02  0.13909838512E+04  0.13911316622E+04  0.10000000000E+02 0. -1.
</event>
<event>
 5    1  0.1153629E-008  0.3854004E+03  0.7957747E-01  0.3427976E+00
         13   -1    0    0    0    0  0.00000000000E+00  0.00000000000E+00  0.14999999963E+04  0.15000000000E+04  0.10566000000E+00 0. -1.
        994   -1    0    0    0    0 -0.00000000000E+00 -0.00000000000E+00  0.11368683772E-12  0.17120000000E+03  0.17120000000E+03 0.  0.
         13    1    1    2    0    0  0.65050233626E+01  0.12936579947E+02  0.73794667912E+02  0.75201958790E+02  0.10566000000E+00 0. -1.
        994    1    1    2    0    0 -0.48724602328E+01 -0.76458167925E+01  0.17014904974E+01  0.17144834340E+03  0.17120000000E+03 0.  0.
        998    1    1    2    0    0 -0.16325631298E+01 -0.52907631545E+01  0.14245038379E+04  0.14245496978E+04  0.10000000000E+02 0. -1.
</event>
<event>
 5    1  0.1153629E-008  0.4007222E+03  0.7957747E-01  0.3365612E+00
         13   -1    0    0    0    0  0.00000000000E+00  0.00000000000E+00  0.14999999963E+04  0.15000000000E+04  0.10566000000E+00 0.  1.
        994   -1    0    0    0    0 -0.00000000000E+00 -0.00000000000E+00  0.11368683772E-12  0.17120000000E+03  0.17120000000E+03 0.  0.
         13    1    1    2    0    0  0.10084536799E+03  0.60275830548E+02  0.20946981548E+03  0.24016781374E+03  0.10566000000E+00 0.  1.
        994    1    1    2    0    0 -0.10422489934E+03 -0.36131832363E+02  0.77799095456E+02  0.21801485777E+03  0.17120000000E+03 0.  0.
        998    1    1    2    0    0  0.33795313490E+01 -0.24143998185E+02  0.12127310853E+04  0.12130173285E+04  0.10000000000E+02 0.  1.
</event>
<event>
 5    1  0.1153629E-008  0.3687523E+03  0.7957747E-01  0.3501645E+00
         13   -1    0    0    0    0  0.00000000000E+00  0.00000000000E+00  0.14999999963E+04  0.15000000000E+04  0.10566000000E+00 0. -1.
        994   -1    0    0    0    0 -0.00000000000E+00 -0.00000000000E+00  0.11368683772E-12  0.17120000000E+03  0.17120000000E+03 0.  0.
         13    1    1    2    0    0  0.40808537257E+02 -0.24095194989E+02  0.10614590448E+03  0.11624491102E+03  0.10566000000E+00 0. -1.
        994    1    1    2    0    0 -0.31936031251E+02  0.21405708530E+01  0.13854982781E+02  0.17471660678E+03  0.17120000000E+03 0.  0.
        998    1    1    2    0    0 -0.88725060061E+01  0.21954624136E+02  0.13799991090E+04  0.13802384822E+04  0.10000000000E+02 0. -1.
</event>
<event>
 5    1  0.1153629E-008  0.3714793E+03  0.7957747E-01  0.3489120E+00
         13   -1    0    0    0    0  0.00000000000E+00  0.00000000000E+00  0.14999999963E+04  0.15000000000E+04  0.10566000000E+00 0.  1.
        994   -1    0    0    0    0 -0.00000000000E+00 -0.00000000000E+00  0.11368683772E-12  0.17120000000E+03  0.17120000000E+03 0.  0.
         13    1    1    2    0    0  0.52921602765E+01 -0.13750703582E+02  0.38938690528E+01  0.15240150577E+02  0.10566000000E+00 0.  1.
        994    1    1    2    0    0 -0.58451901977E+01  0.11453218658E+02  0.12304433452E+02  0.17212257710E+03  0.17120000000E+03 0.  0.
        998    1    1    2    0    0  0.55302992117E+00  0.22974849239E+01  0.14838016938E+04  0.14838372723E+04  0.10000000000E+02 0.  1.
</event>
<event>
 5    1  0.1153629E-008  0.3757986E+03  0.7957747E-01  0.3469659E+00
         13   -1    0    0    0    0  0.00000000000E+00  0.00000000000E+00  0.14999999963E+04  0.15000000000E+04  0.10566000000E+00 0. -1.
        994   -1    0    0    0    0 -0.00000000000E+00 -0.00000000000E+00  0.11368683772E-12  0.17120000000E+03  0.17120000000E+03 0.  0.
         13    1    1    2    0    0  0.35926970470E+02 -0.35973999816E+02  0.21644887350E+03  0.22233983420E+03  0.10566000000E+00 0. -1.
        994    1    1    2    0    0 -0.25984721476E+02  0.31002390522E+01  0.85942633942E+01  0.17340161071E+03  0.17120000000E+03 0.  0.
        998    1    1    2    0    0 -0.99422489942E+01  0.32873760764E+02  0.12749568594E+04  0.12754585551E+04  0.10000000000E+02 0. -1.
</event>
<event>
 5    1  0.1153629E-008  0.3846515E+03  0.7957747E-01  0.3431152E+00
         13   -1    0    0    0    0  0.00000000000E+00  0.00000000000E+00  0.14999999963E+04  0.15000000000E+04  0.10566000000E+00 0. -1.
        994   -1    0    0    0    0 -0.00000000000E+00 -0.00000000000E+00  0.11368683772E-12  0.17120000000E+03  0.17120000000E+03 0.  0.
         13    1    1    2    0    0 -0.10204663602E+02 -0.17540853988E+02  0.10511927689E+03  0.10706021789E+03  0.10566000000E+00 0. -1.
        994    1    1    2    0    0  0.15072390092E+02  0.18473068332E+02  0.36769752034E+01  0.17289127029E+03  0.17120000000E+03 0.  0.
        998    1    1    2    0    0 -0.48677264898E+01 -0.93221434468E+00  0.13912037442E+04  0.13912485118E+04  0.10000000000E+02 0. -1.
</event>
<event>
 5    1  0.1153629E-008  0.3790907E+03  0.7957747E-01  0.3455127E+00
         13   -1    0    0    0    0  0.00000000000E+00  0.00000000000E+00  0.14999999963E+04  0.15000000000E+04  0.10566000000E+00 0. -1.
        994   -1    0    0    0    0 -0.00000000000E+00 -0.00000000000E+00  0.11368683772E-12  0.17120000000E+03  0.17120000000E+03 0.  0.
         13    1    1    2    0    0 -0.22004209629E+02  0.14579818251E+02  0.76489907934E+02  0.80916460139E+02  0.10566000000E+00 0. -1.
        994    1    1    2    0    0  0.58626829910E+01 -0.83791427556E+01  0.49435724344E+01  0.17157639696E+03  0.17120000000E+03 0.  0.
        998    1    1    2    0    0  0.16141526638E+02 -0.62006754949E+01  0.14185665159E+04  0.14187071429E+04  0.10000000000E+02 0. -1.
</event>
<event>
 5    1  0.1153629E-008  0.3844350E+03  0.7957747E-01  0.3432072E+00
         13   -1    0    0    0    0  0.00000000000E+00  0.00000000000E+00  0.14999999963E+04  0.15000000000E+04  0.10566000000E+00 0. -1.
        994   -1    0    0    0    0 -0.00000000000E+00 -0.00000000000E+00  0.11368683772E-12  0.17120000000E+03  0.17120000000E+03 0.  0.
         13    1    1    2    0    0 -0.47365278232E+01  0.10781291631E+02  0.35191661386E+02  0.37109771492E+02  0.10566000000E+00 0. -1.
        994    1    1    2    0    0  0.30668943585E+01 -0.12233225218E+02  0.24351509620E+01  0.17168118010E+03  0.17120000000E+03 0.  0.
        998    1    1    2    0    0  0.16696334647E+01  0.14519335876E+01  0.14623731839E+04  0.14624090484E+04  0.10000000000E+02 0. -1.
</event>
<event>
 5    1  0.1153629E-008  0.3732986E+03  0.7957747E-01  0.3480867E+00
         13   -1    0    0    0    0  0.00000000000E+00  0.00000000000E+00  0.14999999963E+04  0.15000000000E+04  0.10566000000E+00 0. -1.
        994   -1    0    0    0    0 -0.00000000000E+00 -0.00000000000E+00  0.11368683772E-12  0.17120000000E+03  0.17120000000E+03 0.  0.
         13    1    1    2    0    0  0.42316028155E+02  0.50688824178E+02  0.23032342554E+03  0.23960153308E+03  0.10566000000E+00 0. -1.
        994    1    1    2    0    0 -0.52833466892E+02 -0.52714365496E+02  0.26844803594E+02  0.18868031968E+03  0.17120000000E+03 0.  0.
        998    1    1    2    0    0  0.10517438737E+02  0.20255413182E+01  0.12428317671E+04  0.12429181472E+04  0.10000000000E+02 0. -1.
</event>
<event>
 5    1  0.1153629E-008  0.3717304E+03  0.7957747E-01  0.3487976E+00
         13   -1    0    0    0    0  0.00000000000E+00  0.00000000000E+00  0.14999999963E+04  0.15000000000E+04  0.10566000000E+00 0. -1.
        994   -1    0    0    0    0 -0.00000000000E+00 -0.00000000000E+00  0.11368683772E-12  0.17120000000E+03  0.17120000000E+03 0.  0.
         13    1    1    2    0    0 -0.55380042348E+02  0.11936211675E+02  0.22298993952E+03  0.23007378497E+03  0.10566000000E+00 0. -1.
        994    1    1    2    0    0  0.98827230001E+01  0.19675090125E+02  0.10035449603E+02  0.17290149691E+03  0.17120000000E+03 0.  0.
        998    1    1    2    0    0  0.45497319348E+02 -0.31611301800E+02  0.12669746072E+04  0.12682247181E+04  0.10000000000E+02 0. -1.
</event>
<event>
 5    1  0.1153629E-008  0.3849583E+03  0.7957747E-01  0.3429849E+00
         13   -1    0    0    0    0  0.00000000000E+00  0.00000000000E+00  0.14999999963E+04  0.15000000000E+04  0.10566000000E+00 0.  1.
        994   -1    0    0    0    0 -0.00000000000E+00 -0.00000000000E+00  0.11368683772E-12  0.17120000000E+03  0.17120000000E+03 0.  0.
         13    1    1    2    0    0 -0.13021425759E+02 -0.99124725897E+01  0.75901965729E+02  0.77646211802E+02  0.10566000000E+00 0.  1.
        994    1    1    2    0    0  0.11794733979E+02  0.18606405617E+02  0.32486979618E+01  0.17264213888E+03  0.17120000000E+03 0.  0.
        998    1    1    2    0    0  0.12266917803E+01 -0.86939330269E+01  0.14208493326E+04  0.14209116493E+04  0.10000000000E+02 0.  1.
</event>
<event>
 5    1  0.1153629E-008  0.3736835E+03  0.7957747E-01  0.3479131E+00
         13   -1    0    0    0    0  0.00000000000E+00  0.00000000000E+00  0.14999999963E+04  0.15000000000E+04  0.10566000000E+00 0.  1.
        994   -1    0    0    0    0 -0.00000000000E+00 -0.00000000000E+00  0.11368683772E-12  0.17120000000E+03  0.17120000000E+03 0.  0.
         13    1    1    2    0    0 -0.13980010600E+02  0.10698729702E+02  0.17774265692E+02  0.25016778341E+02  0.10566000000E+00 0.  1.
        994    1    1    2    0    0  0.10060433826E+02 -0.11740310709E+02  0.81729252862E+01  0.17209091763E+03  0.17120000000E+03 0.  0.
        998    1    1    2    0    0  0.39195767741E+01  0.10415810064E+01  0.14740528053E+04  0.14740923040E+04  0.10000000000E+02 0.  1.
</event>
<event>
 5    1  0.1161229E-008  0.3863721E+03  0.7957747E-01  0.3423874E+00
         13   -1    0    0    0    0  0.00000000000E+00  0.00000000000E+00  0.14999999963E+04  0.15000000000E+04  0.10566000000E+00 0.  1.
        994   -1    0    0    0    0 -0.00000000000E+00 -0.00000000000E+00  0.11368683772E-12  0.17120000000E+03  0.17120000000E+03 0.  0.
         13    1    1    2    0    0 -0.10685818498E+02 -0.14473907872E+01  0.58569840848E+02  0.59554337189E+02  0.10566000000E+00 0.  1.
        994    1    1    2    0    0  0.15670041533E+02 -0.15745421248E+01  0.17629187415E+01  0.17193189718E+03  0.17120000000E+03 0.  0.
        998    1    1    2    0    0 -0.49842230351E+01  0.30219329120E+01  0.14396672367E+04  0.14397137656E+04  0.10000000000E+02 0.  1.
</event>
<event>
 5    1  0.1153629E-008  0.3838980E+03  0.7957747E-01  0.3434359E+00
         13   -1    0    0    0    0  0.00000000000E+00  0.00000000000E+00  0.14999999963E+04  0.15000000000E+04  0.10566000000E+00 0. -1.
        994   -1    0    0    0    0 -0.00000000000E+00 -0.00000000000E+00  0.11368683772E-12  0.17120000000E+03  0.17120000000E+03 0.  0.
         13    1    1    2    0    0 -0.10755885670E+03 -0.28794319500E+01  0.26269220124E+03  0.28387392015E+03  0.10566000000E+00 0. -1.
        994    1    1    2    0    0  0.99374958647E+02 -0.18390386570E+02  0.57080198490E+02  0.20683611335E+03  0.17120000000E+03 0.  0.
        998    1    1    2    0    0  0.81838980554E+01  0.21269818520E+02  0.11802275965E+04  0.11804899665E+04  0.10000000000E+02 0. -1.
</event>
<event>
 5    1  0.1153629E-008  0.3811758E+03  0.7957747E-01  0.3446055E+00
         13   -1    0    0    0    0  0.00000000000E+00  0.00000000000E+00  0.14999999963E+04  0.15000000000E+04  0.10566000000E+00 0. -1.
        994   -1    0    0    0    0 -0.00000000000E+00 -0.00000000000E+00  0.11368683772E-12  0.17120000000E+03  0.17120000000E+03 0.  0.
         13    1    1    2    0    0  0.16495186636E+01 -0.12202136082E+02  0.19832078469E+02  0.23343854378E+02  0.10566000000E+00 0. -1.
        994    1    1    2    0    0 -0.12789578884E+02  0.94224847005E+01  0.43815774204E+01  0.17199126363E+03  0.17120000000E+03 0.  0.
        998    1    1    2    0    0  0.11140060220E+02  0.27796513819E+01  0.14757863404E+04  0.14758648820E+04  0.10000000000E+02 0. -1.
</event>
<event>
 5    1  0.1153629E-008  0.3846825E+03  0.7957747E-01  0.3431020E+00
         13   -1    0    0    0    0  0.00000000000E+00  0.00000000000E+00  0.14999999963E+04  0.15000000000E+04  0.10566000000E+00 0.  1.
        994   -1    0    0    0    0 -0.00000000000E+00 -0.00000000000E+00  0.11368683772E-12  0.17120000000E+03  0.17120000000E+03 0.  0.
         13    1    1    2    0    0  0.96616146676E+01  0.62497138180E+01  0.35466269789E+02  0.37286367181E+02  0.10566000000E+00 0.  1.
        994    1    1    2    0    0 -0.13841584087E+02 -0.71839806759E+01  0.25888710390E+01  0.17192830274E+03  0.17120000000E+03 0.  0.
        998    1    1    2    0    0  0.41799694193E+01  0.93426685794E+00  0.14619448555E+04  0.14619853301E+04  0.10000000000E+02 0.  1.
</event>
<event>
 5    1  0.1153629E-008  0.3755961E+03  0.7957747E-01  0.3470561E+00
         13   -1    0    0    0    0  0.00000000000E+00  0.00000000000E+00  0.14999999963E+04  0.15000000000E+04  0.10566000000E+00 0. -1.
        994   -1    0    0    0    0 -0.00000000000E+00 -0.00000000000E+00  0.11368683772E-12  0.17120000000E+03  0.17120000000E+03 0.  0.
         13    1    1    2    0    0  0.56486923979E+02 -0.21141458429E+02  0.33901621462E+03  0.34433956901E+03  0.10566000000E+00 0. -1.
        994    1    1    2    0    0 -0.13645828827E+02  0.19861109674E+01  0.70182615634E+01  0.17189778729E+03  0.17120000000E+03 0.  0.
        998    1    1    2    0    0 -0.42841095152E+02  0.19155347462E+02  0.11539655201E+04  0.11549626437E+04  0.10000000000E+02 0. -1.
</event>
<event>
 5    1  0.1153629E-008  0.3784495E+03  0.7957747E-01  0.3457938E+00
         13   -1    0    0    0    0  0.00000000000E+00  0.00000000000E+00  0.14999999963E+04  0.15000000000E+04  0.10566000000E+00 0.  1.
        994   -1    0    0    0    0 -0.00000000000E+00 -0.00000000000E+00  0.11368683772E-12  0.17120000000E+03  0.17120000000E+03 0.  0.
         13    1    1    2    0    0  0.33511328333E+02 -0.29142338499E+02  0.20775413727E+03  0.21244782356E+03  0.10566000000E+00 0.  1.
        994    1    1    2    0    0 -0.16231308574E+02  0.10856013110E+02  0.62001778726E+01  0.17242154913E+03  0.17120000000E+03 0.  0.
        998    1    1    2    0    0 -0.17280019759E+02  0.18286325390E+02  0.12860456811E+04  0.12863306273E+04  0.10000000000E+02 0.  1.
</event>
<event>
 5    1  0.1153629E-008  0.3810330E+03  0.7957747E-01  0.3446673E+00
         13   -1    0    0    0    0  0.00000000000E+00  0.00000000000E+00  0.14999999963E+04  0.15000000000E+04  0.10566000000E+00 0. -1.
        994   -1    0    0    0    0 -0.00000000000E+00 -0.00000000000E+00  0.11368683772E-12  0.17120000000E+03  0.17120000000E+03 0.  0.
         13    1    1    2    0    0  0.19419578254E+02 -0.19797006375E+02  0.10816755316E+03  0.11166589543E+03  0.10566000000E+00 0. -1.
        994    1    1    2    0    0 -0.86854947840E+01  0.82796584284E+01  0.40924756174E+01  0.17166880590E+03  0.17120000000E+03 0.  0.
        998    1    1    2    0    0 -0.10734083470E+02  0.11517347946E+02  0.13877399675E+04  0.13878652987E+04  0.10000000000E+02 0. -1.
</event>
<event>
 5    1  0.1153629E-008  0.3723857E+03  0.7957747E-01  0.3484998E+00
         13   -1    0    0    0    0  0.00000000000E+00  0.00000000000E+00  0.14999999963E+04  0.15000000000E+04  0.10566000000E+00 0.  1.
        994   -1    0    0    0    0 -0.00000000000E+00 -0.00000000000E+00  0.11368683772E-12  0.17120000000E+03  0.17120000000E+03 0.  0.
         13    1    1    2    0    0  0.46136702884E+02 -0.16217169976E+02  0.99150054573E+02  0.11055467625E+03  0.10566000000E+00 0.  1.
        994    1    1    2    0    0 -0.97365400504E+01  0.17704161768E+02  0.13646377526E+02  0.17292744483E+03  0.17120000000E+03 0.  0.
        998    1    1    2    0    0 -0.36400162833E+02 -0.14869917928E+01  0.13872035642E+04  0.13877178789E+04  0.10000000000E+02 0.  1.
</event>
<event>
 5    1  0.1153629E-008  0.3813612E+03  0.7957747E-01  0.3445253E+00
         13   -1    0    0    0    0  0.00000000000E+00  0.00000000000E+00  0.14999999963E+04  0.15000000000E+04  0.10566000000E+00 0.  1.
        994   -1    0    0    0    0 -0.00000000000E+00 -0.00000000000E+00  0.11368683772E-12  0.17120000000E+03  0.17120000000E+03 0.  0.
         13    1    1    2    0    0  0.76786654474E+01  0.25343525908E+02  0.10667757427E+03  0.10991529568E+03  0.10566000000E+00 0.  1.
        994    1    1    2    0    0  0.72696576500E+01 -0.85347998452E+01  0.38660130486E+01  0.17161024674E+03  0.17120000000E+03 0.  0.
        998    1    1    2    0    0 -0.14948323097E+02 -0.16808726063E+02  0.13894564090E+04  0.13896744576E+04  0.10000000000E+02 0.  1.
</event>
<event>
 5    1  0.1153629E-008  0.3830544E+03  0.7957747E-01  0.3437966E+00
         13   -1    0    0    0    0  0.00000000000E+00  0.00000000000E+00  0.14999999963E+04  0.15000000000E+04  0.10566000000E+00 0.  1.
        994   -1    0    0    0    0 -0.00000000000E+00 -0.00000000000E+00  0.11368683772E-12  0.17120000000E+03  0.17120000000E+03 0.  0.
         13    1    1    2    0    0 -0.43212085728E+01 -0.18236046152E+02  0.78571376796E+02  0.80775606704E+02  0.10566000000E+00 0.  1.
        994    1    1    2    0    0 -0.18054338515E+02 -0.12027155050E+02  0.41582088831E+01  0.17261906702E+03  0.17120000000E+03 0.  0.
        998    1    1    2    0    0  0.22375547088E+02  0.30263201202E+02  0.14172704106E+04  0.14178053263E+04  0.10000000000E+02 0.  1.
</event>
<event>
 5    1  0.1153629E-008  0.3770274E+03  0.7957747E-01  0.3464205E+00
         13   -1    0    0    0    0  0.00000000000E+00  0.00000000000E+00  0.14999999963E+04  0.15000000000E+04  0.10566000000E+00 0. -1.
        994   -1    0    0    0    0 -0.00000000000E+00 -0.00000000000E+00  0.11368683772E-12  0.17120000000E+03  0.17120000000E+03 0.  0.
         13    1    1    2    0    0  0.58445763211E+00 -0.22415463618E+02  0.41012186476E+02  0.46741899870E+02  0.10566000000E+00 0. -1.
        994    1    1    2    0    0  0.93302313254E+00  0.25136625948E+02  0.77803671157E+01  0.17321285925E+03  0.17120000000E+03 0.  0.
        998    1    1    2    0    0 -0.15174807647E+01 -0.27211623297E+01  0.14512074427E+04  0.14512452409E+04  0.10000000000E+02 0. -1.
</event>
<event>
 5    1  0.1153629E-008  0.3859979E+03  0.7957747E-01  0.3425451E+00
         13   -1    0    0    0    0  0.00000000000E+00  0.00000000000E+00  0.14999999963E+04  0.15000000000E+04  0.10566000000E+00 0. -1.
        994   -1    0    0    0    0 -0.00000000000E+00 -0.00000000000E+00  0.11368683772E-12  0.17120000000E+03  0.17120000000E+03 0.  0.
         13    1    1    2    0    0 -0.13053289165E+02  0.11124757486E+01  0.75637205905E+02  0.76763429062E+02  0.10566000000E+00 0. -1.
        994    1    1    2    0    0  0.10244345292E+02  0.29114314895E+01  0.15073841475E+01  0.17153756222E+03  0.17120000000E+03 0.  0.
        998    1    1    2    0    0  0.28089438724E+01 -0.40239072381E+01  0.14228554062E+04  0.14228990087E+04  0.10000000000E+02 0. -1.
</event>
<event>
 5    1  0.1153629E-008  0.3835828E+03  0.7957747E-01  0.3435705E+00
         13   -1    0    0    0    0  0.00000000000E+00  0.00000000000E+00  0.14999999963E+04  0.15000000000E+04  0.10566000000E+00 0.  1.
        994   -1    0    0    0    0 -0.00000000000E+00 -0.00000000000E+00  0.11368683772E-12  0.17120000000E+03  0.17120000000E+03 0.  0.
         13    1    1    2    0    0 -0.13184518855E+02  0.22337779501E+02  0.14785245838E+03  0.15011052109E+03  0.10566000000E+00 0.  1.
        994    1    1    2    0    0  0.32585979434E+00 -0.13763386713E+02  0.29618329963E+01  0.17177819842E+03  0.17120000000E+03 0.  0.
        998    1    1    2    0    0  0.12858659061E+02 -0.85743927878E+01  0.13491857049E+04  0.13493112805E+04  0.10000000000E+02 0.  1.
</event>
<event>
 5    1  0.1153629E-008  0.3823009E+03  0.7957747E-01  0.3441201E+00
         13   -1    0    0    0    0  0.00000000000E+00  0.00000000000E+00  0.14999999963E+04  0.15000000000E+04  0.10566000000E+00 0. -1.
        994   -1    0    0    0    0 -0.00000000000E+00 -0.00000000000E+00  0.11368683772E-12  0.17120000000E+03  0.17120000000E+03 0.  0.
         13    1    1    2    0    0  0.83321811944E+00 -0.20809530655E+02  0.68425893642E+02  0.71525134766E+02  0.10566000000E+00 0. -1.
        994    1    1    2    0    0 -0.11817505962E+01  0.23371975187E+02  0.47951779015E+01  0.17285855342E+03  0.17120000000E+03 0.  0.
        998    1    1    2    0    0  0.34853247680E+00 -0.25624445316E+01  0.14267789247E+04  0.14268163118E+04  0.10000000000E+02 0. -1.
</event>
<event>
 5    1  0.1153629E-008  0.3842303E+03  0.7957747E-01  0.3432943E+00
         13   -1    0    0    0    0  0.00000000000E+00  0.00000000000E+00  0.14999999963E+04  0.15000000000E+04  0.10566000000E+00 0.  1.
        994   -1    0    0    0    0 -0.00000000000E+00 -0.00000000000E+00  0.11368683772E-12  0.17120000000E+03  0.17120000000E+03 0.  0.
         13    1    1    2    0    0 -0.87746701886E+01  0.27906900545E+02  0.15770165046E+03  0.16039205609E+03  0.10566000000E+00 0.  1.
        994    1    1    2    0    0  0.10268523268E+02 -0.51503692604E+02  0.11159340361E+02  0.17942141399E+03  0.17120000000E+03 0.  0.
        998    1    1    2    0    0 -0.14938530794E+01  0.23596792060E+02  0.13311390055E+04  0.13313865299E+04  0.10000000000E+02 0.  1.
</event>
<event>
 5    1  0.1153629E-008  0.3825373E+03  0.7957747E-01  0.3440184E+00
         13   -1    0    0    0    0  0.00000000000E+00  0.00000000000E+00  0.14999999963E+04  0.15000000000E+04  0.10566000000E+00 0. -1.
        994   -1    0    0    0    0 -0.00000000000E+00 -0.00000000000E+00  0.11368683772E-12  0.17120000000E+03  0.17120000000E+03 0.  0.
         13    1    1    2    0    0  0.13877432195E+02 -0.28215373697E+02  0.13307668390E+03  0.13674101579E+03  0.10566000000E+00 0. -1.
        994    1    1    2    0    0 -0.26490369484E+02  0.50358523384E+02  0.13666397586E+02  0.18092520824E+03  0.17120000000E+03 0.  0.
        998    1    1    2    0    0  0.12612937289E+02 -0.22143149686E+02  0.13532569148E+04  0.13535337760E+04  0.10000000000E+02 0. -1.
</event>
<event>
 5    1  0.1153629E-008  0.3732462E+03  0.7957747E-01  0.3481104E+00
         13   -1    0    0    0    0  0.00000000000E+00  0.00000000000E+00  0.14999999963E+04  0.15000000000E+04  0.10566000000E+00 0. -1.
        994   -1    0    0    0    0 -0.00000000000E+00 -0.00000000000E+00  0.11368683772E-12  0.17120000000E+03  0.17120000000E+03 0.  0.
         13    1    1    2    0    0  0.34170297792E+02 -0.15534754198E+02  0.90120596201E+02  0.97625154867E+02  0.10566000000E+00 0. -1.
        994    1    1    2    0    0 -0.35314193226E+02 -0.20055661997E+02  0.13242890205E+02  0.17644867798E+03  0.17120000000E+03 0.  0.
        998    1    1    2    0    0  0.11438954336E+01  0.35590416195E+02  0.13966365099E+04  0.13971261671E+04  0.10000000000E+02 0. -1.
</event>
<event>
 5    1  0.1153629E-008  0.3719537E+03  0.7957747E-01  0.3486960E+00
         13   -1    0    0    0    0  0.00000000000E+00  0.00000000000E+00  0.14999999963E+04  0.15000000000E+04  0.10566000000E+00 0.  1.
        994   -1    0    0    0    0 -0.00000000000E+00 -0.00000000000E+00  0.11368683772E-12  0.17120000000E+03  0.17120000000E+03 0.  0.
         13    1    1    2    0    0 -0.43871270719E+02  0.47738863568E+02  0.18158076416E+03  0.19280890168E+03  0.10566000000E+00 0.  1.
        994    1    1    2    0    0  0.34253463525E+01 -0.33637448153E+02  0.16010465497E+02  0.17523979548E+03  0.17120000000E+03 0.  0.
        998    1    1    2    0    0  0.40445924367E+02 -0.14101415415E+02  0.13024087666E+04  0.13031513028E+04  0.10000000000E+02 0.  1.
</event>
<event>
 5    1  0.1153629E-008  0.3718855E+03  0.7957747E-01  0.3487270E+00
         13   -1    0    0    0    0  0.00000000000E+00  0.00000000000E+00  0.14999999963E+04  0.15000000000E+04  0.10566000000E+00 0.  1.
        994   -1    0    0    0    0 -0.00000000000E+00 -0.00000000000E+00  0.11368683772E-12  0.17120000000E+03  0.17120000000E+03 0.  0.
         13    1    1    2    0    0 -0.80201004380E+01 -0.42740387306E+02  0.80466129951E+02  0.91465140635E+02  0.10566000000E+00 0.  1.
        994    1    1    2    0    0  0.84254926631E+01  0.44213461327E+01  0.12258004239E+02  0.17190182051E+03  0.17120000000E+03 0.  0.
        998    1    1    2    0    0 -0.40539222513E+00  0.38319041174E+02  0.14072758621E+04  0.14078330389E+04  0.10000000000E+02 0.  1.
</event>
<event>
 5    1  0.1153629E-008  0.3812162E+03  0.7957747E-01  0.3445880E+00
         13   -1    0    0    0    0  0.00000000000E+00  0.00000000000E+00  0.14999999963E+04  0.15000000000E+04  0.10566000000E+00 0.  1.
        994   -1    0    0    0    0 -0.00000000000E+00 -0.00000000000E+00  0.11368683772E-12  0.17120000000E+03  0.17120000000E+03 0.  0.
         13    1    1    2    0    0 -0.61345581957E+02  0.31115053529E+01  0.36537225694E+03  0.37049947260E+03  0.10566000000E+00 0.  1.
        994    1    1    2    0    0  0.70518134049E+02 -0.74089096383E+01  0.20445478248E+02  0.18642734980E+03  0.17120000000E+03 0.  0.
        998    1    1    2    0    0 -0.91725520920E+01  0.42974042854E+01  0.11141822611E+04  0.11142731776E+04  0.10000000000E+02 0.  1.
</event>
<event>
 5    1  0.1153629E-008  0.3804295E+03  0.7957747E-01  0.3449290E+00
         13   -1    0    0    0    0  0.00000000000E+00  0.00000000000E+00  0.14999999963E+04  0.15000000000E+04  0.10566000000E+00 0.  1.
        994   -1    0    0    0    0 -0.00000000000E+00 -0.00000000000E+00  0.11368683772E-12  0.17120000000E+03  0.17120000000E+03 0.  0.
         13    1    1    2    0    0 -0.34065698461E+02  0.96879389690E+01  0.15800342028E+03  0.16192411790E+03  0.10566000000E+00 0.  1.
        994    1    1    2    0    0  0.21960805502E+02 -0.15635908344E+01  0.55362296412E+01  0.17269861503E+03  0.17120000000E+03 0.  0.
        998    1    1    2    0    0  0.12104892958E+02 -0.81243481346E+01  0.13364603464E+04  0.13365772671E+04  0.10000000000E+02 0.  1.
</event>
<event>
 5    1  0.1153629E-008  0.3850971E+03  0.7957747E-01  0.3429260E+00
         13   -1    0    0    0    0  0.00000000000E+00  0.00000000000E+00  0.14999999963E+04  0.15000000000E+04  0.10566000000E+00 0. -1.
        994   -1    0    0    0    0 -0.00000000000E+00 -0.00000000000E+00  0.11368683772E-12  0.17120000000E+03  0.17120000000E+03 0.  0.
         13    1    1    2    0    0  0.82907097736E+01 -0.56594993498E+01  0.30688545508E+02  0.32288756415E+02  0.10566000000E+00 0. -1.
        994    1    1    2    0    0 -0.86582578290E+01  0.11902182280E+02  0.22944443563E+01  0.17184682670E+03  0.17120000000E+03 0.  0.
        998    1    1    2    0    0  0.36754805536E+00 -0.62426829297E+01  0.14670170064E+04  0.14670644169E+04  0.10000000000E+02 0. -1.
</event>
<event>
 5    1  0.1153629E-008  0.3714756E+03  0.7957747E-01  0.3489137E+00
         13   -1    0    0    0    0  0.00000000000E+00  0.00000000000E+00  0.14999999963E+04  0.15000000000E+04  0.10566000000E+00 0. -1.
        994   -1    0    0    0    0 -0.00000000000E+00 -0.00000000000E+00  0.11368683772E-12  0.17120000000E+03  0.17120000000E+03 0.  0.
         13    1    1    2    0    0  0.72903860026E+02 -0.13945007204E+03  0.80136975151E+03  0.81667299771E+03  0.10566000000E+00 0. -1.
        994    1    1    2    0    0 -0.11154918722E+03  0.10895007150E+03  0.97423821655E+02  0.25122535755E+03  0.17120000000E+03 0.  0.
        998    1    1    2    0    0  0.38645327197E+02  0.30500000550E+02  0.60120642312E+03  0.60330164474E+03  0.10000000000E+02 0.  1.
</event>
<event>
 5    1  0.1153629E-008  0.3695735E+03  0.7957747E-01  0.3497853E+00
         13   -1    0    0    0    0  0.00000000000E+00  0.00000000000E+00  0.14999999963E+04  0.15000000000E+04  0.10566000000E+00 0.  1.
        994   -1    0    0    0    0 -0.00000000000E+00 -0.00000000000E+00  0.11368683772E-12  0.17120000000E+03  0.17120000000E+03 0.  0.
         13    1    1    2    0    0 -0.35844387040E+02  0.31741550944E+02  0.10250541284E+03  0.11313583413E+03  0.10566000000E+00 0.  1.
        994    1    1    2    0    0  0.27759724683E+02 -0.17451211267E+02  0.14475819173E+02  0.17491179614E+03  0.17120000000E+03 0.  0.
        998    1    1    2    0    0  0.80846623567E+01 -0.14290339678E+02  0.13830187643E+04  0.13831523697E+04  0.10000000000E+02 0.  1.
</event>
<event>
 5    1  0.1153629E-008  0.3825101E+03  0.7957747E-01  0.3440301E+00
         13   -1    0    0    0    0  0.00000000000E+00  0.00000000000E+00  0.14999999963E+04  0.15000000000E+04  0.10566000000E+00 0.  1.
        994   -1    0    0    0    0 -0.00000000000E+00 -0.00000000000E+00  0.11368683772E-12  0.17120000000E+03  0.17120000000E+03 0.  0.
         13    1    1    2    0    0 -0.48877421102E+01 -0.10840905169E+02  0.23257358431E+02  0.26121468815E+02  0.10566000000E+00 0.  1.
        994    1    1    2    0    0  0.18931076644E+01  0.12554911934E+02  0.34060458557E+01  0.17170396273E+03  0.17120000000E+03 0.  0.
        998    1    1    2    0    0  0.29946344458E+01 -0.17140067644E+01  0.14733365920E+04  0.14733745685E+04  0.10000000000E+02 0.  1.
</event>
<event>
 5    1  0.1153629E-008  0.3844785E+03  0.7957747E-01  0.3431887E+00
         13   -1    0    0    0    0  0.00000000000E+00  0.00000000000E+00  0.14999999963E+04  0.15000000000E+04  0.10566000000E+00 0.  1.
        994   -1    0    0    0    0 -0.00000000000E+00 -0.00000000000E+00  0.11368683772E-12  0.17120000000E+03  0.17120000000E+03 0.  0.
         13    1    1    2    0    0  0.11785174814E+02 -0.56832764042E+01  0.45319941650E+02  0.47170947111E+02  0.10566000000E+00 0.  1.
        994    1    1    2    0    0 -0.17778230630E+01  0.13371566731E+02  0.24888993371E+01  0.17174863630E+03  0.17120000000E+03 0.  0.
        998    1    1    2    0    0 -0.10007351751E+02 -0.76882903264E+01  0.14521911553E+04  0.14522804166E+04  0.10000000000E+02 0.  1.
</event>
<event>
 5    1  0.1922427E-008  0.3860575E+03  0.7957747E-01  0.3425200E+00
         13   -1    0    0    0    0  0.00000000000E+00  0.00000000000E+00  0.14999999963E+04  0.15000000000E+04  0.10566000000E+00 0. -1.
        994   -1    0    0    0    0 -0.00000000000E+00 -0.00000000000E+00  0.11368683772E-12  0.17120000000E+03  0.17120000000E+03 0.  0.
         13    1    1    2    0    0 -0.10019100275E+02  0.26847311877E+01  0.49799696950E+02  0.50868567232E+02  0.10566000000E+00 0. -1.
        994    1    1    2    0    0  0.63970767013E+01  0.30783503418E+01  0.12712073842E+01  0.17135184504E+03  0.17120000000E+03 0.  0.
        998    1    1    2    0    0  0.36220235737E+01 -0.57630815295E+01  0.14489290919E+04  0.14489795877E+04  0.10000000000E+02 0. -1.
</event>
<event>
 5    1  0.1153629E-008  0.3787771E+03  0.7957747E-01  0.3456501E+00
         13   -1    0    0    0    0  0.00000000000E+00  0.00000000000E+00  0.14999999963E+04  0.15000000000E+04  0.10566000000E+00 0. -1.
        994   -1    0    0    0    0 -0.00000000000E+00 -0.00000000000E+00  0.11368683772E-12  0.17120000000E+03  0.17120000000E+03 0.  0.
         13    1    1    2    0    0 -0.82804806183E+02  0.79315419739E+02  0.53583625615E+03  0.54796722193E+03  0.10566000000E+00 0. -1.
        994    1    1    2    0    0  0.84913058850E+01 -0.45230686649E+02  0.23336588046E+02  0.17880702903E+03  0.17120000000E+03 0.  0.
        998    1    1    2    0    0  0.74313500298E+02 -0.34084733089E+02  0.94082715208E+03  0.94442574904E+03  0.10000000000E+02 0. -1.
</event>
<event>
 5    1  0.1153629E-008  0.3684943E+03  0.7957747E-01  0.3502840E+00
         13   -1    0    0    0    0  0.00000000000E+00  0.00000000000E+00  0.14999999963E+04  0.15000000000E+04  0.10566000000E+00 0. -1.
        994   -1    0    0    0    0 -0.00000000000E+00 -0.00000000000E+00  0.11368683772E-12  0.17120000000E+03  0.17120000000E+03 0.  0.
         13    1    1    2    0    0  0.15801376963E+03 -0.12139977518E+02  0.48528517833E+03  0.51050704786E+03  0.10566000000E+00 0. -1.
        994    1    1    2    0    0 -0.20391091593E+03  0.78365241175E+02  0.20037663809E+03  0.34231711870E+03  0.17120000000E+03 0.  0.
        998    1    1    2    0    0  0.45897146308E+02 -0.66225263657E+02  0.81433817985E+03  0.81837583343E+03  0.10000000000E+02 0. -1.
</event>
<event>
 5    1  0.1153629E-008  0.3844940E+03  0.7957747E-01  0.3431821E+00
         13   -1    0    0    0    0  0.00000000000E+00  0.00000000000E+00  0.14999999963E+04  0.15000000000E+04  0.10566000000E+00 0. -1.
        994   -1    0    0    0    0 -0.00000000000E+00 -0.00000000000E+00  0.11368683772E-12  0.17120000000E+03  0.17120000000E+03 0.  0.
         13    1    1    2    0    0 -0.98706643370E+01  0.41022527605E+01  0.30070910700E+02  0.31914406254E+02  0.10566000000E+00 0. -1.
        994    1    1    2    0    0  0.58186655973E+01 -0.22263949880E+01  0.20094491204E+01  0.17132510496E+03  0.17120000000E+03 0.  0.
        998    1    1    2    0    0  0.40519987397E+01 -0.18758577725E+01  0.14679196365E+04  0.14679604888E+04  0.10000000000E+02 0. -1.
</event>
<event>
 5    1  0.1153629E-008  0.3696794E+03  0.7957747E-01  0.3497365E+00
         13   -1    0    0    0    0  0.00000000000E+00  0.00000000000E+00  0.14999999963E+04  0.15000000000E+04  0.10566000000E+00 0. -1.
        994   -1    0    0    0    0 -0.00000000000E+00 -0.00000000000E+00  0.11368683772E-12  0.17120000000E+03  0.17120000000E+03 0.  0.
         13    1    1    2    0    0  0.10435668294E+02  0.11580823084E+01  0.14651791208E+01  0.10601992326E+02  0.10566000000E+00 0. -1.
        994    1    1    2    0    0 -0.33306278449E+01 -0.76038551182E+01  0.96752993412E+01  0.17167400243E+03  0.17120000000E+03 0.  0.
        998    1    1    2    0    0 -0.71050404493E+01  0.64457728098E+01  0.14888595178E+04  0.14889240052E+04  0.10000000000E+02 0. -1.
</event>
<event>
 5    1  0.1153629E-008  0.3857364E+03  0.7957747E-01  0.3426555E+00
         13   -1    0    0    0    0  0.00000000000E+00  0.00000000000E+00  0.14999999963E+04  0.15000000000E+04  0.10566000000E+00 0.  1.
        994   -1    0    0    0    0 -0.00000000000E+00 -0.00000000000E+00  0.11368683772E-12  0.17120000000E+03  0.17120000000E+03 0.  0.
         13    1    1    2    0    0  0.99938464713E+01  0.18307091047E+01  0.37700406805E+02  0.39045618197E+02  0.10566000000E+00 0.  1.
        994    1    1    2    0    0 -0.21912838838E+02 -0.60958490440E+01  0.29640981412E+01  0.17272972460E+03  0.17120000000E+03 0.  0.
        998    1    1    2    0    0  0.11918992366E+02  0.42651399392E+01  0.14593354913E+04  0.14594246572E+04  0.10000000000E+02 0.  1.
</event>
<event>
 5    1  0.1153629E-008  0.3851716E+03  0.7957747E-01  0.3428945E+00
         13   -1    0    0    0    0  0.00000000000E+00  0.00000000000E+00  0.14999999963E+04  0.15000000000E+04  0.10566000000E+00 0. -1.
        994   -1    0    0    0    0 -0.00000000000E+00 -0.00000000000E+00  0.11368683772E-12  0.17120000000E+03  0.17120000000E+03 0.  0.
         13    1    1    2    0    0  0.59913769778E+01 -0.10354742673E+02  0.49668713331E+02  0.51089231174E+02  0.10566000000E+00 0. -1.
        994    1    1    2    0    0 -0.33265841451E+01 -0.65596104902E+01  0.17227969839E+01  0.17136657399E+03  0.17120000000E+03 0.  0.
        998    1    1    2    0    0 -0.26647928327E+01  0.16914353164E+02  0.14486084860E+04  0.14487441948E+04  0.10000000000E+02 0. -1.
</event>
<event>
 5    1  0.1153629E-008  0.3857363E+03  0.7957747E-01  0.3426555E+00
         13   -1    0    0    0    0  0.00000000000E+00  0.00000000000E+00  0.14999999963E+04  0.15000000000E+04  0.10566000000E+00 0. -1.
        994   -1    0    0    0    0 -0.00000000000E+00 -0.00000000000E+00  0.11368683772E-12  0.17120000000E+03  0.17120000000E+03 0.  0.
         13    1    1    2    0    0 -0.11114971869E+02  0.69793614198E+01  0.77885629066E+02  0.78983773426E+02  0.10566000000E+00 0. -1.
        994    1    1    2    0    0 -0.64489079243E+01  0.30788566250E+01  0.14325701439E+01  0.17135507004E+03  0.17120000000E+03 0.  0.
        998    1    1    2    0    0  0.17563879793E+02 -0.10058218045E+02  0.14206817971E+04  0.14208611565E+04  0.10000000000E+02 0. -1.
</event>
<event>
 5    1  0.1153629E-008  0.3832244E+03  0.7957747E-01  0.3437238E+00
         13   -1    0    0    0    0  0.00000000000E+00  0.00000000000E+00  0.14999999963E+04  0.15000000000E+04  0.10566000000E+00 0. -1.
        994   -1    0    0    0    0 -0.00000000000E+00 -0.00000000000E+00  0.11368683772E-12  0.17120000000E+03  0.17120000000E+03 0.  0.
         13    1    1    2    0    0  0.23471172003E+02 -0.14564712154E+02  0.13750895395E+03  0.14025601711E+03  0.10566000000E+00 0. -1.
        994    1    1    2    0    0 -0.25651992106E+02  0.14008012779E+02  0.53449619722E+01  0.17375919469E+03  0.17120000000E+03 0.  0.
        998    1    1    2    0    0  0.21808201034E+01  0.55669937489E+00  0.13571460804E+04  0.13571847882E+04  0.10000000000E+02 0. -1.
</event>
<event>
 5    1  0.1153629E-008  0.2777045E+03  0.7957747E-01  0.4069280E+00
         13   -1    0    0    0    0  0.00000000000E+00  0.00000000000E+00  0.14999999963E+04  0.15000000000E+04  0.10566000000E+00 0. -1.
        994   -1    0    0    0    0 -0.00000000000E+00 -0.00000000000E+00  0.11368683772E-12  0.17120000000E+03  0.17120000000E+03 0.  0.
         13    1    1    2    0    0 -0.16553228005E+03 -0.18000284750E+03  0.83125309784E+03  0.86647774621E+03  0.10566000000E+00 0. -1.
        994    1    1    2    0    0  0.28826077316E+01  0.78921079676E+02  0.12012850448E+03  0.22355568397E+03  0.17120000000E+03 0.  0.
        998    1    1    2    0    0  0.16264967231E+03  0.10108176783E+03  0.54861839396E+03  0.58116656982E+03  0.10000000000E+02 0. -1.
</event>
<event>
 5    1  0.1153629E-008  0.3827942E+03  0.7957747E-01  0.3439081E+00
         13   -1    0    0    0    0  0.00000000000E+00  0.00000000000E+00  0.14999999963E+04  0.15000000000E+04  0.10566000000E+00 0. -1.
        994   -1    0    0    0    0 -0.00000000000E+00 -0.00000000000E+00  0.11368683772E-12  0.17120000000E+03  0.17120000000E+03 0.  0.
         13    1    1    2    0    0  0.37125675988E+02 -0.25254428307E+02  0.24334406973E+03  0.24745191331E+03  0.10566000000E+00 0. -1.
        994    1    1    2    0    0 -0.67304048202E+02  0.27312180415E+02  0.20405453775E+02  0.18708717927E+03  0.17120000000E+03 0.  0.
        998    1    1    2    0    0  0.30178372214E+02 -0.20577521080E+01  0.12362504728E+04  0.12366609074E+04  0.10000000000E+02 0. -1.
</event>
<event>
 5    1  0.1153629E-008  0.3738226E+03  0.7957747E-01  0.3478506E+00
         13   -1    0    0    0    0  0.00000000000E+00  0.00000000000E+00  0.14999999963E+04  0.15000000000E+04  0.10566000000E+00 0.  1.
        994   -1    0    0    0    0 -0.00000000000E+00 -0.00000000000E+00  0.11368683772E-12  0.17120000000E+03  0.17120000000E+03 0.  0.
         13    1    1    2    0    0 -0.16207149889E+02  0.26398427629E+02  0.26498149115E+02  0.40764098903E+02  0.10566000000E+00 0.  1.
        994    1    1    2    0    0  0.62927311699E+02 -0.68088796476E+02  0.44095937436E+02  0.19962420310E+03  0.17120000000E+03 0.  0.
        998    1    1    2    0    0 -0.46720161810E+02  0.41690368847E+02  0.14294059097E+04  0.14308116980E+04  0.10000000000E+02 0.  1.
</event>
<event>
 5    1  0.1269424E-008  0.3844996E+03  0.7957747E-01  0.3431797E+00
         13   -1    0    0    0    0  0.00000000000E+00  0.00000000000E+00  0.14999999963E+04  0.15000000000E+04  0.10566000000E+00 0.  1.
        994   -1    0    0    0    0 -0.00000000000E+00 -0.00000000000E+00  0.11368683772E-12  0.17120000000E+03  0.17120000000E+03 0.  0.
         13    1    1    2    0    0  0.90684749665E+01  0.43421535108E+01  0.26050459351E+02  0.27923630347E+02  0.10566000000E+00 0.  1.
        994    1    1    2    0    0 -0.10014166450E+02 -0.39138478604E+01  0.22596800922E+01  0.17155217250E+03  0.17120000000E+03 0.  0.
        998    1    1    2    0    0  0.94569148322E+00 -0.42830565045E+00  0.14716898568E+04  0.14717241972E+04  0.10000000000E+02 0.  1.
</event>
<event>
 5    1  0.1153629E-008  0.3774775E+03  0.7957747E-01  0.3462216E+00
         13   -1    0    0    0    0  0.00000000000E+00  0.00000000000E+00  0.14999999963E+04  0.15000000000E+04  0.10566000000E+00 0. -1.
        994   -1    0    0    0    0 -0.00000000000E+00 -0.00000000000E+00  0.11368683772E-12  0.17120000000E+03  0.17120000000E+03 0.  0.
         13    1    1    2    0    0  0.21274041879E+02  0.78642949891E+00  0.38063479062E+02  0.43612417172E+02  0.10566000000E+00 0. -1.
        994    1    1    2    0    0 -0.27509622464E+02 -0.15032605926E+02  0.87319918520E+01  0.17426544767E+03  0.17120000000E+03 0.  0.
        998    1    1    2    0    0  0.62355805849E+01  0.14246176427E+02  0.14532045254E+04  0.14533221352E+04  0.10000000000E+02 0. -1.
</event>
<event>
 5    1  0.1153629E-008  0.3852400E+03  0.7957747E-01  0.3428655E+00
         13   -1    0    0    0    0  0.00000000000E+00  0.00000000000E+00  0.14999999963E+04  0.15000000000E+04  0.10566000000E+00 0. -1.
        994   -1    0    0    0    0 -0.00000000000E+00 -0.00000000000E+00  0.11368683772E-12  0.17120000000E+03  0.17120000000E+03 0.  0.
         13    1    1    2    0    0  0.10947049301E+02  0.13580757738E+02  0.10349499013E+03  0.10495474746E+03  0.10566000000E+00 0. -1.
        994    1    1    2    0    0 -0.46055899690E+01 -0.67390720788E+01  0.17300033368E+01  0.17140320727E+03  0.17120000000E+03 0.  0.
        998    1    1    2    0    0 -0.63414593319E+01 -0.68416856592E+01  0.13947750028E+04  0.13948420453E+04  0.10000000000E+02 0. -1.
</event>
<event>
 5    1  0.1153629E-008  0.3740732E+03  0.7957747E-01  0.3477378E+00
         13   -1    0    0    0    0  0.00000000000E+00  0.00000000000E+00  0.14999999963E+04  0.15000000000E+04  0.10566000000E+00 0. -1.
        994   -1    0    0    0    0 -0.00000000000E+00 -0.00000000000E+00  0.11368683772E-12  0.17120000000E+03  0.17120000000E+03 0.  0.
         13    1    1    2    0    0 -0.51954626286E+02 -0.62907113302E+02  0.23803326648E+03  0.25162757244E+03  0.10566000000E+00 0. -1.
        994    1    1    2    0    0  0.28434581489E+02  0.52244963394E+02  0.25765531163E+02  0.18306109423E+03  0.17120000000E+03 0.  0.
        998    1    1    2    0    0  0.23520044797E+02  0.10662149908E+02  0.12362011986E+04  0.12365113333E+04  0.10000000000E+02 0. -1.
</event>
<event>
 5    1  0.1153629E-008  0.4111354E+03  0.7957747E-01  0.3325868E+00
         13   -1    0    0    0    0  0.00000000000E+00  0.00000000000E+00  0.14999999963E+04  0.15000000000E+04  0.10566000000E+00 0. -1.
        994   -1    0    0    0    0 -0.00000000000E+00 -0.00000000000E+00  0.11368683772E-12  0.17120000000E+03  0.17120000000E+03 0.  0.
         13    1    1    2    0    0 -0.22139600725E+02  0.37336412376E+02  0.13666065658E+02  0.45507605122E+02  0.10566000000E+00 0. -1.
        994    1    1    2    0    0  0.14054857551E+02 -0.39730439461E+02  0.41928473493E+02  0.18122771237E+03  0.17120000000E+03 0.  0.
        998    1    1    2    0    0  0.80847431739E+01  0.23940270849E+01  0.14444054571E+04  0.14444646825E+04  0.10000000000E+02 0. -1.
</event>
<event>
 5    1  0.1153629E-008  0.3850855E+03  0.7957747E-01  0.3429310E+00
         13   -1    0    0    0    0  0.00000000000E+00  0.00000000000E+00  0.14999999963E+04  0.15000000000E+04  0.10566000000E+00 0. -1.
        994   -1    0    0    0    0 -0.00000000000E+00 -0.00000000000E+00  0.11368683772E-12  0.17120000000E+03  0.17120000000E+03 0.  0.
         13    1    1    2    0    0 -0.11375573571E+02 -0.15775984603E+01  0.40723508859E+02  0.42312029362E+02  0.10566000000E+00 0. -1.
        994    1    1    2    0    0  0.11707405333E+02 -0.25611005578E+01  0.20600527220E+01  0.17163130948E+03  0.17120000000E+03 0.  0.
        998    1    1    2    0    0 -0.33183176219E+00  0.41386990180E+01  0.14572164347E+04  0.14572566612E+04  0.10000000000E+02 0. -1.
</event>
<event>
 5    1  0.1153629E-008  0.3851730E+03  0.7957747E-01  0.3428939E+00
         13   -1    0    0    0    0  0.00000000000E+00  0.00000000000E+00  0.14999999963E+04  0.15000000000E+04  0.10566000000E+00 0.  1.
        994   -1    0    0    0    0 -0.00000000000E+00 -0.00000000000E+00  0.11368683772E-12  0.17120000000E+03  0.17120000000E+03 0.  0.
         13    1    1    2    0    0  0.51077192471E+01 -0.15682860464E+02  0.81329909159E+02  0.82985578241E+02  0.10566000000E+00 0.  1.
        994    1    1    2    0    0  0.14412244871E+02  0.28734463491E+02  0.49482005186E+01  0.17426217858E+03  0.17120000000E+03 0.  0.
        998    1    1    2    0    0 -0.19519964118E+02 -0.13051603027E+02  0.14137218866E+04  0.14139522432E+04  0.10000000000E+02 0.  1.
</event>
<event>
 5    1  0.1153629E-008  0.3831118E+03  0.7957747E-01  0.3437720E+00
         13   -1    0    0    0    0  0.00000000000E+00  0.00000000000E+00  0.14999999963E+04  0.15000000000E+04  0.10566000000E+00 0.  1.
        994   -1    0    0    0    0 -0.00000000000E+00 -0.00000000000E+00  0.11368683772E-12  0.17120000000E+03  0.17120000000E+03 0.  0.
         13    1    1    2    0    0  0.86905222820E+01 -0.93941662603E+01  0.31109523222E+02  0.33639101302E+02  0.10566000000E+00 0.  1.
        994    1    1    2    0    0 -0.49140627688E+00  0.10239084219E+02  0.29182979069E+01  0.17153144548E+03  0.17120000000E+03 0.  0.
        998    1    1    2    0    0 -0.81991160052E+01 -0.84491795899E+00  0.14659721752E+04  0.14660294532E+04  0.10000000000E+02 0.  1.
</event>
<event>
 5    1  0.1153629E-008  0.3757415E+03  0.7957747E-01  0.3469913E+00
         13   -1    0    0    0    0  0.00000000000E+00  0.00000000000E+00  0.14999999963E+04  0.15000000000E+04  0.10566000000E+00 0.  1.
        994   -1    0    0    0    0 -0.00000000000E+00 -0.00000000000E+00  0.11368683772E-12  0.17120000000E+03  0.17120000000E+03 0.  0.
         13    1    1    2    0    0 -0.14740737115E+03 -0.91560493297E+01  0.75170975659E+03  0.76608115472E+03  0.10566000000E+00 0.  1.
        994    1    1    2    0    0  0.14969912565E+03  0.12053523221E+02  0.87073576005E+02  0.24381624901E+03  0.17120000000E+03 0.  0.
        998    1    1    2    0    0 -0.22917544951E+01 -0.28974738912E+01  0.66121666369E+03  0.66130259627E+03  0.10000000000E+02 0.  0.
</event>
<event>
 5    1  0.1153629E-008  0.3772074E+03  0.7957747E-01  0.3463409E+00
         13   -1    0    0    0    0  0.00000000000E+00  0.00000000000E+00  0.14999999963E+04  0.15000000000E+04  0.10566000000E+00 0.  1.
        994   -1    0    0    0    0 -0.00000000000E+00 -0.00000000000E+00  0.11368683772E-12  0.17120000000E+03  0.17120000000E+03 0.  0.
         13    1    1    2    0    0  0.54370003281E+02 -0.14166872157E+02  0.97737075360E+02  0.11273572897E+03  0.10566000000E+00 0.  1.
        994    1    1    2    0    0 -0.47723541457E+02  0.11470158925E+02  0.23493439463E+02  0.17963986933E+03  0.17120000000E+03 0.  0.
        998    1    1    2    0    0 -0.66464618238E+01  0.26967132316E+01  0.13787694815E+04  0.13788244017E+04  0.10000000000E+02 0.  1.
</event>
<event>
 5    1  0.1153629E-008  0.3823090E+03  0.7957747E-01  0.3441166E+00
         13   -1    0    0    0    0  0.00000000000E+00  0.00000000000E+00  0.14999999963E+04  0.15000000000E+04  0.10566000000E+00 0.  1.
        994   -1    0    0    0    0 -0.00000000000E+00 -0.00000000000E+00  0.11368683772E-12  0.17120000000E+03  0.17120000000E+03 0.  0.
         13    1    1    2    0    0  0.27277910126E+02 -0.12685464689E+02  0.14084504682E+03  0.14402202531E+03  0.10566000000E+00 0.  1.
        994    1    1    2    0    0 -0.28433887160E+02  0.56770107796E+01  0.57662747546E+01  0.17373371669E+03  0.17120000000E+03 0.  0.
        998    1    1    2    0    0  0.11559770335E+01  0.70084539099E+01  0.13533886747E+04  0.13534442580E+04  0.10000000000E+02 0.  1.
</event>
<event>
 5    1  0.1153629E-008  0.3725334E+03  0.7957747E-01  0.3484328E+00
         13   -1    0    0    0    0  0.00000000000E+00  0.00000000000E+00  0.14999999963E+04  0.15000000000E+04  0.10566000000E+00 0. -1.
        994   -1    0    0    0    0 -0.00000000000E+00 -0.00000000000E+00  0.11368683772E-12  0.17120000000E+03  0.17120000000E+03 0.  0.
         13    1    1    2    0    0  0.80899862474E+02  0.34518123538E+02  0.46045839283E+03  0.46878377883E+03  0.10566000000E+00 0. -1.
        994    1    1    2    0    0 -0.42705196065E+02 -0.45677920421E+02  0.21475172342E+02  0.18352337511E+03  0.17120000000E+03 0.  0.
        998    1    1    2    0    0 -0.38194666409E+02  0.11159796883E+02  0.10180664311E+04  0.10188928461E+04  0.10000000000E+02 0. -1.
</event>
<event>
 5    1  0.1153629E-008  0.4077358E+03  0.7957747E-01  0.3338622E+00
         13   -1    0    0    0    0  0.00000000000E+00  0.00000000000E+00  0.14999999963E+04  0.15000000000E+04  0.10566000000E+00 0. -1.
        994   -1    0    0    0    0 -0.00000000000E+00 -0.00000000000E+00  0.11368683772E-12  0.17120000000E+03  0.17120000000E+03 0.  0.
         13    1    1    2    0    0  0.40981122183E+02 -0.13474718285E+02  0.15650204741E+02  0.45890745044E+02  0.10566000000E+00 0. -1.
        994    1    1    2    0    0 -0.41825561564E+02  0.16705792927E+02  0.40729150523E+02  0.18165011649E+03  0.17120000000E+03 0.  0.
        998    1    1    2    0    0  0.84443938121E+00 -0.32310746422E+01  0.14436206410E+04  0.14436591385E+04  0.10000000000E+02 0. -1.
</event>
<event>
 5    1  0.1153629E-008  0.3816258E+03  0.7957747E-01  0.3444110E+00
         13   -1    0    0    0    0  0.00000000000E+00  0.00000000000E+00  0.14999999963E+04  0.15000000000E+04  0.10566000000E+00 0. -1.
        994   -1    0    0    0    0 -0.00000000000E+00 -0.00000000000E+00  0.11368683772E-12  0.17120000000E+03  0.17120000000E+03 0.  0.
         13    1    1    2    0    0 -0.14056517433E+01  0.19664675341E+02  0.60251769160E+02  0.63395285030E+02  0.10566000000E+00 0. -1.
        994    1    1    2    0    0 -0.16922656344E+02 -0.36414672420E+01  0.43116590332E+01  0.17212689210E+03  0.17120000000E+03 0.  0.
        998    1    1    2    0    0  0.18328308087E+02 -0.16023208099E+02  0.14354365681E+04  0.14356778229E+04  0.10000000000E+02 0. -1.
</event>
<event>
 5    1  0.1153629E-008  0.3847500E+03  0.7957747E-01  0.3430733E+00
         13   -1    0    0    0    0  0.00000000000E+00  0.00000000000E+00  0.14999999963E+04  0.15000000000E+04  0.10566000000E+00 0.  1.
        994   -1    0    0    0    0 -0.00000000000E+00 -0.00000000000E+00  0.11368683772E-12  0.17120000000E+03  0.17120000000E+03 0.  0.
         13    1    1    2    0    0 -0.92952620622E+01  0.11369922154E+02  0.59752022365E+02  0.61530418228E+02  0.10566000000E+00 0.  1.
        994    1    1    2    0    0  0.10182235510E+02 -0.10006461322E+02  0.24254068676E+01  0.17181132031E+03  0.17120000000E+03 0.  0.
        998    1    1    2    0    0 -0.88697344826E+00 -0.13634608319E+01  0.14378225670E+04  0.14378582615E+04  0.10000000000E+02 0.  1.
</event>
<event>
 5    1  0.1153629E-008  0.3749191E+03  0.7957747E-01  0.3473585E+00
         13   -1    0    0    0    0  0.00000000000E+00  0.00000000000E+00  0.14999999963E+04  0.15000000000E+04  0.10566000000E+00 0. -1.
        994   -1    0    0    0    0 -0.00000000000E+00 -0.00000000000E+00  0.11368683772E-12  0.17120000000E+03  0.17120000000E+03 0.  0.
         13    1    1    2    0    0 -0.21473503389E+02 -0.69884815362E+01  0.35624084307E+02  0.42178629289E+02  0.10566000000E+00 0. -1.
        994    1    1    2    0    0  0.82047860312E+01  0.11152011342E+02  0.73722844647E+01  0.17191706270E+03  0.17120000000E+03 0.  0.
        998    1    1    2    0    0  0.13268717358E+02 -0.41635298054E+01  0.14570036275E+04  0.14571043080E+04  0.10000000000E+02 0. -1.
</event>
<event>
 5    1  0.1153629E-008  0.3816458E+03  0.7957747E-01  0.3444023E+00
         13   -1    0    0    0    0  0.00000000000E+00  0.00000000000E+00  0.14999999963E+04  0.15000000000E+04  0.10566000000E+00 0.  1.
        994   -1    0    0    0    0 -0.00000000000E+00 -0.00000000000E+00  0.11368683772E-12  0.17120000000E+03  0.17120000000E+03 0.  0.
         13    1    1    2    0    0 -0.45705802354E+01 -0.92441947499E+01  0.14539597045E+02  0.17825722609E+02  0.10566000000E+00 0.  1.
        994    1    1    2    0    0  0.52189847947E+01  0.10647910720E+02  0.37723154372E+01  0.17165164191E+03  0.17120000000E+03 0.  0.
        998    1    1    2    0    0 -0.64840455927E+00 -0.14037159705E+01  0.14816880838E+04  0.14817226355E+04  0.10000000000E+02 0.  1.
</event>
<event>
 5    1  0.1153629E-008  0.3846834E+03  0.7957747E-01  0.3431016E+00
         13   -1    0    0    0    0  0.00000000000E+00  0.00000000000E+00  0.14999999963E+04  0.15000000000E+04  0.10566000000E+00 0. -1.
        994   -1    0    0    0    0 -0.00000000000E+00 -0.00000000000E+00  0.11368683772E-12  0.17120000000E+03  0.17120000000E+03 0.  0.
         13    1    1    2    0    0 -0.85841856410E+01  0.10263109599E+02  0.53666373800E+02  0.55309226198E+02  0.10566000000E+00 0. -1.
        994    1    1    2    0    0  0.83442972101E+01  0.12141380173E+02  0.25022416908E+01  0.17185092849E+03  0.17120000000E+03 0.  0.
        998    1    1    2    0    0  0.23988843088E+00 -0.22404489772E+02  0.14438313808E+04  0.14440398453E+04  0.10000000000E+02 0. -1.
</event>
<event>
 5    1  0.1585078E-008  0.3863647E+03  0.7957747E-01  0.3423905E+00
         13   -1    0    0    0    0  0.00000000000E+00  0.00000000000E+00  0.14999999963E+04  0.15000000000E+04  0.10566000000E+00 0.  1.
        994   -1    0    0    0    0 -0.00000000000E+00 -0.00000000000E+00  0.11368683772E-12  0.17120000000E+03  0.17120000000E+03 0.  0.
         13    1    1    2    0    0  0.93641838924E+01  0.57631544661E+01  0.63574051303E+02  0.64518005646E+02  0.10566000000E+00 0.  1.
        994    1    1    2    0    0 -0.39019462085E+01 -0.11436111801E+02  0.14322793658E+01  0.17163187717E+03  0.17120000000E+03 0.  0.
        998    1    1    2    0    0 -0.54622376840E+01  0.56729573351E+01  0.14349936656E+04  0.14350501172E+04  0.10000000000E+02 0.  1.
</event>
<event>
 5    1  0.1153629E-008  0.3802642E+03  0.7957747E-01  0.3450009E+00
         13   -1    0    0    0    0  0.00000000000E+00  0.00000000000E+00  0.14999999963E+04  0.15000000000E+04  0.10566000000E+00 0. -1.
        994   -1    0    0    0    0 -0.00000000000E+00 -0.00000000000E+00  0.11368683772E-12  0.17120000000E+03  0.17120000000E+03 0.  0.
         13    1    1    2    0    0  0.27200710687E+02  0.14527579758E+02  0.11227298042E+03  0.11643093460E+03  0.10566000000E+00 0. -1.
        994    1    1    2    0    0 -0.25972653090E+02 -0.83799481486E+01  0.64914625163E+01  0.17348308657E+03  0.17120000000E+03 0.  0.
        998    1    1    2    0    0 -0.12280575969E+01 -0.61476316091E+01  0.13812355533E+04  0.13812859788E+04  0.10000000000E+02 0. -1.
</event>
<event>
 5    1  0.1153629E-008  0.3862591E+03  0.7957747E-01  0.3424350E+00
         13   -1    0    0    0    0  0.00000000000E+00  0.00000000000E+00  0.14999999963E+04  0.15000000000E+04  0.10566000000E+00 0. -1.
        994   -1    0    0    0    0 -0.00000000000E+00 -0.00000000000E+00  0.11368683772E-12  0.17120000000E+03  0.17120000000E+03 0.  0.
         13    1    1    2    0    0  0.11407815661E+02  0.15604931163E+01  0.64000307914E+02  0.65027870749E+02  0.10566000000E+00 0. -1.
        994    1    1    2    0    0 -0.12460785177E+02 -0.83405002505E+01  0.17430606553E+01  0.17186422947E+03  0.17120000000E+03 0.  0.
        998    1    1    2    0    0  0.10529695154E+01  0.67800071342E+01  0.14342566277E+04  0.14343078998E+04  0.10000000000E+02 0. -1.
</event>
<event>
 5    1  0.1153629E-008  0.3833656E+03  0.7957747E-01  0.3436633E+00
         13   -1    0    0    0    0  0.00000000000E+00  0.00000000000E+00  0.14999999963E+04  0.15000000000E+04  0.10566000000E+00 0.  1.
        994   -1    0    0    0    0 -0.00000000000E+00 -0.00000000000E+00  0.11368683772E-12  0.17120000000E+03  0.17120000000E+03 0.  0.
         13    1    1    2    0    0  0.37127654321E+01 -0.93632364809E+01  0.19750528633E+02  0.22170912698E+02  0.10566000000E+00 0.  1.
        994    1    1    2    0    0 -0.67961852025E+01  0.71221454198E+01  0.27642227684E+01  0.17150508452E+03  0.17120000000E+03 0.  0.
        998    1    1    2    0    0  0.30834197705E+01  0.22410910611E+01  0.14774852449E+04  0.14775240028E+04  0.10000000000E+02 0.  1.
</event>
<event>
 5    1  0.1153629E-008  0.3825348E+03  0.7957747E-01  0.3440195E+00
         13   -1    0    0    0    0  0.00000000000E+00  0.00000000000E+00  0.14999999963E+04  0.15000000000E+04  0.10566000000E+00 0.  1.
        994   -1    0    0    0    0 -0.00000000000E+00 -0.00000000000E+00  0.11368683772E-12  0.17120000000E+03  0.17120000000E+03 0.  0.
         13    1    1    2    0    0  0.11807752146E+02 -0.10492479777E+02  0.41971114456E+02  0.44845298029E+02  0.10566000000E+00 0.  1.
        994    1    1    2    0    0 -0.12774138396E+02  0.78160002939E+01  0.36028443796E+01  0.17189150345E+03  0.17120000000E+03 0.  0.
        998    1    1    2    0    0  0.96638624972E+00  0.26764794834E+01  0.14544260374E+04  0.14544631985E+04  0.10000000000E+02 0.  1.
</event>
<event>
 5    1  0.1153629E-008  0.3735105E+03  0.7957747E-01  0.3479911E+00
         13   -1    0    0    0    0  0.00000000000E+00  0.00000000000E+00  0.14999999963E+04  0.15000000000E+04  0.10566000000E+00 0.  1.
        994   -1    0    0    0    0 -0.00000000000E+00 -0.00000000000E+00  0.11368683772E-12  0.17120000000E+03  0.17120000000E+03 0.  0.
         13    1    1    2    0    0  0.25305076658E+02 -0.73051026216E+02  0.32364698972E+03  0.33275243719E+03  0.10566000000E+00 0.  1.
        994    1    1    2    0    0 -0.18971423389E+02  0.70441464180E+02  0.25851289256E+02  0.18788199471E+03  0.17120000000E+03 0.  0.
        998    1    1    2    0    0 -0.63336532681E+01  0.26095620365E+01  0.11505017173E+04  0.11505655681E+04  0.10000000000E+02 0.  0.
</event>
<event>
 5    1  0.1153629E-008  0.3772295E+03  0.7957747E-01  0.3463311E+00
         13   -1    0    0    0    0  0.00000000000E+00  0.00000000000E+00  0.14999999963E+04  0.15000000000E+04  0.10566000000E+00 0.  1.
        994   -1    0    0    0    0 -0.00000000000E+00 -0.00000000000E+00  0.11368683772E-12  0.17120000000E+03  0.17120000000E+03 0.  0.
         13    1    1    2    0    0 -0.63832434742E+02 -0.35083550201E+02  0.43083677387E+03  0.43695053736E+03  0.10566000000E+00 0.  1.
        994    1    1    2    0    0  0.35613720390E+02  0.44585754197E+02  0.16604185169E+02  0.18122186822E+03  0.17120000000E+03 0.  0.
        998    1    1    2    0    0  0.28218714352E+02 -0.95022039961E+01  0.10525590372E+04  0.10530275944E+04  0.10000000000E+02 0.  1.
</event>
<event>
 5    1  0.1153629E-008  0.3750044E+03  0.7957747E-01  0.3473203E+00
         13   -1    0    0    0    0  0.00000000000E+00  0.00000000000E+00  0.14999999963E+04  0.15000000000E+04  0.10566000000E+00 0.  1.
        994   -1    0    0    0    0 -0.00000000000E+00 -0.00000000000E+00  0.11368683772E-12  0.17120000000E+03  0.17120000000E+03 0.  0.
         13    1    1    2    0    0  0.18905113674E+02 -0.43854233162E+02  0.16638979146E+03  0.17310739717E+03  0.10566000000E+00 0.  1.
        994    1    1    2    0    0 -0.34806183852E+02  0.18654609639E+02  0.11995810177E+02  0.17610452679E+03  0.17120000000E+03 0.  0.
        998    1    1    2    0    0  0.15901070178E+02  0.25199623523E+02  0.13216143946E+04  0.13219880760E+04  0.10000000000E+02 0.  1.
</event>
<event>
 5    1  0.1153629E-008  0.3854675E+03  0.7957747E-01  0.3427692E+00
         13   -1    0    0    0    0  0.00000000000E+00  0.00000000000E+00  0.14999999963E+04  0.15000000000E+04  0.10566000000E+00 0.  1.
        994   -1    0    0    0    0 -0.00000000000E+00 -0.00000000000E+00  0.11368683772E-12  0.17120000000E+03  0.17120000000E+03 0.  0.
         13    1    1    2    0    0  0.14962767210E+02  0.13610634255E+02  0.12101196568E+03  0.12269083409E+03  0.10566000000E+00 0.  1.
        994    1    1    2    0    0 -0.26998330644E+02 -0.21094245503E+02  0.52623747928E+01  0.17467400963E+03  0.17120000000E+03 0.  0.
        998    1    1    2    0    0  0.12035563434E+02  0.74836112486E+01  0.13737256558E+04  0.13738351563E+04  0.10000000000E+02 0.  1.
</event>
<event>
 5    1  0.1153629E-008  0.3720076E+03  0.7957747E-01  0.3486715E+00
         13   -1    0    0    0    0  0.00000000000E+00  0.00000000000E+00  0.14999999963E+04  0.15000000000E+04  0.10566000000E+00 0.  1.
        994   -1    0    0    0    0 -0.00000000000E+00 -0.00000000000E+00  0.11368683772E-12  0.17120000000E+03  0.17120000000E+03 0.  0.
         13    1    1    2    0    0  0.18548410017E+02  0.75097021438E+01  0.20457497151E+02  0.28617468340E+02  0.10566000000E+00 0.  1.
        994    1    1    2    0    0 -0.13164926546E+02 -0.25101811994E+02  0.10987295987E+02  0.17387805189E+03  0.17120000000E+03 0.  0.
        998    1    1    2    0    0 -0.53834834717E+01  0.17592109851E+02  0.14685552031E+04  0.14687044798E+04  0.10000000000E+02 0.  1.
</event>
<event>
 5    1  0.1153629E-008  0.3850962E+03  0.7957747E-01  0.3429264E+00
         13   -1    0    0    0    0  0.00000000000E+00  0.00000000000E+00  0.14999999963E+04  0.15000000000E+04  0.10566000000E+00 0. -1.
        994   -1    0    0    0    0 -0.00000000000E+00 -0.00000000000E+00  0.11368683772E-12  0.17120000000E+03  0.17120000000E+03 0.  0.
         13    1    1    2    0    0  0.54309522397E+01 -0.88287841487E+01  0.35489140051E+02  0.36972055628E+02  0.10566000000E+00 0. -1.
        994    1    1    2    0    0 -0.13398007489E+02 -0.11500675819E+02  0.26080628481E+01  0.17212790053E+03  0.17120000000E+03 0.  0.
        998    1    1    2    0    0  0.79670552489E+01  0.20329459968E+02  0.14619027934E+04  0.14621000438E+04  0.10000000000E+02 0. -1.
</event>
<event>
 5    1  0.1153629E-008  0.3844872E+03  0.7957747E-01  0.3431850E+00
         13   -1    0    0    0    0  0.00000000000E+00  0.00000000000E+00  0.14999999963E+04  0.15000000000E+04  0.10566000000E+00 0.  1.
        994   -1    0    0    0    0 -0.00000000000E+00 -0.00000000000E+00  0.11368683772E-12  0.17120000000E+03  0.17120000000E+03 0.  0.
         13    1    1    2    0    0  0.22362656547E+02  0.73071762268E+01  0.13206466969E+03  0.13414384584E+03  0.10566000000E+00 0.  1.
        994    1    1    2    0    0 -0.25227388330E+02 -0.95939581222E+01  0.42882774418E+01  0.17336751275E+03  0.17120000000E+03 0.  0.
        998    1    1    2    0    0  0.28647317834E+01  0.22867818954E+01  0.13636470492E+04  0.13636886414E+04  0.10000000000E+02 0.  0.
</event>
<event>
 5    1  0.1153629E-008  0.3772428E+03  0.7957747E-01  0.3463253E+00
         13   -1    0    0    0    0  0.00000000000E+00  0.00000000000E+00  0.14999999963E+04  0.15000000000E+04  0.10566000000E+00 0.  1.
        994   -1    0    0    0    0 -0.00000000000E+00 -0.00000000000E+00  0.11368683772E-12  0.17120000000E+03  0.17120000000E+03 0.  0.
         13    1    1    2    0    0  0.41618316465E+02 -0.27843507464E+02  0.21475505684E+03  0.22051551142E+03  0.10566000000E+00 0.  1.
        994    1    1    2    0    0 -0.30933470250E+02  0.17817319894E+02  0.98427600556E+01  0.17515894609E+03  0.17120000000E+03 0.  0.
        998    1    1    2    0    0 -0.10684846215E+02  0.10026187571E+02  0.12754021794E+04  0.12755255425E+04  0.10000000000E+02 0.  1.
</event>
<event>
 5    1  0.1153629E-008  0.3746645E+03  0.7957747E-01  0.3474725E+00
         13   -1    0    0    0    0  0.00000000000E+00  0.00000000000E+00  0.14999999963E+04  0.15000000000E+04  0.10566000000E+00 0.  1.
        994   -1    0    0    0    0 -0.00000000000E+00 -0.00000000000E+00  0.11368683772E-12  0.17120000000E+03  0.17120000000E+03 0.  0.
         13    1    1    2    0    0  0.12140719008E+02 -0.56066575382E+01  0.98628290337E+01  0.16616805571E+02  0.10566000000E+00 0.  1.
        994    1    1    2    0    0 -0.12639229105E+02  0.73886268788E+01  0.75808623541E+01  0.17199200968E+03  0.17120000000E+03 0.  0.
        998    1    1    2    0    0  0.49851009642E+00 -0.17819693405E+01  0.14825563049E+04  0.14825911848E+04  0.10000000000E+02 0.  1.
</event>
<event>
 5    1  0.1153629E-008  0.3845810E+03  0.7957747E-01  0.3431451E+00
         13   -1    0    0    0    0  0.00000000000E+00  0.00000000000E+00  0.14999999963E+04  0.15000000000E+04  0.10566000000E+00 0. -1.
        994   -1    0    0    0    0 -0.00000000000E+00 -0.00000000000E+00  0.11368683772E-12  0.17120000000E+03  0.17120000000E+03 0.  0.
         13    1    1    2    0    0  0.10630031233E+02 -0.12533484255E+01  0.30204539392E+02  0.32045183885E+02  0.10566000000E+00 0. -1.
        994    1    1    2    0    0 -0.14038446758E+02 -0.17308335765E+02  0.34755788638E+01  0.17267940272E+03  0.17120000000E+03 0.  0.
        998    1    1    2    0    0  0.34084155256E+01  0.18561684190E+02  0.14663198780E+04  0.14664754134E+04  0.10000000000E+02 0. -1.
</event>
<event>
 5    1  0.1153629E-008  0.3767215E+03  0.7957747E-01  0.3465559E+00
         13   -1    0    0    0    0  0.00000000000E+00  0.00000000000E+00  0.14999999963E+04  0.15000000000E+04  0.10566000000E+00 0.  1.
        994   -1    0    0    0    0 -0.00000000000E+00 -0.00000000000E+00  0.11368683772E-12  0.17120000000E+03  0.17120000000E+03 0.  0.
         13    1    1    2    0    0 -0.40689899204E+02 -0.25862688454E+02  0.17803102207E+03  0.18444403633E+03  0.10566000000E+00 0.  1.
        994    1    1    2    0    0  0.40970262021E+02  0.22294376768E+02  0.13185592126E+02  0.17792948447E+03  0.17120000000E+03 0.  0.
        998    1    1    2    0    0 -0.28036281703E+00  0.35683116861E+01  0.13087833821E+04  0.13088264792E+04  0.10000000000E+02 0.  1.
</event>
<event>
 5    1  0.1153629E-008  0.3854047E+03  0.7957747E-01  0.3427958E+00
         13   -1    0    0    0    0  0.00000000000E+00  0.00000000000E+00  0.14999999963E+04  0.15000000000E+04  0.10566000000E+00 0. -1.
        994   -1    0    0    0    0 -0.00000000000E+00 -0.00000000000E+00  0.11368683772E-12  0.17120000000E+03  0.17120000000E+03 0.  0.
         13    1    1    2    0    0  0.99779008092E+01 -0.22362958940E+01  0.36712826535E+02  0.38110396484E+02  0.10566000000E+00 0. -1.
        994    1    1    2    0    0 -0.73351569652E+01 -0.36263533003E+01  0.16492899803E+01  0.17140336964E+03  0.17120000000E+03 0.  0.
        998    1    1    2    0    0 -0.26427438440E+01  0.58626491943E+01  0.14616378798E+04  0.14616862339E+04  0.10000000000E+02 0. -1.
</event>
<event>
 5    1  0.1153629E-008  0.3718275E+03  0.7957747E-01  0.3487534E+00
         13   -1    0    0    0    0  0.00000000000E+00  0.00000000000E+00  0.14999999963E+04  0.15000000000E+04  0.10566000000E+00 0. -1.
        994   -1    0    0    0    0 -0.00000000000E+00 -0.00000000000E+00  0.11368683772E-12  0.17120000000E+03  0.17120000000E+03 0.  0.
         13    1    1    2    0    0  0.58392997277E+02  0.10053114424E+02  0.21659465862E+03  0.22455303282E+03  0.10566000000E+00 0. -1.
        994    1    1    2    0    0 -0.31366738466E+02  0.16076915689E+02  0.12597659212E+02  0.17524405986E+03  0.17120000000E+03 0.  0.
        998    1    1    2    0    0 -0.27026258811E+02 -0.26130030112E+02  0.12708076784E+04  0.12714029073E+04  0.10000000000E+02 0. -1.
</event>
<event>
 5    1  0.1153629E-008  0.3830215E+03  0.7957747E-01  0.3438107E+00
         13   -1    0    0    0    0  0.00000000000E+00  0.00000000000E+00  0.14999999963E+04  0.15000000000E+04  0.10566000000E+00 0. -1.
        994   -1    0    0    0    0 -0.00000000000E+00 -0.00000000000E+00  0.11368683772E-12  0.17120000000E+03  0.17120000000E+03 0.  0.
         13    1    1    2    0    0  0.43646228146E+01 -0.23281539303E+02  0.11289989726E+03  0.11535804250E+03  0.10566000000E+00 0. -1.
        994    1    1    2    0    0 -0.35954511031E+01  0.54023125666E+01  0.27550201506E+01  0.17134509735E+03  0.17120000000E+03 0.  0.
        998    1    1    2    0    0 -0.76917171151E+00  0.17879226736E+02  0.13843450789E+04  0.13844968601E+04  0.10000000000E+02 0. -1.
</event>
<event>
 5    1  0.1153629E-008  0.3725491E+03  0.7957747E-01  0.3484257E+00
         13   -1    0    0    0    0  0.00000000000E+00  0.00000000000E+00  0.14999999963E+04  0.15000000000E+04  0.10566000000E+00 0. -1.
        994   -1    0    0    0    0 -0.00000000000E+00 -0.00000000000E+00  0.11368683772E-12  0.17120000000E+03  0.17120000000E+03 0.  0.
         13    1    1    2    0    0  0.68867630849E+01  0.10700422394E+02  0.66927788558E+01  0.14378143066E+02  0.10566000000E+00 0. -1.
        994    1    1    2    0    0 -0.81157380399E+01  0.33001129189E+01  0.82058399438E+01  0.17162031278E+03  0.17120000000E+03 0.  0.
        998    1    1    2    0    0  0.12289749549E+01 -0.14000535313E+02  0.14851013775E+04  0.14852015442E+04  0.10000000000E+02 0. -1.
</event>
<event>
 5    1  0.1153629E-008  0.3731840E+03  0.7957747E-01  0.3481385E+00
         13   -1    0    0    0    0  0.00000000000E+00  0.00000000000E+00  0.14999999963E+04  0.15000000000E+04  0.10566000000E+00 0.  1.
        994   -1    0    0    0    0 -0.00000000000E+00 -0.00000000000E+00  0.11368683772E-12  0.17120000000E+03  0.17120000000E+03 0.  0.
         13    1    1    2    0    0 -0.44827256560E+02  0.87564220031E+02  0.34924239205E+03  0.36283224103E+03  0.10566000000E+00 0.  1.
        994    1    1    2    0    0  0.65075013003E+02 -0.47250767704E+02  0.35864830316E+02  0.19251783922E+03  0.17120000000E+03 0.  0.
        998    1    1    2    0    0 -0.20247756442E+02 -0.40313452327E+02  0.11148927739E+04  0.11158499197E+04  0.10000000000E+02 0.  1.
</event>
<event>
 5    1  0.1153629E-008  0.3761821E+03  0.7957747E-01  0.3467953E+00
         13   -1    0    0    0    0  0.00000000000E+00  0.00000000000E+00  0.14999999963E+04  0.15000000000E+04  0.10566000000E+00 0. -1.
        994   -1    0    0    0    0 -0.00000000000E+00 -0.00000000000E+00  0.11368683772E-12  0.17120000000E+03  0.17120000000E+03 0.  0.
         13    1    1    2    0    0 -0.35668038178E+01 -0.17556754079E+02  0.24259065849E+02  0.30157505585E+02  0.10566000000E+00 0. -1.
        994    1    1    2    0    0  0.21538740911E+02  0.17653949889E+01  0.76557647554E+01  0.17272835527E+03  0.17120000000E+03 0.  0.
        998    1    1    2    0    0 -0.17971937093E+02  0.15791359090E+02  0.14680851657E+04  0.14683141391E+04  0.10000000000E+02 0. -1.
</event>
<event>
 5    1  0.1153629E-008  0.3841498E+03  0.7957747E-01  0.3433286E+00
         13   -1    0    0    0    0  0.00000000000E+00  0.00000000000E+00  0.14999999963E+04  0.15000000000E+04  0.10566000000E+00 0. -1.
        994   -1    0    0    0    0 -0.00000000000E+00 -0.00000000000E+00  0.11368683772E-12  0.17120000000E+03  0.17120000000E+03 0.  0.
         13    1    1    2    0    0 -0.17067491835E+02  0.10005115978E+02  0.97194915475E+02  0.99188025394E+02  0.10566000000E+00 0. -1.
        994    1    1    2    0    0  0.90926661809E+01 -0.26454740011E+01  0.23486372360E+01  0.17147778634E+03  0.17120000000E+03 0.  0.
        998    1    1    2    0    0  0.79748256543E+01 -0.73596419773E+01  0.14004564436E+04  0.14005341883E+04  0.10000000000E+02 0. -1.
</event>
<event>
 5    1  0.1153629E-008  0.3733963E+03  0.7957747E-01  0.3480426E+00
         13   -1    0    0    0    0  0.00000000000E+00  0.00000000000E+00  0.14999999963E+04  0.15000000000E+04  0.10566000000E+00 0. -1.
        994   -1    0    0    0    0 -0.00000000000E+00 -0.00000000000E+00  0.11368683772E-12  0.17120000000E+03  0.17120000000E+03 0.  0.
         13    1    1    2    0    0 -0.93113573710E+01  0.33636408617E+02  0.42602064201E+02  0.55073191291E+02  0.10566000000E+00 0. -1.
        994    1    1    2    0    0  0.26435182831E+02 -0.20023930272E+02  0.16647053972E+02  0.17517517256E+03  0.17120000000E+03 0.  0.
        998    1    1    2    0    0 -0.17123825460E+02 -0.13612478345E+02  0.14407508781E+04  0.14409516362E+04  0.10000000000E+02 0. -1.
</event>
<event>
 5    1  0.1153629E-008  0.3977298E+03  0.7957747E-01  0.3377415E+00
         13   -1    0    0    0    0  0.00000000000E+00  0.00000000000E+00  0.14999999963E+04  0.15000000000E+04  0.10566000000E+00 0. -1.
        994   -1    0    0    0    0 -0.00000000000E+00 -0.00000000000E+00  0.11368683772E-12  0.17120000000E+03  0.17120000000E+03 0.  0.
         13    1    1    2    0    0 -0.85436065454E+02  0.30827621680E+02  0.13405686368E+03  0.16192874175E+03  0.10566000000E+00 0. -1.
        994    1    1    2    0    0  0.88119054296E+02 -0.29211815599E+02  0.60706681168E+02  0.20399274261E+03  0.17120000000E+03 0.  0.
        998    1    1    2    0    0 -0.26829888419E+01 -0.16158060813E+01  0.13052364514E+04  0.13052785156E+04  0.10000000000E+02 0.  0.
</event>
<event>
 5    1  0.1153629E-008  0.3834680E+03  0.7957747E-01  0.3436196E+00
         13   -1    0    0    0    0  0.00000000000E+00  0.00000000000E+00  0.14999999963E+04  0.15000000000E+04  0.10566000000E+00 0.  1.
        994   -1    0    0    0    0 -0.00000000000E+00 -0.00000000000E+00  0.11368683772E-12  0.17120000000E+03  0.17120000000E+03 0.  0.
         13    1    1    2    0    0 -0.15368425102E+02  0.24047776521E+02  0.15330387017E+03  0.15593771776E+03  0.10566000000E+00 0.  1.
        994    1    1    2    0    0  0.14683980251E+02 -0.25650961676E+02  0.52852679743E+01  0.17381301783E+03  0.17120000000E+03 0.  0.
        998    1    1    2    0    0  0.68444485036E+00  0.16031851545E+01  0.13414108581E+04  0.13414492644E+04  0.10000000000E+02 0.  1.
</event>
<event>
 5    1  0.2768874E-008  0.3864228E+03  0.7957747E-01  0.3423660E+00
         13   -1    0    0    0    0  0.00000000000E+00  0.00000000000E+00  0.14999999963E+04  0.15000000000E+04  0.10566000000E+00 0. -1.
        994   -1    0    0    0    0 -0.00000000000E+00 -0.00000000000E+00  0.11368683772E-12  0.17120000000E+03  0.17120000000E+03 0.  0.
         13    1    1    2    0    0 -0.91371609922E+01  0.41403310279E+01  0.56042808534E+02  0.56933624550E+02  0.10566000000E+00 0. -1.
        994    1    1    2    0    0  0.60012694579E+01  0.47017323614E-01  0.10432829198E+01  0.17130833571E+03  0.17120000000E+03 0.  0.
        998    1    1    2    0    0  0.31358915343E+01 -0.41873483515E+01  0.14429139048E+04  0.14429580397E+04  0.10000000000E+02 0.  0.
</event>
<event>
 5    1  0.1390736E-008  0.3850587E+03  0.7957747E-01  0.3429423E+00
         13   -1    0    0    0    0  0.00000000000E+00  0.00000000000E+00  0.14999999963E+04  0.15000000000E+04  0.10566000000E+00 0.  1.
        994   -1    0    0    0    0 -0.00000000000E+00 -0.00000000000E+00  0.11368683772E-12  0.17120000000E+03  0.17120000000E+03 0.  0.
         13    1    1    2    0    0 -0.69062154023E+01 -0.14409223000E+02  0.82761418990E+02  0.84289887625E+02  0.10566000000E+00 0.  1.
        994    1    1    2    0    0  0.87281722230E+00  0.55709198847E+01  0.17055663232E+01  0.17130133074E+03  0.17120000000E+03 0.  0.
        998    1    1    2    0    0  0.60333981800E+01  0.88383031155E+01  0.14155330110E+04  0.14156087816E+04  0.10000000000E+02 0.  1.
</event>
<event>
 5    1  0.1153629E-008  0.3852815E+03  0.7957747E-01  0.3428479E+00
         13   -1    0    0    0    0  0.00000000000E+00  0.00000000000E+00  0.14999999963E+04  0.15000000000E+04  0.10566000000E+00 0. -1.
        994   -1    0    0    0    0 -0.00000000000E+00 -0.00000000000E+00  0.11368683772E-12  0.17120000000E+03  0.17120000000E+03 0.  0.
         13    1    1    2    0    0 -0.13401281894E+01 -0.17144161193E+02  0.96224250798E+02  0.97748840465E+02  0.10566000000E+00 0. -1.
        994    1    1    2    0    0  0.63381534494E+01  0.14789684180E+02  0.23415865495E+01  0.17197043343E+03  0.17120000000E+03 0.  0.
        998    1    1    2    0    0 -0.49980252600E+01  0.23544770133E+01  0.14014341589E+04  0.14014807261E+04  0.10000000000E+02 0. -1.
</event>
<event>
 5    1  0.1153629E-008  0.3840880E+03  0.7957747E-01  0.3433549E+00
         13   -1    0    0    0    0  0.00000000000E+00  0.00000000000E+00  0.14999999963E+04  0.15000000000E+04  0.10566000000E+00 0.  1.
        994   -1    0    0    0    0 -0.00000000000E+00 -0.00000000000E+00  0.11368683772E-12  0.17120000000E+03  0.17120000000E+03 0.  0.
         13    1    1    2    0    0  0.10775508053E+02  0.64075758193E+01  0.36293731605E+02  0.38398108280E+02  0.10566000000E+00 0.  1.
        994    1    1    2    0    0 -0.12995970770E+02 -0.60312805228E+01  0.27609794390E+01  0.17182064663E+03  0.17120000000E+03 0.  0.
        998    1    1    2    0    0  0.22204627178E+01 -0.37629529647E+00  0.14609452852E+04  0.14609812451E+04  0.10000000000E+02 0.  1.
</event>
<event>
 5    1  0.1153629E-008  0.3845183E+03  0.7957747E-01  0.3431718E+00
         13   -1    0    0    0    0  0.00000000000E+00  0.00000000000E+00  0.14999999963E+04  0.15000000000E+04  0.10566000000E+00 0. -1.
        994   -1    0    0    0    0 -0.00000000000E+00 -0.00000000000E+00  0.11368683772E-12  0.17120000000E+03  0.17120000000E+03 0.  0.
         13    1    1    2    0    0 -0.69668638893E+01 -0.11198386436E+02  0.46687857520E+02  0.48515031229E+02  0.10566000000E+00 0. -1.
        994    1    1    2    0    0  0.71591369153E+01  0.36752949611E+01  0.20828244959E+01  0.17140168958E+03  0.17120000000E+03 0.  0.
        998    1    1    2    0    0 -0.19227302601E+00  0.75230914749E+01  0.14512293143E+04  0.14512832792E+04  0.10000000000E+02 0. -1.
</event>
<event>
 5    1  0.1585906E-008  0.3851076E+03  0.7957747E-01  0.3429216E+00
         13   -1    0    0    0    0  0.00000000000E+00  0.00000000000E+00  0.14999999963E+04  0.15000000000E+04  0.10566000000E+00 0.  1.
        994   -1    0    0    0    0 -0.00000000000E+00 -0.00000000000E+00  0.11368683772E-12  0.17120000000E+03  0.17120000000E+03 0.  0.
         13    1    1    2    0    0 -0.45745610696E+01 -0.89851568618E+01  0.32314179724E+02  0.33850805428E+02  0.10566000000E+00 0.  1.
        994    1    1    2    0    0  0.10762707206E+01  0.53348745835E+01  0.16741098360E+01  0.17129466393E+03  0.17120000000E+03 0.  0.
        998    1    1    2    0    0  0.34982903490E+01  0.36502822783E+01  0.14660117067E+04  0.14660545306E+04  0.10000000000E+02 0.  1.
</event>
<event>
 5    1  0.1153629E-008  0.2484567E+03  0.7957747E-01  0.4350250E+00
         13   -1    0    0    0    0  0.00000000000E+00  0.00000000000E+00  0.14999999963E+04  0.15000000000E+04  0.10566000000E+00 0.  1.
        994   -1    0    0    0    0 -0.00000000000E+00 -0.00000000000E+00  0.11368683772E-12  0.17120000000E+03  0.17120000000E+03 0.  0.
         13    1    1    2    0    0 -0.12182890145E+03  0.11087260379E+03  0.41018747241E+03  0.44202804117E+03  0.10566000000E+00 0.  1.
        994    1    1    2    0    0  0.10997665828E+03 -0.13634897083E+02  0.87302155555E+02  0.22183751294E+03  0.17120000000E+03 0.  0.
        998    1    1    2    0    0  0.11852243174E+02 -0.97237706712E+02  0.10025103683E+04  0.10073344459E+04  0.10000000000E+02 0.  1.
</event>
<event>
 5    1  0.1153629E-008  0.3799767E+03  0.7957747E-01  0.3451260E+00
         13   -1    0    0    0    0  0.00000000000E+00  0.00000000000E+00  0.14999999963E+04  0.15000000000E+04  0.10566000000E+00 0. -1.
        994   -1    0    0    0    0 -0.00000000000E+00 -0.00000000000E+00  0.11368683772E-12  0.17120000000E+03  0.17120000000E+03 0.  0.
         13    1    1    2    0    0 -0.47774481328E+02  0.22051981820E+02  0.29161664431E+03  0.29632578250E+03  0.10566000000E+00 0. -1.
        994    1    1    2    0    0  0.41377584261E+02 -0.16722339393E+02  0.10832544350E+02  0.17725271544E+03  0.17120000000E+03 0.  0.
        998    1    1    2    0    0  0.63968970668E+01 -0.53296424268E+01  0.11975508076E+04  0.11976215021E+04  0.10000000000E+02 0. -1.
</event>
<event>
 5    1  0.1153629E-008  0.3737502E+03  0.7957747E-01  0.3478831E+00
         13   -1    0    0    0    0  0.00000000000E+00  0.00000000000E+00  0.14999999963E+04  0.15000000000E+04  0.10566000000E+00 0. -1.
        994   -1    0    0    0    0 -0.00000000000E+00 -0.00000000000E+00  0.11368683772E-12  0.17120000000E+03  0.17120000000E+03 0.  0.
         13    1    1    2    0    0 -0.89305585749E+01 -0.92222122731E+01  0.78747231828E+01  0.15060760436E+02  0.10566000000E+00 0. -1.
        994    1    1    2    0    0  0.93166409773E+01  0.83272065589E+01  0.78550903813E+01  0.17183505060E+03  0.17120000000E+03 0.  0.
        998    1    1    2    0    0 -0.38608240243E+00  0.89500571416E+00  0.14842701827E+04  0.14843041890E+04  0.10000000000E+02 0. -1.
</event>
<event>
 5    1  0.1153629E-008  0.3835153E+03  0.7957747E-01  0.3435993E+00
         13   -1    0    0    0    0  0.00000000000E+00  0.00000000000E+00  0.14999999963E+04  0.15000000000E+04  0.10566000000E+00 0. -1.
        994   -1    0    0    0    0 -0.00000000000E+00 -0.00000000000E+00  0.11368683772E-12  0.17120000000E+03  0.17120000000E+03 0.  0.
         13    1    1    2    0    0 -0.18115477607E+02 -0.12793383962E+02  0.11079208671E+03  0.11298999444E+03  0.10566000000E+00 0. -1.
        994    1    1    2    0    0  0.74645979100E+01 -0.40413339088E+01  0.26071848092E+01  0.17143013158E+03  0.17120000000E+03 0.  0.
        998    1    1    2    0    0  0.10650879697E+02  0.16834717871E+02  0.13866007248E+04  0.13867798740E+04  0.10000000000E+02 0. -1.
</event>
<event>
 5    1  0.1153629E-008  0.3691101E+03  0.7957747E-01  0.3499991E+00
         13   -1    0    0    0    0  0.00000000000E+00  0.00000000000E+00  0.14999999963E+04  0.15000000000E+04  0.10566000000E+00 0. -1.
        994   -1    0    0    0    0 -0.00000000000E+00 -0.00000000000E+00  0.11368683772E-12  0.17120000000E+03  0.17120000000E+03 0.  0.
         13    1    1    2    0    0 -0.49420247775E+02  0.58725450117E+02  0.20863585467E+03  0.22230602871E+03  0.10566000000E+00 0. -1.
        994    1    1    2    0    0  0.82029283689E+02 -0.64727380629E+02  0.49552402597E+02  0.20659941382E+03  0.17120000000E+03 0.  0.
        998    1    1    2    0    0 -0.32609035915E+02  0.60019305121E+01  0.12418117390E+04  0.12422945575E+04  0.10000000000E+02 0. -1.
</event>
<event>
 5    1  0.1153629E-008  0.3744929E+03  0.7957747E-01  0.3475494E+00
         13   -1    0    0    0    0  0.00000000000E+00  0.00000000000E+00  0.14999999963E+04  0.15000000000E+04  0.10566000000E+00 0.  1.
        994   -1    0    0    0    0 -0.00000000000E+00 -0.00000000000E+00  0.11368683772E-12  0.17120000000E+03  0.17120000000E+03 0.  0.
         13    1    1    2    0    0  0.64841681015E+01 -0.13597922564E+02  0.13167177005E+02  0.20008339470E+02  0.10566000000E+00 0.  1.
        994    1    1    2    0    0 -0.42866314116E+01  0.14319885149E+02  0.77005259364E+01  0.17202375539E+03  0.17120000000E+03 0.  0.
        998    1    1    2    0    0 -0.21975366899E+01 -0.72196258517E+00  0.14791322933E+04  0.14791679051E+04  0.10000000000E+02 0.  1.
</event>
<event>
 5    1  0.1153629E-008  0.3852975E+03  0.7957747E-01  0.3428412E+00
         13   -1    0    0    0    0  0.00000000000E+00  0.00000000000E+00  0.14999999963E+04  0.15000000000E+04  0.10566000000E+00 0.  1.
        994   -1    0    0    0    0 -0.00000000000E+00 -0.00000000000E+00  0.11368683772E-12  0.17120000000E+03  0.17120000000E+03 0.  0.
         13    1    1    2    0    0  0.70303058391E+01 -0.12230059893E+02  0.59167510559E+02  0.60826022679E+02  0.10566000000E+00 0.  1.
        994    1    1    2    0    0 -0.16988920208E+01  0.34152568972E+02  0.53336452675E+01  0.17466302406E+03  0.17120000000E+03 0.  0.
        998    1    1    2    0    0 -0.53314138183E+01 -0.21922509079E+02  0.14354988405E+04  0.14357109533E+04  0.10000000000E+02 0.  1.
</event>
<event>
 5    1  0.1153629E-008  0.3845818E+03  0.7957747E-01  0.3431448E+00
         13   -1    0    0    0    0  0.00000000000E+00  0.00000000000E+00  0.14999999963E+04  0.15000000000E+04  0.10566000000E+00 0. -1.
        994   -1    0    0    0    0 -0.00000000000E+00 -0.00000000000E+00  0.11368683772E-12  0.17120000000E+03  0.17120000000E+03 0.  0.
         13    1    1    2    0    0  0.12403872345E+00 -0.13750184993E+02  0.52079843481E+02  0.53864684479E+02  0.10566000000E+00 0. -1.
        994    1    1    2    0    0  0.10492674273E+01  0.60120118409E+01  0.19605580839E+01  0.17131996100E+03  0.17120000000E+03 0.  0.
        998    1    1    2    0    0 -0.11733061507E+01  0.77381731523E+01  0.14459595947E+04  0.14460153545E+04  0.10000000000E+02 0. -1.
</event>
<event>
 5    1  0.1153629E-008  0.3785135E+03  0.7957747E-01  0.3457657E+00
         13   -1    0    0    0    0  0.00000000000E+00  0.00000000000E+00  0.14999999963E+04  0.15000000000E+04  0.10566000000E+00 0.  1.
        994   -1    0    0    0    0 -0.00000000000E+00 -0.00000000000E+00  0.11368683772E-12  0.17120000000E+03  0.17120000000E+03 0.  0.
         13    1    1    2    0    0  0.31515248002E+02  0.30465392948E+02  0.21206814671E+03  0.21655082783E+03  0.10566000000E+00 0.  1.
        994    1    1    2    0    0 -0.75376487757E+00 -0.19078736786E+02  0.61110999672E+01  0.17236981146E+03  0.17120000000E+03 0.  0.
        998    1    1    2    0    0 -0.30761483124E+02 -0.11386656162E+02  0.12818207496E+04  0.12822793607E+04  0.10000000000E+02 0.  1.
</event>
<event>
 5    1  0.1153629E-008  0.3745801E+03  0.7957747E-01  0.3475103E+00
         13   -1    0    0    0    0  0.00000000000E+00  0.00000000000E+00  0.14999999963E+04  0.15000000000E+04  0.10566000000E+00 0. -1.
        994   -1    0    0    0    0 -0.00000000000E+00 -0.00000000000E+00  0.11368683772E-12  0.17120000000E+03  0.17120000000E+03 0.  0.
         13    1    1    2    0    0 -0.12369782899E+02 -0.82374700513E+01  0.13024548122E+02  0.19761514609E+02  0.10566000000E+00 0. -1.
        994    1    1    2    0    0  0.13620843749E+02 -0.47627931508E+01  0.76035991635E+01  0.17197519095E+03  0.17120000000E+03 0.  0.
        998    1    1    2    0    0 -0.12510608502E+01  0.13000263202E+02  0.14793718490E+04  0.14794632944E+04  0.10000000000E+02 0. -1.
</event>
<event>
 5    1  0.1153629E-008  0.3768177E+03  0.7957747E-01  0.3465133E+00
         13   -1    0    0    0    0  0.00000000000E+00  0.00000000000E+00  0.14999999963E+04  0.15000000000E+04  0.10566000000E+00 0.  1.
        994   -1    0    0    0    0 -0.00000000000E+00 -0.00000000000E+00  0.11368683772E-12  0.17120000000E+03  0.17120000000E+03 0.  0.
         13    1    1    2    0    0  0.12369446582E+02  0.14071513058E+02  0.29661604327E+02  0.35083224250E+02  0.10566000000E+00 0.  1.
        994    1    1    2    0    0  0.19855973078E+02 -0.93105561844E+01  0.73748096143E+01  0.17275640058E+03  0.17120000000E+03 0.  0.
        998    1    1    2    0    0 -0.32225419660E+02 -0.47609568734E+01  0.14629635823E+04  0.14633603752E+04  0.10000000000E+02 0.  1.
</event>
<event>
 5    1  0.1153629E-008  0.3856597E+03  0.7957747E-01  0.3426879E+00
         13   -1    0    0    0    0  0.00000000000E+00  0.00000000000E+00  0.14999999963E+04  0.15000000000E+04  0.10566000000E+00 0. -1.
        994   -1    0    0    0    0 -0.00000000000E+00 -0.00000000000E+00  0.11368683772E-12  0.17120000000E+03  0.17120000000E+03 0.  0.
         13    1    1    2    0    0  0.94447540529E+01 -0.77019812269E+01  0.55355739633E+02  0.56681504640E+02  0.10566000000E+00 0. -1.
        994    1    1    2    0    0 -0.99261238998E+01  0.95222464395E+01  0.19241080678E+01  0.17176246186E+03  0.17120000000E+03 0.  0.
        998    1    1    2    0    0  0.48136984697E+00 -0.18202652125E+01  0.14427201486E+04  0.14427560335E+04  0.10000000000E+02 0.  0.
</event>
<event>
 5    1  0.1153629E-008  0.3830204E+03  0.7957747E-01  0.3438111E+00
         13   -1    0    0    0    0  0.00000000000E+00  0.00000000000E+00  0.14999999963E+04  0.15000000000E+04  0.10566000000E+00 0.  1.
        994   -1    0    0    0    0 -0.00000000000E+00 -0.00000000000E+00  0.11368683772E-12  0.17120000000E+03  0.17120000000E+03 0.  0.
         13    1    1    2    0    0  0.22151176844E+01  0.21023238071E+02  0.93841066490E+02  0.96192724306E+02  0.10566000000E+00 0.  1.
        994    1    1    2    0    0 -0.58985407097E+02  0.53597679639E+01  0.14315234747E+02  0.18172058581E+03  0.17120000000E+03 0.  0.
        998    1    1    2    0    0  0.56770289413E+02 -0.26383006035E+02  0.13918436950E+04  0.13932866899E+04  0.10000000000E+02 0.  1.
</event>
<event>
 5    1  0.1153629E-008  0.3796114E+03  0.7957747E-01  0.3452852E+00
         13   -1    0    0    0    0  0.00000000000E+00  0.00000000000E+00  0.14999999963E+04  0.15000000000E+04  0.10566000000E+00 0.  1.
        994   -1    0    0    0    0 -0.00000000000E+00 -0.00000000000E+00  0.11368683772E-12  0.17120000000E+03  0.17120000000E+03 0.  0.
         13    1    1    2    0    0 -0.29281950979E+02  0.54743117088E+01  0.10657576246E+03  0.11066076563E+03  0.10566000000E+00 0.  1.
        994    1    1    2    0    0  0.57298396497E+01 -0.12201113844E+02  0.49378489001E+01  0.17180081663E+03  0.17120000000E+03 0.  0.
        998    1    1    2    0    0  0.23552111330E+02  0.67268021355E+01  0.13884863849E+04  0.13887384177E+04  0.10000000000E+02 0.  1.
</event>
<event>
 5    1  0.1153629E-008  0.3778786E+03  0.7957747E-01  0.3460448E+00
         13   -1    0    0    0    0  0.00000000000E+00  0.00000000000E+00  0.14999999963E+04  0.15000000000E+04  0.10566000000E+00 0.  1.
        994   -1    0    0    0    0 -0.00000000000E+00 -0.00000000000E+00  0.11368683772E-12  0.17120000000E+03  0.17120000000E+03 0.  0.
         13    1    1    2    0    0 -0.27748932451E+02  0.97776883030E+01  0.78271278895E+02  0.83618243851E+02  0.10566000000E+00 0.  1.
        994    1    1    2    0    0  0.30600458477E+02  0.47765984220E+01  0.84437969165E+01  0.17418364349E+03  0.17120000000E+03 0.  0.
        998    1    1    2    0    0 -0.28515260261E+01 -0.14554286725E+02  0.14132849205E+04  0.14133981127E+04  0.10000000000E+02 0.  1.
</event>
<event>
 5    1  0.1153629E-008  0.3844425E+03  0.7957747E-01  0.3432040E+00
         13   -1    0    0    0    0  0.00000000000E+00  0.00000000000E+00  0.14999999963E+04  0.15000000000E+04  0.10566000000E+00 0.  1.
        994   -1    0    0    0    0 -0.00000000000E+00 -0.00000000000E+00  0.11368683772E-12  0.17120000000E+03  0.17120000000E+03 0.  0.
         13    1    1    2    0    0 -0.14146848482E+02 -0.15285853742E+02  0.12232975101E+03  0.12409016799E+03  0.10566000000E+00 0.  1.
        994    1    1    2    0    0  0.11023027728E+02 -0.46556164445E+01  0.23790290550E+01  0.17163415069E+03  0.17120000000E+03 0.  0.
        998    1    1    2    0    0  0.31238207546E+01  0.19941470187E+02  0.13752912162E+04  0.13754756813E+04  0.10000000000E+02 0.  1.
</event>
<event>
 5    1  0.1153629E-008  0.3862508E+03  0.7957747E-01  0.3424385E+00
         13   -1    0    0    0    0  0.00000000000E+00  0.00000000000E+00  0.14999999963E+04  0.15000000000E+04  0.10566000000E+00 0.  1.
        994   -1    0    0    0    0 -0.00000000000E+00 -0.00000000000E+00  0.11368683772E-12  0.17120000000E+03  0.17120000000E+03 0.  0.
         13    1    1    2    0    0  0.10008576705E+02  0.10977106532E+01  0.50043684718E+02  0.51046626926E+02  0.10566000000E+00 0.  1.
        994    1    1    2    0    0 -0.94115237184E+01 -0.11380334140E+01  0.13048166792E+01  0.17146724015E+03  0.17120000000E+03 0.  0.
        998    1    1    2    0    0 -0.59705298652E+00  0.40322760733E-01  0.14486514949E+04  0.14486861329E+04  0.10000000000E+02 0.  0.
</event>
<event>
 5    1  0.1153629E-008  0.3821021E+03  0.7957747E-01  0.3442056E+00
         13   -1    0    0    0    0  0.00000000000E+00  0.00000000000E+00  0.14999999963E+04  0.15000000000E+04  0.10566000000E+00 0.  1.
        994   -1    0    0    0    0 -0.00000000000E+00 -0.00000000000E+00  0.11368683772E-12  0.17120000000E+03  0.17120000000E+03 0.  0.
         13    1    1    2    0    0  0.23691375589E+02 -0.25915861358E+02  0.21195903941E+03  0.21484775702E+03  0.10566000000E+00 0.  1.
        994    1    1    2    0    0 -0.12374686025E+02  0.69929574541E+01  0.37467851531E+01  0.17182989468E+03  0.17120000000E+03 0.  0.
        998    1    1    2    0    0 -0.11316689564E+02  0.18922903904E+02  0.12842941717E+04  0.12845223483E+04  0.10000000000E+02 0.  1.
</event>
<event>
 5    1  0.1153629E-008  0.3773856E+03  0.7957747E-01  0.3462622E+00
         13   -1    0    0    0    0  0.00000000000E+00  0.00000000000E+00  0.14999999963E+04  0.15000000000E+04  0.10566000000E+00 0.  1.
        994   -1    0    0    0    0 -0.00000000000E+00 -0.00000000000E+00  0.11368683772E-12  0.17120000000E+03  0.17120000000E+03 0.  0.
         13    1    1    2    0    0 -0.80894089874E+02  0.28331591086E+02  0.43169739025E+03  0.44012405154E+03  0.10566000000E+00 0.  1.
        994    1    1    2    0    0  0.84900388099E+02 -0.44305043986E+02  0.37036698108E+02  0.19963008247E+03  0.17120000000E+03 0.  0.
        998    1    1    2    0    0 -0.40062982245E+01  0.15973452900E+02  0.10312659079E+04  0.10314458660E+04  0.10000000000E+02 0.  1.
</event>
<event>
 5    1  0.1153629E-008  0.3714837E+03  0.7957747E-01  0.3489100E+00
         13   -1    0    0    0    0  0.00000000000E+00  0.00000000000E+00  0.14999999963E+04  0.15000000000E+04  0.10566000000E+00 0. -1.
        994   -1    0    0    0    0 -0.00000000000E+00 -0.00000000000E+00  0.11368683772E-12  0.17120000000E+03  0.17120000000E+03 0.  0.
         13    1    1    2    0    0 -0.19144605704E+02 -0.40327252469E+02  0.10935352031E+03  0.11811438011E+03  0.10566000000E+00 0. -1.
        994    1    1    2    0    0  0.62901463301E+01  0.39731322237E+02  0.14082676400E+02  0.17642535442E+03  0.17120000000E+03 0.  0.
        998    1    1    2    0    0  0.12854459374E+02  0.59593023158E+00  0.13765637996E+04  0.13766602655E+04  0.10000000000E+02 0. -1.
</event>
<event>
 5    1  0.1153629E-008  0.3829105E+03  0.7957747E-01  0.3438583E+00
         13   -1    0    0    0    0  0.00000000000E+00  0.00000000000E+00  0.14999999963E+04  0.15000000000E+04  0.10566000000E+00 0. -1.
        994   -1    0    0    0    0 -0.00000000000E+00 -0.00000000000E+00  0.11368683772E-12  0.17120000000E+03  0.17120000000E+03 0.  0.
         13    1    1    2    0    0  0.15115566822E+02  0.43071743515E+01  0.47401911507E+02  0.49939808668E+02  0.10566000000E+00 0. -1.
        994    1    1    2    0    0  0.23382805922E+01 -0.10907333452E+02  0.30832333742E+01  0.17159074511E+03  0.17120000000E+03 0.  0.
        998    1    1    2    0    0 -0.17453847414E+02  0.66001591002E+01  0.14495148514E+04  0.14496694462E+04  0.10000000000E+02 0. -1.
</event>
<event>
 5    1  0.1153629E-008  0.3841380E+03  0.7957747E-01  0.3433336E+00
         13   -1    0    0    0    0  0.00000000000E+00  0.00000000000E+00  0.14999999963E+04  0.15000000000E+04  0.10566000000E+00 0.  1.
        994   -1    0    0    0    0 -0.00000000000E+00 -0.00000000000E+00  0.11368683772E-12  0.17120000000E+03  0.17120000000E+03 0.  0.
         13    1    1    2    0    0  0.18256173742E+00 -0.38066045584E+02  0.22583329720E+03  0.22901909624E+03  0.10566000000E+00 0.  1.
        994    1    1    2    0    0  0.14486471521E+02  0.66757804833E+02  0.17602844213E+02  0.18516415011E+03  0.17120000000E+03 0.  0.
        998    1    1    2    0    0 -0.14669033258E+02 -0.28691759248E+02  0.12565638549E+04  0.12570167536E+04  0.10000000000E+02 0.  1.
</event>
<event>
 5    1  0.1153629E-008  0.3827135E+03  0.7957747E-01  0.3439428E+00
         13   -1    0    0    0    0  0.00000000000E+00  0.00000000000E+00  0.14999999963E+04  0.15000000000E+04  0.10566000000E+00 0. -1.
        994   -1    0    0    0    0 -0.00000000000E+00 -0.00000000000E+00  0.11368683772E-12  0.17120000000E+03  0.17120000000E+03 0.  0.
         13    1    1    2    0    0 -0.28405886141E+01 -0.34410177747E+02  0.20736696338E+03  0.21022178275E+03  0.10566000000E+00 0. -1.
        994    1    1    2    0    0 -0.10113023714E+02  0.24948150505E+02  0.51743677147E+01  0.17338078770E+03  0.17120000000E+03 0.  0.
        998    1    1    2    0    0  0.12953612328E+02  0.94620272420E+01  0.12874586652E+04  0.12875974296E+04  0.10000000000E+02 0. -1.
</event>
<event>
 5    1  0.1153629E-008  0.3911663E+03  0.7957747E-01  0.3403934E+00
         13   -1    0    0    0    0  0.00000000000E+00  0.00000000000E+00  0.14999999963E+04  0.15000000000E+04  0.10566000000E+00 0.  1.
        994   -1    0    0    0    0 -0.00000000000E+00 -0.00000000000E+00  0.11368683772E-12  0.17120000000E+03  0.17120000000E+03 0.  0.
         13    1    1    2    0    0  0.48390005666E+02  0.42881388019E+02  0.74972536602E+02  0.99001507541E+02  0.10566000000E+00 0.  1.
        994    1    1    2    0    0 -0.36325208355E+02 -0.91802934028E+02  0.60466700615E+02  0.20667114298E+03  0.17120000000E+03 0.  0.
        998    1    1    2    0    0 -0.12064797311E+02  0.48921546009E+02  0.13645607591E+04  0.13655273495E+04  0.10000000000E+02 0.  1.
</event>
<event>
 5    1  0.1153629E-008  0.3776033E+03  0.7957747E-01  0.3461661E+00
         13   -1    0    0    0    0  0.00000000000E+00  0.00000000000E+00  0.14999999963E+04  0.15000000000E+04  0.10566000000E+00 0.  1.
        994   -1    0    0    0    0 -0.00000000000E+00 -0.00000000000E+00  0.11368683772E-12  0.17120000000E+03  0.17120000000E+03 0.  0.
         13    1    1    2    0    0 -0.18914875808E+02  0.21732259005E+01  0.56657273389E+01  0.19864719177E+02  0.10566000000E+00 0.  1.
        994    1    1    2    0    0 -0.12419142948E+01 -0.68024738690E+01  0.15188871089E+02  0.17201150487E+03  0.17120000000E+03 0.  0.
        998    1    1    2    0    0  0.20156790103E+02  0.46292479685E+01  0.14791453979E+04  0.14793237760E+04  0.10000000000E+02 0.  1.
</event>
<event>
 5    1  0.1153629E-008  0.3737613E+03  0.7957747E-01  0.3478781E+00
         13   -1    0    0    0    0  0.00000000000E+00  0.00000000000E+00  0.14999999963E+04  0.15000000000E+04  0.10566000000E+00 0. -1.
        994   -1    0    0    0    0 -0.00000000000E+00 -0.00000000000E+00  0.11368683772E-12  0.17120000000E+03  0.17120000000E+03 0.  0.
         13    1    1    2    0    0 -0.71696119241E+01  0.82858895368E+01  0.48413087153E+01  0.11979513123E+02  0.10566000000E+00 0. -1.
        994    1    1    2    0    0  0.60449340955E+01 -0.40151640362E+01  0.74959808742E+01  0.17151761571E+03  0.17120000000E+03 0.  0.
        998    1    1    2    0    0  0.11246778286E+01 -0.42707255007E+01  0.14876627067E+04  0.14877028712E+04  0.10000000000E+02 0. -1.
</event>
<event>
 5    1  0.1153629E-008  0.3715183E+03  0.7957747E-01  0.3488942E+00
         13   -1    0    0    0    0  0.00000000000E+00  0.00000000000E+00  0.14999999963E+04  0.15000000000E+04  0.10566000000E+00 0. -1.
        994   -1    0    0    0    0 -0.00000000000E+00 -0.00000000000E+00  0.11368683772E-12  0.17120000000E+03  0.17120000000E+03 0.  0.
         13    1    1    2    0    0 -0.20880487046E+02 -0.74618807477E+02  0.36548577395E+03  0.37360918523E+03  0.10566000000E+00 0. -1.
        994    1    1    2    0    0 -0.26865484603E+01  0.41937050553E+02  0.14576304144E+02  0.17688369737E+03  0.17120000000E+03 0.  0.
        998    1    1    2    0    0  0.23567035506E+02  0.32681756925E+02  0.11199379182E+04  0.11207071174E+04  0.10000000000E+02 0. -1.
</event>
<event>
 5    1  0.1153629E-008  0.3814476E+03  0.7957747E-01  0.3444879E+00
         13   -1    0    0    0    0  0.00000000000E+00  0.00000000000E+00  0.14999999963E+04  0.15000000000E+04  0.10566000000E+00 0. -1.
        994   -1    0    0    0    0 -0.00000000000E+00 -0.00000000000E+00  0.11368683772E-12  0.17120000000E+03  0.17120000000E+03 0.  0.
         13    1    1    2    0    0  0.27370692007E+01  0.39731668058E+02  0.22260184855E+03  0.22613644363E+03  0.10566000000E+00 0. -1.
        994    1    1    2    0    0 -0.11985830049E+02 -0.27105553479E+02  0.63320235580E+01  0.17386174298E+03  0.17120000000E+03 0.  0.
        998    1    1    2    0    0  0.92487608484E+01 -0.12626114578E+02  0.12710661242E+04  0.12712018134E+04  0.10000000000E+02 0. -1.
</event>
<event>
 5    1  0.1153629E-008  0.3779471E+03  0.7957747E-01  0.3460146E+00
         13   -1    0    0    0    0  0.00000000000E+00  0.00000000000E+00  0.14999999963E+04  0.15000000000E+04  0.10566000000E+00 0.  1.
        994   -1    0    0    0    0 -0.00000000000E+00 -0.00000000000E+00  0.11368683772E-12  0.17120000000E+03  0.17120000000E+03 0.  0.
         13    1    1    2    0    0  0.12616817769E+03 -0.50378218920E+02  0.80152551226E+03  0.81295727561E+03  0.10566000000E+00 0.  1.
        994    1    1    2    0    0 -0.11890324353E+03  0.65714068105E+02  0.70044009072E+02  0.22950364545E+03  0.17120000000E+03 0.  0.
        998    1    1    2    0    0 -0.72649341659E+01 -0.15335849185E+02  0.62843047495E+03  0.62873907894E+03  0.10000000000E+02 0.  1.
</event>
<event>
 5    1  0.1153629E-008  0.3738995E+03  0.7957747E-01  0.3478159E+00
         13   -1    0    0    0    0  0.00000000000E+00  0.00000000000E+00  0.14999999963E+04  0.15000000000E+04  0.10566000000E+00 0.  1.
        994   -1    0    0    0    0 -0.00000000000E+00 -0.00000000000E+00  0.11368683772E-12  0.17120000000E+03  0.17120000000E+03 0.  0.
         13    1    1    2    0    0  0.26841321032E+02  0.23400114190E+02  0.80358404197E+02  0.87894858484E+02  0.10566000000E+00 0.  1.
        994    1    1    2    0    0 -0.32278425723E+02 -0.19349941831E+02  0.12092560917E+02  0.17570426018E+03  0.17120000000E+03 0.  0.
        998    1    1    2    0    0  0.54371046916E+01 -0.40501723590E+01  0.14075490312E+04  0.14076008813E+04  0.10000000000E+02 0.  1.
</event>
<event>
 5    1  0.1153629E-008  0.3824546E+03  0.7957747E-01  0.3440540E+00
         13   -1    0    0    0    0  0.00000000000E+00  0.00000000000E+00  0.14999999963E+04  0.15000000000E+04  0.10566000000E+00 0. -1.
        994   -1    0    0    0    0 -0.00000000000E+00 -0.00000000000E+00  0.11368683772E-12  0.17120000000E+03  0.17120000000E+03 0.  0.
         13    1    1    2    0    0 -0.96802974855E+02 -0.40783131239E+02  0.52609130271E+03  0.53647567483E+03  0.10566000000E+00 0. -1.
        994    1    1    2    0    0 -0.16255270890E+02  0.29330695521E+02  0.21804719971E+02  0.17581072022E+03  0.17120000000E+03 0.  0.
        998    1    1    2    0    0  0.11305824574E+03  0.11452435718E+02  0.95210397360E+03  0.95891360495E+03  0.10000000000E+02 0.  1.
</event>
<event>
 5    1  0.1153629E-008  0.3829771E+03  0.7957747E-01  0.3438297E+00
         13   -1    0    0    0    0  0.00000000000E+00  0.00000000000E+00  0.14999999963E+04  0.15000000000E+04  0.10566000000E+00 0. -1.
        994   -1    0    0    0    0 -0.00000000000E+00 -0.00000000000E+00  0.11368683772E-12  0.17120000000E+03  0.17120000000E+03 0.  0.
         13    1    1    2    0    0  0.25444059850E+02  0.13178533451E+02  0.14632289100E+03  0.14910222507E+03  0.10566000000E+00 0. -1.
        994    1    1    2    0    0 -0.22023742174E+02 -0.10915809097E+02  0.46404698652E+01  0.17301784321E+03  0.17120000000E+03 0.  0.
        998    1    1    2    0    0 -0.34203176758E+01 -0.22627243534E+01  0.13490366354E+04  0.13490799317E+04  0.10000000000E+02 0. -1.
</event>
<event>
 5    1  0.1153629E-008  0.3717693E+03  0.7957747E-01  0.3487799E+00
         13   -1    0    0    0    0  0.00000000000E+00  0.00000000000E+00  0.14999999963E+04  0.15000000000E+04  0.10566000000E+00 0.  1.
        994   -1    0    0    0    0 -0.00000000000E+00 -0.00000000000E+00  0.11368683772E-12  0.17120000000E+03  0.17120000000E+03 0.  0.
         13    1    1    2    0    0  0.78011525948E+02 -0.87481493142E+02  0.64155366113E+03  0.65217322936E+03  0.10566000000E+00 0.  1.
        994    1    1    2    0    0 -0.49615363158E+02  0.78190130628E+02  0.38420582361E+02  0.19839597258E+03  0.17120000000E+03 0.  0.
        998    1    1    2    0    0 -0.28396162790E+02  0.92913625135E+01  0.82002575279E+03  0.82063079805E+03  0.10000000000E+02 0.  1.
</event>
<event>
 5    1  0.1153629E-008  0.3853392E+03  0.7957747E-01  0.3428235E+00
         13   -1    0    0    0    0  0.00000000000E+00  0.00000000000E+00  0.14999999963E+04  0.15000000000E+04  0.10566000000E+00 0. -1.
        994   -1    0    0    0    0 -0.00000000000E+00 -0.00000000000E+00  0.11368683772E-12  0.17120000000E+03  0.17120000000E+03 0.  0.
         13    1    1    2    0    0 -0.10180355247E+02 -0.60751487134E+01  0.46880866865E+02  0.48356735900E+02  0.10566000000E+00 0. -1.
        994    1    1    2    0    0  0.13898631506E+02  0.17191694909E+01  0.21063875311E+01  0.17178476175E+03  0.17120000000E+03 0.  0.
        998    1    1    2    0    0 -0.37182762591E+01  0.43559792226E+01  0.14510127419E+04  0.14510585023E+04  0.10000000000E+02 0. -1.
</event>
<event>
 5    1  0.1153629E-008  0.3824912E+03  0.7957747E-01  0.3440382E+00
         13   -1    0    0    0    0  0.00000000000E+00  0.00000000000E+00  0.14999999963E+04  0.15000000000E+04  0.10566000000E+00 0.  1.
        994   -1    0    0    0    0 -0.00000000000E+00 -0.00000000000E+00  0.11368683772E-12  0.17120000000E+03  0.17120000000E+03 0.  0.
         13    1    1    2    0    0  0.98872658067E+01 -0.23282938269E+01  0.16910340599E+02  0.19726879137E+02  0.10566000000E+00 0.  1.
        994    1    1    2    0    0 -0.48773351184E+01 -0.25850911902E+01  0.29818719125E+01  0.17131492245E+03  0.17120000000E+03 0.  0.
        998    1    1    2    0    0 -0.50099306883E+01  0.49133850171E+01  0.14801077838E+04  0.14801581984E+04  0.10000000000E+02 0.  1.
</event>
<event>
 5    1  0.1153629E-008  0.3845317E+03  0.7957747E-01  0.3431661E+00
         13   -1    0    0    0    0  0.00000000000E+00  0.00000000000E+00  0.14999999963E+04  0.15000000000E+04  0.10566000000E+00 0.  1.
        994   -1    0    0    0    0 -0.00000000000E+00 -0.00000000000E+00  0.11368683772E-12  0.17120000000E+03  0.17120000000E+03 0.  0.
         13    1    1    2    0    0 -0.60573991516E+01 -0.17071493545E+02  0.95273840579E+02  0.96980636413E+02  0.10566000000E+00 0.  1.
        994    1    1    2    0    0  0.58033442692E+01 -0.14529042541E+01  0.19807103189E+01  0.17131594482E+03  0.17120000000E+03 0.  0.
        998    1    1    2    0    0  0.25405488242E+00  0.18524397800E+02  0.14027454454E+04  0.14029034188E+04  0.10000000000E+02 0.  1.
</event>
<event>
 5    1  0.1153629E-008  0.3822099E+03  0.7957747E-01  0.3441592E+00
         13   -1    0    0    0    0  0.00000000000E+00  0.00000000000E+00  0.14999999963E+04  0.15000000000E+04  0.10566000000E+00 0.  1.
        994   -1    0    0    0    0 -0.00000000000E+00 -0.00000000000E+00  0.11368683772E-12  0.17120000000E+03  0.17120000000E+03 0.  0.
         13    1    1    2    0    0 -0.48704960399E+01  0.20449794233E+02  0.71727949290E+02  0.74745071338E+02  0.10566000000E+00 0.  1.
        994    1    1    2    0    0  0.32365827454E+01 -0.14174561690E+02  0.37235976663E+01  0.17185662293E+03  0.17120000000E+03 0.  0.
        998    1    1    2    0    0  0.16339132945E+01 -0.62752325432E+01  0.14245484493E+04  0.14245983057E+04  0.10000000000E+02 0.  1.
</event>
<event>
 5    1  0.1153629E-008  0.3838868E+03  0.7957747E-01  0.3434407E+00
         13   -1    0    0    0    0  0.00000000000E+00  0.00000000000E+00  0.14999999963E+04  0.15000000000E+04  0.10566000000E+00 0.  1.
        994   -1    0    0    0    0 -0.00000000000E+00 -0.00000000000E+00  0.11368683772E-12  0.17120000000E+03  0.17120000000E+03 0.  0.
         13    1    1    2    0    0  0.13275236360E+02  0.15614253051E+01  0.41412197428E+02  0.43516102873E+02  0.10566000000E+00 0.  1.
        994    1    1    2    0    0 -0.54157445510E+01  0.16830353911E+02  0.32162476214E+01  0.17214056858E+03  0.17120000000E+03 0.  0.
        998    1    1    2    0    0 -0.78594918091E+01 -0.18391779216E+02  0.14553715512E+04  0.14555433285E+04  0.10000000000E+02 0.  1.
</event>
<event>
 5    1  0.1153629E-008  0.3857653E+03  0.7957747E-01  0.3426433E+00
         13   -1    0    0    0    0  0.00000000000E+00  0.00000000000E+00  0.14999999963E+04  0.15000000000E+04  0.10566000000E+00 0.  1.
        994   -1    0    0    0    0 -0.00000000000E+00 -0.00000000000E+00  0.11368683772E-12  0.17120000000E+03  0.17120000000E+03 0.  0.
         13    1    1    2    0    0 -0.12229867538E+02 -0.27256792146E+01  0.62680059730E+02  0.63920263133E+02  0.10566000000E+00 0.  1.
        994    1    1    2    0    0  0.10322512080E+02 -0.15758656009E+01  0.16084327056E+01  0.17152569680E+03  0.17120000000E+03 0.  0.
        998    1    1    2    0    0  0.19073554583E+01  0.43015448155E+01  0.14357115038E+04  0.14357540401E+04  0.10000000000E+02 0.  1.
</event>
<event>
 5    1  0.1153629E-008  0.3764474E+03  0.7957747E-01  0.3466775E+00
         13   -1    0    0    0    0  0.00000000000E+00  0.00000000000E+00  0.14999999963E+04  0.15000000000E+04  0.10566000000E+00 0.  1.
        994   -1    0    0    0    0 -0.00000000000E+00 -0.00000000000E+00  0.11368683772E-12  0.17120000000E+03  0.17120000000E+03 0.  0.
         13    1    1    2    0    0 -0.35275860511E+01  0.15489303660E+02  0.18769444037E+02  0.24589948855E+02  0.10566000000E+00 0.  1.
        994    1    1    2    0    0 -0.20389941652E+02 -0.14246702300E+02  0.80330720455E+01  0.17318397297E+03  0.17120000000E+03 0.  0.
        998    1    1    2    0    0  0.23917527703E+02 -0.12426013598E+01  0.14731974802E+04  0.14734260782E+04  0.10000000000E+02 0.  1.
</event>
<event>
 5    1  0.1153629E-008  0.3847401E+03  0.7957747E-01  0.3430775E+00
         13   -1    0    0    0    0  0.00000000000E+00  0.00000000000E+00  0.14999999963E+04  0.15000000000E+04  0.10566000000E+00 0. -1.
        994   -1    0    0    0    0 -0.00000000000E+00 -0.00000000000E+00  0.11368683772E-12  0.17120000000E+03  0.17120000000E+03 0.  0.
         13    1    1    2    0    0  0.18747422649E+01 -0.14261337823E+02  0.50416871590E+02  0.52428737540E+02  0.10566000000E+00 0. -1.
        994    1    1    2    0    0 -0.54076358685E+01  0.37743458537E+02  0.65590348480E+01  0.17551715622E+03  0.17120000000E+03 0.  0.
        998    1    1    2    0    0  0.35328936035E+01 -0.23482120714E+02  0.14430240898E+04  0.14432541062E+04  0.10000000000E+02 0. -1.
</event>
<event>
 5    1  0.1153629E-008  0.3715639E+03  0.7957747E-01  0.3488734E+00
         13   -1    0    0    0    0  0.00000000000E+00  0.00000000000E+00  0.14999999963E+04  0.15000000000E+04  0.10566000000E+00 0. -1.
        994   -1    0    0    0    0 -0.00000000000E+00 -0.00000000000E+00  0.11368683772E-12  0.17120000000E+03  0.17120000000E+03 0.  0.
         13    1    1    2    0    0 -0.29355061023E+02  0.66258867437E+02  0.25323992654E+03  0.26340544542E+03  0.10566000000E+00 0. -1.
        994    1    1    2    0    0  0.31242438287E+02 -0.67267577182E+02  0.27616855562E+02  0.18860845050E+03  0.17120000000E+03 0.  0.
        998    1    1    2    0    0 -0.18873772645E+01  0.10087097453E+01  0.12191432142E+04  0.12191861041E+04  0.10000000000E+02 0. -1.
</event>
<event>
 5    1  0.1153629E-008  0.3837882E+03  0.7957747E-01  0.3434828E+00
         13   -1    0    0    0    0  0.00000000000E+00  0.00000000000E+00  0.14999999963E+04  0.15000000000E+04  0.10566000000E+00 0. -1.
        994   -1    0    0    0    0 -0.00000000000E+00 -0.00000000000E+00  0.11368683772E-12  0.17120000000E+03  0.17120000000E+03 0.  0.
         13    1    1    2    0    0  0.11106918888E+02  0.17746628882E+01  0.27656955670E+02  0.29856849073E+02  0.10566000000E+00 0. -1.
        994    1    1    2    0    0 -0.70745545066E+01 -0.43246871247E+01  0.24599780182E+01  0.17141832963E+03  0.17120000000E+03 0.  0.
        998    1    1    2    0    0 -0.40323643818E+01  0.25500242365E+01  0.14698830626E+04  0.14699248213E+04  0.10000000000E+02 0. -1.
</event>
<event>
 5    1  0.1153629E-008  0.3821150E+03  0.7957747E-01  0.3442001E+00
         13   -1    0    0    0    0  0.00000000000E+00  0.00000000000E+00  0.14999999963E+04  0.15000000000E+04  0.10566000000E+00 0.  1.
        994   -1    0    0    0    0 -0.00000000000E+00 -0.00000000000E+00  0.11368683772E-12  0.17120000000E+03  0.17120000000E+03 0.  0.
         13    1    1    2    0    0 -0.17052871381E+02 -0.78580825822E+01  0.58441866268E+02  0.61384141121E+02  0.10566000000E+00 0.  1.
        994    1    1    2    0    0  0.76105935512E-01  0.10569883309E+02  0.34402891518E+01  0.17156049608E+03  0.17120000000E+03 0.  0.
        998    1    1    2    0    0  0.16976765446E+02 -0.27118007269E+01  0.14381178409E+04  0.14382553628E+04  0.10000000000E+02 0.  1.
</event>
<event>
 5    1  0.1153629E-008  0.3803075E+03  0.7957747E-01  0.3449821E+00
         13   -1    0    0    0    0  0.00000000000E+00  0.00000000000E+00  0.14999999963E+04  0.15000000000E+04  0.10566000000E+00 0.  1.
        994   -1    0    0    0    0 -0.00000000000E+00 -0.00000000000E+00  0.11368683772E-12  0.17120000000E+03  0.17120000000E+03 0.  0.
         13    1    1    2    0    0 -0.31227910971E+02  0.98320364357E+01  0.13093363369E+03  0.13496473228E+03  0.10566000000E+00 0.  1.
        994    1    1    2    0    0  0.27898796752E+02  0.12147188023E+02  0.70762416124E+01  0.17402703880E+03  0.17120000000E+03 0.  0.
        998    1    1    2    0    0  0.33291142188E+01 -0.21979224459E+02  0.13619901210E+04  0.13622082289E+04  0.10000000000E+02 0.  1.
</event>
<event>
 5    1  0.1153629E-008  0.3859593E+03  0.7957747E-01  0.3425614E+00
         13   -1    0    0    0    0  0.00000000000E+00  0.00000000000E+00  0.14999999963E+04  0.15000000000E+04  0.10566000000E+00 0.  1.
        994   -1    0    0    0    0 -0.00000000000E+00 -0.00000000000E+00  0.11368683772E-12  0.17120000000E+03  0.17120000000E+03 0.  0.
         13    1    1    2    0    0 -0.10402337479E+02  0.96063916501E+01  0.84262580517E+02  0.85444046165E+02  0.10566000000E+00 0.  1.
        994    1    1    2    0    0  0.83698738612E+01 -0.11635768522E+02  0.18284406709E+01  0.17180869912E+03  0.17120000000E+03 0.  0.
        998    1    1    2    0    0  0.20324636180E+01  0.20293768717E+01  0.14139089751E+04  0.14139472547E+04  0.10000000000E+02 0.  1.
</event>
<event>
 5    1  0.1153629E-008  0.3854193E+03  0.7957747E-01  0.3427896E+00
         13   -1    0    0    0    0  0.00000000000E+00  0.00000000000E+00  0.14999999963E+04  0.15000000000E+04  0.10566000000E+00 0. -1.
        994   -1    0    0    0    0 -0.00000000000E+00 -0.00000000000E+00  0.11368683772E-12  0.17120000000E+03  0.17120000000E+03 0.  0.
         13    1    1    2    0    0  0.12043647979E+02  0.98859694817E+01  0.90538941661E+02  0.91869978613E+02  0.10566000000E+00 0. -1.
        994    1    1    2    0    0  0.17292786513E+01 -0.74712933148E+01  0.16152716550E+01  0.17137928618E+03  0.17120000000E+03 0.  0.
        998    1    1    2    0    0 -0.13772926630E+02 -0.24146761669E+01  0.14078457830E+04  0.14079507352E+04  0.10000000000E+02 0. -1.
</event>
<event>
 5    1  0.1153629E-008  0.3852704E+03  0.7957747E-01  0.3428526E+00
         13   -1    0    0    0    0  0.00000000000E+00  0.00000000000E+00  0.14999999963E+04  0.15000000000E+04  0.10566000000E+00 0. -1.
        994   -1    0    0    0    0 -0.00000000000E+00 -0.00000000000E+00  0.11368683772E-12  0.17120000000E+03  0.17120000000E+03 0.  0.
         13    1    1    2    0    0 -0.47963472778E+01  0.15520201099E+02  0.87772033934E+02  0.89262661255E+02  0.10566000000E+00 0. -1.
        994    1    1    2    0    0  0.86116975584E+01 -0.94340714299E+01  0.20322678227E+01  0.17168789460E+03  0.17120000000E+03 0.  0.
        998    1    1    2    0    0 -0.38153502805E+01 -0.60861296694E+01  0.14101956945E+04  0.14102494441E+04  0.10000000000E+02 0. -1.
</event>
<event>
 5    1  0.1153629E-008  0.3738144E+03  0.7957747E-01  0.3478542E+00
         13   -1    0    0    0    0  0.00000000000E+00  0.00000000000E+00  0.14999999963E+04  0.15000000000E+04  0.10566000000E+00 0. -1.
        994   -1    0    0    0    0 -0.00000000000E+00 -0.00000000000E+00  0.11368683772E-12  0.17120000000E+03  0.17120000000E+03 0.  0.
         13    1    1    2    0    0  0.77821187794E+02  0.54143292442E+02  0.44024085005E+03  0.45033282204E+03  0.10566000000E+00 0. -1.
        994    1    1    2    0    0 -0.70406969475E+02 -0.59970514356E+02  0.37067816567E+02  0.19808348484E+03  0.17120000000E+03 0.  0.
        998    1    1    2    0    0 -0.74142183195E+01  0.58272219140E+01  0.10226913297E+04  0.10227836931E+04  0.10000000000E+02 0. -1.
</event>
<event>
 5    1  0.1153629E-008  0.3856579E+03  0.7957747E-01  0.3426887E+00
         13   -1    0    0    0    0  0.00000000000E+00  0.00000000000E+00  0.14999999963E+04  0.15000000000E+04  0.10566000000E+00 0.  1.
        994   -1    0    0    0    0 -0.00000000000E+00 -0.00000000000E+00  0.11368683772E-12  0.17120000000E+03  0.17120000000E+03 0.  0.
         13    1    1    2    0    0  0.98513670135E+01 -0.94274757281E+01  0.75939078946E+02  0.77153623413E+02  0.10566000000E+00 0.  1.
        994    1    1    2    0    0 -0.71505327865E+01 -0.48605109086E+01  0.15491920871E+01  0.17142518684E+03  0.17120000000E+03 0.  0.
        998    1    1    2    0    0 -0.27008342271E+01  0.14287986637E+02  0.14225117252E+04  0.14226211898E+04  0.10000000000E+02 0.  1.
</event>
<event>
 5    1  0.1153629E-008  0.3844741E+03  0.7957747E-01  0.3431906E+00
         13   -1    0    0    0    0  0.00000000000E+00  0.00000000000E+00  0.14999999963E+04  0.15000000000E+04  0.10566000000E+00 0.  1.
        994   -1    0    0    0    0 -0.00000000000E+00 -0.00000000000E+00  0.11368683772E-12  0.17120000000E+03  0.17120000000E+03 0.  0.
         13    1    1    2    0    0 -0.10037087795E+02 -0.10868752116E+02  0.56231226540E+02  0.58144947384E+02  0.10566000000E+00 0.  1.
        994    1    1    2    0    0  0.13625664256E+02  0.67062151647E+01  0.26515991875E+01  0.17189270789E+03  0.17120000000E+03 0.  0.
        998    1    1    2    0    0 -0.35885764607E+01  0.41625369513E+01  0.14411171706E+04  0.14411623447E+04  0.10000000000E+02 0.  1.
</event>
<event>
 5    1  0.1153629E-008  0.3744678E+03  0.7957747E-01  0.3475606E+00
         13   -1    0    0    0    0  0.00000000000E+00  0.00000000000E+00  0.14999999963E+04  0.15000000000E+04  0.10566000000E+00 0. -1.
        994   -1    0    0    0    0 -0.00000000000E+00 -0.00000000000E+00  0.11368683772E-12  0.17120000000E+03  0.17120000000E+03 0.  0.
         13    1    1    2    0    0  0.58561004586E+02 -0.24801264068E+02  0.25583978888E+03  0.26362568672E+03  0.10566000000E+00 0. -1.
        994    1    1    2    0    0 -0.50001170465E+02  0.22026668588E+02  0.17186986953E+02  0.18052734889E+03  0.17120000000E+03 0.  0.
        998    1    1    2    0    0 -0.85598341216E+01  0.27745954795E+01  0.12269732204E+04  0.12270469644E+04  0.10000000000E+02 0. -1.
</event>
<event>
 5    1  0.1159438E-008  0.3855194E+03  0.7957747E-01  0.3427472E+00
         13   -1    0    0    0    0  0.00000000000E+00  0.00000000000E+00  0.14999999963E+04  0.15000000000E+04  0.10566000000E+00 0.  1.
        994   -1    0    0    0    0 -0.00000000000E+00 -0.00000000000E+00  0.11368683772E-12  0.17120000000E+03  0.17120000000E+03 0.  0.
         13    1    1    2    0    0 -0.12535541568E+02  0.25141458679E+01  0.58877041169E+02  0.60249297694E+02  0.10566000000E+00 0.  1.
        994    1    1    2    0    0  0.11642408218E+02  0.17728780343E+01  0.18279596437E+01  0.17161430652E+03  0.17120000000E+03 0.  0.
        998    1    1    2    0    0  0.89313335011E+00 -0.42870239021E+01  0.14392949955E+04  0.14393363958E+04  0.10000000000E+02 0.  1.
</event>
<event>
 5    1  0.1153629E-008  0.3854425E+03  0.7957747E-01  0.3427798E+00
         13   -1    0    0    0    0  0.00000000000E+00  0.00000000000E+00  0.14999999963E+04  0.15000000000E+04  0.10566000000E+00 0.  1.
        994   -1    0    0    0    0 -0.00000000000E+00 -0.00000000000E+00  0.11368683772E-12  0.17120000000E+03  0.17120000000E+03 0.  0.
         13    1    1    2    0    0  0.10253324690E+02 -0.10449384223E+02  0.66840620556E+02  0.68425141711E+02  0.10566000000E+00 0.  1.
        994    1    1    2    0    0 -0.21829439028E+02  0.19718741355E+02  0.42575621269E+01  0.17376110038E+03  0.17120000000E+03 0.  0.
        998    1    1    2    0    0  0.11576114338E+02 -0.92693571326E+01  0.14289018136E+04  0.14290137579E+04  0.10000000000E+02 0.  1.
</event>
<event>
 5    1  0.1153629E-008  0.3798434E+03  0.7957747E-01  0.3451841E+00
         13   -1    0    0    0    0  0.00000000000E+00  0.00000000000E+00  0.14999999963E+04  0.15000000000E+04  0.10566000000E+00 0.  1.
        994   -1    0    0    0    0 -0.00000000000E+00 -0.00000000000E+00  0.11368683772E-12  0.17120000000E+03  0.17120000000E+03 0.  0.
         13    1    1    2    0    0  0.11704646729E+03 -0.27369815080E+02  0.35964361308E+03  0.37919984424E+03  0.10566000000E+00 0.  1.
        994    1    1    2    0    0 -0.11268412109E+03 -0.14598113790E+02  0.64630237726E+02  0.21540037999E+03  0.17120000000E+03 0.  0.
        998    1    1    2    0    0 -0.43623461950E+01  0.41967928870E+02  0.10757261455E+04  0.10765997758E+04  0.10000000000E+02 0.  1.
</event>
<event>
 5    1  0.1153629E-008  0.3760478E+03  0.7957747E-01  0.3468550E+00
         13   -1    0    0    0    0  0.00000000000E+00  0.00000000000E+00  0.14999999963E+04  0.15000000000E+04  0.10566000000E+00 0. -1.
        994   -1    0    0    0    0 -0.00000000000E+00 -0.00000000000E+00  0.11368683772E-12  0.17120000000E+03  0.17120000000E+03 0.  0.
         13    1    1    2    0    0  0.34036777332E+01 -0.53609323178E+02  0.21402650493E+03  0.22066467894E+03  0.10566000000E+00 0. -1.
        994    1    1    2    0    0 -0.85780686871E+01  0.43798192557E+02  0.12918530486E+02  0.17739276582E+03  0.17120000000E+03 0.  0.
        998    1    1    2    0    0  0.51743909540E+01  0.98111306217E+01  0.12730549609E+04  0.12731425552E+04  0.10000000000E+02 0. -1.
</event>
<event>
 5    1  0.1153629E-008  0.3804159E+03  0.7957747E-01  0.3449350E+00
         13   -1    0    0    0    0  0.00000000000E+00  0.00000000000E+00  0.14999999963E+04  0.15000000000E+04  0.10566000000E+00 0. -1.
        994   -1    0    0    0    0 -0.00000000000E+00 -0.00000000000E+00  0.11368683772E-12  0.17120000000E+03  0.17120000000E+03 0.  0.
         13    1    1    2    0    0 -0.31992822438E+02  0.19056703425E+02  0.15683043172E+03  0.16119086236E+03  0.10566000000E+00 0. -1.
        994    1    1    2    0    0  0.38362951484E+02 -0.11918625687E+02  0.93294935145E+01  0.17609727180E+03  0.17120000000E+03 0.  0.
        998    1    1    2    0    0 -0.63701290455E+01 -0.71380777377E+01  0.13338400710E+04  0.13339118658E+04  0.10000000000E+02 0. -1.
</event>
<event>
 5    1  0.1153629E-008  0.3725615E+03  0.7957747E-01  0.3484201E+00
         13   -1    0    0    0    0  0.00000000000E+00  0.00000000000E+00  0.14999999963E+04  0.15000000000E+04  0.10566000000E+00 0. -1.
        994   -1    0    0    0    0 -0.00000000000E+00 -0.00000000000E+00  0.11368683772E-12  0.17120000000E+03  0.17120000000E+03 0.  0.
         13    1    1    2    0    0 -0.14430357673E+03  0.17214851185E+02  0.85342170395E+03  0.86570693037E+03  0.10566000000E+00 0. -1.
        994    1    1    2    0    0  0.11782352272E+03 -0.23648004301E+02  0.59180402639E+02  0.21737840433E+03  0.17120000000E+03 0.  0.
        998    1    1    2    0    0  0.26480054010E+02  0.64331531155E+01  0.58739788969E+03  0.58811466529E+03  0.10000000000E+02 0.  0.
</event>
<event>
 5    1  0.1153629E-008  0.3798760E+03  0.7957747E-01  0.3451699E+00
         13   -1    0    0    0    0  0.00000000000E+00  0.00000000000E+00  0.14999999963E+04  0.15000000000E+04  0.10566000000E+00 0. -1.
        994   -1    0    0    0    0 -0.00000000000E+00 -0.00000000000E+00  0.11368683772E-12  0.17120000000E+03  0.17120000000E+03 0.  0.
         13    1    1    2    0    0  0.33426032734E+02  0.10000598501E+02  0.14926657124E+03  0.15329002605E+03  0.10566000000E+00 0. -1.
        994    1    1    2    0    0 -0.11019683010E+02 -0.13988352421E+02  0.52569700435E+01  0.17220389993E+03  0.17120000000E+03 0.  0.
        998    1    1    2    0    0 -0.22406349724E+02  0.39877539197E+01  0.13454764550E+04  0.13457060740E+04  0.10000000000E+02 0. -1.
</event>
<event>
 5    1  0.1153629E-008  0.3819962E+03  0.7957747E-01  0.3442513E+00
         13   -1    0    0    0    0  0.00000000000E+00  0.00000000000E+00  0.14999999963E+04  0.15000000000E+04  0.10566000000E+00 0. -1.
        994   -1    0    0    0    0 -0.00000000000E+00 -0.00000000000E+00  0.11368683772E-12  0.17120000000E+03  0.17120000000E+03 0.  0.
         13    1    1    2    0    0  0.77521953554E+01  0.16890021021E+02  0.55243166970E+02  0.58285401292E+02  0.10566000000E+00 0. -1.
        994    1    1    2    0    0  0.20133497647E+02 -0.17887536166E+02  0.55414064807E+01  0.17339397009E+03  0.17120000000E+03 0.  0.
        998    1    1    2    0    0 -0.27885693002E+02  0.99751514444E+00  0.14392154228E+04  0.14395206286E+04  0.10000000000E+02 0. -1.
</event>
<event>
 5    1  0.1153629E-008  0.3832936E+03  0.7957747E-01  0.3436941E+00
         13   -1    0    0    0    0  0.00000000000E+00  0.00000000000E+00  0.14999999963E+04  0.15000000000E+04  0.10566000000E+00 0.  1.
        994   -1    0    0    0    0 -0.00000000000E+00 -0.00000000000E+00  0.11368683772E-12  0.17120000000E+03  0.17120000000E+03 0.  0.
         13    1    1    2    0    0 -0.16541972070E+02  0.84567510404E+01  0.70752140599E+02  0.73150735071E+02  0.10566000000E+00 0.  1.
        994    1    1    2    0    0  0.18110773744E+01 -0.12438604723E+02  0.30023537822E+01  0.17168707877E+03  0.17120000000E+03 0.  0.
        998    1    1    2    0    0  0.14730894695E+02  0.39818536826E+01  0.14262455019E+04  0.14263621862E+04  0.10000000000E+02 0.  1.
</event>
<event>
 5    1  0.1153629E-008  0.4109717E+03  0.7957747E-01  0.3326477E+00
         13   -1    0    0    0    0  0.00000000000E+00  0.00000000000E+00  0.14999999963E+04  0.15000000000E+04  0.10566000000E+00 0.  1.
        994   -1    0    0    0    0 -0.00000000000E+00 -0.00000000000E+00  0.11368683772E-12  0.17120000000E+03  0.17120000000E+03 0.  0.
         13    1    1    2    0    0  0.49613821375E+02  0.10390706479E+03  0.30853660030E+03  0.32932211325E+03  0.10566000000E+00 0.  1.
        994    1    1    2    0    0 -0.10955541089E+02  0.54376078988E+02  0.47226601673E+02  0.18605529757E+03  0.17120000000E+03 0.  0.
        998    1    1    2    0    0 -0.38658280286E+02 -0.15828314377E+03  0.11442367943E+04  0.11558225892E+04  0.10000000000E+02 0.  1.
</event>
<event>
 5    1  0.1153629E-008  0.3898447E+03  0.7957747E-01  0.3409382E+00
         13   -1    0    0    0    0  0.00000000000E+00  0.00000000000E+00  0.14999999963E+04  0.15000000000E+04  0.10566000000E+00 0.  1.
        994   -1    0    0    0    0 -0.00000000000E+00 -0.00000000000E+00  0.11368683772E-12  0.17120000000E+03  0.17120000000E+03 0.  0.
         13    1    1    2    0    0  0.61871874595E+02 -0.10285381946E+03  0.25805759496E+03  0.28460634308E+03  0.10566000000E+00 0.  1.
        994    1    1    2    0    0 -0.62279613299E+02  0.10666803794E+03  0.81799024487E+02  0.22640084134E+03  0.17120000000E+03 0.  0.
        998    1    1    2    0    0  0.40773870404E+00 -0.38142184761E+01  0.11601433768E+04  0.11601928156E+04  0.10000000000E+02 0. -1.
</event>
<event>
 5    1  0.1153629E-008  0.3844736E+03  0.7957747E-01  0.3431908E+00
         13   -1    0    0    0    0  0.00000000000E+00  0.00000000000E+00  0.14999999963E+04  0.15000000000E+04  0.10566000000E+00 0.  1.
        994   -1    0    0    0    0 -0.00000000000E+00 -0.00000000000E+00  0.11368683772E-12  0.17120000000E+03  0.17120000000E+03 0.  0.
         13    1    1    2    0    0 -0.18830892794E+01  0.10841518999E+02  0.31333962407E+02  0.33210132845E+02  0.10566000000E+00 0.  1.
        994    1    1    2    0    0  0.38570057068E+01 -0.88782347853E+01  0.22004596739E+01  0.17148755514E+03  0.17120000000E+03 0.  0.
        998    1    1    2    0    0 -0.19739164274E+01 -0.19632842132E+01  0.14664655742E+04  0.14665023120E+04  0.10000000000E+02 0.  1.
</event>
<event>
 5    1  0.1153629E-008  0.3844182E+03  0.7957747E-01  0.3432144E+00
         13   -1    0    0    0    0  0.00000000000E+00  0.00000000000E+00  0.14999999963E+04  0.15000000000E+04  0.10566000000E+00 0. -1.
        994   -1    0    0    0    0 -0.00000000000E+00 -0.00000000000E+00  0.11368683772E-12  0.17120000000E+03  0.17120000000E+03 0.  0.
         13    1    1    2    0    0  0.21023984374E+02 -0.14956547733E+02  0.15454153102E+03  0.15668057382E+03  0.10566000000E+00 0. -1.
        994    1    1    2    0    0 -0.21124970005E+02  0.19097451123E+02  0.45959147501E+01  0.17361318910E+03  0.17120000000E+03 0.  0.
        998    1    1    2    0    0  0.10098563039E+00 -0.41409033898E+01  0.13408625505E+04  0.13409062371E+04  0.10000000000E+02 0. -1.
</event>
<event>
 5    1  0.1153629E-008  0.3738392E+03  0.7957747E-01  0.3478431E+00
         13   -1    0    0    0    0  0.00000000000E+00  0.00000000000E+00  0.14999999963E+04  0.15000000000E+04  0.10566000000E+00 0.  1.
        994   -1    0    0    0    0 -0.00000000000E+00 -0.00000000000E+00  0.11368683772E-12  0.17120000000E+03  0.17120000000E+03 0.  0.
         13    1    1    2    0    0  0.96799776232E+01 -0.72819628513E+01  0.67566634456E+01  0.13870566488E+02  0.10566000000E+00 0.  1.
        994    1    1    2    0    0 -0.52143405702E+01  0.82071841361E+01  0.75987443342E+01  0.17164419051E+03  0.17120000000E+03 0.  0.
        998    1    1    2    0    0 -0.44656370530E+01 -0.92522128478E+00  0.14856445885E+04  0.14856852430E+04  0.10000000000E+02 0.  1.
</event>
<event>
 5    1  0.1153629E-008  0.3796380E+03  0.7957747E-01  0.3452736E+00
         13   -1    0    0    0    0  0.00000000000E+00  0.00000000000E+00  0.14999999963E+04  0.15000000000E+04  0.10566000000E+00 0.  1.
        994   -1    0    0    0    0 -0.00000000000E+00 -0.00000000000E+00  0.11368683772E-12  0.17120000000E+03  0.17120000000E+03 0.  0.
         13    1    1    2    0    0  0.36329388993E+02 -0.71093564260E+01  0.20858891973E+03  0.21184833266E+03  0.10566000000E+00 0.  1.
        994    1    1    2    0    0  0.16310905549E+02  0.81368548344E+01  0.54288059617E+01  0.17225320311E+03  0.17120000000E+03 0.  0.
        998    1    1    2    0    0 -0.52640294542E+02 -0.10274984083E+01  0.12859822706E+04  0.12870984642E+04  0.10000000000E+02 0.  1.
</event>
<event>
 5    1  0.1153629E-008  0.3826645E+03  0.7957747E-01  0.3439638E+00
         13   -1    0    0    0    0  0.00000000000E+00  0.00000000000E+00  0.14999999963E+04  0.15000000000E+04  0.10566000000E+00 0.  1.
        994   -1    0    0    0    0 -0.00000000000E+00 -0.00000000000E+00  0.11368683772E-12  0.17120000000E+03  0.17120000000E+03 0.  0.
         13    1    1    2    0    0  0.98968464034E+01 -0.49309979678E+01  0.20671069350E+02  0.23442836471E+02  0.10566000000E+00 0.  1.
        994    1    1    2    0    0 -0.48851588672E+01  0.12818375364E+02  0.34179288379E+01  0.17178270507E+03  0.17120000000E+03 0.  0.
        998    1    1    2    0    0 -0.50116875362E+01 -0.78873773959E+01  0.14759109981E+04  0.14759744585E+04  0.10000000000E+02 0.  1.
</event>
<event>
 5    1  0.1153629E-008  0.3859543E+03  0.7957747E-01  0.3425635E+00
         13   -1    0    0    0    0  0.00000000000E+00  0.00000000000E+00  0.14999999963E+04  0.15000000000E+04  0.10566000000E+00 0. -1.
        994   -1    0    0    0    0 -0.00000000000E+00 -0.00000000000E+00  0.11368683772E-12  0.17120000000E+03  0.17120000000E+03 0.  0.
         13    1    1    2    0    0  0.10221063097E+02  0.35298802510E+01  0.46543019431E+02  0.47782779400E+02  0.10566000000E+00 0. -1.
        994    1    1    2    0    0 -0.21608609271E+02 -0.54595808983E+01  0.27873603435E+01  0.17266716073E+03  0.17120000000E+03 0.  0.
        998    1    1    2    0    0  0.11387546174E+02  0.19297006473E+01  0.14506696165E+04  0.14507500599E+04  0.10000000000E+02 0. -1.
</event>
<event>
 5    1  0.1153629E-008  0.3801610E+03  0.7957747E-01  0.3450458E+00
         13   -1    0    0    0    0  0.00000000000E+00  0.00000000000E+00  0.14999999963E+04  0.15000000000E+04  0.10566000000E+00 0. -1.
        994   -1    0    0    0    0 -0.00000000000E+00 -0.00000000000E+00  0.11368683772E-12  0.17120000000E+03  0.17120000000E+03 0.  0.
         13    1    1    2    0    0 -0.18723667366E+02  0.20191658250E+02  0.86740171900E+02  0.91006304001E+02  0.10566000000E+00 0. -1.
        994    1    1    2    0    0  0.17808696215E+02 -0.23773705153E+02  0.70055255199E+01  0.17389898247E+03  0.17120000000E+03 0.  0.
        998    1    1    2    0    0  0.91497115176E+00  0.35820469027E+01  0.14062542989E+04  0.14062947135E+04  0.10000000000E+02 0. -1.
</event>
<event>
 5    1  0.1153629E-008  0.3737016E+03  0.7957747E-01  0.3479050E+00
         13   -1    0    0    0    0  0.00000000000E+00  0.00000000000E+00  0.14999999963E+04  0.15000000000E+04  0.10566000000E+00 0. -1.
        994   -1    0    0    0    0 -0.00000000000E+00 -0.00000000000E+00  0.11368683772E-12  0.17120000000E+03  0.17120000000E+03 0.  0.
         13    1    1    2    0    0 -0.94343033212E+01 -0.11349581830E+02  0.12876722478E+02  0.19586736142E+02  0.10566000000E+00 0. -1.
        994    1    1    2    0    0 -0.24685473484E+02 -0.30150658705E+02  0.12548860367E+02  0.17602655685E+03  0.17120000000E+03 0.  0.
        998    1    1    2    0    0  0.34119776805E+02  0.41500240535E+02  0.14745744134E+04  0.14755867070E+04  0.10000000000E+02 0. -1.
</event>
<event>
 5    1  0.1153629E-008  0.3780554E+03  0.7957747E-01  0.3459670E+00
         13   -1    0    0    0    0  0.00000000000E+00  0.00000000000E+00  0.14999999963E+04  0.15000000000E+04  0.10566000000E+00 0. -1.
        994   -1    0    0    0    0 -0.00000000000E+00 -0.00000000000E+00  0.11368683772E-12  0.17120000000E+03  0.17120000000E+03 0.  0.
         13    1    1    2    0    0 -0.56272815489E+01 -0.92748198222E+02  0.54983766255E+03  0.55763371570E+03  0.10566000000E+00 0. -1.
        994    1    1    2    0    0  0.34157443213E+01  0.89529595349E+02  0.32619841642E+02  0.19596099056E+03  0.17120000000E+03 0.  0.
        998    1    1    2    0    0  0.22115372276E+01  0.32186028731E+01  0.91754249209E+03  0.91760529374E+03  0.10000000000E+02 0. -1.
</event>
<event>
 5    1  0.1153629E-008  0.3812205E+03  0.7957747E-01  0.3445861E+00
         13   -1    0    0    0    0  0.00000000000E+00  0.00000000000E+00  0.14999999963E+04  0.15000000000E+04  0.10566000000E+00 0.  1.
        994   -1    0    0    0    0 -0.00000000000E+00 -0.00000000000E+00  0.11368683772E-12  0.17120000000E+03  0.17120000000E+03 0.  0.
         13    1    1    2    0    0  0.95495761088E+01 -0.13242964642E+02  0.36436304776E+02  0.39927258686E+02  0.10566000000E+00 0.  1.
        994    1    1    2    0    0 -0.68771703958E+01  0.98695295096E+01  0.40002589935E+01  0.17166870757E+03  0.17120000000E+03 0.  0.
        998    1    1    2    0    0 -0.26724057130E+01  0.33734351326E+01  0.14595634325E+04  0.14596040337E+04  0.10000000000E+02 0.  1.
</event>
<event>
 5    1  0.1153629E-008  0.3691424E+03  0.7957747E-01  0.3499842E+00
         13   -1    0    0    0    0  0.00000000000E+00  0.00000000000E+00  0.14999999963E+04  0.15000000000E+04  0.10566000000E+00 0. -1.
        994   -1    0    0    0    0 -0.00000000000E+00 -0.00000000000E+00  0.11368683772E-12  0.17120000000E+03  0.17120000000E+03 0.  0.
         13    1    1    2    0    0 -0.24934427630E+02 -0.12742586688E+02  0.35929194394E+02  0.45552358562E+02  0.10566000000E+00 0. -1.
        994    1    1    2    0    0  0.16695909102E+02  0.21635190304E+02  0.12312318745E+02  0.17380410822E+03  0.17120000000E+03 0.  0.
        998    1    1    2    0    0  0.82385185281E+01 -0.88926036153E+01  0.14517584831E+04  0.14518435332E+04  0.10000000000E+02 0. -1.
</event>
<event>
 5    1  0.1153629E-008  0.3795659E+03  0.7957747E-01  0.3453051E+00
         13   -1    0    0    0    0  0.00000000000E+00  0.00000000000E+00  0.14999999963E+04  0.15000000000E+04  0.10566000000E+00 0.  1.
        994   -1    0    0    0    0 -0.00000000000E+00 -0.00000000000E+00  0.11368683772E-12  0.17120000000E+03  0.17120000000E+03 0.  0.
         13    1    1    2    0    0 -0.88213233531E+01 -0.15795819970E+03  0.89003392349E+03  0.90398506887E+03  0.10566000000E+00 0.  1.
        994    1    1    2    0    0  0.30105358323E+01  0.16381993405E+03  0.10020148840E+03  0.25728546868E+03  0.17120000000E+03 0.  0.
        998    1    1    2    0    0  0.58107875207E+01 -0.58617343569E+01  0.50976458438E+03  0.50992946245E+03  0.10000000000E+02 0.  1.
</event>
<event>
 5    1  0.1153629E-008  0.3838655E+03  0.7957747E-01  0.3434498E+00
         13   -1    0    0    0    0  0.00000000000E+00  0.00000000000E+00  0.14999999963E+04  0.15000000000E+04  0.10566000000E+00 0.  1.
        994   -1    0    0    0    0 -0.00000000000E+00 -0.00000000000E+00  0.11368683772E-12  0.17120000000E+03  0.17120000000E+03 0.  0.
         13    1    1    2    0    0 -0.20902000982E+01  0.16873187315E+02  0.64358403953E+02  0.66566423294E+02  0.10566000000E+00 0.  1.
        994    1    1    2    0    0  0.97536524096E+01 -0.12904612602E+02  0.30586134786E+01  0.17198970283E+03  0.17120000000E+03 0.  0.
        998    1    1    2    0    0 -0.76634523114E+01 -0.39685747127E+01  0.14325829788E+04  0.14326438739E+04  0.10000000000E+02 0.  1.
</event>
<event>
 5    1  0.1153629E-008  0.3860493E+03  0.7957747E-01  0.3425234E+00
         13   -1    0    0    0    0  0.00000000000E+00  0.00000000000E+00  0.14999999963E+04  0.15000000000E+04  0.10566000000E+00 0.  1.
        994   -1    0    0    0    0 -0.00000000000E+00 -0.00000000000E+00  0.11368683772E-12  0.17120000000E+03  0.17120000000E+03 0.  0.
         13    1    1    2    0    0 -0.79023069053E+02 -0.36560875439E+02  0.21709472499E+03  0.23390483928E+03  0.10566000000E+00 0.  1.
        994    1    1    2    0    0  0.10076744542E+02  0.23146224975E+02  0.22055718235E+02  0.17445109119E+03  0.17120000000E+03 0.  0.
        998    1    1    2    0    0  0.68946324510E+02  0.13414650464E+02  0.12608495531E+04  0.12628440695E+04  0.10000000000E+02 0.  1.
</event>
<event>
 5    1  0.1153629E-008  0.3752268E+03  0.7957747E-01  0.3472209E+00
         13   -1    0    0    0    0  0.00000000000E+00  0.00000000000E+00  0.14999999963E+04  0.15000000000E+04  0.10566000000E+00 0.  1.
        994   -1    0    0    0    0 -0.00000000000E+00 -0.00000000000E+00  0.11368683772E-12  0.17120000000E+03  0.17120000000E+03 0.  0.
         13    1    1    2    0    0  0.14480905082E+02  0.28940719526E+02  0.37007035800E+02  0.49160896263E+02  0.10566000000E+00 0.  1.
        994    1    1    2    0    0 -0.30155062456E+02  0.49658199628E+02  0.25849418356E+02  0.18262775531E+03  0.17120000000E+03 0.  0.
        998    1    1    2    0    0  0.15674157375E+02 -0.78598919154E+02  0.14371435421E+04  0.14394113484E+04  0.10000000000E+02 0.  1.
</event>
<event>
 5    1  0.1153629E-008  0.3820301E+03  0.7957747E-01  0.3442366E+00
         13   -1    0    0    0    0  0.00000000000E+00  0.00000000000E+00  0.14999999963E+04  0.15000000000E+04  0.10566000000E+00 0. -1.
        994   -1    0    0    0    0 -0.00000000000E+00 -0.00000000000E+00  0.11368683772E-12  0.17120000000E+03  0.17120000000E+03 0.  0.
         13    1    1    2    0    0  0.31842128319E+02  0.84327999271E+01  0.14187107460E+03  0.14564493202E+03  0.10566000000E+00 0. -1.
        994    1    1    2    0    0 -0.41240812401E+02 -0.40023638231E+02  0.14157536841E+02  0.18114240827E+03  0.17120000000E+03 0.  0.
        998    1    1    2    0    0  0.93986840814E+01  0.31590838304E+02  0.13439713848E+04  0.13444126597E+04  0.10000000000E+02 0. -1.
</event>
<event>
 5    1  0.1153629E-008  0.3780138E+03  0.7957747E-01  0.3459853E+00
         13   -1    0    0    0    0  0.00000000000E+00  0.00000000000E+00  0.14999999963E+04  0.15000000000E+04  0.10566000000E+00 0.  1.
        994   -1    0    0    0    0 -0.00000000000E+00 -0.00000000000E+00  0.11368683772E-12  0.17120000000E+03  0.17120000000E+03 0.  0.
         13    1    1    2    0    0  0.11315187031E+01 -0.12494230045E+02  0.12931886021E+02  0.18017518117E+02  0.10566000000E+00 0.  1.
        994    1    1    2    0    0 -0.93669114879E+00  0.12871119307E+02  0.56997373644E+01  0.17178029604E+03  0.17120000000E+03 0.  0.
        998    1    1    2    0    0 -0.19482755435E+00 -0.37688926139E+00  0.14813683729E+04  0.14814021858E+04  0.10000000000E+02 0.  1.
</event>
<event>
 5    1  0.1153629E-008  0.3927550E+03  0.7957747E-01  0.3397434E+00
         13   -1    0    0    0    0  0.00000000000E+00  0.00000000000E+00  0.14999999963E+04  0.15000000000E+04  0.10566000000E+00 0. -1.
        994   -1    0    0    0    0 -0.00000000000E+00 -0.00000000000E+00  0.11368683772E-12  0.17120000000E+03  0.17120000000E+03 0.  0.
         13    1    1    2    0    0  0.41055617295E+02  0.40198569369E+02  0.62169368631E+02  0.84655361619E+02  0.10566000000E+00 0. -1.
        994    1    1    2    0    0 -0.35480907938E+02 -0.23895235757E+02  0.30508153681E+02  0.17908116752E+03  0.17120000000E+03 0.  0.
        998    1    1    2    0    0 -0.55747093577E+01 -0.16303333612E+02  0.14073224740E+04  0.14074634709E+04  0.10000000000E+02 0. -1.
</event>
<event>
 5    1  0.1153629E-008  0.3803701E+03  0.7957747E-01  0.3449549E+00
         13   -1    0    0    0    0  0.00000000000E+00  0.00000000000E+00  0.14999999963E+04  0.15000000000E+04  0.10566000000E+00 0.  1.
        994   -1    0    0    0    0 -0.00000000000E+00 -0.00000000000E+00  0.11368683772E-12  0.17120000000E+03  0.17120000000E+03 0.  0.
         13    1    1    2    0    0 -0.22794490435E+02  0.55885169230E+02  0.32395714293E+03  0.32953145913E+03  0.10566000000E+00 0.  1.
        994    1    1    2    0    0  0.34473955084E+02 -0.63355914138E+02  0.21516426775E+02  0.18701556635E+03  0.17120000000E+03 0.  0.
        998    1    1    2    0    0 -0.11679464649E+02  0.74707449082E+01  0.11545264266E+04  0.11546529745E+04  0.10000000000E+02 0.  1.
</event>
<event>
 5    1  0.1153629E-008  0.3826144E+03  0.7957747E-01  0.3439853E+00
         13   -1    0    0    0    0  0.00000000000E+00  0.00000000000E+00  0.14999999963E+04  0.15000000000E+04  0.10566000000E+00 0.  1.
        994   -1    0    0    0    0 -0.00000000000E+00 -0.00000000000E+00  0.11368683772E-12  0.17120000000E+03  0.17120000000E+03 0.  0.
         13    1    1    2    0    0  0.63646548249E+01  0.22819974537E+02  0.10199996384E+03  0.10471515581E+03  0.10566000000E+00 0.  1.
        994    1    1    2    0    0 -0.28413718168E+02 -0.25725414076E+01  0.55215612533E+01  0.17364874024E+03  0.17120000000E+03 0.  0.
        998    1    1    2    0    0  0.22049063343E+02 -0.20247433130E+02  0.13924784712E+04  0.13928361039E+04  0.10000000000E+02 0.  1.
</event>
<event>
 5    1  0.1153629E-008  0.3835438E+03  0.7957747E-01  0.3435872E+00
         13   -1    0    0    0    0  0.00000000000E+00  0.00000000000E+00  0.14999999963E+04  0.15000000000E+04  0.10566000000E+00 0.  1.
        994   -1    0    0    0    0 -0.00000000000E+00 -0.00000000000E+00  0.11368683772E-12  0.17120000000E+03  0.17120000000E+03 0.  0.
         13    1    1    2    0    0 -0.20313676552E+02  0.19629706537E+02  0.16029350795E+03  0.16276360370E+03  0.10566000000E+00 0.  1.
        994    1    1    2    0    0  0.93647105233E+01 -0.23689601289E+02  0.45019002216E+01  0.17314329937E+03  0.17120000000E+03 0.  0.
        998    1    1    2    0    0  0.10948966028E+02  0.40598947516E+01  0.13352045881E+04  0.13352930969E+04  0.10000000000E+02 0.  1.
</event>
<event>
 5    1  0.1153629E-008  0.3762292E+03  0.7957747E-01  0.3467743E+00
         13   -1    0    0    0    0  0.00000000000E+00  0.00000000000E+00  0.14999999963E+04  0.15000000000E+04  0.10566000000E+00 0.  1.
        994   -1    0    0    0    0 -0.00000000000E+00 -0.00000000000E+00  0.11368683772E-12  0.17120000000E+03  0.17120000000E+03 0.  0.
         13    1    1    2    0    0  0.61925566845E+01  0.13270506978E+02  0.14972546647E+02  0.20943792180E+02  0.10566000000E+00 0.  1.
        994    1    1    2    0    0 -0.38865552110E+01 -0.13107987585E+02  0.66818595734E+01  0.17187498916E+03  0.17120000000E+03 0.  0.
        998    1    1    2    0    0 -0.23060014735E+01 -0.16251939259E+00  0.14783455901E+04  0.14783812187E+04  0.10000000000E+02 0.  1.
</event>
<event>
 5    1  0.1153629E-008  0.3840022E+03  0.7957747E-01  0.3433915E+00
         13   -1    0    0    0    0  0.00000000000E+00  0.00000000000E+00  0.14999999963E+04  0.15000000000E+04  0.10566000000E+00 0.  1.
        994   -1    0    0    0    0 -0.00000000000E+00 -0.00000000000E+00  0.11368683772E-12  0.17120000000E+03  0.17120000000E+03 0.  0.
         13    1    1    2    0    0 -0.19154774642E+02  0.15793212695E+02  0.13991232767E+03  0.14209785909E+03  0.10566000000E+00 0.  1.
        994    1    1    2    0    0  0.19145883316E+02 -0.67488263833E+01  0.34871922696E+01  0.17243466013E+03  0.17120000000E+03 0.  0.
        998    1    1    2    0    0  0.88913257216E-02 -0.90443863114E+01  0.13566004763E+04  0.13566674808E+04  0.10000000000E+02 0.  1.
</event>
<event>
 5    1  0.1153629E-008  0.3757284E+03  0.7957747E-01  0.3469971E+00
         13   -1    0    0    0    0  0.00000000000E+00  0.00000000000E+00  0.14999999963E+04  0.15000000000E+04  0.10566000000E+00 0. -1.
        994   -1    0    0    0    0 -0.00000000000E+00 -0.00000000000E+00  0.11368683772E-12  0.17120000000E+03  0.17120000000E+03 0.  0.
         13    1    1    2    0    0  0.18994849973E+02  0.58388603799E+01  0.27775018799E+02  0.34152005056E+02  0.10566000000E+00 0. -1.
        994    1    1    2    0    0 -0.26643307817E+02 -0.16801874596E+01  0.87255536645E+01  0.17348851307E+03  0.17120000000E+03 0.  0.
        998    1    1    2    0    0  0.76484578433E+01 -0.41586729203E+01  0.14634994238E+04  0.14635594819E+04  0.10000000000E+02 0. -1.
</event>
<event>
 5    1  0.1153629E-008  0.3856409E+03  0.7957747E-01  0.3426959E+00
         13   -1    0    0    0    0  0.00000000000E+00  0.00000000000E+00  0.14999999963E+04  0.15000000000E+04  0.10566000000E+00 0.  1.
        994   -1    0    0    0    0 -0.00000000000E+00 -0.00000000000E+00  0.11368683772E-12  0.17120000000E+03  0.17120000000E+03 0.  0.
         13    1    1    2    0    0  0.99423790160E+00  0.12142170702E+02  0.61209379915E+02  0.62410096715E+02  0.10566000000E+00 0.  1.
        994    1    1    2    0    0  0.11648695840E+02  0.12380042026E+01  0.17627655936E+01  0.17160935904E+03  0.17120000000E+03 0.  0.
        998    1    1    2    0    0 -0.12642933741E+02 -0.13380174905E+02  0.14370278508E+04  0.14371805442E+04  0.10000000000E+02 0.  1.
</event>
<event>
 5    1  0.1153629E-008  0.3856837E+03  0.7957747E-01  0.3426778E+00
         13   -1    0    0    0    0  0.00000000000E+00  0.00000000000E+00  0.14999999963E+04  0.15000000000E+04  0.10566000000E+00 0.  1.
        994   -1    0    0    0    0 -0.00000000000E+00 -0.00000000000E+00  0.11368683772E-12  0.17120000000E+03  0.17120000000E+03 0.  0.
         13    1    1    2    0    0 -0.57188736418E+01  0.12593735830E+02  0.80332626405E+02  0.81514720922E+02  0.10566000000E+00 0.  1.
        994    1    1    2    0    0  0.85171518858E+01  0.38633584646E+01  0.15781235698E+01  0.17146252619E+03  0.17120000000E+03 0.  0.
        998    1    1    2    0    0 -0.27982782440E+01 -0.16457094295E+02  0.14180892463E+04  0.14182227529E+04  0.10000000000E+02 0.  1.
</event>
<event>
 5    1  0.1153629E-008  0.3747712E+03  0.7957747E-01  0.3474247E+00
         13   -1    0    0    0    0  0.00000000000E+00  0.00000000000E+00  0.14999999963E+04  0.15000000000E+04  0.10566000000E+00 0.  1.
        994   -1    0    0    0    0 -0.00000000000E+00 -0.00000000000E+00  0.11368683772E-12  0.17120000000E+03  0.17120000000E+03 0.  0.
         13    1    1    2    0    0 -0.50422108714E+02 -0.42111274875E+02  0.23760124306E+03  0.24651594347E+03  0.10566000000E+00 0.  1.
        994    1    1    2    0    0  0.48266409351E+02  0.71814379802E+02  0.32708392334E+02  0.19459247248E+03  0.17120000000E+03 0.  0.
        998    1    1    2    0    0  0.21556993626E+01 -0.29703104928E+02  0.12296903609E+04  0.12300915840E+04  0.10000000000E+02 0.  1.
</event>
<event>
 5    1  0.1153629E-008  0.3832230E+03  0.7957747E-01  0.3437244E+00
         13   -1    0    0    0    0  0.00000000000E+00  0.00000000000E+00  0.14999999963E+04  0.15000000000E+04  0.10566000000E+00 0.  1.
        994   -1    0    0    0    0 -0.00000000000E+00 -0.00000000000E+00  0.11368683772E-12  0.17120000000E+03  0.17120000000E+03 0.  0.
         13    1    1    2    0    0 -0.73188224232E+01 -0.19229696310E+02  0.86533009094E+02  0.88945596905E+02  0.10566000000E+00 0.  1.
        994    1    1    2    0    0  0.30484379084E+01  0.63493690371E+01  0.26790457910E+01  0.17136576305E+03  0.17120000000E+03 0.  0.
        998    1    1    2    0    0  0.42703845148E+01  0.12880327273E+02  0.14107879414E+04  0.14108886400E+04  0.10000000000E+02 0.  1.
</event>
<event>
 5    1  0.1153629E-008  0.3857002E+03  0.7957747E-01  0.3426708E+00
         13   -1    0    0    0    0  0.00000000000E+00  0.00000000000E+00  0.14999999963E+04  0.15000000000E+04  0.10566000000E+00 0.  1.
        994   -1    0    0    0    0 -0.00000000000E+00 -0.00000000000E+00  0.11368683772E-12  0.17120000000E+03  0.17120000000E+03 0.  0.
         13    1    1    2    0    0 -0.10164630324E+02  0.94277081619E+00  0.45195295787E+02  0.46333944919E+02  0.10566000000E+00 0.  1.
        994    1    1    2    0    0 -0.10207169708E+02 -0.49962513578E+01  0.17067599377E+01  0.17158526123E+03  0.17120000000E+03 0.  0.
        998    1    1    2    0    0  0.20371800032E+02  0.40534805416E+01  0.14530979406E+04  0.14532807939E+04  0.10000000000E+02 0.  1.
</event>
<event>
 5    1  0.1153629E-008  0.3845682E+03  0.7957747E-01  0.3431506E+00
         13   -1    0    0    0    0  0.00000000000E+00  0.00000000000E+00  0.14999999963E+04  0.15000000000E+04  0.10566000000E+00 0. -1.
        994   -1    0    0    0    0 -0.00000000000E+00 -0.00000000000E+00  0.11368683772E-12  0.17120000000E+03  0.17120000000E+03 0.  0.
         13    1    1    2    0    0 -0.85906169368E+01 -0.11352617867E+02  0.52755148060E+02  0.54642450921E+02  0.10566000000E+00 0. -1.
        994    1    1    2    0    0  0.12271309607E+02  0.11029023009E+02  0.27416994256E+01  0.17201506127E+03  0.17120000000E+03 0.  0.
        998    1    1    2    0    0 -0.36806926702E+01  0.32359485830E+00  0.14445031488E+04  0.14445424878E+04  0.10000000000E+02 0. -1.
</event>
<event>
 5    1  0.1153629E-008  0.3787178E+03  0.7957747E-01  0.3456760E+00
         13   -1    0    0    0    0  0.00000000000E+00  0.00000000000E+00  0.14999999963E+04  0.15000000000E+04  0.10566000000E+00 0. -1.
        994   -1    0    0    0    0 -0.00000000000E+00 -0.00000000000E+00  0.11368683772E-12  0.17120000000E+03  0.17120000000E+03 0.  0.
         13    1    1    2    0    0  0.10472079774E+02  0.18244291165E+02  0.43123315258E+02  0.47980726316E+02  0.10566000000E+00 0. -1.
        994    1    1    2    0    0 -0.12889406694E+02 -0.18808668641E+02  0.65291064365E+01  0.17283510075E+03  0.17120000000E+03 0.  0.
        998    1    1    2    0    0  0.24173269200E+01  0.56437747639E+00  0.14503475746E+04  0.14503841729E+04  0.10000000000E+02 0. -1.
</event>
<event>
 5    1  0.1153629E-008  0.3798021E+03  0.7957747E-01  0.3452021E+00
         13   -1    0    0    0    0  0.00000000000E+00  0.00000000000E+00  0.14999999963E+04  0.15000000000E+04  0.10566000000E+00 0.  1.
        994   -1    0    0    0    0 -0.00000000000E+00 -0.00000000000E+00  0.11368683772E-12  0.17120000000E+03  0.17120000000E+03 0.  0.
         13    1    1    2    0    0 -0.10626674928E+02  0.70797288547E+01  0.20032395438E+02  0.23756195228E+02  0.10566000000E+00 0.  1.
        994    1    1    2    0    0 -0.32833884811E+02  0.28563661441E+02  0.10594685940E+02  0.17696223924E+03  0.17120000000E+03 0.  0.
        998    1    1    2    0    0  0.43460559739E+02 -0.35643390295E+02  0.14693729149E+04  0.14704815655E+04  0.10000000000E+02 0.  1.
</event>
<event>
 5    1  0.1153629E-008  0.3811309E+03  0.7957747E-01  0.3446249E+00
         13   -1    0    0    0    0  0.00000000000E+00  0.00000000000E+00  0.14999999963E+04  0.15000000000E+04  0.10566000000E+00 0. -1.
        994   -1    0    0    0    0 -0.00000000000E+00 -0.00000000000E+00  0.11368683772E-12  0.17120000000E+03  0.17120000000E+03 0.  0.
         13    1    1    2    0    0 -0.23606619821E+02  0.20159298106E+02  0.14962288949E+03  0.15280932570E+03  0.10566000000E+00 0. -1.
        994    1    1    2    0    0  0.24202925949E+02  0.22422581076E+02  0.71972673726E+01  0.17449869462E+03  0.17120000000E+03 0.  0.
        998    1    1    2    0    0 -0.59630612873E+00 -0.42581879182E+02  0.13431798394E+04  0.13438919797E+04  0.10000000000E+02 0. -1.
</event>
<event>
 5    1  0.1153629E-008  0.3836631E+03  0.7957747E-01  0.3435362E+00
         13   -1    0    0    0    0  0.00000000000E+00  0.00000000000E+00  0.14999999963E+04  0.15000000000E+04  0.10566000000E+00 0.  1.
        994   -1    0    0    0    0 -0.00000000000E+00 -0.00000000000E+00  0.11368683772E-12  0.17120000000E+03  0.17120000000E+03 0.  0.
         13    1    1    2    0    0 -0.18803576108E+02 -0.51429205506E+01  0.81408243154E+02  0.83709840065E+02  0.10566000000E+00 0.  1.
        994    1    1    2    0    0  0.13837825324E+02  0.28410993457E+01  0.29547329630E+01  0.17180723996E+03  0.17120000000E+03 0.  0.
        998    1    1    2    0    0  0.49657507843E+01  0.23018212049E+01  0.14156370202E+04  0.14156829200E+04  0.10000000000E+02 0.  1.
</event>
<event>
 5    1  0.1153629E-008  0.3837480E+03  0.7957747E-01  0.3434999E+00
         13   -1    0    0    0    0  0.00000000000E+00  0.00000000000E+00  0.14999999963E+04  0.15000000000E+04  0.10566000000E+00 0.  1.
        994   -1    0    0    0    0 -0.00000000000E+00 -0.00000000000E+00  0.11368683772E-12  0.17120000000E+03  0.17120000000E+03 0.  0.
         13    1    1    2    0    0 -0.69013967871E+01  0.82861327194E+01  0.25169949898E+02  0.27382965781E+02  0.10566000000E+00 0.  1.
        994    1    1    2    0    0  0.50831456811E+01 -0.43572800219E+01  0.24010183714E+01  0.17134768498E+03  0.17120000000E+03 0.  0.
        998    1    1    2    0    0  0.18182511060E+01 -0.39288526975E+01  0.14724290280E+04  0.14724693492E+04  0.10000000000E+02 0.  1.
</event>
<event>
 5    1  0.1153629E-008  0.3706958E+03  0.7957747E-01  0.3492699E+00
         13   -1    0    0    0    0  0.00000000000E+00  0.00000000000E+00  0.14999999963E+04  0.15000000000E+04  0.10566000000E+00 0. -1.
        994   -1    0    0    0    0 -0.00000000000E+00 -0.00000000000E+00  0.11368683772E-12  0.17120000000E+03  0.17120000000E+03 0.  0.
         13    1    1    2    0    0  0.83231977944E+01 -0.27176793041E+02  0.32235352476E+02  0.42976537958E+02  0.10566000000E+00 0. -1.
        994    1    1    2    0    0 -0.22362772197E+02 -0.90375601683E+00  0.13064600914E+02  0.17315032241E+03  0.17120000000E+03 0.  0.
        998    1    1    2    0    0  0.14039574403E+02  0.28080549058E+02  0.14547000429E+04  0.14550731396E+04  0.10000000000E+02 0. -1.
</event>
<event>
 5    1  0.1451682E-008  0.3860729E+03  0.7957747E-01  0.3425135E+00
         13   -1    0    0    0    0  0.00000000000E+00  0.00000000000E+00  0.14999999963E+04  0.15000000000E+04  0.10566000000E+00 0.  1.
        994   -1    0    0    0    0 -0.00000000000E+00 -0.00000000000E+00  0.11368683772E-12  0.17120000000E+03  0.17120000000E+03 0.  0.
         13    1    1    2    0    0 -0.12265978019E+02  0.44783742804E+00  0.73902238198E+02  0.74914663116E+02  0.10566000000E+00 0.  1.
        994    1    1    2    0    0  0.47576187862E+00 -0.65073792676E+01  0.12379362165E+01  0.17132876238E+03  0.17120000000E+03 0.  0.
        998    1    1    2    0    0  0.11790216141E+02  0.60595418396E+01  0.14248598219E+04  0.14249565745E+04  0.10000000000E+02 0.  1.
</event>
<event>
 5    1  0.1153629E-008  0.3823366E+03  0.7957747E-01  0.3441047E+00
         13   -1    0    0    0    0  0.00000000000E+00  0.00000000000E+00  0.14999999963E+04  0.15000000000E+04  0.10566000000E+00 0.  1.
        994   -1    0    0    0    0 -0.00000000000E+00 -0.00000000000E+00  0.11368683772E-12  0.17120000000E+03  0.17120000000E+03 0.  0.
         13    1    1    2    0    0 -0.12338013254E+02  0.44839727024E+01  0.29535580141E+02  0.32321730161E+02  0.10566000000E+00 0.  1.
        994    1    1    2    0    0 -0.65837477674E+01 -0.52906930630E+00  0.31030025995E+01  0.17135546176E+03  0.17120000000E+03 0.  0.
        998    1    1    2    0    0  0.18921761021E+02 -0.39549033961E+01  0.14673614135E+04  0.14675228081E+04  0.10000000000E+02 0.  1.
</event>
<event>
 5    1  0.1153629E-008  0.3812899E+03  0.7957747E-01  0.3445561E+00
         13   -1    0    0    0    0  0.00000000000E+00  0.00000000000E+00  0.14999999963E+04  0.15000000000E+04  0.10566000000E+00 0.  1.
        994   -1    0    0    0    0 -0.00000000000E+00 -0.00000000000E+00  0.11368683772E-12  0.17120000000E+03  0.17120000000E+03 0.  0.
         13    1    1    2    0    0 -0.39730099561E+02 -0.39130948439E+02  0.33527420560E+03  0.33988014953E+03  0.10566000000E+00 0.  1.
        994    1    1    2    0    0  0.38758589751E+02  0.45185221912E+02  0.15371412831E+02  0.18190561534E+03  0.17120000000E+03 0.  0.
        998    1    1    2    0    0  0.97150980946E+00 -0.60542734726E+01  0.11493543778E+04  0.11494142351E+04  0.10000000000E+02 0.  1.
</event>
<event>
 5    1  0.1153629E-008  0.3815304E+03  0.7957747E-01  0.3444522E+00
         13   -1    0    0    0    0  0.00000000000E+00  0.00000000000E+00  0.14999999963E+04  0.15000000000E+04  0.10566000000E+00 0.  1.
        994   -1    0    0    0    0 -0.00000000000E+00 -0.00000000000E+00  0.11368683772E-12  0.17120000000E+03  0.17120000000E+03 0.  0.
         13    1    1    2    0    0  0.14339196923E+02 -0.23564846461E+02  0.13463247346E+03  0.13742935870E+03  0.10566000000E+00 0.  1.
        994    1    1    2    0    0  0.76172790010E+01 -0.77052171946E+01  0.37531389226E+01  0.17158356379E+03  0.17120000000E+03 0.  0.
        998    1    1    2    0    0 -0.21956475924E+02  0.31270063656E+02  0.13616143839E+04  0.13621870775E+04  0.10000000000E+02 0.  1.
</event>
<event>
 5    1  0.1153629E-008  0.3737155E+03  0.7957747E-01  0.3478988E+00
         13   -1    0    0    0    0  0.00000000000E+00  0.00000000000E+00  0.14999999963E+04  0.15000000000E+04  0.10566000000E+00 0.  1.
        994   -1    0    0    0    0 -0.00000000000E+00 -0.00000000000E+00  0.11368683772E-12  0.17120000000E+03  0.17120000000E+03 0.  0.
         13    1    1    2    0    0  0.92300875265E+02  0.10752317161E+02  0.41630063044E+03  0.42654576539E+03  0.10566000000E+00 0.  1.
        994    1    1    2    0    0 -0.21271130456E+02 -0.12440006067E+02  0.15070804462E+02  0.17361965295E+03  0.17120000000E+03 0.  0.
        998    1    1    2    0    0 -0.71029744809E+02  0.16876889056E+01  0.10686285614E+04  0.10710345817E+04  0.10000000000E+02 0.  1.
</event>
<event>
 5    1  0.1153629E-008  0.3744527E+03  0.7957747E-01  0.3475674E+00
         13   -1    0    0    0    0  0.00000000000E+00  0.00000000000E+00  0.14999999963E+04  0.15000000000E+04  0.10566000000E+00 0.  1.
        994   -1    0    0    0    0 -0.00000000000E+00 -0.00000000000E+00  0.11368683772E-12  0.17120000000E+03  0.17120000000E+03 0.  0.
         13    1    1    2    0    0 -0.34643170340E+02  0.13035163992E+02  0.48731090538E+02  0.61194730988E+02  0.10566000000E+00 0.  1.
        994    1    1    2    0    0 -0.89428673701E+01 -0.40554298650E+02  0.19462858573E+02  0.17723675939E+03  0.17120000000E+03 0.  0.
        998    1    1    2    0    0  0.43586037710E+02  0.27519134658E+02  0.14318060472E+04  0.14327685096E+04  0.10000000000E+02 0.  1.
</event>
<event>
 5    1  0.1153629E-008  0.3718421E+03  0.7957747E-01  0.3487468E+00
         13   -1    0    0    0    0  0.00000000000E+00  0.00000000000E+00  0.14999999963E+04  0.15000000000E+04  0.10566000000E+00 0. -1.
        994   -1    0    0    0    0 -0.00000000000E+00 -0.00000000000E+00  0.11368683772E-12  0.17120000000E+03  0.17120000000E+03 0.  0.
         13    1    1    2    0    0 -0.22107573554E+02 -0.94907467036E+01  0.30659434199E+02  0.38972184323E+02  0.10566000000E+00 0. -1.
        994    1    1    2    0    0  0.23415498260E+02  0.11683980799E+02  0.10665831341E+02  0.17351657248E+03  0.17120000000E+03 0.  0.
        998    1    1    2    0    0 -0.13079247061E+01 -0.21932340949E+01  0.14586747307E+04  0.14587112432E+04  0.10000000000E+02 0. -1.
</event>
<event>
 5    1  0.1153629E-008  0.3811502E+03  0.7957747E-01  0.3446165E+00
         13   -1    0    0    0    0  0.00000000000E+00  0.00000000000E+00  0.14999999963E+04  0.15000000000E+04  0.10566000000E+00 0. -1.
        994   -1    0    0    0    0 -0.00000000000E+00 -0.00000000000E+00  0.11368683772E-12  0.17120000000E+03  0.17120000000E+03 0.  0.
         13    1    1    2    0    0 -0.30003926779E+02  0.22856882305E+00  0.12279798046E+03  0.12641061283E+03  0.10566000000E+00 0. -1.
        994    1    1    2    0    0  0.22356616628E+02  0.23981559183E+02  0.71417267123E+01  0.17445738089E+03  0.17120000000E+03 0.  0.
        998    1    1    2    0    0  0.76473101515E+01 -0.24210128006E+02  0.13700602891E+04  0.13703320063E+04  0.10000000000E+02 0. -1.
</event>
<event>
 5    1  0.1153629E-008  0.3860415E+03  0.7957747E-01  0.3425267E+00
         13   -1    0    0    0    0  0.00000000000E+00  0.00000000000E+00  0.14999999963E+04  0.15000000000E+04  0.10566000000E+00 0.  1.
        994   -1    0    0    0    0 -0.00000000000E+00 -0.00000000000E+00  0.11368683772E-12  0.17120000000E+03  0.17120000000E+03 0.  0.
         13    1    1    2    0    0  0.75954952394E+01  0.76112026239E+01  0.49805978222E+02  0.50953592454E+02  0.10566000000E+00 0.  1.
        994    1    1    2    0    0 -0.10586688617E+02 -0.11117337836E+02  0.18867401964E+01  0.17189727445E+03  0.17120000000E+03 0.  0.
        998    1    1    2    0    0  0.29911933773E+01  0.35061352122E+01  0.14483072779E+04  0.14483491331E+04  0.10000000000E+02 0.  1.
</event>
<event>
 5    1  0.1153629E-008  0.3777617E+03  0.7957747E-01  0.3460963E+00
         13   -1    0    0    0    0  0.00000000000E+00  0.00000000000E+00  0.14999999963E+04  0.15000000000E+04  0.10566000000E+00 0.  1.
        994   -1    0    0    0    0 -0.00000000000E+00 -0.00000000000E+00  0.11368683772E-12  0.17120000000E+03  0.17120000000E+03 0.  0.
         13    1    1    2    0    0  0.10375041777E+02 -0.15595215034E+02  0.30659125955E+02  0.35928336897E+02  0.10566000000E+00 0.  1.
        994    1    1    2    0    0 -0.10861329865E+02  0.14895023207E+02  0.64126349976E+01  0.17230900177E+03  0.17120000000E+03 0.  0.
        998    1    1    2    0    0  0.48628808753E+00  0.70019182703E+00  0.14629282353E+04  0.14629626613E+04  0.10000000000E+02 0.  1.
</event>
<event>
 5    1  0.1153629E-008  0.3799880E+03  0.7957747E-01  0.3451211E+00
         13   -1    0    0    0    0  0.00000000000E+00  0.00000000000E+00  0.14999999963E+04  0.15000000000E+04  0.10566000000E+00 0.  1.
        994   -1    0    0    0    0 -0.00000000000E+00 -0.00000000000E+00  0.11368683772E-12  0.17120000000E+03  0.17120000000E+03 0.  0.
         13    1    1    2    0    0 -0.87488437366E+01 -0.94067310776E+02  0.55304087817E+03  0.56105207005E+03  0.10566000000E+00 0.  1.
        994    1    1    2    0    0  0.66218492821E+01  0.10752747994E+03  0.43968614777E+02  0.20699924375E+03  0.17120000000E+03 0.  0.
        998    1    1    2    0    0  0.21269944545E+01 -0.13460169160E+02  0.90299050334E+03  0.90314868619E+03  0.10000000000E+02 0.  0.
</event>
<event>
 5    1  0.1441450E-008  0.3862502E+03  0.7957747E-01  0.3424387E+00
         13   -1    0    0    0    0  0.00000000000E+00  0.00000000000E+00  0.14999999963E+04  0.15000000000E+04  0.10566000000E+00 0.  1.
        994   -1    0    0    0    0 -0.00000000000E+00 -0.00000000000E+00  0.11368683772E-12  0.17120000000E+03  0.17120000000E+03 0.  0.
         13    1    1    2    0    0  0.97077275385E+01  0.74685863157E+01  0.72412947121E+02  0.73441581071E+02  0.10566000000E+00 0.  1.
        994    1    1    2    0    0 -0.78060273842E+01 -0.11111261490E+02  0.16148967277E+01  0.17174528258E+03  0.17120000000E+03 0.  0.
        998    1    1    2    0    0 -0.19017001543E+01  0.36426751743E+01  0.14259721524E+04  0.14260131364E+04  0.10000000000E+02 0.  1.
</event>
<event>
 5    1  0.1153629E-008  0.3809923E+03  0.7957747E-01  0.3446849E+00
         13   -1    0    0    0    0  0.00000000000E+00  0.00000000000E+00  0.14999999963E+04  0.15000000000E+04  0.10566000000E+00 0.  1.
        994   -1    0    0    0    0 -0.00000000000E+00 -0.00000000000E+00  0.11368683772E-12  0.17120000000E+03  0.17120000000E+03 0.  0.
         13    1    1    2    0    0 -0.14630211349E+02  0.34093580773E+01  0.29837269754E+02  0.33405697673E+02  0.10566000000E+00 0.  1.
        994    1    1    2    0    0  0.96974654801E+01  0.50993057641E+01  0.40331541544E+01  0.17159764010E+03  0.17120000000E+03 0.  0.
        998    1    1    2    0    0  0.49327458691E+01 -0.85086638414E+01  0.14661295724E+04  0.14661966622E+04  0.10000000000E+02 0.  1.
</event>
<event>
 5    1  0.1153629E-008  0.3974492E+03  0.7957747E-01  0.3378531E+00
         13   -1    0    0    0    0  0.00000000000E+00  0.00000000000E+00  0.14999999963E+04  0.15000000000E+04  0.10566000000E+00 0. -1.
        994   -1    0    0    0    0 -0.00000000000E+00 -0.00000000000E+00  0.11368683772E-12  0.17120000000E+03  0.17120000000E+03 0.  0.
         13    1    1    2    0    0  0.72958127716E+01  0.61477840566E+02  0.60981848033E+02  0.86899658908E+02  0.10566000000E+00 0. -1.
        994    1    1    2    0    0 -0.51915096606E+01 -0.64811602925E+02  0.42832453948E+02  0.18807326965E+03  0.17120000000E+03 0.  0.
        998    1    1    2    0    0 -0.21043031111E+01  0.33337623581E+01  0.13961856943E+04  0.13962270714E+04  0.10000000000E+02 0. -1.
</event>
<event>
 5    1  0.2531138E-008  0.3866102E+03  0.7957747E-01  0.3422872E+00
         13   -1    0    0    0    0  0.00000000000E+00  0.00000000000E+00  0.14999999963E+04  0.15000000000E+04  0.10566000000E+00 0.  1.
        994   -1    0    0    0    0 -0.00000000000E+00 -0.00000000000E+00  0.11368683772E-12  0.17120000000E+03  0.17120000000E+03 0.  0.
         13    1    1    2    0    0 -0.88680620085E+01  0.59522462447E+01  0.64616312539E+02  0.65493135284E+02  0.10566000000E+00 0.  1.
        994    1    1    2    0    0  0.10633656368E+02 -0.14249154025E+02  0.18676788815E+01  0.17213088410E+03  0.17120000000E+03 0.  0.
        998    1    1    2    0    0 -0.17655943592E+01  0.82969077806E+01  0.14335160049E+04  0.14335759806E+04  0.10000000000E+02 0.  1.
</event>
<event>
 5    1  0.1153629E-008  0.3841107E+03  0.7957747E-01  0.3433452E+00
         13   -1    0    0    0    0  0.00000000000E+00  0.00000000000E+00  0.14999999963E+04  0.15000000000E+04  0.10566000000E+00 0. -1.
        994   -1    0    0    0    0 -0.00000000000E+00 -0.00000000000E+00  0.11368683772E-12  0.17120000000E+03  0.17120000000E+03 0.  0.
         13    1    1    2    0    0 -0.96582924238E+01 -0.28206724390E+01  0.23875136953E+02  0.25908919972E+02  0.10566000000E+00 0. -1.
        994    1    1    2    0    0  0.66240416281E+01 -0.54751614312E+00  0.22180054100E+01  0.17134333150E+03  0.17120000000E+03 0.  0.
        998    1    1    2    0    0  0.30342507957E+01  0.33681885821E+01  0.14739068539E+04  0.14739477485E+04  0.10000000000E+02 0. -1.
</event>
<event>
 5    1  0.1153629E-008  0.3705251E+03  0.7957747E-01  0.3493481E+00
         13   -1    0    0    0    0  0.00000000000E+00  0.00000000000E+00  0.14999999963E+04  0.15000000000E+04  0.10566000000E+00 0.  1.
        994   -1    0    0    0    0 -0.00000000000E+00 -0.00000000000E+00  0.11368683772E-12  0.17120000000E+03  0.17120000000E+03 0.  0.
         13    1    1    2    0    0 -0.12437880235E+02  0.39440442366E+02  0.91814998884E+02  0.10069883089E+03  0.10566000000E+00 0.  1.
        994    1    1    2    0    0  0.45417497840E+00 -0.27336845354E+02  0.11579132992E+02  0.17375564943E+03  0.17120000000E+03 0.  0.
        998    1    1    2    0    0  0.11983705256E+02 -0.12103597012E+02  0.13966058644E+04  0.13967455197E+04  0.10000000000E+02 0.  1.
</event>
<event>
 5    1  0.1387503E-008  0.3851082E+03  0.7957747E-01  0.3429213E+00
         13   -1    0    0    0    0  0.00000000000E+00  0.00000000000E+00  0.14999999963E+04  0.15000000000E+04  0.10566000000E+00 0. -1.
        994   -1    0    0    0    0 -0.00000000000E+00 -0.00000000000E+00  0.11368683772E-12  0.17120000000E+03  0.17120000000E+03 0.  0.
         13    1    1    2    0    0  0.10537220424E+02  0.36571008340E+01  0.39509914827E+02  0.41054255984E+02  0.10566000000E+00 0. -1.
        994    1    1    2    0    0 -0.64732139563E+01 -0.22409707936E+01  0.17306925943E+01  0.17134573162E+03  0.17120000000E+03 0.  0.
        998    1    1    2    0    0 -0.40640064676E+01 -0.14161300405E+01  0.14587593889E+04  0.14588000124E+04  0.10000000000E+02 0. -1.
</event>
<event>
 5    1  0.1153629E-008  0.3778879E+03  0.7957747E-01  0.3460407E+00
         13   -1    0    0    0    0  0.00000000000E+00  0.00000000000E+00  0.14999999963E+04  0.15000000000E+04  0.10566000000E+00 0. -1.
        994   -1    0    0    0    0 -0.00000000000E+00 -0.00000000000E+00  0.11368683772E-12  0.17120000000E+03  0.17120000000E+03 0.  0.
         13    1    1    2    0    0  0.17375067494E+01  0.17581895374E+02  0.26410188273E+02  0.31775008785E+02  0.10566000000E+00 0. -1.
        994    1    1    2    0    0  0.55616768928E+01 -0.31947999506E+02  0.87514253920E+01  0.17446384831E+03  0.17120000000E+03 0.  0.
        998    1    1    2    0    0 -0.72991836421E+01  0.14366104131E+02  0.14648383826E+04  0.14649611429E+04  0.10000000000E+02 0. -1.
</event>
<event>
 5    1  0.1153629E-008  0.3827913E+03  0.7957747E-01  0.3439094E+00
         13   -1    0    0    0    0  0.00000000000E+00  0.00000000000E+00  0.14999999963E+04  0.15000000000E+04  0.10566000000E+00 0. -1.
        994   -1    0    0    0    0 -0.00000000000E+00 -0.00000000000E+00  0.11368683772E-12  0.17120000000E+03  0.17120000000E+03 0.  0.
         13    1    1    2    0    0  0.18344272452E+02 -0.30240605613E+01  0.60231254899E+02  0.63035486076E+02  0.10566000000E+00 0. -1.
        994    1    1    2    0    0 -0.19655105633E+02  0.12954911701E+01  0.40169579006E+01  0.17237626700E+03  0.17120000000E+03 0.  0.
        998    1    1    2    0    0  0.13108331806E+01  0.17285693912E+01  0.14357517835E+04  0.14357882469E+04  0.10000000000E+02 0. -1.
</event>
<event>
 5    1  0.1153629E-008  0.3832066E+03  0.7957747E-01  0.3437314E+00
         13   -1    0    0    0    0  0.00000000000E+00  0.00000000000E+00  0.14999999963E+04  0.15000000000E+04  0.10566000000E+00 0. -1.
        994   -1    0    0    0    0 -0.00000000000E+00 -0.00000000000E+00  0.11368683772E-12  0.17120000000E+03  0.17120000000E+03 0.  0.
         13    1    1    2    0    0 -0.21112869633E+02  0.15057818116E+02  0.12203487270E+03  0.12475981913E+03  0.10566000000E+00 0. -1.
        994    1    1    2    0    0  0.19591195511E+02 -0.20049049735E+02  0.51267545951E+01  0.17355547514E+03  0.17120000000E+03 0.  0.
        998    1    1    2    0    0  0.15216741221E+01  0.49912316190E+01  0.13728383690E+04  0.13728847057E+04  0.10000000000E+02 0. -1.
</event>
<event>
 5    1  0.1153629E-008  0.3809409E+03  0.7957747E-01  0.3447072E+00
         13   -1    0    0    0    0  0.00000000000E+00  0.00000000000E+00  0.14999999963E+04  0.15000000000E+04  0.10566000000E+00 0.  1.
        994   -1    0    0    0    0 -0.00000000000E+00 -0.00000000000E+00  0.11368683772E-12  0.17120000000E+03  0.17120000000E+03 0.  0.
         13    1    1    2    0    0  0.18816721872E+02 -0.65824503853E+01  0.51521180712E+02  0.55243469307E+02  0.10566000000E+00 0.  1.
        994    1    1    2    0    0 -0.25521470567E+02 -0.11908048252E+02  0.63066201074E+01  0.17361555383E+03  0.17120000000E+03 0.  0.
        998    1    1    2    0    0  0.67047486952E+01  0.18490498637E+02  0.14421721955E+04  0.14423409769E+04  0.10000000000E+02 0.  1.
</event>
<event>
 5    1  0.1153629E-008  0.3751577E+03  0.7957747E-01  0.3472518E+00
         13   -1    0    0    0    0  0.00000000000E+00  0.00000000000E+00  0.14999999963E+04  0.15000000000E+04  0.10566000000E+00 0. -1.
        994   -1    0    0    0    0 -0.00000000000E+00 -0.00000000000E+00  0.11368683772E-12  0.17120000000E+03  0.17120000000E+03 0.  0.
         13    1    1    2    0    0 -0.23048037387E+02  0.18713630834E+02  0.24994354075E+02  0.38809031243E+02  0.10566000000E+00 0. -1.
        994    1    1    2    0    0  0.40181360720E+02 -0.24758954942E+02  0.21665964716E+02  0.17890333039E+03  0.17120000000E+03 0.  0.
        998    1    1    2    0    0 -0.17133323333E+02  0.60453241085E+01  0.14533396775E+04  0.14534876384E+04  0.10000000000E+02 0. -1.
</event>
<event>
 5    1  0.1153629E-008  0.3709156E+03  0.7957747E-01  0.3491693E+00
         13   -1    0    0    0    0  0.00000000000E+00  0.00000000000E+00  0.14999999963E+04  0.15000000000E+04  0.10566000000E+00 0. -1.
        994   -1    0    0    0    0 -0.00000000000E+00 -0.00000000000E+00  0.11368683772E-12  0.17120000000E+03  0.17120000000E+03 0.  0.
         13    1    1    2    0    0  0.27987428573E+01 -0.25575451033E+02  0.24974263831E+02  0.35856124653E+02  0.10566000000E+00 0. -1.
        994    1    1    2    0    0 -0.48041618897E+02 -0.18876465279E+01  0.19575321998E+02  0.17889715925E+03  0.17120000000E+03 0.  0.
        998    1    1    2    0    0  0.45242876040E+02  0.27463097561E+02  0.14554504104E+04  0.14564467161E+04  0.10000000000E+02 0. -1.
</event>
<event>
 5    1  0.1153629E-008  0.3857068E+03  0.7957747E-01  0.3426680E+00
         13   -1    0    0    0    0  0.00000000000E+00  0.00000000000E+00  0.14999999963E+04  0.15000000000E+04  0.10566000000E+00 0. -1.
        994   -1    0    0    0    0 -0.00000000000E+00 -0.00000000000E+00  0.11368683772E-12  0.17120000000E+03  0.17120000000E+03 0.  0.
         13    1    1    2    0    0 -0.20071222603E+01 -0.12473546693E+02  0.63403920256E+02  0.64650492455E+02  0.10566000000E+00 0. -1.
        994    1    1    2    0    0  0.24036723718E+01  0.68389401687E+01  0.14520789702E+01  0.17135955555E+03  0.17120000000E+03 0.  0.
        998    1    1    2    0    0 -0.39655011152E+00  0.56346065238E+01  0.14351439971E+04  0.14351899520E+04  0.10000000000E+02 0. -1.
</event>
<event>
 5    1  0.1153629E-008  0.3736487E+03  0.7957747E-01  0.3479288E+00
         13   -1    0    0    0    0  0.00000000000E+00  0.00000000000E+00  0.14999999963E+04  0.15000000000E+04  0.10566000000E+00 0.  1.
        994   -1    0    0    0    0 -0.00000000000E+00 -0.00000000000E+00  0.11368683772E-12  0.17120000000E+03  0.17120000000E+03 0.  0.
         13    1    1    2    0    0  0.18872248227E+02  0.67496362226E+02  0.21518351309E+03  0.22630924890E+03  0.10566000000E+00 0.  1.
        994    1    1    2    0    0 -0.39932493057E+02 -0.30038058082E+01  0.18581682438E+02  0.17680029913E+03  0.17120000000E+03 0.  0.
        998    1    1    2    0    0  0.21060244830E+02 -0.64492556418E+02  0.12662348007E+04  0.12680904520E+04  0.10000000000E+02 0.  1.
</event>
<event>
 5    1  0.1153629E-008  0.3822967E+03  0.7957747E-01  0.3441219E+00
         13   -1    0    0    0    0  0.00000000000E+00  0.00000000000E+00  0.14999999963E+04  0.15000000000E+04  0.10566000000E+00 0.  1.
        994   -1    0    0    0    0 -0.00000000000E+00 -0.00000000000E+00  0.11368683772E-12  0.17120000000E+03  0.17120000000E+03 0.  0.
         13    1    1    2    0    0 -0.12128450323E+02 -0.11083329199E+02  0.48422620065E+02  0.51134145064E+02  0.10566000000E+00 0.  1.
        994    1    1    2    0    0 -0.95894657013E+00 -0.13602796569E+02  0.35954649179E+01  0.17177986792E+03  0.17120000000E+03 0.  0.
        998    1    1    2    0    0  0.13087396893E+02  0.24686125768E+02  0.14479819113E+04  0.14482859870E+04  0.10000000000E+02 0.  1.
</event>
<event>
 5    1  0.1153629E-008  0.3831615E+03  0.7957747E-01  0.3437507E+00
         13   -1    0    0    0    0  0.00000000000E+00  0.00000000000E+00  0.14999999963E+04  0.15000000000E+04  0.10566000000E+00 0.  1.
        994   -1    0    0    0    0 -0.00000000000E+00 -0.00000000000E+00  0.11368683772E-12  0.17120000000E+03  0.17120000000E+03 0.  0.
         13    1    1    2    0    0  0.33817292669E+01 -0.27960287653E+02  0.15471514665E+03  0.15725775512E+03  0.10566000000E+00 0.  1.
        994    1    1    2    0    0  0.30830058218E+01  0.17621874021E+02  0.36051694104E+01  0.17216989463E+03  0.17120000000E+03 0.  0.
        998    1    1    2    0    0 -0.64647350887E+01  0.10338413633E+02  0.13416796802E+04  0.13417723503E+04  0.10000000000E+02 0.  1.
</event>
<event>
 5    1  0.1153629E-008  0.3808877E+03  0.7957747E-01  0.3447302E+00
         13   -1    0    0    0    0  0.00000000000E+00  0.00000000000E+00  0.14999999963E+04  0.15000000000E+04  0.10566000000E+00 0.  1.
        994   -1    0    0    0    0 -0.00000000000E+00 -0.00000000000E+00  0.11368683772E-12  0.17120000000E+03  0.17120000000E+03 0.  0.
         13    1    1    2    0    0  0.10288789713E+02  0.11961868580E+02  0.31901627187E+02  0.35590314341E+02  0.10566000000E+00 0.  1.
        994    1    1    2    0    0 -0.65277875509E+01 -0.14185738776E+02  0.44989210125E+01  0.17196955395E+03  0.17120000000E+03 0.  0.
        998    1    1    2    0    0 -0.37610021621E+01  0.22238701959E+01  0.14635994481E+04  0.14636401317E+04  0.10000000000E+02 0.  1.
</event>
<event>
 5    1  0.1153629E-008  0.2650437E+03  0.7957747E-01  0.4182223E+00
         13   -1    0    0    0    0  0.00000000000E+00  0.00000000000E+00  0.14999999963E+04  0.15000000000E+04  0.10566000000E+00 0.  1.
        994   -1    0    0    0    0 -0.00000000000E+00 -0.00000000000E+00  0.11368683772E-12  0.17120000000E+03  0.17120000000E+03 0.  0.
         13    1    1    2    0    0  0.11973010317E+03 -0.75909472010E+02  0.60015493534E+03  0.61667130882E+03  0.10566000000E+00 0.  1.
        994    1    1    2    0    0 -0.42124200959E+02 -0.16358035613E+02  0.34031991553E+02  0.18030432631E+03  0.17120000000E+03 0.  0.
        998    1    1    2    0    0 -0.77605902208E+02  0.92267507623E+02  0.86581306939E+03  0.87422436487E+03  0.10000000000E+02 0.  1.
</event>
<event>
 5    1  0.1153629E-008  0.3743251E+03  0.7957747E-01  0.3476247E+00
         13   -1    0    0    0    0  0.00000000000E+00  0.00000000000E+00  0.14999999963E+04  0.15000000000E+04  0.10566000000E+00 0. -1.
        994   -1    0    0    0    0 -0.00000000000E+00 -0.00000000000E+00  0.11368683772E-12  0.17120000000E+03  0.17120000000E+03 0.  0.
         13    1    1    2    0    0  0.54763353941E+01 -0.15288903522E+02  0.15447522448E+02  0.22413788927E+02  0.10566000000E+00 0. -1.
        994    1    1    2    0    0 -0.71473616822E+01  0.17153920680E+02  0.82031630088E+01  0.17240090968E+03  0.17120000000E+03 0.  0.
        998    1    1    2    0    0  0.16710262881E+01 -0.18650171580E+01  0.14763493108E+04  0.14763853014E+04  0.10000000000E+02 0. -1.
</event>
<event>
 5    1  0.1153629E-008  0.3795068E+03  0.7957747E-01  0.3453309E+00
         13   -1    0    0    0    0  0.00000000000E+00  0.00000000000E+00  0.14999999963E+04  0.15000000000E+04  0.10566000000E+00 0.  1.
        994   -1    0    0    0    0 -0.00000000000E+00 -0.00000000000E+00  0.11368683772E-12  0.17120000000E+03  0.17120000000E+03 0.  0.
         13    1    1    2    0    0  0.24597077048E+02 -0.98333816990E+01  0.84463267281E+02  0.88519863753E+02  0.10566000000E+00 0.  1.
        994    1    1    2    0    0  0.91962687850E+01  0.26406519403E+02  0.70047280621E+01  0.17360985526E+03  0.17120000000E+03 0.  0.
        998    1    1    2    0    0 -0.33793345833E+02 -0.16573137704E+02  0.14085320009E+04  0.14090702810E+04  0.10000000000E+02 0.  1.
</event>
<event>
 5    1  0.1153629E-008  0.3750437E+03  0.7957747E-01  0.3473027E+00
         13   -1    0    0    0    0  0.00000000000E+00  0.00000000000E+00  0.14999999963E+04  0.15000000000E+04  0.10566000000E+00 0. -1.
        994   -1    0    0    0    0 -0.00000000000E+00 -0.00000000000E+00  0.11368683772E-12  0.17120000000E+03  0.17120000000E+03 0.  0.
         13    1    1    2    0    0  0.33962915426E+02  0.50646129843E+02  0.24298579063E+03  0.25052068917E+03  0.10566000000E+00 0. -1.
        994    1    1    2    0    0 -0.16453766603E+02 -0.55668961040E+02  0.18196571029E+02  0.18168740973E+03  0.17120000000E+03 0.  0.
        998    1    1    2    0    0 -0.17509148823E+02  0.50228311970E+01  0.12388176346E+04  0.12389919011E+04  0.10000000000E+02 0. -1.
</event>
<event>
 5    1  0.1153629E-008  0.3846126E+03  0.7957747E-01  0.3431317E+00
         13   -1    0    0    0    0  0.00000000000E+00  0.00000000000E+00  0.14999999963E+04  0.15000000000E+04  0.10566000000E+00 0. -1.
        994   -1    0    0    0    0 -0.00000000000E+00 -0.00000000000E+00  0.11368683772E-12  0.17120000000E+03  0.17120000000E+03 0.  0.
         13    1    1    2    0    0  0.13294198844E+02 -0.12174511557E+02  0.82104265779E+02  0.84059955256E+02  0.10566000000E+00 0. -1.
        994    1    1    2    0    0 -0.15578686038E+02  0.18073605900E+02  0.36996015220E+01  0.17289441211E+03  0.17120000000E+03 0.  0.
        998    1    1    2    0    0  0.22844871942E+01 -0.58990943436E+01  0.14141961290E+04  0.14142456326E+04  0.10000000000E+02 0. -1.
</event>
<event>
 5    1  0.1153629E-008  0.3689055E+03  0.7957747E-01  0.3500936E+00
         13   -1    0    0    0    0  0.00000000000E+00  0.00000000000E+00  0.14999999963E+04  0.15000000000E+04  0.10566000000E+00 0.  1.
        994   -1    0    0    0    0 -0.00000000000E+00 -0.00000000000E+00  0.11368683772E-12  0.17120000000E+03  0.17120000000E+03 0.  0.
         13    1    1    2    0    0 -0.51920360500E+01 -0.76596451608E+02  0.25842137581E+03  0.26958410984E+03  0.10566000000E+00 0.  1.
        994    1    1    2    0    0  0.16341825515E+00  0.68405615505E+02  0.26263726971E+02  0.18622185235E+03  0.17120000000E+03 0.  0.
        998    1    1    2    0    0  0.50286177949E+01  0.81908361033E+01  0.12153148935E+04  0.12153940378E+04  0.10000000000E+02 0.  1.
</event>
<event>
 5    1  0.1153629E-008  0.3730118E+03  0.7957747E-01  0.3482163E+00
         13   -1    0    0    0    0  0.00000000000E+00  0.00000000000E+00  0.14999999963E+04  0.15000000000E+04  0.10566000000E+00 0. -1.
        994   -1    0    0    0    0 -0.00000000000E+00 -0.00000000000E+00  0.11368683772E-12  0.17120000000E+03  0.17120000000E+03 0.  0.
         13    1    1    2    0    0  0.19443938613E+02  0.11486299713E+02  0.29960426892E+02  0.37518531067E+02  0.10566000000E+00 0. -1.
        994    1    1    2    0    0 -0.11178483472E+02 -0.10929029438E+02  0.85400914851E+01  0.17212430200E+03  0.17120000000E+03 0.  0.
        998    1    1    2    0    0 -0.82654551410E+01 -0.55727027493E+00  0.14614994779E+04  0.14615571669E+04  0.10000000000E+02 0. -1.
</event>
<event>
 5    1  0.1153629E-008  0.2630985E+03  0.7957747E-01  0.4200670E+00
         13   -1    0    0    0    0  0.00000000000E+00  0.00000000000E+00  0.14999999963E+04  0.15000000000E+04  0.10566000000E+00 0. -1.
        994   -1    0    0    0    0 -0.00000000000E+00 -0.00000000000E+00  0.11368683772E-12  0.17120000000E+03  0.17120000000E+03 0.  0.
         13    1    1    2    0    0  0.89809765072E+01  0.17030222578E+03  0.40746873037E+03  0.44171742488E+03  0.10566000000E+00 0. -1.
        994    1    1    2    0    0 -0.61608910491E+02 -0.15890602997E+03  0.14786888006E+03  0.28323387845E+03  0.17120000000E+03 0.  0.
        998    1    1    2    0    0  0.52627933983E+02 -0.11396195806E+02  0.94466238585E+03  0.94624869667E+03  0.10000000000E+02 0. -1.
</event>
<event>
 5    1  0.1153629E-008  0.3807515E+03  0.7957747E-01  0.3447893E+00
         13   -1    0    0    0    0  0.00000000000E+00  0.00000000000E+00  0.14999999963E+04  0.15000000000E+04  0.10566000000E+00 0. -1.
        994   -1    0    0    0    0 -0.00000000000E+00 -0.00000000000E+00  0.11368683772E-12  0.17120000000E+03  0.17120000000E+03 0.  0.
         13    1    1    2    0    0 -0.35738890317E+02  0.25369678937E+02  0.23161762959E+03  0.23572786511E+03  0.10566000000E+00 0. -1.
        994    1    1    2    0    0  0.36467311050E+02 -0.12153214216E+02  0.86971382177E+01  0.17567767532E+03  0.17120000000E+03 0.  0.
        998    1    1    2    0    0 -0.72842073267E+00 -0.13216464720E+02  0.12596852285E+04  0.12597944596E+04  0.10000000000E+02 0. -1.
</event>
<event>
 5    1  0.1153629E-008  0.3812268E+03  0.7957747E-01  0.3445834E+00
         13   -1    0    0    0    0  0.00000000000E+00  0.00000000000E+00  0.14999999963E+04  0.15000000000E+04  0.10566000000E+00 0.  1.
        994   -1    0    0    0    0 -0.00000000000E+00 -0.00000000000E+00  0.11368683772E-12  0.17120000000E+03  0.17120000000E+03 0.  0.
         13    1    1    2    0    0  0.12472032708E+02  0.74646365898E+01  0.29046763020E+02  0.32480732831E+02  0.10566000000E+00 0.  1.
        994    1    1    2    0    0 -0.69989920102E+01 -0.28669948051E+00  0.36785350195E+01  0.17138272873E+03  0.17120000000E+03 0.  0.
        998    1    1    2    0    0 -0.54730406976E+01 -0.71779371093E+01  0.14672746982E+04  0.14673365384E+04  0.10000000000E+02 0.  1.
</event>
<event>
 5    1  0.1153629E-008  0.3737573E+03  0.7957747E-01  0.3478799E+00
         13   -1    0    0    0    0  0.00000000000E+00  0.00000000000E+00  0.14999999963E+04  0.15000000000E+04  0.10566000000E+00 0. -1.
        994   -1    0    0    0    0 -0.00000000000E+00 -0.00000000000E+00  0.11368683772E-12  0.17120000000E+03  0.17120000000E+03 0.  0.
         13    1    1    2    0    0 -0.38243424146E+02  0.23271371162E+02  0.12242101897E+03  0.13034965767E+03  0.10566000000E+00 0. -1.
        994    1    1    2    0    0  0.47865386448E+02 -0.13662122937E+02  0.15823686628E+02  0.17899044075E+03  0.17120000000E+03 0.  0.
        998    1    1    2    0    0 -0.96219623026E+01 -0.96092482250E+01  0.13617552907E+04  0.13618599016E+04  0.10000000000E+02 0. -1.
</event>
<event>
 5    1  0.1153629E-008  0.3851616E+03  0.7957747E-01  0.3428987E+00
         13   -1    0    0    0    0  0.00000000000E+00  0.00000000000E+00  0.14999999963E+04  0.15000000000E+04  0.10566000000E+00 0. -1.
        994   -1    0    0    0    0 -0.00000000000E+00 -0.00000000000E+00  0.11368683772E-12  0.17120000000E+03  0.17120000000E+03 0.  0.
         13    1    1    2    0    0  0.23085017852E+01 -0.12150774337E+02  0.46654546250E+02  0.48266223670E+02  0.10566000000E+00 0. -1.
        994    1    1    2    0    0 -0.61879041323E+01  0.17766539189E+02  0.27141844654E+01  0.17225198655E+03  0.17120000000E+03 0.  0.
        998    1    1    2    0    0  0.38794023471E+01 -0.56157648519E+01  0.14506312656E+04  0.14506817898E+04  0.10000000000E+02 0. -1.
</event>
<event>
 5    1  0.1292716E-008  0.3855083E+03  0.7957747E-01  0.3427520E+00
         13   -1    0    0    0    0  0.00000000000E+00  0.00000000000E+00  0.14999999963E+04  0.15000000000E+04  0.10566000000E+00 0.  1.
        994   -1    0    0    0    0 -0.00000000000E+00 -0.00000000000E+00  0.11368683772E-12  0.17120000000E+03  0.17120000000E+03 0.  0.
         13    1    1    2    0    0 -0.12526843339E+02 -0.19798618718E+01  0.64362030751E+02  0.65599724264E+02  0.10566000000E+00 0.  1.
        994    1    1    2    0    0 -0.53614948596E+01  0.24745135171E+01  0.14925017567E+01  0.17130830805E+03  0.17120000000E+03 0.  0.
        998    1    1    2    0    0  0.17888338199E+02 -0.49465164523E+00  0.14341454638E+04  0.14342919677E+04  0.10000000000E+02 0.  1.
</event>
<event>
 5    1  0.1153629E-008  0.3779078E+03  0.7957747E-01  0.3460319E+00
         13   -1    0    0    0    0  0.00000000000E+00  0.00000000000E+00  0.14999999963E+04  0.15000000000E+04  0.10566000000E+00 0.  1.
        994   -1    0    0    0    0 -0.00000000000E+00 -0.00000000000E+00  0.11368683772E-12  0.17120000000E+03  0.17120000000E+03 0.  0.
         13    1    1    2    0    0  0.95209946639E+01  0.91081944317E+01  0.13863562485E+02  0.19126371167E+02  0.10566000000E+00 0.  1.
        994    1    1    2    0    0 -0.31075422799E+02 -0.54640279347E+01  0.85514986155E+01  0.17429316003E+03  0.17120000000E+03 0.  0.
        998    1    1    2    0    0  0.21554428135E+02 -0.36441664970E+01  0.14775849352E+04  0.14777804688E+04  0.10000000000E+02 0.  1.
</event>
<event>
 5    1  0.1153629E-008  0.3843847E+03  0.7957747E-01  0.3432286E+00
         13   -1    0    0    0    0  0.00000000000E+00  0.00000000000E+00  0.14999999963E+04  0.15000000000E+04  0.10566000000E+00 0.  1.
        994   -1    0    0    0    0 -0.00000000000E+00 -0.00000000000E+00  0.11368683772E-12  0.17120000000E+03  0.17120000000E+03 0.  0.
         13    1    1    2    0    0  0.75484241811E+01  0.99664337967E+01  0.37858581431E+02  0.39869686006E+02  0.10566000000E+00 0.  1.
        994    1    1    2    0    0 -0.93239165361E+01 -0.18710280481E+02  0.33773168254E+01  0.17250465583E+03  0.17120000000E+03 0.  0.
        998    1    1    2    0    0  0.17754923550E+01  0.87438466847E+01  0.14587640980E+04  0.14588256582E+04  0.10000000000E+02 0.  1.
</event>
<event>
 5    1  0.1153629E-008  0.3737404E+03  0.7957747E-01  0.3478875E+00
         13   -1    0    0    0    0  0.00000000000E+00  0.00000000000E+00  0.14999999963E+04  0.15000000000E+04  0.10566000000E+00 0. -1.
        994   -1    0    0    0    0 -0.00000000000E+00 -0.00000000000E+00  0.11368683772E-12  0.17120000000E+03  0.17120000000E+03 0.  0.
         13    1    1    2    0    0  0.24164554520E+02  0.66200100166E+02  0.29452144920E+03  0.30283539119E+03  0.10566000000E+00 0. -1.
        994    1    1    2    0    0 -0.89930807897E+01 -0.60022139358E+02  0.20007553263E+02  0.18273826885E+03  0.17120000000E+03 0.  0.
        998    1    1    2    0    0 -0.15171473730E+02 -0.61779608085E+01  0.11854709938E+04  0.11856263400E+04  0.10000000000E+02 0. -1.
</event>
<event>
 5    1  0.1153629E-008  0.3850824E+03  0.7957747E-01  0.3429323E+00
         13   -1    0    0    0    0  0.00000000000E+00  0.00000000000E+00  0.14999999963E+04  0.15000000000E+04  0.10566000000E+00 0. -1.
        994   -1    0    0    0    0 -0.00000000000E+00 -0.00000000000E+00  0.11368683772E-12  0.17120000000E+03  0.17120000000E+03 0.  0.
         13    1    1    2    0    0 -0.13017714964E+02 -0.56662663175E+01  0.61614689199E+02  0.63229333114E+02  0.10566000000E+00 0. -1.
        994    1    1    2    0    0  0.11346095946E+02  0.94770495354E+01  0.23080842453E+01  0.17185259851E+03  0.17120000000E+03 0.  0.
        998    1    1    2    0    0  0.16716190183E+01 -0.38107832179E+01  0.14360772228E+04  0.14361180684E+04  0.10000000000E+02 0. -1.
</event>
<event>
 5    1  0.1514578E-008  0.3861772E+03  0.7957747E-01  0.3424695E+00
         13   -1    0    0    0    0  0.00000000000E+00  0.00000000000E+00  0.14999999963E+04  0.15000000000E+04  0.10566000000E+00 0.  1.
        994   -1    0    0    0    0 -0.00000000000E+00 -0.00000000000E+00  0.11368683772E-12  0.17120000000E+03  0.17120000000E+03 0.  0.
         13    1    1    2    0    0 -0.12047594089E+02  0.24113518958E+01  0.70726011068E+02  0.71785367220E+02  0.10566000000E+00 0.  1.
        994    1    1    2    0    0  0.12870946141E+02  0.14983432996E+01  0.15970726471E+01  0.17169710810E+03  0.17120000000E+03 0.  0.
        998    1    1    2    0    0 -0.82335205200E+00 -0.39096951954E+01  0.14276769126E+04  0.14277175247E+04  0.10000000000E+02 0.  1.
</event>
<event>
 5    1  0.1153629E-008  0.3783399E+03  0.7957747E-01  0.3458419E+00
         13   -1    0    0    0    0  0.00000000000E+00  0.00000000000E+00  0.14999999963E+04  0.15000000000E+04  0.10566000000E+00 0. -1.
        994   -1    0    0    0    0 -0.00000000000E+00 -0.00000000000E+00  0.11368683772E-12  0.17120000000E+03  0.17120000000E+03 0.  0.
         13    1    1    2    0    0 -0.22063657855E+02 -0.38999919866E+02  0.26176626106E+03  0.26557369098E+03  0.10566000000E+00 0. -1.
        994    1    1    2    0    0 -0.46772244650E+02  0.24540122186E+02  0.14409129224E+02  0.17974126814E+03  0.17120000000E+03 0.  0.
        998    1    1    2    0    0  0.68835902505E+02  0.14459797680E+02  0.12238246060E+04  0.12258850409E+04  0.10000000000E+02 0. -1.
</event>
<event>
 5    1  0.1153629E-008  0.3842885E+03  0.7957747E-01  0.3432695E+00
         13   -1    0    0    0    0  0.00000000000E+00  0.00000000000E+00  0.14999999963E+04  0.15000000000E+04  0.10566000000E+00 0. -1.
        994   -1    0    0    0    0 -0.00000000000E+00 -0.00000000000E+00  0.11368683772E-12  0.17120000000E+03  0.17120000000E+03 0.  0.
         13    1    1    2    0    0  0.16951155499E+02  0.14497867651E+02  0.12615419918E+03  0.12811097913E+03  0.10566000000E+00 0. -1.
        994    1    1    2    0    0 -0.84097740518E+01 -0.97245462981E+01  0.25288311452E+01  0.17170068750E+03  0.17120000000E+03 0.  0.
        998    1    1    2    0    0 -0.85413814476E+01 -0.47733213531E+01  0.13713169659E+04  0.13713883334E+04  0.10000000000E+02 0. -1.
</event>
<event>
 5    1  0.1153629E-008  0.3748875E+03  0.7957747E-01  0.3473726E+00
         13   -1    0    0    0    0  0.00000000000E+00  0.00000000000E+00  0.14999999963E+04  0.15000000000E+04  0.10566000000E+00 0. -1.
        994   -1    0    0    0    0 -0.00000000000E+00 -0.00000000000E+00  0.11368683772E-12  0.17120000000E+03  0.17120000000E+03 0.  0.
         13    1    1    2    0    0  0.33644463341E+02  0.42549307448E+01  0.82108633747E+02  0.88836328431E+02  0.10566000000E+00 0. -1.
        994    1    1    2    0    0 -0.24505150555E+02  0.46802079948E+01  0.88558779419E+01  0.17323473475E+03  0.17120000000E+03 0.  0.
        998    1    1    2    0    0 -0.91393127861E+01 -0.89351387396E+01  0.14090354846E+04  0.14091289368E+04  0.10000000000E+02 0. -1.
</event>
<event>
 5    1  0.1153629E-008  0.3845643E+03  0.7957747E-01  0.3431522E+00
         13   -1    0    0    0    0  0.00000000000E+00  0.00000000000E+00  0.14999999963E+04  0.15000000000E+04  0.10566000000E+00 0. -1.
        994   -1    0    0    0    0 -0.00000000000E+00 -0.00000000000E+00  0.11368683772E-12  0.17120000000E+03  0.17120000000E+03 0.  0.
         13    1    1    2    0    0 -0.98652194989E+00  0.10227269349E+02  0.28189334780E+02  0.30003666830E+02  0.10566000000E+00 0. -1.
        994    1    1    2    0    0  0.21888174440E+01 -0.66467522847E+01  0.20079245259E+01  0.17135472564E+03  0.17120000000E+03 0.  0.
        998    1    1    2    0    0 -0.12022954941E+01 -0.35805170645E+01  0.14698027370E+04  0.14698416075E+04  0.10000000000E+02 0. -1.
</event>
<event>
 5    1  0.1153629E-008  0.3807957E+03  0.7957747E-01  0.3447701E+00
         13   -1    0    0    0    0  0.00000000000E+00  0.00000000000E+00  0.14999999963E+04  0.15000000000E+04  0.10566000000E+00 0.  1.
        994   -1    0    0    0    0 -0.00000000000E+00 -0.00000000000E+00  0.11368683772E-12  0.17120000000E+03  0.17120000000E+03 0.  0.
         13    1    1    2    0    0  0.12278203138E+02 -0.30895017020E+02  0.16724271056E+03  0.17051507777E+03  0.10566000000E+00 0.  1.
        994    1    1    2    0    0 -0.63360718600E+01 -0.97552027262E+00  0.38690455230E+01  0.17136366873E+03  0.17120000000E+03 0.  0.
        998    1    1    2    0    0 -0.59421312778E+01  0.31870537293E+02  0.13288882402E+04  0.13293212535E+04  0.10000000000E+02 0.  1.
</event>
<event>
 5    1  0.1153629E-008  0.3777112E+03  0.7957747E-01  0.3461186E+00
         13   -1    0    0    0    0  0.00000000000E+00  0.00000000000E+00  0.14999999963E+04  0.15000000000E+04  0.10566000000E+00 0.  1.
        994   -1    0    0    0    0 -0.00000000000E+00 -0.00000000000E+00  0.11368683772E-12  0.17120000000E+03  0.17120000000E+03 0.  0.
         13    1    1    2    0    0  0.13079631288E+03  0.49323355969E+01  0.73717932805E+03  0.74870913996E+03  0.10566000000E+00 0.  1.
        994    1    1    2    0    0 -0.13372261068E+03 -0.23172131403E+02  0.70081219700E+02  0.22943300032E+03  0.17120000000E+03 0.  0.
        998    1    1    2    0    0  0.29262977950E+01  0.18239795806E+02  0.69273944853E+03  0.69305785972E+03  0.10000000000E+02 0.  1.
</event>
<event>
 5    1  0.1153629E-008  0.3822114E+03  0.7957747E-01  0.3441586E+00
         13   -1    0    0    0    0  0.00000000000E+00  0.00000000000E+00  0.14999999963E+04  0.15000000000E+04  0.10566000000E+00 0.  1.
        994   -1    0    0    0    0 -0.00000000000E+00 -0.00000000000E+00  0.11368683772E-12  0.17120000000E+03  0.17120000000E+03 0.  0.
         13    1    1    2    0    0 -0.24918800362E+01  0.10507666327E+02  0.18071638526E+02  0.21052691059E+02  0.10566000000E+00 0.  1.
        994    1    1    2    0    0  0.47531520158E+01 -0.72880255240E+01  0.32722935505E+01  0.17145219647E+03  0.17120000000E+03 0.  0.
        998    1    1    2    0    0 -0.22612719796E+01 -0.32196408034E+01  0.14786560642E+04  0.14786951125E+04  0.10000000000E+02 0.  1.
</event>
<event>
 5    1  0.1153629E-008  0.3849202E+03  0.7957747E-01  0.3430011E+00
         13   -1    0    0    0    0  0.00000000000E+00  0.00000000000E+00  0.14999999963E+04  0.15000000000E+04  0.10566000000E+00 0. -1.
        994   -1    0    0    0    0 -0.00000000000E+00 -0.00000000000E+00  0.11368683772E-12  0.17120000000E+03  0.17120000000E+03 0.  0.
         13    1    1    2    0    0  0.14899325062E+02  0.92505975817E+01  0.87791920314E+02  0.89526509367E+02  0.10566000000E+00 0. -1.
        994    1    1    2    0    0 -0.99754142419E+01 -0.18228704651E+02  0.30914491874E+01  0.17248417788E+03  0.17120000000E+03 0.  0.
        998    1    1    2    0    0 -0.49239108206E+01  0.89781070690E+01  0.14091166268E+04  0.14091893127E+04  0.10000000000E+02 0. -1.
</event>
<event>
 5    1  0.1153629E-008  0.3834839E+03  0.7957747E-01  0.3436128E+00
         13   -1    0    0    0    0  0.00000000000E+00  0.00000000000E+00  0.14999999963E+04  0.15000000000E+04  0.10566000000E+00 0.  1.
        994   -1    0    0    0    0 -0.00000000000E+00 -0.00000000000E+00  0.11368683772E-12  0.17120000000E+03  0.17120000000E+03 0.  0.
         13    1    1    2    0    0 -0.13329834023E+02  0.21733796827E+02  0.14205042061E+03  0.14432039204E+03  0.10566000000E+00 0.  1.
        994    1    1    2    0    0  0.11235450854E+02 -0.45205417747E+01  0.28696186123E+01  0.17165181434E+03  0.17120000000E+03 0.  0.
        998    1    1    2    0    0  0.20943831699E+01 -0.17213255053E+02  0.13550799571E+04  0.13552277936E+04  0.10000000000E+02 0.  1.
</event>
<event>
 5    1  0.1153629E-008  0.3845823E+03  0.7957747E-01  0.3431446E+00
         13   -1    0    0    0    0  0.00000000000E+00  0.00000000000E+00  0.14999999963E+04  0.15000000000E+04  0.10566000000E+00 0. -1.
        994   -1    0    0    0    0 -0.00000000000E+00 -0.00000000000E+00  0.11368683772E-12  0.17120000000E+03  0.17120000000E+03 0.  0.
         13    1    1    2    0    0  0.11202740792E+02  0.73482382385E+01  0.48677557621E+02  0.50487758778E+02  0.10566000000E+00 0. -1.
        994    1    1    2    0    0 -0.94492496536E+01 -0.12746348042E+01  0.21371162195E+01  0.17147862922E+03  0.17120000000E+03 0.  0.
        998    1    1    2    0    0 -0.17534911388E+01 -0.60736034343E+01  0.14491853224E+04  0.14492336120E+04  0.10000000000E+02 0. -1.
</event>
<event>
 5    1  0.1153629E-008  0.3976593E+03  0.7957747E-01  0.3377695E+00
         13   -1    0    0    0    0  0.00000000000E+00  0.00000000000E+00  0.14999999963E+04  0.15000000000E+04  0.10566000000E+00 0. -1.
        994   -1    0    0    0    0 -0.00000000000E+00 -0.00000000000E+00  0.11368683772E-12  0.17120000000E+03  0.17120000000E+03 0.  0.
         13    1    1    2    0    0  0.69885132279E+02 -0.13715208123E+02  0.81866729957E+02  0.10850903781E+03  0.10566000000E+00 0. -1.
        994    1    1    2    0    0 -0.80319803416E+02 -0.20885665066E+02  0.53625352582E+02  0.19766790398E+03  0.17120000000E+03 0.  0.
        998    1    1    2    0    0  0.10434671136E+02  0.34600873189E+02  0.13645079137E+04  0.13650230582E+04  0.10000000000E+02 0. -1.
</event>
<event>
 5    1  0.1153629E-008  0.3796384E+03  0.7957747E-01  0.3452734E+00
         13   -1    0    0    0    0  0.00000000000E+00  0.00000000000E+00  0.14999999963E+04  0.15000000000E+04  0.10566000000E+00 0.  1.
        994   -1    0    0    0    0 -0.00000000000E+00 -0.00000000000E+00  0.11368683772E-12  0.17120000000E+03  0.17120000000E+03 0.  0.
         13    1    1    2    0    0  0.11117430352E+01 -0.11398709609E+02  0.13377780868E+02  0.17610869891E+02  0.10566000000E+00 0.  1.
        994    1    1    2    0    0  0.54763979796E+01  0.69367213014E+01  0.45772488580E+01  0.17148906742E+03  0.17120000000E+03 0.  0.
        998    1    1    2    0    0 -0.65881410147E+01  0.44619883073E+01  0.14820449666E+04  0.14821000627E+04  0.10000000000E+02 0.  1.
</event>
<event>
 5    1  0.1153629E-008  0.3858524E+03  0.7957747E-01  0.3426065E+00
         13   -1    0    0    0    0  0.00000000000E+00  0.00000000000E+00  0.14999999963E+04  0.15000000000E+04  0.10566000000E+00 0.  1.
        994   -1    0    0    0    0 -0.00000000000E+00 -0.00000000000E+00  0.11368683772E-12  0.17120000000E+03  0.17120000000E+03 0.  0.
         13    1    1    2    0    0  0.43849569456E+01 -0.98201579252E+01  0.48942742228E+02  0.50110543101E+02  0.10566000000E+00 0.  1.
        994    1    1    2    0    0 -0.10025829429E+02  0.14057442680E+01  0.15437129507E+01  0.17150602445E+03  0.17120000000E+03 0.  0.
        998    1    1    2    0    0  0.56408724837E+01  0.84144136572E+01  0.14495135411E+04  0.14495834324E+04  0.10000000000E+02 0.  1.
</event>
<event>
 5    1  0.1153629E-008  0.3853892E+03  0.7957747E-01  0.3428023E+00
         13   -1    0    0    0    0  0.00000000000E+00  0.00000000000E+00  0.14999999963E+04  0.15000000000E+04  0.10566000000E+00 0.  1.
        994   -1    0    0    0    0 -0.00000000000E+00 -0.00000000000E+00  0.11368683772E-12  0.17120000000E+03  0.17120000000E+03 0.  0.
         13    1    1    2    0    0  0.97015201093E+01  0.83139059434E+01  0.56658901707E+02  0.58081691015E+02  0.10566000000E+00 0.  1.
        994    1    1    2    0    0 -0.53070647940E+01 -0.83895140205E+01  0.17607849175E+01  0.17149661584E+03  0.17120000000E+03 0.  0.
        998    1    1    2    0    0 -0.43944553153E+01  0.75608077055E-01  0.14415803097E+04  0.14416216931E+04  0.10000000000E+02 0.  1.
</event>
<event>
 5    1  0.1153629E-008  0.3788837E+03  0.7957747E-01  0.3456034E+00
         13   -1    0    0    0    0  0.00000000000E+00  0.00000000000E+00  0.14999999963E+04  0.15000000000E+04  0.10566000000E+00 0. -1.
        994   -1    0    0    0    0 -0.00000000000E+00 -0.00000000000E+00  0.11368683772E-12  0.17120000000E+03  0.17120000000E+03 0.  0.
         13    1    1    2    0    0 -0.86698597367E+01  0.19162516431E+02  0.46298701719E+02  0.50852231502E+02  0.10566000000E+00 0. -1.
        994    1    1    2    0    0 -0.34913956987E+01 -0.97120652270E+01  0.50551904084E+01  0.17158528202E+03  0.17120000000E+03 0.  0.
        998    1    1    2    0    0  0.12161255435E+02 -0.94504512037E+01  0.14486461042E+04  0.14487624865E+04  0.10000000000E+02 0. -1.
</event>
<event>
 5    1  0.1153629E-008  0.3820377E+03  0.7957747E-01  0.3442334E+00
         13   -1    0    0    0    0  0.00000000000E+00  0.00000000000E+00  0.14999999963E+04  0.15000000000E+04  0.10566000000E+00 0.  1.
        994   -1    0    0    0    0 -0.00000000000E+00 -0.00000000000E+00  0.11368683772E-12  0.17120000000E+03  0.17120000000E+03 0.  0.
         13    1    1    2    0    0 -0.27230991881E+02  0.58838178131E+01  0.12868312746E+03  0.13166436377E+03  0.10566000000E+00 0.  1.
        994    1    1    2    0    0  0.12131404671E+02  0.36741838690E+01  0.36417632978E+01  0.17170723062E+03  0.17120000000E+03 0.  0.
        998    1    1    2    0    0  0.15099587210E+02 -0.95580016822E+01  0.13676751055E+04  0.13678284056E+04  0.10000000000E+02 0.  1.
</event>
<event>
 5    1  0.1153629E-008  0.3822198E+03  0.7957747E-01  0.3441550E+00
         13   -1    0    0    0    0  0.00000000000E+00  0.00000000000E+00  0.14999999963E+04  0.15000000000E+04  0.10566000000E+00 0.  1.
        994   -1    0    0    0    0 -0.00000000000E+00 -0.00000000000E+00  0.11368683772E-12  0.17120000000E+03  0.17120000000E+03 0.  0.
         13    1    1    2    0    0  0.15024262633E+02 -0.40428615143E+01  0.39406191166E+02  0.42366640924E+02  0.10566000000E+00 0.  1.
        994    1    1    2    0    0 -0.80228375748E+01  0.18365068025E+01  0.32416142324E+01  0.17142837205E+03  0.17120000000E+03 0.  0.
        998    1    1    2    0    0 -0.70014250584E+01  0.22063547118E+01  0.14573521909E+04  0.14574049870E+04  0.10000000000E+02 0.  1.
</event>
<event>
 5    1  0.1153629E-008  0.3069146E+03  0.7957747E-01  0.3847859E+00
         13   -1    0    0    0    0  0.00000000000E+00  0.00000000000E+00  0.14999999963E+04  0.15000000000E+04  0.10566000000E+00 0. -1.
        994   -1    0    0    0    0 -0.00000000000E+00 -0.00000000000E+00  0.11368683772E-12  0.17120000000E+03  0.17120000000E+03 0.  0.
         13    1    1    2    0    0 -0.22437549135E+03 -0.10158463982E+03  0.65290418242E+03  0.69781636750E+03  0.10566000000E+00 0. -1.
        994    1    1    2    0    0  0.15022258524E+03  0.14386520069E+03  0.24173349889E+03  0.36195102648E+03  0.17120000000E+03 0.  0.
        998    1    1    2    0    0  0.74152906113E+02 -0.42280560871E+02  0.60536231497E+03  0.61143260602E+03  0.10000000000E+02 0.  0.
</event>
<event>
 5    1  0.1153629E-008  0.3848747E+03  0.7957747E-01  0.3430204E+00
         13   -1    0    0    0    0  0.00000000000E+00  0.00000000000E+00  0.14999999963E+04  0.15000000000E+04  0.10566000000E+00 0. -1.
        994   -1    0    0    0    0 -0.00000000000E+00 -0.00000000000E+00  0.11368683772E-12  0.17120000000E+03  0.17120000000E+03 0.  0.
         13    1    1    2    0    0 -0.93906546672E+01  0.51154274185E+01  0.35559832914E+02  0.37133069812E+02  0.10566000000E+00 0. -1.
        994    1    1    2    0    0 -0.96470431692E+01 -0.71974403304E+01  0.21691114771E+01  0.17163628298E+03  0.17120000000E+03 0.  0.
        998    1    1    2    0    0  0.19037697836E+02  0.20820129119E+01  0.14622710519E+04  0.14624306472E+04  0.10000000000E+02 0. -1.
</event>
<event>
 5    1  0.1153629E-008  0.3518379E+03  0.7957747E-01  0.3583765E+00
         13   -1    0    0    0    0  0.00000000000E+00  0.00000000000E+00  0.14999999963E+04  0.15000000000E+04  0.10566000000E+00 0. -1.
        994   -1    0    0    0    0 -0.00000000000E+00 -0.00000000000E+00  0.11368683772E-12  0.17120000000E+03  0.17120000000E+03 0.  0.
         13    1    1    2    0    0 -0.34589154854E+02 -0.24845526810E+03  0.94021287130E+03  0.97310157969E+03  0.10566000000E+00 0. -1.
        994    1    1    2    0    0  0.47656405754E+02  0.23674996574E+03  0.24947239629E+03  0.38712736379E+03  0.17120000000E+03 0.  0.
        998    1    1    2    0    0 -0.13067250900E+02  0.11705302362E+02  0.31031472869E+03  0.31097105652E+03  0.10000000000E+02 0. -1.
</event>
<event>
 5    1  0.1153629E-008  0.3758403E+03  0.7957747E-01  0.3469473E+00
         13   -1    0    0    0    0  0.00000000000E+00  0.00000000000E+00  0.14999999963E+04  0.15000000000E+04  0.10566000000E+00 0. -1.
        994   -1    0    0    0    0 -0.00000000000E+00 -0.00000000000E+00  0.11368683772E-12  0.17120000000E+03  0.17120000000E+03 0.  0.
         13    1    1    2    0    0  0.15774635698E+02  0.10524013407E+02  0.27403254956E+02  0.33324818616E+02  0.10566000000E+00 0. -1.
        994    1    1    2    0    0  0.14202707715E+02 -0.13230294159E+02  0.75259549873E+01  0.17246111906E+03  0.17120000000E+03 0.  0.
        998    1    1    2    0    0 -0.29977343413E+02  0.27062807516E+01  0.14650707863E+04  0.14654140623E+04  0.10000000000E+02 0. -1.
</event>
<event>
 5    1  0.1153629E-008  0.3827605E+03  0.7957747E-01  0.3439226E+00
         13   -1    0    0    0    0  0.00000000000E+00  0.00000000000E+00  0.14999999963E+04  0.15000000000E+04  0.10566000000E+00 0. -1.
        994   -1    0    0    0    0 -0.00000000000E+00 -0.00000000000E+00  0.11368683772E-12  0.17120000000E+03  0.17120000000E+03 0.  0.
         13    1    1    2    0    0  0.20795938516E+02 -0.20402976925E+02  0.14442707155E+03  0.14733615540E+03  0.10566000000E+00 0. -1.
        994    1    1    2    0    0 -0.29134489023E+02  0.76186035648E+01  0.57560575489E+01  0.17392364350E+03  0.17120000000E+03 0.  0.
        998    1    1    2    0    0  0.83385505065E+01  0.12784373361E+02  0.13498168672E+04  0.13499402011E+04  0.10000000000E+02 0. -1.
</event>
<event>
 5    1  0.1153629E-008  0.3828744E+03  0.7957747E-01  0.3438737E+00
         13   -1    0    0    0    0  0.00000000000E+00  0.00000000000E+00  0.14999999963E+04  0.15000000000E+04  0.10566000000E+00 0.  1.
        994   -1    0    0    0    0 -0.00000000000E+00 -0.00000000000E+00  0.11368683772E-12  0.17120000000E+03  0.17120000000E+03 0.  0.
         13    1    1    2    0    0  0.21609869934E+02 -0.50478087767E+01  0.85936999723E+02  0.88756103663E+02  0.10566000000E+00 0.  1.
        994    1    1    2    0    0 -0.23852880198E+02  0.11631605708E+01  0.45799843783E+01  0.17291827287E+03  0.17120000000E+03 0.  0.
        998    1    1    2    0    0  0.22430102645E+01  0.38846482059E+01  0.14094830122E+04  0.14095256235E+04  0.10000000000E+02 0.  1.
</event>
<event>
 5    1  0.1153629E-008  0.3907544E+03  0.7957747E-01  0.3405628E+00
         13   -1    0    0    0    0  0.00000000000E+00  0.00000000000E+00  0.14999999963E+04  0.15000000000E+04  0.10566000000E+00 0. -1.
        994   -1    0    0    0    0 -0.00000000000E+00 -0.00000000000E+00  0.11368683772E-12  0.17120000000E+03  0.17120000000E+03 0.  0.
         13    1    1    2    0    0 -0.27161407929E+02  0.36409216329E+01  0.70010029810E+01  0.28284688399E+02  0.10566000000E+00 0. -1.
        994    1    1    2    0    0  0.31314145210E+02 -0.12248304665E+02  0.26642086297E+02  0.17649316536E+03  0.17120000000E+03 0.  0.
        998    1    1    2    0    0 -0.41527372808E+01  0.86073830322E+01  0.14663569070E+04  0.14664221462E+04  0.10000000000E+02 0. -1.
</event>
<event>
 5    1  0.1153629E-008  0.3734495E+03  0.7957747E-01  0.3480186E+00
         13   -1    0    0    0    0  0.00000000000E+00  0.00000000000E+00  0.14999999963E+04  0.15000000000E+04  0.10566000000E+00 0.  1.
        994   -1    0    0    0    0 -0.00000000000E+00 -0.00000000000E+00  0.11368683772E-12  0.17120000000E+03  0.17120000000E+03 0.  0.
         13    1    1    2    0    0 -0.86465178524E+01 -0.10932105003E+02  0.89543697357E+01  0.16566988023E+02  0.10566000000E+00 0.  1.
        994    1    1    2    0    0  0.13358731476E+02  0.40110542454E+02  0.13609130844E+02  0.17686706806E+03  0.17120000000E+03 0.  0.
        998    1    1    2    0    0 -0.47122136240E+01 -0.29178437452E+02  0.14774364957E+04  0.14777659439E+04  0.10000000000E+02 0.  1.
</event>
<event>
 5    1  0.1153629E-008  0.3749603E+03  0.7957747E-01  0.3473401E+00
         13   -1    0    0    0    0  0.00000000000E+00  0.00000000000E+00  0.14999999963E+04  0.15000000000E+04  0.10566000000E+00 0. -1.
        994   -1    0    0    0    0 -0.00000000000E+00 -0.00000000000E+00  0.11368683772E-12  0.17120000000E+03  0.17120000000E+03 0.  0.
         13    1    1    2    0    0  0.17601913516E+02 -0.34366711717E+02  0.10783602600E+03  0.11454046404E+03  0.10566000000E+00 0. -1.
        994    1    1    2    0    0 -0.14065555401E+02  0.21771366117E+02  0.89864991273E+01  0.17338405174E+03  0.17120000000E+03 0.  0.
        998    1    1    2    0    0 -0.35363581143E+01  0.12595345599E+02  0.13831774711E+04  0.13832754842E+04  0.10000000000E+02 0. -1.
</event>
<event>
 5    1  0.1153629E-008  0.3773070E+03  0.7957747E-01  0.3462969E+00
         13   -1    0    0    0    0  0.00000000000E+00  0.00000000000E+00  0.14999999963E+04  0.15000000000E+04  0.10566000000E+00 0.  1.
        994   -1    0    0    0    0 -0.00000000000E+00 -0.00000000000E+00  0.11368683772E-12  0.17120000000E+03  0.17120000000E+03 0.  0.
         13    1    1    2    0    0  0.18438409152E+02  0.33723938659E+02  0.12515749181E+03  0.13092626891E+03  0.10566000000E+00 0.  1.
        994    1    1    2    0    0 -0.10482995460E+02 -0.33125302303E+02  0.95813287200E+01  0.17495262418E+03  0.17120000000E+03 0.  0.
        998    1    1    2    0    0 -0.79554136925E+01 -0.59863635605E+00  0.13652611758E+04  0.13653211069E+04  0.10000000000E+02 0.  1.
</event>
<event>
 5    1  0.1153629E-008  0.3819774E+03  0.7957747E-01  0.3442593E+00
         13   -1    0    0    0    0  0.00000000000E+00  0.00000000000E+00  0.14999999963E+04  0.15000000000E+04  0.10566000000E+00 0.  1.
        994   -1    0    0    0    0 -0.00000000000E+00 -0.00000000000E+00  0.11368683772E-12  0.17120000000E+03  0.17120000000E+03 0.  0.
         13    1    1    2    0    0 -0.97803803018E-01  0.13257463742E+02  0.27288345767E+02  0.30338669866E+02  0.10566000000E+00 0.  1.
        994    1    1    2    0    0 -0.35111647076E+01 -0.38663361713E+01  0.32288610373E+01  0.17131007669E+03  0.17120000000E+03 0.  0.
        998    1    1    2    0    0  0.36089685106E+01 -0.93911275708E+01  0.14694827895E+04  0.14695512534E+04  0.10000000000E+02 0.  1.
</event>
<event>
 5    1  0.1153629E-008  0.3828349E+03  0.7957747E-01  0.3438907E+00
         13   -1    0    0    0    0  0.00000000000E+00  0.00000000000E+00  0.14999999963E+04  0.15000000000E+04  0.10566000000E+00 0.  1.
        994   -1    0    0    0    0 -0.00000000000E+00 -0.00000000000E+00  0.11368683772E-12  0.17120000000E+03  0.17120000000E+03 0.  0.
         13    1    1    2    0    0 -0.22568229277E+02  0.13156515251E+02  0.11582797386E+03  0.11873731325E+03  0.10566000000E+00 0.  1.
        994    1    1    2    0    0  0.25298816753E+02 -0.11432428094E+02  0.52656520150E+01  0.17351627483E+03  0.17120000000E+03 0.  0.
        998    1    1    2    0    0 -0.27305874765E+01 -0.17240871569E+01  0.13789063704E+04  0.13789464119E+04  0.10000000000E+02 0.  1.
</event>
<event>
 5    1  0.1153629E-008  0.3787803E+03  0.7957747E-01  0.3456486E+00
         13   -1    0    0    0    0  0.00000000000E+00  0.00000000000E+00  0.14999999963E+04  0.15000000000E+04  0.10566000000E+00 0. -1.
        994   -1    0    0    0    0 -0.00000000000E+00 -0.00000000000E+00  0.11368683772E-12  0.17120000000E+03  0.17120000000E+03 0.  0.
         13    1    1    2    0    0  0.11959744758E+02  0.10657553802E+02  0.24627274084E+02  0.29379120826E+02  0.10566000000E+00 0. -1.
        994    1    1    2    0    0 -0.13586111639E+02 -0.10653114287E+02  0.57511845544E+01  0.17216441966E+03  0.17120000000E+03 0.  0.
        998    1    1    2    0    0  0.16263668812E+01 -0.44395145103E-02  0.14696215376E+04  0.14696564595E+04  0.10000000000E+02 0. -1.
</event>
<event>
 5    1  0.1153629E-008  0.3841393E+03  0.7957747E-01  0.3433331E+00
         13   -1    0    0    0    0  0.00000000000E+00  0.00000000000E+00  0.14999999963E+04  0.15000000000E+04  0.10566000000E+00 0.  1.
        994   -1    0    0    0    0 -0.00000000000E+00 -0.00000000000E+00  0.11368683772E-12  0.17120000000E+03  0.17120000000E+03 0.  0.
         13    1    1    2    0    0  0.60491471542E+02 -0.69147928774E+01  0.35545215769E+03  0.36062900613E+03  0.10566000000E+00 0.  1.
        994    1    1    2    0    0 -0.11755475846E+03 -0.16310531389E+02  0.49980655948E+02  0.21422572357E+03  0.17120000000E+03 0.  0.
        998    1    1    2    0    0  0.57063286916E+02  0.23225324266E+02  0.10945671826E+04  0.10963452703E+04  0.10000000000E+02 0.  1.
</event>
<event>
 5    1  0.1153629E-008  0.3844940E+03  0.7957747E-01  0.3431821E+00
         13   -1    0    0    0    0  0.00000000000E+00  0.00000000000E+00  0.14999999963E+04  0.15000000000E+04  0.10566000000E+00 0. -1.
        994   -1    0    0    0    0 -0.00000000000E+00 -0.00000000000E+00  0.11368683772E-12  0.17120000000E+03  0.17120000000E+03 0.  0.
         13    1    1    2    0    0 -0.10441487652E+02  0.26320426702E+01  0.30337766444E+02  0.32192290223E+02  0.10566000000E+00 0. -1.
        994    1    1    2    0    0  0.75374035587E+01 -0.19155338451E+01  0.20808189767E+01  0.17138918148E+03  0.17120000000E+03 0.  0.
        998    1    1    2    0    0  0.29040840931E+01 -0.71650882514E+00  0.14675814109E+04  0.14676185283E+04  0.10000000000E+02 0. -1.
</event>
<event>
 5    1  0.1153629E-008  0.3872709E+03  0.7957747E-01  0.3420098E+00
         13   -1    0    0    0    0  0.00000000000E+00  0.00000000000E+00  0.14999999963E+04  0.15000000000E+04  0.10566000000E+00 0.  1.
        994   -1    0    0    0    0 -0.00000000000E+00 -0.00000000000E+00  0.11368683772E-12  0.17120000000E+03  0.17120000000E+03 0.  0.
         13    1    1    2    0    0  0.78178313111E+02  0.11252833942E+02  0.16516570251E+03  0.18307975137E+03  0.10566000000E+00 0.  1.
        994    1    1    2    0    0 -0.26208487676E+02  0.46609896348E+02  0.31103792413E+02  0.18203365943E+03  0.17120000000E+03 0.  0.
        998    1    1    2    0    0 -0.51969825435E+02 -0.57862730289E+02  0.13037305014E+04  0.13060865892E+04  0.10000000000E+02 0.  1.
</event>
<event>
 5    1  0.1153629E-008  0.3822155E+03  0.7957747E-01  0.3441568E+00
         13   -1    0    0    0    0  0.00000000000E+00  0.00000000000E+00  0.14999999963E+04  0.15000000000E+04  0.10566000000E+00 0.  1.
        994   -1    0    0    0    0 -0.00000000000E+00 -0.00000000000E+00  0.11368683772E-12  0.17120000000E+03  0.17120000000E+03 0.  0.
         13    1    1    2    0    0  0.10252154582E+02  0.11751772966E+02  0.39789853821E+02  0.42737038649E+02  0.10566000000E+00 0.  1.
        994    1    1    2    0    0 -0.12653682298E+02  0.19650652034E+01  0.35632787419E+01  0.17171521223E+03  0.17120000000E+03 0.  0.
        998    1    1    2    0    0  0.24015277166E+01 -0.13716838169E+02  0.14566468637E+04  0.14567477491E+04  0.10000000000E+02 0.  1.
</event>
<event>
 5    1  0.1153629E-008  0.3809516E+03  0.7957747E-01  0.3447025E+00
         13   -1    0    0    0    0  0.00000000000E+00  0.00000000000E+00  0.14999999963E+04  0.15000000000E+04  0.10566000000E+00 0. -1.
        994   -1    0    0    0    0 -0.00000000000E+00 -0.00000000000E+00  0.11368683772E-12  0.17120000000E+03  0.17120000000E+03 0.  0.
         13    1    1    2    0    0  0.13287352468E+02 -0.13730691486E+02  0.49274281737E+02  0.52849329504E+02  0.10566000000E+00 0. -1.
        994    1    1    2    0    0 -0.34413920077E+02 -0.19826220478E+02  0.89280395161E+01  0.17597314228E+03  0.17120000000E+03 0.  0.
        998    1    1    2    0    0  0.21126567608E+02  0.33556911964E+02  0.14417976750E+04  0.14423775282E+04  0.10000000000E+02 0. -1.
</event>
<event>
 5    1  0.1153629E-008  0.3734431E+03  0.7957747E-01  0.3480215E+00
         13   -1    0    0    0    0  0.00000000000E+00  0.00000000000E+00  0.14999999963E+04  0.15000000000E+04  0.10566000000E+00 0.  1.
        994   -1    0    0    0    0 -0.00000000000E+00 -0.00000000000E+00  0.11368683772E-12  0.17120000000E+03  0.17120000000E+03 0.  0.
         13    1    1    2    0    0 -0.58067294991E+01 -0.11089479422E+02  0.19712462290E+00  0.12519771703E+02  0.10566000000E+00 0.  1.
        994    1    1    2    0    0  0.89456566803E+01  0.99041999612E+01  0.13401648855E+02  0.17224158076E+03  0.17120000000E+03 0.  0.
        998    1    1    2    0    0 -0.31389271812E+01  0.11852794612E+01  0.14864012228E+04  0.14864386475E+04  0.10000000000E+02 0.  1.
</event>
<event>
 5    1  0.1153629E-008  0.3775087E+03  0.7957747E-01  0.3462078E+00
         13   -1    0    0    0    0  0.00000000000E+00  0.00000000000E+00  0.14999999963E+04  0.15000000000E+04  0.10566000000E+00 0.  1.
        994   -1    0    0    0    0 -0.00000000000E+00 -0.00000000000E+00  0.11368683772E-12  0.17120000000E+03  0.17120000000E+03 0.  0.
         13    1    1    2    0    0 -0.21131778888E+02 -0.54846491436E+01  0.40483966613E+02  0.45995610355E+02  0.10566000000E+00 0.  1.
        994    1    1    2    0    0  0.26503060139E+02  0.32851082120E+01  0.78037650677E+01  0.17344608062E+03  0.17120000000E+03 0.  0.
        998    1    1    2    0    0 -0.53712812511E+01  0.21995409315E+01  0.14517122646E+04  0.14517583090E+04  0.10000000000E+02 0.  1.
</event>
<event>
 5    1  0.1153629E-008  0.3769125E+03  0.7957747E-01  0.3464713E+00
         13   -1    0    0    0    0  0.00000000000E+00  0.00000000000E+00  0.14999999963E+04  0.15000000000E+04  0.10566000000E+00 0. -1.
        994   -1    0    0    0    0 -0.00000000000E+00 -0.00000000000E+00  0.11368683772E-12  0.17120000000E+03  0.17120000000E+03 0.  0.
         13    1    1    2    0    0  0.20366947997E+02 -0.71473533976E+01  0.37042535481E+02  0.42872576669E+02  0.10566000000E+00 0. -1.
        994    1    1    2    0    0 -0.18282150364E+02  0.32419937647E+02  0.10392884624E+02  0.17550709795E+03  0.17120000000E+03 0.  0.
        998    1    1    2    0    0 -0.20847976329E+01 -0.25272584249E+02  0.14525645762E+04  0.14528203254E+04  0.10000000000E+02 0. -1.
</event>
<event>
 5    1  0.1153629E-008  0.3834537E+03  0.7957747E-01  0.3436257E+00
         13   -1    0    0    0    0  0.00000000000E+00  0.00000000000E+00  0.14999999963E+04  0.15000000000E+04  0.10566000000E+00 0. -1.
        994   -1    0    0    0    0 -0.00000000000E+00 -0.00000000000E+00  0.11368683772E-12  0.17120000000E+03  0.17120000000E+03 0.  0.
         13    1    1    2    0    0 -0.15265278156E+02 -0.90545464985E+01  0.73951528861E+02  0.76051648991E+02  0.10566000000E+00 0. -1.
        994    1    1    2    0    0 -0.39374743924E+01 -0.14459635652E+02  0.31424670569E+01  0.17188339032E+03  0.17120000000E+03 0.  0.
        998    1    1    2    0    0  0.19202752548E+02  0.23514182150E+02  0.14229060004E+04  0.14232649607E+04  0.10000000000E+02 0. -1.
</event>
<event>
 5    1  0.1153629E-008  0.3841845E+03  0.7957747E-01  0.3433138E+00
         13   -1    0    0    0    0  0.00000000000E+00  0.00000000000E+00  0.14999999963E+04  0.15000000000E+04  0.10566000000E+00 0. -1.
        994   -1    0    0    0    0 -0.00000000000E+00 -0.00000000000E+00  0.11368683772E-12  0.17120000000E+03  0.17120000000E+03 0.  0.
         13    1    1    2    0    0 -0.76702481306E+01  0.85047076927E+01  0.32449111125E+02  0.34411026374E+02  0.10566000000E+00 0. -1.
        994    1    1    2    0    0  0.60940340121E+01  0.24861155758E+01  0.21784107138E+01  0.17134031485E+03  0.17120000000E+03 0.  0.
        998    1    1    2    0    0  0.15762141185E+01 -0.10990823268E+02  0.14653724744E+04  0.14654486588E+04  0.10000000000E+02 0. -1.
</event>
<event>
 5    1  0.1161009E-008  0.3839039E+03  0.7957747E-01  0.3434334E+00
         13   -1    0    0    0    0  0.00000000000E+00  0.00000000000E+00  0.14999999963E+04  0.15000000000E+04  0.10566000000E+00 0.  1.
        994   -1    0    0    0    0 -0.00000000000E+00 -0.00000000000E+00  0.11368683772E-12  0.17120000000E+03  0.17120000000E+03 0.  0.
         13    1    1    2    0    0  0.93431798742E+01  0.53999262072E+01  0.26342378454E+02  0.28467284378E+02  0.10566000000E+00 0.  1.
        994    1    1    2    0    0 -0.31183828571E+01 -0.46869855761E+01  0.22799294672E+01  0.17130770626E+03  0.17120000000E+03 0.  0.
        998    1    1    2    0    0 -0.62247970171E+01 -0.71294063116E+00  0.14713776884E+04  0.14714250094E+04  0.10000000000E+02 0.  1.
</event>
<event>
 5    1  0.1153629E-008  0.3812682E+03  0.7957747E-01  0.3445655E+00
         13   -1    0    0    0    0  0.00000000000E+00  0.00000000000E+00  0.14999999963E+04  0.15000000000E+04  0.10566000000E+00 0.  1.
        994   -1    0    0    0    0 -0.00000000000E+00 -0.00000000000E+00  0.11368683772E-12  0.17120000000E+03  0.17120000000E+03 0.  0.
         13    1    1    2    0    0 -0.15151290159E+02  0.58531810227E+02  0.96195299294E+02  0.11361813751E+03  0.10566000000E+00 0.  1.
        994    1    1    2    0    0  0.56329331500E+01 -0.58759012829E+02  0.29821869829E+02  0.18352965822E+03  0.17120000000E+03 0.  0.
        998    1    1    2    0    0  0.95183570089E+01  0.22720260215E+00  0.13739828272E+04  0.13740522043E+04  0.10000000000E+02 0.  1.
</event>
<event>
 5    1  0.1153629E-008  0.3856890E+03  0.7957747E-01  0.3426755E+00
         13   -1    0    0    0    0  0.00000000000E+00  0.00000000000E+00  0.14999999963E+04  0.15000000000E+04  0.10566000000E+00 0. -1.
        994   -1    0    0    0    0 -0.00000000000E+00 -0.00000000000E+00  0.11368683772E-12  0.17120000000E+03  0.17120000000E+03 0.  0.
         13    1    1    2    0    0 -0.14079412897E+02 -0.18352354592E+01  0.73683939910E+02  0.75039537055E+02  0.10566000000E+00 0. -1.
        994    1    1    2    0    0  0.18931586575E+02 -0.29990969153E+01  0.24949206639E+01  0.17228773660E+03  0.17120000000E+03 0.  0.
        998    1    1    2    0    0 -0.48521736782E+01  0.48343323745E+01  0.14238211357E+04  0.14238727263E+04  0.10000000000E+02 0. -1.
</event>
<event>
 5    1  0.1153629E-008  0.3692032E+03  0.7957747E-01  0.3499561E+00
         13   -1    0    0    0    0  0.00000000000E+00  0.00000000000E+00  0.14999999963E+04  0.15000000000E+04  0.10566000000E+00 0. -1.
        994   -1    0    0    0    0 -0.00000000000E+00 -0.00000000000E+00  0.11368683772E-12  0.17120000000E+03  0.17120000000E+03 0.  0.
         13    1    1    2    0    0  0.94848565839E+01 -0.16343028930E+02  0.13675315442E+02  0.23325576424E+02  0.10566000000E+00 0. -1.
        994    1    1    2    0    0 -0.45824296297E+02 -0.73728437589E+02  0.37272285602E+02  0.19553621638E+03  0.17120000000E+03 0.  0.
        998    1    1    2    0    0  0.36339439713E+02  0.90071466519E+02  0.14490523952E+04  0.14523382072E+04  0.10000000000E+02 0. -1.
</event>
<event>
 5    1  0.1153629E-008  0.3846858E+03  0.7957747E-01  0.3431006E+00
         13   -1    0    0    0    0  0.00000000000E+00  0.00000000000E+00  0.14999999963E+04  0.15000000000E+04  0.10566000000E+00 0. -1.
        994   -1    0    0    0    0 -0.00000000000E+00 -0.00000000000E+00  0.11368683772E-12  0.17120000000E+03  0.17120000000E+03 0.  0.
         13    1    1    2    0    0 -0.56956953053E+00  0.21505947145E+02  0.12953302695E+03  0.13130744993E+03  0.10566000000E+00 0. -1.
        994    1    1    2    0    0  0.43058332309E+01 -0.13157950067E+02  0.24174265504E+01  0.17177588830E+03  0.17120000000E+03 0.  0.
        998    1    1    2    0    0 -0.37362637004E+01 -0.83479970788E+01  0.13680495428E+04  0.13681166618E+04  0.10000000000E+02 0. -1.
</event>
<event>
 5    1  0.1153629E-008  0.3802599E+03  0.7957747E-01  0.3450028E+00
         13   -1    0    0    0    0  0.00000000000E+00  0.00000000000E+00  0.14999999963E+04  0.15000000000E+04  0.10566000000E+00 0.  1.
        994   -1    0    0    0    0 -0.00000000000E+00 -0.00000000000E+00  0.11368683772E-12  0.17120000000E+03  0.17120000000E+03 0.  0.
         13    1    1    2    0    0 -0.17624508052E+03 -0.66635979695E+02  0.10168729896E+04  0.10341824647E+04  0.10566000000E+00 0.  1.
        994    1    1    2    0    0  0.17690023476E+03  0.69350118887E+02  0.13587640770E+03  0.28961175773E+03  0.17120000000E+03 0.  0.
        998    1    1    2    0    0 -0.65515424425E+00 -0.27141391923E+01  0.34725059899E+03  0.34740577755E+03  0.10000000000E+02 0.  0.
</event>
<event>
 5    1  0.1153629E-008  0.3789318E+03  0.7957747E-01  0.3455823E+00
         13   -1    0    0    0    0  0.00000000000E+00  0.00000000000E+00  0.14999999963E+04  0.15000000000E+04  0.10566000000E+00 0. -1.
        994   -1    0    0    0    0 -0.00000000000E+00 -0.00000000000E+00  0.11368683772E-12  0.17120000000E+03  0.17120000000E+03 0.  0.
         13    1    1    2    0    0 -0.40317677402E+01  0.11935389167E+02  0.14844319133E+02  0.19469813565E+02  0.10566000000E+00 0. -1.
        994    1    1    2    0    0 -0.20627752315E+01 -0.13373915109E+02  0.52878868658E+01  0.17181536135E+03  0.17120000000E+03 0.  0.
        998    1    1    2    0    0  0.60945429717E+01  0.14385259415E+01  0.14798677903E+04  0.14799148251E+04  0.10000000000E+02 0. -1.
</event>
<event>
 5    1  0.1153629E-008  0.3839747E+03  0.7957747E-01  0.3434032E+00
         13   -1    0    0    0    0  0.00000000000E+00  0.00000000000E+00  0.14999999963E+04  0.15000000000E+04  0.10566000000E+00 0. -1.
        994   -1    0    0    0    0 -0.00000000000E+00 -0.00000000000E+00  0.11368683772E-12  0.17120000000E+03  0.17120000000E+03 0.  0.
         13    1    1    2    0    0 -0.64354639218E+01 -0.80498585700E+01  0.24115313600E+02  0.26225463446E+02  0.10566000000E+00 0. -1.
        994    1    1    2    0    0  0.45767421978E+01  0.61399076984E+01  0.23335655653E+01  0.17138707817E+03  0.17120000000E+03 0.  0.
        998    1    1    2    0    0  0.18587217239E+01  0.19099508716E+01  0.14735511171E+04  0.14735874584E+04  0.10000000000E+02 0. -1.
</event>
<event>
 5    1  0.1153629E-008  0.3791945E+03  0.7957747E-01  0.3454673E+00
         13   -1    0    0    0    0  0.00000000000E+00  0.00000000000E+00  0.14999999963E+04  0.15000000000E+04  0.10566000000E+00 0. -1.
        994   -1    0    0    0    0 -0.00000000000E+00 -0.00000000000E+00  0.11368683772E-12  0.17120000000E+03  0.17120000000E+03 0.  0.
         13    1    1    2    0    0 -0.75333426509E+02  0.36058445191E+01  0.42508137251E+03  0.43172017753E+03  0.10566000000E+00 0. -1.
        994    1    1    2    0    0  0.79532927702E+02 -0.71155298551E+01  0.26217619449E+02  0.19071686062E+03  0.17120000000E+03 0.  0.
        998    1    1    2    0    0 -0.41995011929E+01  0.35096853360E+01  0.10487010043E+04  0.10487629619E+04  0.10000000000E+02 0.  0.
</event>
<event>
 5    1  0.1153629E-008  0.3807715E+03  0.7957747E-01  0.3447806E+00
         13   -1    0    0    0    0  0.00000000000E+00  0.00000000000E+00  0.14999999963E+04  0.15000000000E+04  0.10566000000E+00 0. -1.
        994   -1    0    0    0    0 -0.00000000000E+00 -0.00000000000E+00  0.11368683772E-12  0.17120000000E+03  0.17120000000E+03 0.  0.
         13    1    1    2    0    0  0.38285231284E+01  0.12238047416E+02  0.20110409281E+02  0.23850935398E+02  0.10566000000E+00 0. -1.
        994    1    1    2    0    0 -0.30507050319E+01 -0.14266992394E+02  0.44542647852E+01  0.17187825444E+03  0.17120000000E+03 0.  0.
        998    1    1    2    0    0 -0.77781809647E+00  0.20289449779E+01  0.14754353222E+04  0.14754708102E+04  0.10000000000E+02 0. -1.
</event>
<event>
 5    1  0.1153629E-008  0.3855304E+03  0.7957747E-01  0.3427426E+00
         13   -1    0    0    0    0  0.00000000000E+00  0.00000000000E+00  0.14999999963E+04  0.15000000000E+04  0.10566000000E+00 0.  1.
        994   -1    0    0    0    0 -0.00000000000E+00 -0.00000000000E+00  0.11368683772E-12  0.17120000000E+03  0.17120000000E+03 0.  0.
         13    1    1    2    0    0 -0.57620867579E+01 -0.14647039255E+02  0.92653005150E+02  0.93980465684E+02  0.10566000000E+00 0.  1.
        994    1    1    2    0    0  0.40534373006E+01  0.71264721418E+01  0.15877315175E+01  0.17140355262E+03  0.17120000000E+03 0.  0.
        998    1    1    2    0    0  0.17086494573E+01  0.75205671130E+01  0.14057592596E+04  0.14058159817E+04  0.10000000000E+02 0.  1.
</event>
<event>
 5    1  0.1153629E-008  0.3774084E+03  0.7957747E-01  0.3462521E+00
         13   -1    0    0    0    0  0.00000000000E+00  0.00000000000E+00  0.14999999963E+04  0.15000000000E+04  0.10566000000E+00 0. -1.
        994   -1    0    0    0    0 -0.00000000000E+00 -0.00000000000E+00  0.11368683772E-12  0.17120000000E+03  0.17120000000E+03 0.  0.
         13    1    1    2    0    0 -0.22480790739E+02  0.14328272749E+02  0.66354841623E+02  0.71509870109E+02  0.10566000000E+00 0. -1.
        994    1    1    2    0    0  0.67987695887E+01  0.28312920212E+01  0.56300258052E+01  0.17145079957E+03  0.17120000000E+03 0.  0.
        998    1    1    2    0    0  0.15682021150E+02 -0.17159564770E+02  0.14280151289E+04  0.14282393303E+04  0.10000000000E+02 0. -1.
</event>
<event>
 5    1  0.1153629E-008  0.3834897E+03  0.7957747E-01  0.3436103E+00
         13   -1    0    0    0    0  0.00000000000E+00  0.00000000000E+00  0.14999999963E+04  0.15000000000E+04  0.10566000000E+00 0.  1.
        994   -1    0    0    0    0 -0.00000000000E+00 -0.00000000000E+00  0.11368683772E-12  0.17120000000E+03  0.17120000000E+03 0.  0.
         13    1    1    2    0    0  0.12782803980E+02 -0.55996695876E+00  0.32569789615E+02  0.34993085034E+02  0.10566000000E+00 0.  1.
        994    1    1    2    0    0 -0.17408071537E+02 -0.76209386052E+01  0.35761760324E+01  0.17228856229E+03  0.17120000000E+03 0.  0.
        998    1    1    2    0    0  0.46252675574E+01  0.81809055640E+01  0.14638540306E+04  0.14639183527E+04  0.10000000000E+02 0.  1.
</event>
<event>
 5    1  0.1153629E-008  0.3760778E+03  0.7957747E-01  0.3468416E+00
         13   -1    0    0    0    0  0.00000000000E+00  0.00000000000E+00  0.14999999963E+04  0.15000000000E+04  0.10566000000E+00 0. -1.
        994   -1    0    0    0    0 -0.00000000000E+00 -0.00000000000E+00  0.11368683772E-12  0.17120000000E+03  0.17120000000E+03 0.  0.
         13    1    1    2    0    0  0.14472625974E+02 -0.44302812354E-01  0.13643899850E+02  0.19890350235E+02  0.10566000000E+00 0. -1.
        994    1    1    2    0    0 -0.33104510746E+02 -0.11402786789E+01  0.98514175662E+01  0.17465308270E+03  0.17120000000E+03 0.  0.
        998    1    1    2    0    0  0.18631884771E+02  0.11845814913E+01  0.14765046789E+04  0.14766565671E+04  0.10000000000E+02 0. -1.
</event>
<event>
 5    1  0.1153629E-008  0.3851507E+03  0.7957747E-01  0.3429033E+00
         13   -1    0    0    0    0  0.00000000000E+00  0.00000000000E+00  0.14999999963E+04  0.15000000000E+04  0.10566000000E+00 0.  1.
        994   -1    0    0    0    0 -0.00000000000E+00 -0.00000000000E+00  0.11368683772E-12  0.17120000000E+03  0.17120000000E+03 0.  0.
         13    1    1    2    0    0  0.19048499520E+02 -0.11810369745E+02  0.12504705472E+03  0.12703978599E+03  0.10566000000E+00 0.  1.
        994    1    1    2    0    0 -0.45456629200E+02  0.10570801987E+02  0.87477131925E+01  0.17766262826E+03  0.17120000000E+03 0.  0.
        998    1    1    2    0    0  0.26408129680E+02  0.12395677577E+01  0.13662052284E+04  0.13664975857E+04  0.10000000000E+02 0.  1.
</event>
<event>
 5    1  0.1153629E-008  0.3852826E+03  0.7957747E-01  0.3428474E+00
         13   -1    0    0    0    0  0.00000000000E+00  0.00000000000E+00  0.14999999963E+04  0.15000000000E+04  0.10566000000E+00 0. -1.
        994   -1    0    0    0    0 -0.00000000000E+00 -0.00000000000E+00  0.11368683772E-12  0.17120000000E+03  0.17120000000E+03 0.  0.
         13    1    1    2    0    0 -0.87483593676E+02 -0.68653802622E+02  0.26881821082E+03  0.29091229848E+03  0.10566000000E+00 0. -1.
        994    1    1    2    0    0  0.82280383120E+02  0.59314375483E+02  0.58357913613E+02  0.20737247326E+03  0.17120000000E+03 0.  0.
        998    1    1    2    0    0  0.52032105557E+01  0.93394271387E+01  0.11728238718E+04  0.11729152283E+04  0.10000000000E+02 0. -1.
</event>
<event>
 5    1  0.1153629E-008  0.3763646E+03  0.7957747E-01  0.3467142E+00
         13   -1    0    0    0    0  0.00000000000E+00  0.00000000000E+00  0.14999999963E+04  0.15000000000E+04  0.10566000000E+00 0. -1.
        994   -1    0    0    0    0 -0.00000000000E+00 -0.00000000000E+00  0.11368683772E-12  0.17120000000E+03  0.17120000000E+03 0.  0.
         13    1    1    2    0    0  0.70309786024E+02 -0.45031338226E+02  0.31811554594E+03  0.32889025398E+03  0.10566000000E+00 0. -1.
        994    1    1    2    0    0 -0.13986730382E+02 -0.19384461616E+02  0.16390310252E+02  0.17363602233E+03  0.17120000000E+03 0.  0.
        998    1    1    2    0    0 -0.56323055642E+02  0.64415799842E+02  0.11654941401E+04  0.11686737237E+04  0.10000000000E+02 0. -1.
</event>
<event>
 5    1  0.1153629E-008  0.3730906E+03  0.7957747E-01  0.3481807E+00
         13   -1    0    0    0    0  0.00000000000E+00  0.00000000000E+00  0.14999999963E+04  0.15000000000E+04  0.10566000000E+00 0. -1.
        994   -1    0    0    0    0 -0.00000000000E+00 -0.00000000000E+00  0.11368683772E-12  0.17120000000E+03  0.17120000000E+03 0.  0.
         13    1    1    2    0    0  0.43672974365E+02  0.15059102896E+02  0.14039799985E+03  0.14780295937E+03  0.10566000000E+00 0. -1.
        994    1    1    2    0    0 -0.19231694897E+02 -0.11549894061E+02  0.93862119614E+01  0.17291847535E+03  0.17120000000E+03 0.  0.
        998    1    1    2    0    0 -0.24441279468E+02 -0.35092088349E+01  0.13502157845E+04  0.13504785653E+04  0.10000000000E+02 0. -1.
</event>
<event>
 5    1  0.1153629E-008  0.3726472E+03  0.7957747E-01  0.3483813E+00
         13   -1    0    0    0    0  0.00000000000E+00  0.00000000000E+00  0.14999999963E+04  0.15000000000E+04  0.10566000000E+00 0.  1.
        994   -1    0    0    0    0 -0.00000000000E+00 -0.00000000000E+00  0.11368683772E-12  0.17120000000E+03  0.17120000000E+03 0.  0.
         13    1    1    2    0    0  0.36487932102E+02  0.12945568745E+02  0.92211023630E+02  0.10000920449E+03  0.10566000000E+00 0.  1.
        994    1    1    2    0    0 -0.20792193908E+02 -0.13061932019E+02  0.99605808217E+01  0.17323851352E+03  0.17120000000E+03 0.  0.
        998    1    1    2    0    0 -0.15695738194E+02  0.11636327419E+00  0.13978283918E+04  0.13979522820E+04  0.10000000000E+02 0.  1.
</event>
<event>
 5    1  0.1153629E-008  0.3836348E+03  0.7957747E-01  0.3435483E+00
         13   -1    0    0    0    0  0.00000000000E+00  0.00000000000E+00  0.14999999963E+04  0.15000000000E+04  0.10566000000E+00 0. -1.
        994   -1    0    0    0    0 -0.00000000000E+00 -0.00000000000E+00  0.11368683772E-12  0.17120000000E+03  0.17120000000E+03 0.  0.
         13    1    1    2    0    0 -0.10557447745E+02 -0.10190760074E+01  0.23579506277E+02  0.25855415276E+02  0.10566000000E+00 0. -1.
        994    1    1    2    0    0  0.74134569526E+01  0.15146350492E+01  0.24986094951E+01  0.17138534509E+03  0.17120000000E+03 0.  0.
        998    1    1    2    0    0  0.31439907921E+01 -0.49555904182E+00  0.14739218805E+04  0.14739592396E+04  0.10000000000E+02 0. -1.
</event>
<event>
 5    1  0.1153629E-008  0.3747763E+03  0.7957747E-01  0.3474224E+00
         13   -1    0    0    0    0  0.00000000000E+00  0.00000000000E+00  0.14999999963E+04  0.15000000000E+04  0.10566000000E+00 0.  1.
        994   -1    0    0    0    0 -0.00000000000E+00 -0.00000000000E+00  0.11368683772E-12  0.17120000000E+03  0.17120000000E+03 0.  0.
         13    1    1    2    0    0 -0.22708723054E+01  0.20803611472E+02  0.10310005093E+02  0.23329262319E+02  0.10566000000E+00 0.  1.
        994    1    1    2    0    0  0.28847760969E+02 -0.12427709528E+02  0.17003005766E+02  0.17488620152E+03  0.17120000000E+03 0.  0.
        998    1    1    2    0    0 -0.26576888664E+02 -0.83759019439E+01  0.14726869854E+04  0.14729845362E+04  0.10000000000E+02 0.  1.
</event>
<event>
 5    1  0.1153629E-008  0.4100744E+03  0.7957747E-01  0.3329826E+00
         13   -1    0    0    0    0  0.00000000000E+00  0.00000000000E+00  0.14999999963E+04  0.15000000000E+04  0.10566000000E+00 0.  1.
        994   -1    0    0    0    0 -0.00000000000E+00 -0.00000000000E+00  0.11368683772E-12  0.17120000000E+03  0.17120000000E+03 0.  0.
         13    1    1    2    0    0  0.92600732035E+02  0.11847763441E+03  0.36653463150E+03  0.39618113620E+03  0.10566000000E+00 0.  1.
        994    1    1    2    0    0 -0.20200984389E+02 -0.73278828989E+02  0.57949116635E+02  0.19607500266E+03  0.17120000000E+03 0.  0.
        998    1    1    2    0    0 -0.72399747646E+02 -0.45198805426E+02  0.10755162481E+04  0.10789438611E+04  0.10000000000E+02 0.  1.
</event>
<event>
 5    1  0.1153629E-008  0.3686900E+03  0.7957747E-01  0.3501933E+00
         13   -1    0    0    0    0  0.00000000000E+00  0.00000000000E+00  0.14999999963E+04  0.15000000000E+04  0.10566000000E+00 0.  1.
        994   -1    0    0    0    0 -0.00000000000E+00 -0.00000000000E+00  0.11368683772E-12  0.17120000000E+03  0.17120000000E+03 0.  0.
         13    1    1    2    0    0  0.24369917870E+02 -0.11234456120E+02  0.30150558419E+02  0.40363018201E+02  0.10566000000E+00 0.  1.
        994    1    1    2    0    0 -0.46812305743E+02  0.17767482973E+01  0.17616823536E+02  0.17836575141E+03  0.17120000000E+03 0.  0.
        998    1    1    2    0    0  0.22442387874E+02  0.94577078228E+01  0.14522326143E+04  0.14524712304E+04  0.10000000000E+02 0.  1.
</event>
<event>
 5    1  0.1153629E-008  0.3795603E+03  0.7957747E-01  0.3453075E+00
         13   -1    0    0    0    0  0.00000000000E+00  0.00000000000E+00  0.14999999963E+04  0.15000000000E+04  0.10566000000E+00 0.  1.
        994   -1    0    0    0    0 -0.00000000000E+00 -0.00000000000E+00  0.11368683772E-12  0.17120000000E+03  0.17120000000E+03 0.  0.
         13    1    1    2    0    0 -0.12625291918E+02 -0.14865858663E+02  0.41883364692E+02  0.46201938831E+02  0.10566000000E+00 0.  1.
        994    1    1    2    0    0  0.10942588726E+02  0.87090875284E+01  0.50103312374E+01  0.17184333526E+03  0.17120000000E+03 0.  0.
        998    1    1    2    0    0  0.16827031913E+01  0.61567711350E+01  0.14531063003E+04  0.14531547259E+04  0.10000000000E+02 0.  1.
</event>
<event>
 5    1  0.1153629E-008  0.3744250E+03  0.7957747E-01  0.3475798E+00
         13   -1    0    0    0    0  0.00000000000E+00  0.00000000000E+00  0.14999999963E+04  0.15000000000E+04  0.10566000000E+00 0.  1.
        994   -1    0    0    0    0 -0.00000000000E+00 -0.00000000000E+00  0.11368683772E-12  0.17120000000E+03  0.17120000000E+03 0.  0.
         13    1    1    2    0    0 -0.58045147206E+02  0.21383717258E+01  0.23949919951E+03  0.24644206110E+03  0.10566000000E+00 0.  1.
        994    1    1    2    0    0  0.34041838896E+02  0.10126524894E+02  0.11282466253E+02  0.17520881070E+03  0.17120000000E+03 0.  0.
        998    1    1    2    0    0  0.24003308310E+02 -0.12264896620E+02  0.12492183305E+04  0.12495491282E+04  0.10000000000E+02 0.  1.
</event>
<event>
 5    1  0.1153629E-008  0.3719245E+03  0.7957747E-01  0.3487093E+00
         13   -1    0    0    0    0  0.00000000000E+00  0.00000000000E+00  0.14999999963E+04  0.15000000000E+04  0.10566000000E+00 0.  1.
        994   -1    0    0    0    0 -0.00000000000E+00 -0.00000000000E+00  0.11368683772E-12  0.17120000000E+03  0.17120000000E+03 0.  0.
         13    1    1    2    0    0 -0.10232600654E+02 -0.45427859116E+02  0.13806867151E+03  0.14570986828E+03  0.10566000000E+00 0.  1.
        994    1    1    2    0    0 -0.26428173238E+01  0.12964026721E+02  0.88680991822E+01  0.17193933132E+03  0.17120000000E+03 0.  0.
        998    1    1    2    0    0  0.12875417978E+02  0.32463832394E+02  0.13530632256E+04  0.13535508004E+04  0.10000000000E+02 0.  1.
</event>
<event>
 5    1  0.1153629E-008  0.3824961E+03  0.7957747E-01  0.3440361E+00
         13   -1    0    0    0    0  0.00000000000E+00  0.00000000000E+00  0.14999999963E+04  0.15000000000E+04  0.10566000000E+00 0. -1.
        994   -1    0    0    0    0 -0.00000000000E+00 -0.00000000000E+00  0.11368683772E-12  0.17120000000E+03  0.17120000000E+03 0.  0.
         13    1    1    2    0    0  0.22692635117E+02  0.11716328922E+02  0.10462954697E+03  0.10770135243E+03  0.10566000000E+00 0. -1.
        994    1    1    2    0    0 -0.23260681330E+02 -0.14614070327E+02  0.53844301942E+01  0.17347352085E+03  0.17120000000E+03 0.  0.
        998    1    1    2    0    0  0.56804621337E+00  0.28977414053E+01  0.13899860191E+04  0.13900251267E+04  0.10000000000E+02 0. -1.
</event>
<event>
 5    1  0.1153629E-008  0.3803330E+03  0.7957747E-01  0.3449710E+00
         13   -1    0    0    0    0  0.00000000000E+00  0.00000000000E+00  0.14999999963E+04  0.15000000000E+04  0.10566000000E+00 0.  1.
        994   -1    0    0    0    0 -0.00000000000E+00 -0.00000000000E+00  0.11368683772E-12  0.17120000000E+03  0.17120000000E+03 0.  0.
         13    1    1    2    0    0  0.25230246635E+02  0.10146846236E+02  0.98052918404E+02  0.10175416358E+03  0.10566000000E+00 0.  1.
        994    1    1    2    0    0 -0.50969866978E+01  0.12802758678E+01  0.40573745967E+01  0.17132869190E+03  0.17120000000E+03 0.  0.
        998    1    1    2    0    0 -0.20133259938E+02 -0.11427122104E+02  0.13978897033E+04  0.13981171445E+04  0.10000000000E+02 0.  1.
</event>
<event>
 5    1  0.1153629E-008  0.3745639E+03  0.7957747E-01  0.3475175E+00
         13   -1    0    0    0    0  0.00000000000E+00  0.00000000000E+00  0.14999999963E+04  0.15000000000E+04  0.10566000000E+00 0. -1.
        994   -1    0    0    0    0 -0.00000000000E+00 -0.00000000000E+00  0.11368683772E-12  0.17120000000E+03  0.17120000000E+03 0.  0.
         13    1    1    2    0    0 -0.66120951037E+02  0.88852135975E+01  0.14537369842E+03  0.15995140057E+03  0.10566000000E+00 0. -1.
        994    1    1    2    0    0  0.68630612858E+02 -0.93178127367E+01  0.30618036113E+02  0.18720012498E+03  0.17120000000E+03 0.  0.
        998    1    1    2    0    0 -0.25096618201E+01  0.43259913921E+00  0.13240082617E+04  0.13240484745E+04  0.10000000000E+02 0. -1.
</event>
<event>
 5    1  0.1153629E-008  0.3803608E+03  0.7957747E-01  0.3449589E+00
         13   -1    0    0    0    0  0.00000000000E+00  0.00000000000E+00  0.14999999963E+04  0.15000000000E+04  0.10566000000E+00 0.  1.
        994   -1    0    0    0    0 -0.00000000000E+00 -0.00000000000E+00  0.11368683772E-12  0.17120000000E+03  0.17120000000E+03 0.  0.
         13    1    1    2    0    0  0.24506236330E+02 -0.44448515630E+02  0.26651984431E+03  0.27130990534E+03  0.10566000000E+00 0.  1.
        994    1    1    2    0    0 -0.30212609932E+02  0.42655126970E+02  0.13128437018E+02  0.17948274991E+03  0.17120000000E+03 0.  0.
        998    1    1    2    0    0  0.57063736016E+01  0.17933886604E+01  0.12203517150E+04  0.12204073448E+04  0.10000000000E+02 0.  1.
</event>
<event>
 5    1  0.1153629E-008  0.3846738E+03  0.7957747E-01  0.3431057E+00
         13   -1    0    0    0    0  0.00000000000E+00  0.00000000000E+00  0.14999999963E+04  0.15000000000E+04  0.10566000000E+00 0. -1.
        994   -1    0    0    0    0 -0.00000000000E+00 -0.00000000000E+00  0.11368683772E-12  0.17120000000E+03  0.17120000000E+03 0.  0.
         13    1    1    2    0    0  0.39607120473E+00  0.12182509913E+02  0.37454617595E+02  0.39388195737E+02  0.10566000000E+00 0. -1.
        994    1    1    2    0    0  0.11609608813E+02 -0.29222750365E+02  0.50540450358E+01  0.17413711703E+03  0.17120000000E+03 0.  0.
        998    1    1    2    0    0 -0.12005680018E+02  0.17040240452E+02  0.14574913336E+04  0.14576746872E+04  0.10000000000E+02 0. -1.
</event>
<event>
 5    1  0.1153629E-008  0.3811158E+03  0.7957747E-01  0.3446314E+00
         13   -1    0    0    0    0  0.00000000000E+00  0.00000000000E+00  0.14999999963E+04  0.15000000000E+04  0.10566000000E+00 0. -1.
        994   -1    0    0    0    0 -0.00000000000E+00 -0.00000000000E+00  0.11368683772E-12  0.17120000000E+03  0.17120000000E+03 0.  0.
         13    1    1    2    0    0 -0.42008885509E+02  0.15024228919E+02  0.26658096431E+03  0.27028854140E+03  0.10566000000E+00 0. -1.
        994    1    1    2    0    0  0.25826071339E+02 -0.16611839317E+02  0.67178916057E+01  0.17406179717E+03  0.17120000000E+03 0.  0.
        998    1    1    2    0    0  0.16182814170E+02  0.15876103982E+01  0.12267011404E+04  0.12268496614E+04  0.10000000000E+02 0. -1.
</event>
<event>
 5    1  0.1153629E-008  0.3790092E+03  0.7957747E-01  0.3455484E+00
         13   -1    0    0    0    0  0.00000000000E+00  0.00000000000E+00  0.14999999963E+04  0.15000000000E+04  0.10566000000E+00 0.  1.
        994   -1    0    0    0    0 -0.00000000000E+00 -0.00000000000E+00  0.11368683772E-12  0.17120000000E+03  0.17120000000E+03 0.  0.
         13    1    1    2    0    0  0.39912813270E+02 -0.49240019909E+02  0.25568273567E+03  0.26342225553E+03  0.10566000000E+00 0.  1.
        994    1    1    2    0    0 -0.41664906367E+02  0.10488700380E+03  0.48613444720E+02  0.21073669589E+03  0.17120000000E+03 0.  0.
        998    1    1    2    0    0  0.17520930963E+01 -0.55646983893E+02  0.11957038159E+04  0.11970410486E+04  0.10000000000E+02 0.  1.
</event>
<event>
 5    1  0.1153629E-008  0.3776133E+03  0.7957747E-01  0.3461617E+00
         13   -1    0    0    0    0  0.00000000000E+00  0.00000000000E+00  0.14999999963E+04  0.15000000000E+04  0.10566000000E+00 0. -1.
        994   -1    0    0    0    0 -0.00000000000E+00 -0.00000000000E+00  0.11368683772E-12  0.17120000000E+03  0.17120000000E+03 0.  0.
         13    1    1    2    0    0  0.95296837454E+01 -0.13812233652E+02  0.23904051652E+02  0.29206292475E+02  0.10566000000E+00 0. -1.
        994    1    1    2    0    0 -0.97570786227E+01  0.11507465975E+02  0.61101551454E+01  0.17197208015E+03  0.17120000000E+03 0.  0.
        998    1    1    2    0    0  0.22739487729E+00  0.23047676769E+01  0.14699857895E+04  0.14700216274E+04  0.10000000000E+02 0. -1.
</event>
<event>
 5    1  0.1153629E-008  0.3800280E+03  0.7957747E-01  0.3451037E+00
         13   -1    0    0    0    0  0.00000000000E+00  0.00000000000E+00  0.14999999963E+04  0.15000000000E+04  0.10566000000E+00 0.  1.
        994   -1    0    0    0    0 -0.00000000000E+00 -0.00000000000E+00  0.11368683772E-12  0.17120000000E+03  0.17120000000E+03 0.  0.
         13    1    1    2    0    0 -0.22689556045E+01 -0.27507748549E+02  0.86158042370E+02  0.90471231995E+02  0.10566000000E+00 0.  1.
        994    1    1    2    0    0  0.92723798577E+00  0.28570100999E+02  0.68550963854E+01  0.17370533322E+03  0.17120000000E+03 0.  0.
        998    1    1    2    0    0  0.13417176188E+01 -0.10623524504E+01  0.14069868575E+04  0.14070234348E+04  0.10000000000E+02 0.  1.
</event>
<event>
 5    1  0.1153629E-008  0.3852237E+03  0.7957747E-01  0.3428724E+00
         13   -1    0    0    0    0  0.00000000000E+00  0.00000000000E+00  0.14999999963E+04  0.15000000000E+04  0.10566000000E+00 0.  1.
        994   -1    0    0    0    0 -0.00000000000E+00 -0.00000000000E+00  0.11368683772E-12  0.17120000000E+03  0.17120000000E+03 0.  0.
         13    1    1    2    0    0  0.92787657143E+01 -0.44850793039E+01  0.33557109766E+02  0.35104162280E+02  0.10566000000E+00 0.  1.
        994    1    1    2    0    0 -0.13465786304E+02  0.67912689814E+01  0.22669444017E+01  0.17187794440E+03  0.17120000000E+03 0.  0.
        998    1    1    2    0    0  0.41870205893E+01 -0.23061896774E+01  0.14641759421E+04  0.14642178933E+04  0.10000000000E+02 0.  1.
</event>
<event>
 5    1  0.1153629E-008  0.3856997E+03  0.7957747E-01  0.3426710E+00
         13   -1    0    0    0    0  0.00000000000E+00  0.00000000000E+00  0.14999999963E+04  0.15000000000E+04  0.10566000000E+00 0. -1.
        994   -1    0    0    0    0 -0.00000000000E+00 -0.00000000000E+00  0.11368683772E-12  0.17120000000E+03  0.17120000000E+03 0.  0.
         13    1    1    2    0    0  0.11017040556E+02 -0.84802081391E+01  0.73840690569E+02  0.75138191756E+02  0.10566000000E+00 0. -1.
        994    1    1    2    0    0 -0.12037915753E+02  0.53007630051E+01  0.18510346554E+01  0.17171451841E+03  0.17120000000E+03 0.  0.
        998    1    1    2    0    0  0.10208751969E+01  0.31794451341E+01  0.14243082711E+04  0.14243472898E+04  0.10000000000E+02 0. -1.
</event>
<event>
 5    1  0.1153629E-008  0.3847604E+03  0.7957747E-01  0.3430689E+00
         13   -1    0    0    0    0  0.00000000000E+00  0.00000000000E+00  0.14999999963E+04  0.15000000000E+04  0.10566000000E+00 0. -1.
        994   -1    0    0    0    0 -0.00000000000E+00 -0.00000000000E+00  0.11368683772E-12  0.17120000000E+03  0.17120000000E+03 0.  0.
         13    1    1    2    0    0 -0.16796405543E+02  0.17777425339E+02  0.13064226154E+03  0.13291187967E+03  0.10566000000E+00 0. -1.
        994    1    1    2    0    0  0.26942628578E+02 -0.39770154756E+02  0.93810512241E+01  0.17805901990E+03  0.17120000000E+03 0.  0.
        998    1    1    2    0    0 -0.10146223035E+02  0.21992729417E+02  0.13599766835E+04  0.13602291004E+04  0.10000000000E+02 0. -1.
</event>
<event>
 5    1  0.1153629E-008  0.3826375E+03  0.7957747E-01  0.3439754E+00
         13   -1    0    0    0    0  0.00000000000E+00  0.00000000000E+00  0.14999999963E+04  0.15000000000E+04  0.10566000000E+00 0. -1.
        994   -1    0    0    0    0 -0.00000000000E+00 -0.00000000000E+00  0.11368683772E-12  0.17120000000E+03  0.17120000000E+03 0.  0.
         13    1    1    2    0    0  0.13632133622E+02  0.38958670946E+01  0.45286002826E+02  0.47453620131E+02  0.10566000000E+00 0. -1.
        994    1    1    2    0    0  0.53057839737E+02 -0.77998692321E+00  0.12195807355E+02  0.17964943767E+03  0.17120000000E+03 0.  0.
        998    1    1    2    0    0 -0.66689973359E+02 -0.31158801714E+01  0.14425181861E+04  0.14440969422E+04  0.10000000000E+02 0. -1.
</event>
<event>
 5    1  0.1153629E-008  0.3832084E+03  0.7957747E-01  0.3437306E+00
         13   -1    0    0    0    0  0.00000000000E+00  0.00000000000E+00  0.14999999963E+04  0.15000000000E+04  0.10566000000E+00 0. -1.
        994   -1    0    0    0    0 -0.00000000000E+00 -0.00000000000E+00  0.11368683772E-12  0.17120000000E+03  0.17120000000E+03 0.  0.
         13    1    1    2    0    0 -0.10777615527E+02  0.18131085364E+02  0.87412670597E+02  0.89921517991E+02  0.10566000000E+00 0. -1.
        994    1    1    2    0    0 -0.14818873004E+01 -0.16650915509E+02  0.34471785682E+01  0.17204874896E+03  0.17120000000E+03 0.  0.
        998    1    1    2    0    0  0.12259502828E+02 -0.14801698551E+01  0.14091401471E+04  0.14092297331E+04  0.10000000000E+02 0. -1.
</event>
<event>
 5    1  0.1153629E-008  0.3347566E+03  0.7957747E-01  0.3675400E+00
         13   -1    0    0    0    0  0.00000000000E+00  0.00000000000E+00  0.14999999963E+04  0.15000000000E+04  0.10566000000E+00 0. -1.
        994   -1    0    0    0    0 -0.00000000000E+00 -0.00000000000E+00  0.11368683772E-12  0.17120000000E+03  0.17120000000E+03 0.  0.
         13    1    1    2    0    0 -0.23969703204E+03 -0.12367866550E+03  0.69017038461E+03  0.74100354279E+03  0.10566000000E+00 0. -1.
        994    1    1    2    0    0  0.22681354494E+03  0.14224965929E+03  0.36205055853E+03  0.48173581626E+03  0.17120000000E+03 0.  0.
        998    1    1    2    0    0  0.12883487099E+02 -0.18570993784E+02  0.44777905314E+03  0.44846064095E+03  0.10000000000E+02 0. -1.
</event>
<event>
 5    1  0.1153629E-008  0.3832847E+03  0.7957747E-01  0.3436980E+00
         13   -1    0    0    0    0  0.00000000000E+00  0.00000000000E+00  0.14999999963E+04  0.15000000000E+04  0.10566000000E+00 0. -1.
        994   -1    0    0    0    0 -0.00000000000E+00 -0.00000000000E+00  0.11368683772E-12  0.17120000000E+03  0.17120000000E+03 0.  0.
         13    1    1    2    0    0  0.12719438966E+02  0.46507332325E+01  0.37782656967E+02  0.40136688687E+02  0.10566000000E+00 0. -1.
        994    1    1    2    0    0  0.35489662905E+01 -0.50349418428E+01  0.26096537178E+01  0.17133066303E+03  0.17120000000E+03 0.  0.
        998    1    1    2    0    0 -0.16268405256E+02  0.38420861026E+00  0.14596076856E+04  0.14597326483E+04  0.10000000000E+02 0. -1.
</event>
<event>
 5    1  0.1498563E-008  0.3850403E+03  0.7957747E-01  0.3429501E+00
         13   -1    0    0    0    0  0.00000000000E+00  0.00000000000E+00  0.14999999963E+04  0.15000000000E+04  0.10566000000E+00 0. -1.
        994   -1    0    0    0    0 -0.00000000000E+00 -0.00000000000E+00  0.11368683772E-12  0.17120000000E+03  0.17120000000E+03 0.  0.
         13    1    1    2    0    0  0.50487373405E+01  0.13056834135E+02  0.62327982435E+02  0.63880820477E+02  0.10566000000E+00 0. -1.
        994    1    1    2    0    0 -0.23459673362E+01 -0.49943726385E+01  0.17102687932E+01  0.17129743822E+03  0.17120000000E+03 0.  0.
        998    1    1    2    0    0 -0.27027700044E+01 -0.80624614970E+01  0.14359617451E+04  0.14360217413E+04  0.10000000000E+02 0. -1.
</event>
<event>
 5    1  0.1153629E-008  0.3839659E+03  0.7957747E-01  0.3434070E+00
         13   -1    0    0    0    0  0.00000000000E+00  0.00000000000E+00  0.14999999963E+04  0.15000000000E+04  0.10566000000E+00 0.  1.
        994   -1    0    0    0    0 -0.00000000000E+00 -0.00000000000E+00  0.11368683772E-12  0.17120000000E+03  0.17120000000E+03 0.  0.
         13    1    1    2    0    0 -0.71910990629E+01  0.82301980186E+01  0.28394540281E+02  0.30425468722E+02  0.10566000000E+00 0.  1.
        994    1    1    2    0    0  0.19518100503E+01  0.62191180559E+01  0.22846109576E+01  0.17133927290E+03  0.17120000000E+03 0.  0.
        998    1    1    2    0    0  0.52392890126E+01 -0.14449316075E+02  0.14693208450E+04  0.14694352584E+04  0.10000000000E+02 0.  1.
</event>
<event>
 5    1  0.1153629E-008  0.3781783E+03  0.7957747E-01  0.3459129E+00
         13   -1    0    0    0    0  0.00000000000E+00  0.00000000000E+00  0.14999999963E+04  0.15000000000E+04  0.10566000000E+00 0. -1.
        994   -1    0    0    0    0 -0.00000000000E+00 -0.00000000000E+00  0.11368683772E-12  0.17120000000E+03  0.17120000000E+03 0.  0.
         13    1    1    2    0    0  0.13141613660E+02 -0.36260515831E+01  0.16102081063E+02  0.21098304156E+02  0.10566000000E+00 0. -1.
        994    1    1    2    0    0 -0.11600296614E+02  0.32321178773E+01  0.55433964801E+01  0.17171250016E+03  0.17120000000E+03 0.  0.
        998    1    1    2    0    0 -0.15413170459E+01  0.39393370586E+00  0.14783545187E+04  0.14783891957E+04  0.10000000000E+02 0. -1.
</event>
<event>
 5    1  0.1153629E-008  0.3845127E+03  0.7957747E-01  0.3431742E+00
         13   -1    0    0    0    0  0.00000000000E+00  0.00000000000E+00  0.14999999963E+04  0.15000000000E+04  0.10566000000E+00 0. -1.
        994   -1    0    0    0    0 -0.00000000000E+00 -0.00000000000E+00  0.11368683772E-12  0.17120000000E+03  0.17120000000E+03 0.  0.
         13    1    1    2    0    0 -0.24079644473E+02  0.30478667806E+01  0.13334544653E+03  0.13553648233E+03  0.10566000000E+00 0. -1.
        994    1    1    2    0    0  0.32939645021E+02 -0.17947001904E+02  0.65209060081E+01  0.17538265965E+03  0.17120000000E+03 0.  0.
        998    1    1    2    0    0 -0.88600005484E+01  0.14899135124E+02  0.13601336437E+04  0.13602808580E+04  0.10000000000E+02 0. -1.
</event>
<event>
 5    1  0.1153629E-008  0.3758197E+03  0.7957747E-01  0.3469565E+00
         13   -1    0    0    0    0  0.00000000000E+00  0.00000000000E+00  0.14999999963E+04  0.15000000000E+04  0.10566000000E+00 0. -1.
        994   -1    0    0    0    0 -0.00000000000E+00 -0.00000000000E+00  0.11368683772E-12  0.17120000000E+03  0.17120000000E+03 0.  0.
         13    1    1    2    0    0  0.20058692330E+02  0.28898816122E+02  0.10106159079E+03  0.10700910713E+03  0.10566000000E+00 0. -1.
        994    1    1    2    0    0 -0.98874528102E+01 -0.68909537826E+01  0.67509146188E+01  0.17175640255E+03  0.17120000000E+03 0.  0.
        998    1    1    2    0    0 -0.10171239520E+02 -0.22007862339E+02  0.13921874909E+04  0.13924344903E+04  0.10000000000E+02 0. -1.
</event>
<event>
 5    1  0.1153629E-008  0.3813641E+03  0.7957747E-01  0.3445240E+00
         13   -1    0    0    0    0  0.00000000000E+00  0.00000000000E+00  0.14999999963E+04  0.15000000000E+04  0.10566000000E+00 0.  1.
        994   -1    0    0    0    0 -0.00000000000E+00 -0.00000000000E+00  0.11368683772E-12  0.17120000000E+03  0.17120000000E+03 0.  0.
         13    1    1    2    0    0  0.95763792270E+01  0.16184284253E+02  0.53939261987E+02  0.57123491171E+02  0.10566000000E+00 0.  1.
        994    1    1    2    0    0  0.53984952874E+01  0.30259697730E+01  0.35736035810E+01  0.17134909071E+03  0.17120000000E+03 0.  0.
        998    1    1    2    0    0 -0.14974874514E+02 -0.19210254026E+02  0.14424871307E+04  0.14427274181E+04  0.10000000000E+02 0.  1.
</event>
<event>
 5    1  0.1153629E-008  0.3538738E+03  0.7957747E-01  0.3573454E+00
         13   -1    0    0    0    0  0.00000000000E+00  0.00000000000E+00  0.14999999963E+04  0.15000000000E+04  0.10566000000E+00 0. -1.
        994   -1    0    0    0    0 -0.00000000000E+00 -0.00000000000E+00  0.11368683772E-12  0.17120000000E+03  0.17120000000E+03 0.  0.
         13    1    1    2    0    0 -0.15230866227E+03 -0.11074910207E+03  0.11265903781E+04  0.11422211622E+04  0.10566000000E+00 0. -1.
        994    1    1    2    0    0  0.14218357738E+03  0.72577358136E+02  0.10337671396E+03  0.25589026472E+03  0.17120000000E+03 0.  0.
        998    1    1    2    0    0  0.10125084886E+02  0.38171743932E+02  0.27003290423E+03  0.27308857308E+03  0.10000000000E+02 0.  0.
</event>
<event>
 5    1  0.1153629E-008  0.3853437E+03  0.7957747E-01  0.3428216E+00
         13   -1    0    0    0    0  0.00000000000E+00  0.00000000000E+00  0.14999999963E+04  0.15000000000E+04  0.10566000000E+00 0.  1.
        994   -1    0    0    0    0 -0.00000000000E+00 -0.00000000000E+00  0.11368683772E-12  0.17120000000E+03  0.17120000000E+03 0.  0.
         13    1    1    2    0    0 -0.12146847527E+02 -0.81556392929E+01  0.86826836749E+02  0.88050957411E+02  0.10566000000E+00 0.  1.
        994    1    1    2    0    0 -0.66018467371E+01 -0.10141983484E+02  0.19408213005E+01  0.17163813969E+03  0.17120000000E+03 0.  0.
        998    1    1    2    0    0  0.18748694264E+02  0.18297622777E+02  0.14112323382E+04  0.14115109029E+04  0.10000000000E+02 0.  1.
</event>
<event>
 5    1  0.1153629E-008  0.3686042E+03  0.7957747E-01  0.3502330E+00
         13   -1    0    0    0    0  0.00000000000E+00  0.00000000000E+00  0.14999999963E+04  0.15000000000E+04  0.10566000000E+00 0. -1.
        994   -1    0    0    0    0 -0.00000000000E+00 -0.00000000000E+00  0.11368683772E-12  0.17120000000E+03  0.17120000000E+03 0.  0.
         13    1    1    2    0    0 -0.22244076105E+02 -0.38105908453E+02  0.88479769447E+02  0.98871330255E+02  0.10566000000E+00 0. -1.
        994    1    1    2    0    0  0.23047364886E+02  0.31480219891E+02  0.15516983888E+02  0.17627365674E+03  0.17120000000E+03 0.  0.
        998    1    1    2    0    0 -0.80328878054E+00  0.66256885622E+01  0.13960032429E+04  0.13960550130E+04  0.10000000000E+02 0. -1.
</event>
<event>
 5    1  0.1153629E-008  0.3786556E+03  0.7957747E-01  0.3457033E+00
         13   -1    0    0    0    0  0.00000000000E+00  0.00000000000E+00  0.14999999963E+04  0.15000000000E+04  0.10566000000E+00 0. -1.
        994   -1    0    0    0    0 -0.00000000000E+00 -0.00000000000E+00  0.11368683772E-12  0.17120000000E+03  0.17120000000E+03 0.  0.
         13    1    1    2    0    0 -0.30882290657E+02 -0.21169303813E+02  0.13349099944E+03  0.13864239393E+03  0.10566000000E+00 0. -1.
        994    1    1    2    0    0  0.31847429023E+02  0.16979509068E+02  0.91995890041E+01  0.17520455160E+03  0.17120000000E+03 0.  0.
        998    1    1    2    0    0 -0.96513836627E+00  0.41897947449E+01  0.13573094078E+04  0.13573530545E+04  0.10000000000E+02 0. -1.
</event>
<event>
 5    1  0.1153629E-008  0.3755474E+03  0.7957747E-01  0.3470778E+00
         13   -1    0    0    0    0  0.00000000000E+00  0.00000000000E+00  0.14999999963E+04  0.15000000000E+04  0.10566000000E+00 0. -1.
        994   -1    0    0    0    0 -0.00000000000E+00 -0.00000000000E+00  0.11368683772E-12  0.17120000000E+03  0.17120000000E+03 0.  0.
         13    1    1    2    0    0  0.16603598177E+02 -0.34378940840E+02  0.12077858021E+03  0.12666912665E+03  0.10566000000E+00 0. -1.
        994    1    1    2    0    0 -0.49311906042E+02 -0.14789011832E+02  0.15444079074E+02  0.17943895488E+03  0.17120000000E+03 0.  0.
        998    1    1    2    0    0  0.32708307865E+02  0.49167952672E+02  0.13637773370E+04  0.13650919185E+04  0.10000000000E+02 0. -1.
</event>
<event>
 5    1  0.1153629E-008  0.3838224E+03  0.7957747E-01  0.3434682E+00
         13   -1    0    0    0    0  0.00000000000E+00  0.00000000000E+00  0.14999999963E+04  0.15000000000E+04  0.10566000000E+00 0.  1.
        994   -1    0    0    0    0 -0.00000000000E+00 -0.00000000000E+00  0.11368683772E-12  0.17120000000E+03  0.17120000000E+03 0.  0.
         13    1    1    2    0    0  0.19234866859E+01 -0.17703373670E+02  0.69393348343E+02  0.71641867638E+02  0.10566000000E+00 0.  1.
        994    1    1    2    0    0  0.30145051759E+01  0.16149872206E+02  0.31074671975E+01  0.17201453998E+03  0.17120000000E+03 0.  0.
        998    1    1    2    0    0 -0.49379918619E+01  0.15535014643E+01  0.14274991807E+04  0.14275435924E+04  0.10000000000E+02 0.  1.
</event>
<event>
 5    1  0.1153629E-008  0.3842989E+03  0.7957747E-01  0.3432651E+00
         13   -1    0    0    0    0  0.00000000000E+00  0.00000000000E+00  0.14999999963E+04  0.15000000000E+04  0.10566000000E+00 0. -1.
        994   -1    0    0    0    0 -0.00000000000E+00 -0.00000000000E+00  0.11368683772E-12  0.17120000000E+03  0.17120000000E+03 0.  0.
         13    1    1    2    0    0 -0.53710763127E+01 -0.21290005976E+02  0.12600128025E+03  0.12790014310E+03  0.10566000000E+00 0. -1.
        994    1    1    2    0    0 -0.20518753918E+01  0.99641657599E+01  0.23198356069E+01  0.17151768547E+03  0.17120000000E+03 0.  0.
        998    1    1    2    0    0  0.74229517046E+01  0.11325840217E+02  0.13716788804E+04  0.13717821714E+04  0.10000000000E+02 0. -1.
</event>
<event>
 5    1  0.1153629E-008  0.3852177E+03  0.7957747E-01  0.3428750E+00
         13   -1    0    0    0    0  0.00000000000E+00  0.00000000000E+00  0.14999999963E+04  0.15000000000E+04  0.10566000000E+00 0.  1.
        994   -1    0    0    0    0 -0.00000000000E+00 -0.00000000000E+00  0.11368683772E-12  0.17120000000E+03  0.17120000000E+03 0.  0.
         13    1    1    2    0    0 -0.10527695757E+02 -0.76865022116E+01  0.62112129778E+02  0.63465285974E+02  0.10566000000E+00 0.  1.
        994    1    1    2    0    0  0.70229554310E+01 -0.21266254472E+02  0.31721860627E+01  0.17268780573E+03  0.17120000000E+03 0.  0.
        998    1    1    2    0    0  0.35047403255E+01  0.28952756684E+02  0.14347156804E+04  0.14350469083E+04  0.10000000000E+02 0.  1.
</event>
<event>
 5    1  0.1153629E-008  0.3694431E+03  0.7957747E-01  0.3498454E+00
         13   -1    0    0    0    0  0.00000000000E+00  0.00000000000E+00  0.14999999963E+04  0.15000000000E+04  0.10566000000E+00 0. -1.
        994   -1    0    0    0    0 -0.00000000000E+00 -0.00000000000E+00  0.11368683772E-12  0.17120000000E+03  0.17120000000E+03 0.  0.
         13    1    1    2    0    0  0.23848312944E+02  0.45387126006E+02  0.14718994198E+03  0.15586411845E+03  0.10566000000E+00 0. -1.
        994    1    1    2    0    0  0.63793628896E+01 -0.15224123236E+02  0.10504911779E+02  0.17231443170E+03  0.17120000000E+03 0.  0.
        998    1    1    2    0    0 -0.30227675833E+02 -0.30163002770E+02  0.13423051425E+04  0.13430214499E+04  0.10000000000E+02 0. -1.
</event>
<event>
 5    1  0.1153629E-008  0.3751282E+03  0.7957747E-01  0.3472649E+00
         13   -1    0    0    0    0  0.00000000000E+00  0.00000000000E+00  0.14999999963E+04  0.15000000000E+04  0.10566000000E+00 0. -1.
        994   -1    0    0    0    0 -0.00000000000E+00 -0.00000000000E+00  0.11368683772E-12  0.17120000000E+03  0.17120000000E+03 0.  0.
         13    1    1    2    0    0 -0.91894360461E+01 -0.57854034725E+02  0.21857309910E+03  0.22628686636E+03  0.10566000000E+00 0. -1.
        994    1    1    2    0    0  0.18266032583E+02  0.58072140722E+02  0.19310886563E+02  0.18272485275E+03  0.17120000000E+03 0.  0.
        998    1    1    2    0    0 -0.90765965370E+01 -0.21810599648E+00  0.12621160106E+04  0.12621882809E+04  0.10000000000E+02 0. -1.
</event>
<event>
 5    1  0.1153629E-008  0.3725815E+03  0.7957747E-01  0.3484110E+00
         13   -1    0    0    0    0  0.00000000000E+00  0.00000000000E+00  0.14999999963E+04  0.15000000000E+04  0.10566000000E+00 0.  1.
        994   -1    0    0    0    0 -0.00000000000E+00 -0.00000000000E+00  0.11368683772E-12  0.17120000000E+03  0.17120000000E+03 0.  0.
         13    1    1    2    0    0 -0.29471766738E+02 -0.47340558721E+02  0.14846969571E+03  0.15859689544E+03  0.10566000000E+00 0.  1.
        994    1    1    2    0    0  0.52319567071E+02  0.72560601147E+02  0.35870207119E+02  0.19646498338E+03  0.17120000000E+03 0.  0.
        998    1    1    2    0    0 -0.22847800333E+02 -0.25220042426E+02  0.13156600934E+04  0.13161381212E+04  0.10000000000E+02 0.  1.
</event>
<event>
 5    1  0.1153629E-008  0.3840571E+03  0.7957747E-01  0.3433681E+00
         13   -1    0    0    0    0  0.00000000000E+00  0.00000000000E+00  0.14999999963E+04  0.15000000000E+04  0.10566000000E+00 0.  1.
        994   -1    0    0    0    0 -0.00000000000E+00 -0.00000000000E+00  0.11368683772E-12  0.17120000000E+03  0.17120000000E+03 0.  0.
         13    1    1    2    0    0  0.11949175651E+01 -0.26451528687E+02  0.15961462186E+03  0.16179601316E+03  0.10566000000E+00 0.  1.
        994    1    1    2    0    0 -0.72609718085E+01  0.20482472577E+02  0.36583877610E+01  0.17261250591E+03  0.17120000000E+03 0.  0.
        998    1    1    2    0    0  0.60660542434E+01  0.59690561099E+01  0.13367269867E+04  0.13367914809E+04  0.10000000000E+02 0.  0.
</event>
<event>
 5    1  0.1153629E-008  0.3820818E+03  0.7957747E-01  0.3442144E+00
         13   -1    0    0    0    0  0.00000000000E+00  0.00000000000E+00  0.14999999963E+04  0.15000000000E+04  0.10566000000E+00 0. -1.
        994   -1    0    0    0    0 -0.00000000000E+00 -0.00000000000E+00  0.11368683772E-12  0.17120000000E+03  0.17120000000E+03 0.  0.
         13    1    1    2    0    0  0.45334510860E+01  0.15167852508E+02  0.40201281457E+02  0.43206135250E+02  0.10566000000E+00 0. -1.
        994    1    1    2    0    0  0.15027333564E+00 -0.64963711742E+01  0.32261689081E+01  0.17135365064E+03  0.17120000000E+03 0.  0.
        998    1    1    2    0    0 -0.46837244216E+01 -0.86714813342E+01  0.14565725459E+04  0.14566402141E+04  0.10000000000E+02 0. -1.
</event>
<event>
 5    1  0.1153629E-008  0.3779724E+03  0.7957747E-01  0.3460035E+00
         13   -1    0    0    0    0  0.00000000000E+00  0.00000000000E+00  0.14999999963E+04  0.15000000000E+04  0.10566000000E+00 0.  1.
        994   -1    0    0    0    0 -0.00000000000E+00 -0.00000000000E+00  0.11368683772E-12  0.17120000000E+03  0.17120000000E+03 0.  0.
         13    1    1    2    0    0 -0.39480919544E+01 -0.17747854672E+02  0.30100993296E+02  0.35166102101E+02  0.10566000000E+00 0.  1.
        994    1    1    2    0    0 -0.48100184103E+01  0.11725275104E+02  0.57009204329E+01  0.17176308930E+03  0.17120000000E+03 0.  0.
        998    1    1    2    0    0  0.87581103647E+01  0.60225795685E+01  0.14641980825E+04  0.14642708086E+04  0.10000000000E+02 0.  1.
</event>
<event>
 5    1  0.1153629E-008  0.3738748E+03  0.7957747E-01  0.3478270E+00
         13   -1    0    0    0    0  0.00000000000E+00  0.00000000000E+00  0.14999999963E+04  0.15000000000E+04  0.10566000000E+00 0. -1.
        994   -1    0    0    0    0 -0.00000000000E+00 -0.00000000000E+00  0.11368683772E-12  0.17120000000E+03  0.17120000000E+03 0.  0.
         13    1    1    2    0    0 -0.32053158314E+02 -0.39441768776E+01  0.64466452513E+02  0.72103371300E+02  0.10566000000E+00 0. -1.
        994    1    1    2    0    0  0.41435044259E+02  0.76393024846E+00  0.13140533503E+02  0.17663397211E+03  0.17120000000E+03 0.  0.
        998    1    1    2    0    0 -0.93818859455E+01  0.31802466291E+01  0.14223930103E+04  0.14224626566E+04  0.10000000000E+02 0. -1.
</event>
<event>
 5    1  0.1153629E-008  0.3856739E+03  0.7957747E-01  0.3426819E+00
         13   -1    0    0    0    0  0.00000000000E+00  0.00000000000E+00  0.14999999963E+04  0.15000000000E+04  0.10566000000E+00 0.  1.
        994   -1    0    0    0    0 -0.00000000000E+00 -0.00000000000E+00  0.11368683772E-12  0.17120000000E+03  0.17120000000E+03 0.  0.
         13    1    1    2    0    0 -0.56170359576E+01  0.98764712776E+01  0.50756515368E+02  0.52012794524E+02  0.10566000000E+00 0.  1.
        994    1    1    2    0    0 -0.72988349411E+00 -0.69863829147E+01  0.14578550822E+01  0.17135024837E+03  0.17120000000E+03 0.  0.
        998    1    1    2    0    0  0.63469194517E+01 -0.28900883629E+01  0.14477856258E+04  0.14478369571E+04  0.10000000000E+02 0.  1.
</event>
<event>
 5    1  0.1153629E-008  0.3693257E+03  0.7957747E-01  0.3498996E+00
         13   -1    0    0    0    0  0.00000000000E+00  0.00000000000E+00  0.14999999963E+04  0.15000000000E+04  0.10566000000E+00 0. -1.
        994   -1    0    0    0    0 -0.00000000000E+00 -0.00000000000E+00  0.11368683772E-12  0.17120000000E+03  0.17120000000E+03 0.  0.
         13    1    1    2    0    0 -0.22740931592E+02 -0.30033902464E+01  0.20766740791E+02  0.30942511368E+02  0.10566000000E+00 0. -1.
        994    1    1    2    0    0  0.96697666561E+01 -0.97114740021E+01  0.11238009534E+02  0.17211493245E+03  0.17120000000E+03 0.  0.
        998    1    1    2    0    0  0.13071164936E+02  0.12714864248E+02  0.14679952460E+04  0.14681425562E+04  0.10000000000E+02 0. -1.
</event>
<event>
 5    1  0.1153629E-008  0.3803111E+03  0.7957747E-01  0.3449805E+00
         13   -1    0    0    0    0  0.00000000000E+00  0.00000000000E+00  0.14999999963E+04  0.15000000000E+04  0.10566000000E+00 0.  1.
        994   -1    0    0    0    0 -0.00000000000E+00 -0.00000000000E+00  0.11368683772E-12  0.17120000000E+03  0.17120000000E+03 0.  0.
         13    1    1    2    0    0  0.18948123873E+02  0.28762050566E+02  0.11672593418E+03  0.12170144545E+03  0.10566000000E+00 0.  1.
        994    1    1    2    0    0 -0.31154803335E+02 -0.55509745299E+02  0.17628299363E+02  0.18349972897E+03  0.17120000000E+03 0.  0.
        998    1    1    2    0    0  0.12206679462E+02  0.26747694733E+02  0.13656457627E+04  0.13659988256E+04  0.10000000000E+02 0.  1.
</event>
<event>
 5    1  0.1153629E-008  0.3804441E+03  0.7957747E-01  0.3449227E+00
         13   -1    0    0    0    0  0.00000000000E+00  0.00000000000E+00  0.14999999963E+04  0.15000000000E+04  0.10566000000E+00 0.  1.
        994   -1    0    0    0    0 -0.00000000000E+00 -0.00000000000E+00  0.11368683772E-12  0.17120000000E+03  0.17120000000E+03 0.  0.
         13    1    1    2    0    0 -0.32932499350E+02  0.24024720989E+02  0.20754982116E+03  0.21151519132E+03  0.10566000000E+00 0.  1.
        994    1    1    2    0    0  0.26669149459E+02 -0.74044528360E+01  0.64704787289E+01  0.17354358689E+03  0.17120000000E+03 0.  0.
        998    1    1    2    0    0  0.62633498915E+01 -0.16620268153E+02  0.12859796964E+04  0.12861412218E+04  0.10000000000E+02 0.  1.
</event>
<event>
 5    1  0.1153629E-008  0.3825283E+03  0.7957747E-01  0.3440223E+00
         13   -1    0    0    0    0  0.00000000000E+00  0.00000000000E+00  0.14999999963E+04  0.15000000000E+04  0.10566000000E+00 0. -1.
        994   -1    0    0    0    0 -0.00000000000E+00 -0.00000000000E+00  0.11368683772E-12  0.17120000000E+03  0.17120000000E+03 0.  0.
         13    1    1    2    0    0 -0.23107604924E+02 -0.68682562859E+02  0.12457857909E+03  0.14412178662E+03  0.10566000000E+00 0. -1.
        994    1    1    2    0    0  0.20078023212E+02  0.84259648102E+02  0.45710685477E+02  0.19723519483E+03  0.17120000000E+03 0.  0.
        998    1    1    2    0    0  0.30295817124E+01 -0.15577085243E+02  0.13297107317E+04  0.13298430185E+04  0.10000000000E+02 0. -1.
</event>
<event>
 5    1  0.1153629E-008  0.3801697E+03  0.7957747E-01  0.3450420E+00
         13   -1    0    0    0    0  0.00000000000E+00  0.00000000000E+00  0.14999999963E+04  0.15000000000E+04  0.10566000000E+00 0. -1.
        994   -1    0    0    0    0 -0.00000000000E+00 -0.00000000000E+00  0.11368683772E-12  0.17120000000E+03  0.17120000000E+03 0.  0.
         13    1    1    2    0    0  0.35148043930E+02 -0.14748171524E+02  0.21042671954E+03  0.21385113751E+03  0.10566000000E+00 0. -1.
        994    1    1    2    0    0  0.30330637832E+01  0.10196021817E+02  0.44256580114E+01  0.17158725123E+03  0.17120000000E+03 0.  0.
        998    1    1    2    0    0 -0.38181107714E+02  0.45521497075E+01  0.12851476187E+04  0.12857616113E+04  0.10000000000E+02 0. -1.
</event>
<event>
 5    1  0.1153629E-008  0.3850104E+03  0.7957747E-01  0.3429628E+00
         13   -1    0    0    0    0  0.00000000000E+00  0.00000000000E+00  0.14999999963E+04  0.15000000000E+04  0.10566000000E+00 0.  1.
        994   -1    0    0    0    0 -0.00000000000E+00 -0.00000000000E+00  0.11368683772E-12  0.17120000000E+03  0.17120000000E+03 0.  0.
         13    1    1    2    0    0 -0.12239547402E+02 -0.63545619546E+01  0.57257805679E+02  0.58895283796E+02  0.10566000000E+00 0.  1.
        994    1    1    2    0    0  0.10388260558E+02  0.77907079438E+01  0.21796557449E+01  0.17170556772E+03  0.17120000000E+03 0.  0.
        998    1    1    2    0    0  0.18512868439E+01 -0.14361459892E+01  0.14405625349E+04  0.14405991485E+04  0.10000000000E+02 0.  1.
</event>
<event>
 5    1  0.1153629E-008  0.3701329E+03  0.7957747E-01  0.3495280E+00
         13   -1    0    0    0    0  0.00000000000E+00  0.00000000000E+00  0.14999999963E+04  0.15000000000E+04  0.10566000000E+00 0. -1.
        994   -1    0    0    0    0 -0.00000000000E+00 -0.00000000000E+00  0.11368683772E-12  0.17120000000E+03  0.17120000000E+03 0.  0.
         13    1    1    2    0    0 -0.10376078134E+03  0.33197735919E+02  0.47314106534E+03  0.48552123361E+03  0.10566000000E+00 0. -1.
        994    1    1    2    0    0  0.71851605607E+02 -0.33538273296E+02  0.33336777798E+02  0.19159397109E+03  0.17120000000E+03 0.  0.
        998    1    1    2    0    0  0.31909175728E+02  0.34053737741E+00  0.99352215314E+03  0.99408479530E+03  0.10000000000E+02 0. -1.
</event>
<event>
 5    1  0.1153629E-008  0.3853864E+03  0.7957747E-01  0.3428035E+00
         13   -1    0    0    0    0  0.00000000000E+00  0.00000000000E+00  0.14999999963E+04  0.15000000000E+04  0.10566000000E+00 0. -1.
        994   -1    0    0    0    0 -0.00000000000E+00 -0.00000000000E+00  0.11368683772E-12  0.17120000000E+03  0.17120000000E+03 0.  0.
         13    1    1    2    0    0  0.11942703603E+02 -0.88309135709E+01  0.79333071554E+02  0.80711589069E+02  0.10566000000E+00 0. -1.
        994    1    1    2    0    0 -0.69912962616E+01  0.16590531055E+00  0.15990737572E+01  0.17135023427E+03  0.17120000000E+03 0.  0.
        998    1    1    2    0    0 -0.49514073411E+01  0.86650082603E+01  0.14190678510E+04  0.14191381767E+04  0.10000000000E+02 0. -1.
</event>
<event>
 5    1  0.1153629E-008  0.3818457E+03  0.7957747E-01  0.3443161E+00
         13   -1    0    0    0    0  0.00000000000E+00  0.00000000000E+00  0.14999999963E+04  0.15000000000E+04  0.10566000000E+00 0.  1.
        994   -1    0    0    0    0 -0.00000000000E+00 -0.00000000000E+00  0.11368683772E-12  0.17120000000E+03  0.17120000000E+03 0.  0.
         13    1    1    2    0    0  0.17602488661E+02 -0.20810443127E+02  0.13340894248E+03  0.13616489726E+03  0.10566000000E+00 0.  1.
        994    1    1    2    0    0  0.11907586047E+01 -0.60868459942E+01  0.33321542052E+01  0.17134471352E+03  0.17120000000E+03 0.  0.
        998    1    1    2    0    0 -0.18793247265E+02  0.26897289121E+02  0.13632588996E+04  0.13636903892E+04  0.10000000000E+02 0.  1.
</event>
<event>
 5    1  0.1153629E-008  0.3748141E+03  0.7957747E-01  0.3474055E+00
         13   -1    0    0    0    0  0.00000000000E+00  0.00000000000E+00  0.14999999963E+04  0.15000000000E+04  0.10566000000E+00 0.  1.
        994   -1    0    0    0    0 -0.00000000000E+00 -0.00000000000E+00  0.11368683772E-12  0.17120000000E+03  0.17120000000E+03 0.  0.
         13    1    1    2    0    0  0.42402133942E+02 -0.15304946494E+02  0.67903981089E+02  0.81505485471E+02  0.10566000000E+00 0.  1.
        994    1    1    2    0    0 -0.38451218987E+02  0.18902356638E+02  0.20064024676E+02  0.17761700486E+03  0.17120000000E+03 0.  0.
        998    1    1    2    0    0 -0.39509149558E+01 -0.35974101448E+01  0.14120319905E+04  0.14120775097E+04  0.10000000000E+02 0.  1.
</event>
<event>
 5    1  0.1153629E-008  0.3832478E+03  0.7957747E-01  0.3437138E+00
         13   -1    0    0    0    0  0.00000000000E+00  0.00000000000E+00  0.14999999963E+04  0.15000000000E+04  0.10566000000E+00 0. -1.
        994   -1    0    0    0    0 -0.00000000000E+00 -0.00000000000E+00  0.11368683772E-12  0.17120000000E+03  0.17120000000E+03 0.  0.
         13    1    1    2    0    0 -0.16021293512E+01  0.15465591670E+02  0.46961402655E+02  0.49468533913E+02  0.10566000000E+00 0. -1.
        994    1    1    2    0    0 -0.50764091396E-01 -0.13292752259E+02  0.30872181570E+01  0.17174303699E+03  0.17120000000E+03 0.  0.
        998    1    1    2    0    0  0.16528934426E+01 -0.21728394113E+01  0.14499513755E+04  0.14499884291E+04  0.10000000000E+02 0. -1.
</event>
<event>
 5    1  0.1153629E-008  0.3849556E+03  0.7957747E-01  0.3429860E+00
         13   -1    0    0    0    0  0.00000000000E+00  0.00000000000E+00  0.14999999963E+04  0.15000000000E+04  0.10566000000E+00 0.  1.
        994   -1    0    0    0    0 -0.00000000000E+00 -0.00000000000E+00  0.11368683772E-12  0.17120000000E+03  0.17120000000E+03 0.  0.
         13    1    1    2    0    0  0.24940669858E+01 -0.18457476483E+02  0.10354660350E+03  0.10520840778E+03  0.10566000000E+00 0.  1.
        994    1    1    2    0    0 -0.23723565559E+02  0.11355341417E+02  0.39307422548E+01  0.17325311563E+03  0.17120000000E+03 0.  0.
        998    1    1    2    0    0  0.21229498573E+02  0.71021350662E+01  0.13925226505E+04  0.13927384766E+04  0.10000000000E+02 0.  1.
</event>
<event>
 5    1  0.1153629E-008  0.3743382E+03  0.7957747E-01  0.3476188E+00
         13   -1    0    0    0    0  0.00000000000E+00  0.00000000000E+00  0.14999999963E+04  0.15000000000E+04  0.10566000000E+00 0.  1.
        994   -1    0    0    0    0 -0.00000000000E+00 -0.00000000000E+00  0.11368683772E-12  0.17120000000E+03  0.17120000000E+03 0.  0.
         13    1    1    2    0    0 -0.57431864320E+02 -0.13425374641E+02  0.21799205222E+03  0.22583003724E+03  0.10566000000E+00 0.  1.
        994    1    1    2    0    0  0.49813165545E+02  0.23432785868E+02  0.17414191745E+02  0.18067412928E+03  0.17120000000E+03 0.  0.
        998    1    1    2    0    0  0.76186987746E+01 -0.10007411228E+02  0.12645937523E+04  0.12646958335E+04  0.10000000000E+02 0.  1.
</event>
<event>
 5    1  0.1153629E-008  0.3761338E+03  0.7957747E-01  0.3468167E+00
         13   -1    0    0    0    0  0.00000000000E+00  0.00000000000E+00  0.14999999963E+04  0.15000000000E+04  0.10566000000E+00 0. -1.
        994   -1    0    0    0    0 -0.00000000000E+00 -0.00000000000E+00  0.11368683772E-12  0.17120000000E+03  0.17120000000E+03 0.  0.
         13    1    1    2    0    0  0.18823577790E+02 -0.43000684499E+02  0.16529527036E+03  0.17183109007E+03  0.10566000000E+00 0. -1.
        994    1    1    2    0    0 -0.19679827060E+02  0.36565768035E+02  0.11959109554E+02  0.17656956501E+03  0.17120000000E+03 0.  0.
        998    1    1    2    0    0  0.85624926940E+00  0.64349164639E+01  0.13227456164E+04  0.13227993449E+04  0.10000000000E+02 0. -1.
</event>
<event>
 5    1  0.1153629E-008  0.3761722E+03  0.7957747E-01  0.3467997E+00
         13   -1    0    0    0    0  0.00000000000E+00  0.00000000000E+00  0.14999999963E+04  0.15000000000E+04  0.10566000000E+00 0. -1.
        994   -1    0    0    0    0 -0.00000000000E+00 -0.00000000000E+00  0.11368683772E-12  0.17120000000E+03  0.17120000000E+03 0.  0.
         13    1    1    2    0    0 -0.26812594801E+02 -0.46492519970E+02  0.21997618903E+03  0.22642880682E+03  0.10566000000E+00 0. -1.
        994    1    1    2    0    0  0.29199416036E+02  0.30622247537E+02  0.12163885613E+02  0.17677026915E+03  0.17120000000E+03 0.  0.
        998    1    1    2    0    0 -0.23868212355E+01  0.15870272433E+02  0.12678599216E+04  0.12680009240E+04  0.10000000000E+02 0. -1.
</event>
<event>
 5    1  0.1153629E-008  0.3775469E+03  0.7957747E-01  0.3461910E+00
         13   -1    0    0    0    0  0.00000000000E+00  0.00000000000E+00  0.14999999963E+04  0.15000000000E+04  0.10566000000E+00 0.  1.
        994   -1    0    0    0    0 -0.00000000000E+00 -0.00000000000E+00  0.11368683772E-12  0.17120000000E+03  0.17120000000E+03 0.  0.
         13    1    1    2    0    0 -0.60390151139E+01 -0.38033021912E+02  0.12251869486E+03  0.12842827653E+03  0.10566000000E+00 0.  1.
        994    1    1    2    0    0 -0.14077262699E+01  0.44585552773E+02  0.12112439454E+02  0.17733021288E+03  0.17120000000E+03 0.  0.
        998    1    1    2    0    0  0.74467413838E+01 -0.65525308615E+01  0.13653688620E+04  0.13654415106E+04  0.10000000000E+02 0.  1.
</event>
<event>
 5    1  0.1153629E-008  0.3721458E+03  0.7957747E-01  0.3486087E+00
         13   -1    0    0    0    0  0.00000000000E+00  0.00000000000E+00  0.14999999963E+04  0.15000000000E+04  0.10566000000E+00 0. -1.
        994   -1    0    0    0    0 -0.00000000000E+00 -0.00000000000E+00  0.11368683772E-12  0.17120000000E+03  0.17120000000E+03 0.  0.
         13    1    1    2    0    0 -0.12423786250E+02 -0.12802484773E+02  0.16081917118E+02  0.24018603277E+02  0.10566000000E+00 0. -1.
        994    1    1    2    0    0 -0.22516375401E+01  0.15713634704E+02  0.90171245845E+01  0.17217066162E+03  0.17120000000E+03 0.  0.
        998    1    1    2    0    0  0.14675423790E+02 -0.29111499311E+01  0.14749009546E+04  0.14750107351E+04  0.10000000000E+02 0. -1.
</event>
<event>
 5    1  0.1153629E-008  0.3776412E+03  0.7957747E-01  0.3461494E+00
         13   -1    0    0    0    0  0.00000000000E+00  0.00000000000E+00  0.14999999963E+04  0.15000000000E+04  0.10566000000E+00 0. -1.
        994   -1    0    0    0    0 -0.00000000000E+00 -0.00000000000E+00  0.11368683772E-12  0.17120000000E+03  0.17120000000E+03 0.  0.
         13    1    1    2    0    0  0.32457228649E+01 -0.29823558224E+02  0.22721336283E+02  0.37633092200E+02  0.10566000000E+00 0. -1.
        994    1    1    2    0    0 -0.34663947189E+02  0.35800297670E+02  0.24012717400E+02  0.17991470519E+03  0.17120000000E+03 0.  0.
        998    1    1    2    0    0  0.31418224325E+02 -0.59767394459E+01  0.14532659426E+04  0.14536522026E+04  0.10000000000E+02 0. -1.
</event>
<event>
 5    1  0.1153629E-008  0.3727146E+03  0.7957747E-01  0.3483507E+00
         13   -1    0    0    0    0  0.00000000000E+00  0.00000000000E+00  0.14999999963E+04  0.15000000000E+04  0.10566000000E+00 0.  1.
        994   -1    0    0    0    0 -0.00000000000E+00 -0.00000000000E+00  0.11368683772E-12  0.17120000000E+03  0.17120000000E+03 0.  0.
         13    1    1    2    0    0  0.85878520565E+02 -0.22057008300E+03  0.84809569294E+03  0.88050701153E+03  0.10566000000E+00 0.  1.
        994    1    1    2    0    0 -0.59932910981E+02  0.24206290804E+03  0.26485014197E+03  0.40204656816E+03  0.17120000000E+03 0.  0.
        998    1    1    2    0    0 -0.25945609584E+02 -0.21492825042E+02  0.38705416138E+03  0.38864642031E+03  0.10000000000E+02 0.  1.
</event>
<event>
 5    1  0.1153629E-008  0.3796262E+03  0.7957747E-01  0.3452788E+00
         13   -1    0    0    0    0  0.00000000000E+00  0.00000000000E+00  0.14999999963E+04  0.15000000000E+04  0.10566000000E+00 0.  1.
        994   -1    0    0    0    0 -0.00000000000E+00 -0.00000000000E+00  0.11368683772E-12  0.17120000000E+03  0.17120000000E+03 0.  0.
         13    1    1    2    0    0 -0.11999251211E+02  0.86400300231E+01  0.23550580548E+02  0.27807789495E+02  0.10566000000E+00 0.  1.
        994    1    1    2    0    0  0.70795127587E+01 -0.68185371247E+01  0.46453638765E+01  0.17154483774E+03  0.17120000000E+03 0.  0.
        998    1    1    2    0    0  0.49197384523E+01 -0.18214928984E+01  0.14718040519E+04  0.14718473728E+04  0.10000000000E+02 0.  1.
</event>
<event>
 5    1  0.1153629E-008  0.3819366E+03  0.7957747E-01  0.3442769E+00
         13   -1    0    0    0    0  0.00000000000E+00  0.00000000000E+00  0.14999999963E+04  0.15000000000E+04  0.10566000000E+00 0.  1.
        994   -1    0    0    0    0 -0.00000000000E+00 -0.00000000000E+00  0.11368683772E-12  0.17120000000E+03  0.17120000000E+03 0.  0.
         13    1    1    2    0    0  0.21229602084E+02  0.10062642218E+02  0.85393937953E+02  0.88566859356E+02  0.10566000000E+00 0.  1.
        994    1    1    2    0    0 -0.16749464731E+02 -0.37083691520E+01  0.41368840716E+01  0.17210708986E+03  0.17120000000E+03 0.  0.
        998    1    1    2    0    0 -0.44801373524E+01 -0.63542730662E+01  0.14104691743E+04  0.14105260508E+04  0.10000000000E+02 0.  1.
</event>
<event>
 5    1  0.1153629E-008  0.3860296E+03  0.7957747E-01  0.3425317E+00
         13   -1    0    0    0    0  0.00000000000E+00  0.00000000000E+00  0.14999999963E+04  0.15000000000E+04  0.10566000000E+00 0.  1.
        994   -1    0    0    0    0 -0.00000000000E+00 -0.00000000000E+00  0.11368683772E-12  0.17120000000E+03  0.17120000000E+03 0.  0.
         13    1    1    2    0    0  0.66589036982E+01  0.93272382191E+01  0.59104866279E+02  0.60205770099E+02  0.10566000000E+00 0.  1.
        994    1    1    2    0    0 -0.98179085896E+01 -0.32279937535E+01  0.14699882760E+01  0.17151796448E+03  0.17120000000E+03 0.  0.
        998    1    1    2    0    0  0.31590048914E+01 -0.60992444657E+01  0.14394251417E+04  0.14394762654E+04  0.10000000000E+02 0.  1.
</event>
<event>
 5    1  0.1153629E-008  0.3805612E+03  0.7957747E-01  0.3448719E+00
         13   -1    0    0    0    0  0.00000000000E+00  0.00000000000E+00  0.14999999963E+04  0.15000000000E+04  0.10566000000E+00 0.  1.
        994   -1    0    0    0    0 -0.00000000000E+00 -0.00000000000E+00  0.11368683772E-12  0.17120000000E+03  0.17120000000E+03 0.  0.
         13    1    1    2    0    0  0.21615427619E+02  0.20905989905E+02  0.12117473141E+03  0.12485036573E+03  0.10566000000E+00 0.  1.
        994    1    1    2    0    0 -0.90209306106E+01 -0.62352487183E+01  0.42515111567E+01  0.17160352812E+03  0.17120000000E+03 0.  0.
        998    1    1    2    0    0 -0.12594497009E+02 -0.14670741186E+02  0.13745737537E+04  0.13747461062E+04  0.10000000000E+02 0.  1.
</event>
<event>
 5    1  0.1153629E-008  0.3771571E+03  0.7957747E-01  0.3463631E+00
         13   -1    0    0    0    0  0.00000000000E+00  0.00000000000E+00  0.14999999963E+04  0.15000000000E+04  0.10566000000E+00 0.  1.
        994   -1    0    0    0    0 -0.00000000000E+00 -0.00000000000E+00  0.11368683772E-12  0.17120000000E+03  0.17120000000E+03 0.  0.
         13    1    1    2    0    0 -0.62382405729E+02  0.25609515337E+02  0.14086359825E+03  0.15617290513E+03  0.10566000000E+00 0.  1.
        994    1    1    2    0    0  0.56136526019E+02 -0.15774498171E+02  0.27070393765E+02  0.18287260747E+03  0.17120000000E+03 0.  0.
        998    1    1    2    0    0  0.62458797099E+01 -0.98350171659E+01  0.13320660043E+04  0.13321544874E+04  0.10000000000E+02 0.  1.
</event>
<event>
 5    1  0.1868092E-008  0.3861226E+03  0.7957747E-01  0.3424925E+00
         13   -1    0    0    0    0  0.00000000000E+00  0.00000000000E+00  0.14999999963E+04  0.15000000000E+04  0.10566000000E+00 0.  1.
        994   -1    0    0    0    0 -0.00000000000E+00 -0.00000000000E+00  0.11368683772E-12  0.17120000000E+03  0.17120000000E+03 0.  0.
         13    1    1    2    0    0  0.88591009983E+01  0.51134157658E+01  0.53949566458E+02  0.54910814748E+02  0.10566000000E+00 0.  1.
        994    1    1    2    0    0  0.37841629965E+01  0.41930105212E+01  0.11783301133E+01  0.17129719697E+03  0.17120000000E+03 0.  0.
        998    1    1    2    0    0 -0.12643263995E+02 -0.93064262871E+01  0.14448720997E+04  0.14449919883E+04  0.10000000000E+02 0.  1.
</event>
<event>
 5    1  0.1153629E-008  0.3851322E+03  0.7957747E-01  0.3429112E+00
         13   -1    0    0    0    0  0.00000000000E+00  0.00000000000E+00  0.14999999963E+04  0.15000000000E+04  0.10566000000E+00 0.  1.
        994   -1    0    0    0    0 -0.00000000000E+00 -0.00000000000E+00  0.11368683772E-12  0.17120000000E+03  0.17120000000E+03 0.  0.
         13    1    1    2    0    0  0.11980584047E+02 -0.13458760736E+01  0.43467442440E+02  0.45108485818E+02  0.10566000000E+00 0.  1.
        994    1    1    2    0    0 -0.20540268307E+02  0.18470018044E+01  0.29638772246E+01  0.17246315144E+03  0.17120000000E+03 0.  0.
        998    1    1    2    0    0  0.85596842599E+01 -0.50112573077E+00  0.14535686766E+04  0.14536283627E+04  0.10000000000E+02 0.  1.
</event>
<event>
 5    1  0.1153629E-008  0.3833105E+03  0.7957747E-01  0.3436869E+00
         13   -1    0    0    0    0  0.00000000000E+00  0.00000000000E+00  0.14999999963E+04  0.15000000000E+04  0.10566000000E+00 0.  1.
        994   -1    0    0    0    0 -0.00000000000E+00 -0.00000000000E+00  0.11368683772E-12  0.17120000000E+03  0.17120000000E+03 0.  0.
         13    1    1    2    0    0 -0.16158126056E+03 -0.10490359788E+03  0.11195393552E+04  0.11359936829E+04  0.10566000000E+00 0.  1.
        994    1    1    2    0    0  0.16045429261E+03  0.11325622407E+03  0.14265138639E+03  0.29703772546E+03  0.17120000000E+03 0.  0.
        998    1    1    2    0    0  0.11269679482E+01 -0.83526261933E+01  0.23780925472E+03  0.23816859166E+03  0.10000000000E+02 0.  1.
</event>
<event>
 5    1  0.1153629E-008  0.3750181E+03  0.7957747E-01  0.3473142E+00
         13   -1    0    0    0    0  0.00000000000E+00  0.00000000000E+00  0.14999999963E+04  0.15000000000E+04  0.10566000000E+00 0. -1.
        994   -1    0    0    0    0 -0.00000000000E+00 -0.00000000000E+00  0.11368683772E-12  0.17120000000E+03  0.17120000000E+03 0.  0.
         13    1    1    2    0    0  0.20240831592E+02 -0.26867706289E+01  0.27935814084E+02  0.34602469168E+02  0.10566000000E+00 0. -1.
        994    1    1    2    0    0 -0.21427283002E+02  0.22479081937E+01  0.82487527385E+01  0.17274739787E+03  0.17120000000E+03 0.  0.
        998    1    1    2    0    0  0.11864514092E+01  0.43886243517E+00  0.14638154295E+04  0.14638501330E+04  0.10000000000E+02 0. -1.
</event>
<event>
 5    1  0.1153629E-008  0.3829149E+03  0.7957747E-01  0.3438564E+00
         13   -1    0    0    0    0  0.00000000000E+00  0.00000000000E+00  0.14999999963E+04  0.15000000000E+04  0.10566000000E+00 0.  1.
        994   -1    0    0    0    0 -0.00000000000E+00 -0.00000000000E+00  0.11368683772E-12  0.17120000000E+03  0.17120000000E+03 0.  0.
         13    1    1    2    0    0  0.24638721466E+02  0.69534986015E+01  0.11529064377E+03  0.11809894768E+03  0.10566000000E+00 0.  1.
        994    1    1    2    0    0 -0.23364908481E+02 -0.59421810232E+01  0.45957378274E+01  0.17295025085E+03  0.17120000000E+03 0.  0.
        998    1    1    2    0    0 -0.12738129853E+01 -0.10113175783E+01  0.13801136147E+04  0.13801508015E+04  0.10000000000E+02 0.  1.
</event>
<event>
 5    1  0.1153629E-008  0.3833348E+03  0.7957747E-01  0.3436765E+00
         13   -1    0    0    0    0  0.00000000000E+00  0.00000000000E+00  0.14999999963E+04  0.15000000000E+04  0.10566000000E+00 0.  1.
        994   -1    0    0    0    0 -0.00000000000E+00 -0.00000000000E+00  0.11368683772E-12  0.17120000000E+03  0.17120000000E+03 0.  0.
         13    1    1    2    0    0 -0.10813862795E+02  0.21944323943E+02  0.12150876287E+03  0.12394710001E+03  0.10566000000E+00 0.  1.
        994    1    1    2    0    0  0.67307689830E+01 -0.12721897447E+02  0.31443679775E+01  0.17183270054E+03  0.17120000000E+03 0.  0.
        998    1    1    2    0    0  0.40830938121E+01 -0.92224264965E+01  0.13753468654E+04  0.13754201995E+04  0.10000000000E+02 0.  1.
</event>
<event>
 5    1  0.1153629E-008  0.3785555E+03  0.7957747E-01  0.3457473E+00
         13   -1    0    0    0    0  0.00000000000E+00  0.00000000000E+00  0.14999999963E+04  0.15000000000E+04  0.10566000000E+00 0.  1.
        994   -1    0    0    0    0 -0.00000000000E+00 -0.00000000000E+00  0.11368683772E-12  0.17120000000E+03  0.17120000000E+03 0.  0.
         13    1    1    2    0    0 -0.34988286087E+02  0.34053790891E+01  0.12167183740E+03  0.12664842657E+03  0.10566000000E+00 0.  1.
        994    1    1    2    0    0  0.25150078078E+02 -0.18710424562E+02  0.81717055181E+01  0.17423783512E+03  0.17120000000E+03 0.  0.
        998    1    1    2    0    0  0.98382080091E+01  0.15305045473E+02  0.13701564534E+04  0.13703137383E+04  0.10000000000E+02 0.  1.
</event>
<event>
 5    1  0.1153629E-008  0.3829309E+03  0.7957747E-01  0.3438495E+00
         13   -1    0    0    0    0  0.00000000000E+00  0.00000000000E+00  0.14999999963E+04  0.15000000000E+04  0.10566000000E+00 0.  1.
        994   -1    0    0    0    0 -0.00000000000E+00 -0.00000000000E+00  0.11368683772E-12  0.17120000000E+03  0.17120000000E+03 0.  0.
         13    1    1    2    0    0  0.24356608389E+00 -0.15497103185E+02  0.45547219124E+02  0.48112159228E+02  0.10566000000E+00 0.  1.
        994    1    1    2    0    0 -0.49042909919E+01  0.38669681928E+01  0.27900449495E+01  0.17133659815E+03  0.17120000000E+03 0.  0.
        998    1    1    2    0    0  0.46607249080E+01  0.11630134992E+02  0.14516627322E+04  0.14517512426E+04  0.10000000000E+02 0.  1.
</event>
<event>
 5    1  0.1153629E-008  0.3692851E+03  0.7957747E-01  0.3499183E+00
         13   -1    0    0    0    0  0.00000000000E+00  0.00000000000E+00  0.14999999963E+04  0.15000000000E+04  0.10566000000E+00 0.  1.
        994   -1    0    0    0    0 -0.00000000000E+00 -0.00000000000E+00  0.11368683772E-12  0.17120000000E+03  0.17120000000E+03 0.  0.
         13    1    1    2    0    0 -0.81660566791E+02  0.22286136678E+02  0.43884118591E+03  0.44693032753E+03  0.10566000000E+00 0.  1.
        994    1    1    2    0    0  0.25891189148E+02  0.25395108236E+02  0.15161894161E+02  0.17565474156E+03  0.17120000000E+03 0.  0.
        998    1    1    2    0    0  0.55769377643E+02 -0.47681244914E+02  0.10459969162E+04  0.10486149309E+04  0.10000000000E+02 0.  1.
</event>
<event>
 5    1  0.1153629E-008  0.3703853E+03  0.7957747E-01  0.3494122E+00
         13   -1    0    0    0    0  0.00000000000E+00  0.00000000000E+00  0.14999999963E+04  0.15000000000E+04  0.10566000000E+00 0. -1.
        994   -1    0    0    0    0 -0.00000000000E+00 -0.00000000000E+00  0.11368683772E-12  0.17120000000E+03  0.17120000000E+03 0.  0.
         13    1    1    2    0    0  0.10943659532E+02  0.19242560685E+02  0.22888645183E+02  0.31842441301E+02  0.10566000000E+00 0. -1.
        994    1    1    2    0    0 -0.34770338430E+01 -0.22435212394E+02  0.10849631419E+02  0.17303925283E+03  0.17120000000E+03 0.  0.
        998    1    1    2    0    0 -0.74666256892E+01  0.31926517093E+01  0.14662617197E+04  0.14663183059E+04  0.10000000000E+02 0. -1.
</event>
<event>
 5    1  0.1153629E-008  0.3707311E+03  0.7957747E-01  0.3492538E+00
         13   -1    0    0    0    0  0.00000000000E+00  0.00000000000E+00  0.14999999963E+04  0.15000000000E+04  0.10566000000E+00 0. -1.
        994   -1    0    0    0    0 -0.00000000000E+00 -0.00000000000E+00  0.11368683772E-12  0.17120000000E+03  0.17120000000E+03 0.  0.
         13    1    1    2    0    0 -0.17593587257E+03  0.44505785250E+02  0.75663555564E+03  0.77809483445E+03  0.10566000000E+00 0. -1.
        994    1    1    2    0    0  0.18771583496E+03 -0.14304474327E+02  0.14321229526E+03  0.29199495577E+03  0.17120000000E+03 0.  0.
        998    1    1    2    0    0 -0.11779962393E+02 -0.30201310923E+02  0.60015214538E+03  0.60111020978E+03  0.10000000000E+02 0.  1.
</event>
<event>
 5    1  0.1153629E-008  0.3769234E+03  0.7957747E-01  0.3464665E+00
         13   -1    0    0    0    0  0.00000000000E+00  0.00000000000E+00  0.14999999963E+04  0.15000000000E+04  0.10566000000E+00 0.  1.
        994   -1    0    0    0    0 -0.00000000000E+00 -0.00000000000E+00  0.11368683772E-12  0.17120000000E+03  0.17120000000E+03 0.  0.
         13    1    1    2    0    0 -0.22654511648E+02 -0.15023108748E+02  0.62435371676E+02  0.68096310435E+02  0.10566000000E+00 0.  1.
        994    1    1    2    0    0  0.12294539680E+02  0.15333878369E+02  0.70000184694E+01  0.17246658746E+03  0.17120000000E+03 0.  0.
        998    1    1    2    0    0  0.10359971968E+02 -0.31076962103E+00  0.14305646061E+04  0.14306371021E+04  0.10000000000E+02 0.  1.
</event>
<event>
 5    1  0.1153629E-008  0.3831456E+03  0.7957747E-01  0.3437575E+00
         13   -1    0    0    0    0  0.00000000000E+00  0.00000000000E+00  0.14999999963E+04  0.15000000000E+04  0.10566000000E+00 0.  1.
        994   -1    0    0    0    0 -0.00000000000E+00 -0.00000000000E+00  0.11368683772E-12  0.17120000000E+03  0.17120000000E+03 0.  0.
         13    1    1    2    0    0  0.12420706410E+02 -0.17785958520E+01  0.29765957779E+02  0.32302643197E+02  0.10566000000E+00 0.  1.
        994    1    1    2    0    0 -0.93236731577E+01  0.92349722474E+01  0.31236176807E+01  0.17173063961E+03  0.17120000000E+03 0.  0.
        998    1    1    2    0    0 -0.30970332528E+01 -0.74563763954E+01  0.14671104208E+04  0.14671667172E+04  0.10000000000E+02 0.  1.
</event>
<event>
 5    1  0.1153629E-008  0.3847160E+03  0.7957747E-01  0.3430877E+00
         13   -1    0    0    0    0  0.00000000000E+00  0.00000000000E+00  0.14999999963E+04  0.15000000000E+04  0.10566000000E+00 0. -1.
        994   -1    0    0    0    0 -0.00000000000E+00 -0.00000000000E+00  0.11368683772E-12  0.17120000000E+03  0.17120000000E+03 0.  0.
         13    1    1    2    0    0  0.10512291725E+02  0.20660701794E+01  0.33873064982E+02  0.35527068816E+02  0.10566000000E+00 0. -1.
        994    1    1    2    0    0  0.33999368373E+01  0.70943961895E+01  0.19749335668E+01  0.17139203713E+03  0.17120000000E+03 0.  0.
        998    1    1    2    0    0 -0.13912228562E+02 -0.91604663689E+01  0.14641519977E+04  0.14642808941E+04  0.10000000000E+02 0. -1.
</event>
<event>
 5    1  0.1153629E-008  0.3848350E+03  0.7957747E-01  0.3430372E+00
         13   -1    0    0    0    0  0.00000000000E+00  0.00000000000E+00  0.14999999963E+04  0.15000000000E+04  0.10566000000E+00 0.  1.
        994   -1    0    0    0    0 -0.00000000000E+00 -0.00000000000E+00  0.11368683772E-12  0.17120000000E+03  0.17120000000E+03 0.  0.
         13    1    1    2    0    0  0.13718148587E+02  0.12054793715E+02  0.86513206520E+02  0.88419747334E+02  0.10566000000E+00 0.  1.
        994    1    1    2    0    0 -0.22970101705E+02 -0.17224605884E+02  0.44291351818E+01  0.17364725699E+03  0.17120000000E+03 0.  0.
        998    1    1    2    0    0  0.92519531176E+01  0.51698121687E+01  0.14090576546E+04  0.14091329957E+04  0.10000000000E+02 0.  1.
</event>
<event>
 5    1  0.1153629E-008  0.3841609E+03  0.7957747E-01  0.3433239E+00
         13   -1    0    0    0    0  0.00000000000E+00  0.00000000000E+00  0.14999999963E+04  0.15000000000E+04  0.10566000000E+00 0.  1.
        994   -1    0    0    0    0 -0.00000000000E+00 -0.00000000000E+00  0.11368683772E-12  0.17120000000E+03  0.17120000000E+03 0.  0.
         13    1    1    2    0    0 -0.18172523893E+02 -0.89966107374E+01  0.94943279261E+02  0.97084587192E+02  0.10566000000E+00 0.  1.
        994    1    1    2    0    0  0.20229392834E+02  0.53673190690E+01  0.34931232446E+01  0.17250993698E+03  0.17120000000E+03 0.  0.
        998    1    1    2    0    0 -0.20568689410E+01  0.36292916684E+01  0.14015635938E+04  0.14016054758E+04  0.10000000000E+02 0.  1.
</event>
<event>
 5    1  0.1153629E-008  0.3823652E+03  0.7957747E-01  0.3440924E+00
         13   -1    0    0    0    0  0.00000000000E+00  0.00000000000E+00  0.14999999963E+04  0.15000000000E+04  0.10566000000E+00 0. -1.
        994   -1    0    0    0    0 -0.00000000000E+00 -0.00000000000E+00  0.11368683772E-12  0.17120000000E+03  0.17120000000E+03 0.  0.
         13    1    1    2    0    0  0.11193731419E+02 -0.33391324843E+01  0.22046285258E+02  0.24949935602E+02  0.10566000000E+00 0. -1.
        994    1    1    2    0    0 -0.70665683218E+01  0.50740194793E+01  0.31950092482E+01  0.17145066388E+03  0.17120000000E+03 0.  0.
        998    1    1    2    0    0 -0.41271630975E+01 -0.17348869950E+01  0.14747587018E+04  0.14747994005E+04  0.10000000000E+02 0. -1.
</event>
<event>
 5    1  0.1153629E-008  0.3796787E+03  0.7957747E-01  0.3452559E+00
         13   -1    0    0    0    0  0.00000000000E+00  0.00000000000E+00  0.14999999963E+04  0.15000000000E+04  0.10566000000E+00 0. -1.
        994   -1    0    0    0    0 -0.00000000000E+00 -0.00000000000E+00  0.11368683772E-12  0.17120000000E+03  0.17120000000E+03 0.  0.
         13    1    1    2    0    0  0.45122458348E+02 -0.17264705010E+01  0.20498415139E+03  0.20989885763E+03  0.10566000000E+00 0. -1.
        994    1    1    2    0    0 -0.45519330497E+02 -0.17400880566E+00  0.11260854968E+02  0.17750573676E+03  0.17120000000E+03 0.  0.
        998    1    1    2    0    0  0.39687214871E+00  0.19004793067E+01  0.12837549899E+04  0.12837954056E+04  0.10000000000E+02 0. -1.
</event>
<event>
 5    1  0.1153629E-008  0.3733231E+03  0.7957747E-01  0.3480756E+00
         13   -1    0    0    0    0  0.00000000000E+00  0.00000000000E+00  0.14999999963E+04  0.15000000000E+04  0.10566000000E+00 0. -1.
        994   -1    0    0    0    0 -0.00000000000E+00 -0.00000000000E+00  0.11368683772E-12  0.17120000000E+03  0.17120000000E+03 0.  0.
         13    1    1    2    0    0 -0.18821355687E+02  0.13947088091E+02  0.32060036378E+02  0.39706697076E+02  0.10566000000E+00 0. -1.
        994    1    1    2    0    0  0.25327581264E+02 -0.16579151677E+02  0.10681351721E+02  0.17418348348E+03  0.17120000000E+03 0.  0.
        998    1    1    2    0    0 -0.65062255772E+01  0.26320635868E+01  0.14572586082E+04  0.14573098194E+04  0.10000000000E+02 0. -1.
</event>
<event>
 5    1  0.1153629E-008  0.3845024E+03  0.7957747E-01  0.3431785E+00
         13   -1    0    0    0    0  0.00000000000E+00  0.00000000000E+00  0.14999999963E+04  0.15000000000E+04  0.10566000000E+00 0. -1.
        994   -1    0    0    0    0 -0.00000000000E+00 -0.00000000000E+00  0.11368683772E-12  0.17120000000E+03  0.17120000000E+03 0.  0.
         13    1    1    2    0    0 -0.86442429207E+01  0.83104408550E+01  0.36399406059E+02  0.38323808375E+02  0.10566000000E+00 0. -1.
        994    1    1    2    0    0  0.12331973708E+02 -0.12153956657E+02  0.28655426648E+01  0.17209720385E+03  0.17120000000E+03 0.  0.
        998    1    1    2    0    0 -0.36877307875E+01  0.38435158020E+01  0.14607350476E+04  0.14607789878E+04  0.10000000000E+02 0. -1.
</event>
<event>
 5    1  0.1153629E-008  0.3956231E+03  0.7957747E-01  0.3385831E+00
         13   -1    0    0    0    0  0.00000000000E+00  0.00000000000E+00  0.14999999963E+04  0.15000000000E+04  0.10566000000E+00 0. -1.
        994   -1    0    0    0    0 -0.00000000000E+00 -0.00000000000E+00  0.11368683772E-12  0.17120000000E+03  0.17120000000E+03 0.  0.
         13    1    1    2    0    0  0.75768684713E+02 -0.18087874534E+02  0.10676478728E+03  0.13216200572E+03  0.10566000000E+00 0. -1.
        994    1    1    2    0    0 -0.71086333651E+02  0.14248263758E+02  0.45701071586E+02  0.19145314778E+03  0.17120000000E+03 0.  0.
        998    1    1    2    0    0 -0.46823510619E+01  0.38396107761E+01  0.13475341374E+04  0.13475848465E+04  0.10000000000E+02 0. -1.
</event>
<event>
 5    1  0.1153629E-008  0.3840574E+03  0.7957747E-01  0.3433680E+00
         13   -1    0    0    0    0  0.00000000000E+00  0.00000000000E+00  0.14999999963E+04  0.15000000000E+04  0.10566000000E+00 0. -1.
        994   -1    0    0    0    0 -0.00000000000E+00 -0.00000000000E+00  0.11368683772E-12  0.17120000000E+03  0.17120000000E+03 0.  0.
         13    1    1    2    0    0  0.22588768702E+02  0.13092262247E+01  0.11670369817E+03  0.11887695688E+03  0.10566000000E+00 0. -1.
        994    1    1    2    0    0 -0.19323933815E+02 -0.19017231620E+01  0.33435387179E+01  0.17233006186E+03  0.17120000000E+03 0.  0.
        998    1    1    2    0    0 -0.32648348870E+01  0.59249693731E+00  0.13799527594E+04  0.13799929813E+04  0.10000000000E+02 0. -1.
</event>
<event>
 5    1  0.1153629E-008  0.3690233E+03  0.7957747E-01  0.3500392E+00
         13   -1    0    0    0    0  0.00000000000E+00  0.00000000000E+00  0.14999999963E+04  0.15000000000E+04  0.10566000000E+00 0. -1.
        994   -1    0    0    0    0 -0.00000000000E+00 -0.00000000000E+00  0.11368683772E-12  0.17120000000E+03  0.17120000000E+03 0.  0.
         13    1    1    2    0    0  0.70100129386E+01  0.14362490198E+02  0.74501835513E+01  0.17633428625E+02  0.10566000000E+00 0. -1.
        994    1    1    2    0    0 -0.83619259045E+01 -0.15596197452E+02  0.11515089857E+02  0.17249695787E+03  0.17120000000E+03 0.  0.
        998    1    1    2    0    0  0.13519129659E+01  0.12337072533E+01  0.14810347229E+04  0.14810696135E+04  0.10000000000E+02 0. -1.
</event>
<event>
 5    1  0.1153629E-008  0.3807948E+03  0.7957747E-01  0.3447705E+00
         13   -1    0    0    0    0  0.00000000000E+00  0.00000000000E+00  0.14999999963E+04  0.15000000000E+04  0.10566000000E+00 0. -1.
        994   -1    0    0    0    0 -0.00000000000E+00 -0.00000000000E+00  0.11368683772E-12  0.17120000000E+03  0.17120000000E+03 0.  0.
         13    1    1    2    0    0 -0.58443539578E+01 -0.21692623887E+02  0.66680770803E+02  0.70363788721E+02  0.10566000000E+00 0. -1.
        994    1    1    2    0    0  0.35351236393E+01  0.12499639368E+02  0.42952587128E+01  0.17174582187E+03  0.17120000000E+03 0.  0.
        998    1    1    2    0    0  0.23092303185E+01  0.91929845188E+01  0.14290239668E+04  0.14290903894E+04  0.10000000000E+02 0. -1.
</event>
<event>
 5    1  0.1153629E-008  0.3860488E+03  0.7957747E-01  0.3425236E+00
         13   -1    0    0    0    0  0.00000000000E+00  0.00000000000E+00  0.14999999963E+04  0.15000000000E+04  0.10566000000E+00 0. -1.
        994   -1    0    0    0    0 -0.00000000000E+00 -0.00000000000E+00  0.11368683772E-12  0.17120000000E+03  0.17120000000E+03 0.  0.
         13    1    1    2    0    0 -0.40428466190E+01  0.91880500616E+01  0.43908829233E+02  0.45041773071E+02  0.10566000000E+00 0. -1.
        994    1    1    2    0    0  0.17545024452E+01 -0.14571545229E+02  0.18166496721E+01  0.17183756407E+03  0.17120000000E+03 0.  0.
        998    1    1    2    0    0  0.22883441738E+01  0.53834951675E+01  0.14542745174E+04  0.14543206629E+04  0.10000000000E+02 0. -1.
</event>
<event>
 5    1  0.1153629E-008  0.3857870E+03  0.7957747E-01  0.3426341E+00
         13   -1    0    0    0    0  0.00000000000E+00  0.00000000000E+00  0.14999999963E+04  0.15000000000E+04  0.10566000000E+00 0.  1.
        994   -1    0    0    0    0 -0.00000000000E+00 -0.00000000000E+00  0.11368683772E-12  0.17120000000E+03  0.17120000000E+03 0.  0.
         13    1    1    2    0    0  0.60156730184E+01  0.87873823899E+01  0.42485021197E+02  0.43799481747E+02  0.10566000000E+00 0.  1.
        994    1    1    2    0    0 -0.44885134747E+01 -0.22805447616E+02  0.30140562233E+01  0.17279687419E+03  0.17120000000E+03 0.  0.
        998    1    1    2    0    0 -0.15271595437E+01  0.14018065226E+02  0.14545009189E+04  0.14546036441E+04  0.10000000000E+02 0.  1.
</event>
<event>
 5    1  0.1153629E-008  0.3813451E+03  0.7957747E-01  0.3445322E+00
         13   -1    0    0    0    0  0.00000000000E+00  0.00000000000E+00  0.14999999963E+04  0.15000000000E+04  0.10566000000E+00 0.  1.
        994   -1    0    0    0    0 -0.00000000000E+00 -0.00000000000E+00  0.11368683772E-12  0.17120000000E+03  0.17120000000E+03 0.  0.
         13    1    1    2    0    0 -0.17034382993E+02 -0.20740400403E+02  0.12096431565E+03  0.12390605811E+03  0.10566000000E+00 0.  1.
        994    1    1    2    0    0 -0.19338493012E+01 -0.10243823241E+02  0.38174337485E+01  0.17155957708E+03  0.17120000000E+03 0.  0.
        998    1    1    2    0    0  0.18968232295E+02  0.30984223644E+02  0.13752182469E+04  0.13757343648E+04  0.10000000000E+02 0.  1.
</event>
<event>
 5    1  0.1153629E-008  0.3846141E+03  0.7957747E-01  0.3431310E+00
         13   -1    0    0    0    0  0.00000000000E+00  0.00000000000E+00  0.14999999963E+04  0.15000000000E+04  0.10566000000E+00 0.  1.
        994   -1    0    0    0    0 -0.00000000000E+00 -0.00000000000E+00  0.11368683772E-12  0.17120000000E+03  0.17120000000E+03 0.  0.
         13    1    1    2    0    0  0.85423952158E+01 -0.19860469542E+02  0.11197269609E+03  0.11404081112E+03  0.10566000000E+00 0.  1.
        994    1    1    2    0    0 -0.24046996692E+02  0.23621347450E+02  0.55721468826E+01  0.17457581426E+03  0.17120000000E+03 0.  0.
        998    1    1    2    0    0  0.15504601476E+02 -0.37608779084E+01  0.13824551533E+04  0.13825833746E+04  0.10000000000E+02 0.  1.
</event>
<event>
 5    1  0.1153629E-008  0.3798977E+03  0.7957747E-01  0.3451604E+00
         13   -1    0    0    0    0  0.00000000000E+00  0.00000000000E+00  0.14999999963E+04  0.15000000000E+04  0.10566000000E+00 0.  1.
        994   -1    0    0    0    0 -0.00000000000E+00 -0.00000000000E+00  0.11368683772E-12  0.17120000000E+03  0.17120000000E+03 0.  0.
         13    1    1    2    0    0 -0.28128621304E+02  0.11777219601E+02  0.10558758359E+03  0.10990300820E+03  0.10566000000E+00 0.  1.
        994    1    1    2    0    0  0.24663998192E+02 -0.75880479870E+01  0.64147373175E+01  0.17325264827E+03  0.17120000000E+03 0.  0.
        998    1    1    2    0    0  0.34646231121E+01 -0.41891716144E+01  0.13879976754E+04  0.13880443435E+04  0.10000000000E+02 0.  1.
</event>
<event>
 5    1  0.1153629E-008  0.3810210E+03  0.7957747E-01  0.3446725E+00
         13   -1    0    0    0    0  0.00000000000E+00  0.00000000000E+00  0.14999999963E+04  0.15000000000E+04  0.10566000000E+00 0. -1.
        994   -1    0    0    0    0 -0.00000000000E+00 -0.00000000000E+00  0.11368683772E-12  0.17120000000E+03  0.17120000000E+03 0.  0.
         13    1    1    2    0    0 -0.81139945635E+02 -0.41350576545E+01  0.23160850979E+03  0.24544511087E+03  0.10566000000E+00 0. -1.
        994    1    1    2    0    0  0.79950561611E+01 -0.16380689413E+02  0.18098552499E+02  0.17311627743E+03  0.17120000000E+03 0.  0.
        998    1    1    2    0    0  0.73144889474E+02  0.20515747068E+02  0.12502929340E+04  0.12526386117E+04  0.10000000000E+02 0. -1.
</event>
<event>
 5    1  0.1153629E-008  0.2227721E+03  0.7957747E-01  0.4669638E+00
         13   -1    0    0    0    0  0.00000000000E+00  0.00000000000E+00  0.14999999963E+04  0.15000000000E+04  0.10566000000E+00 0.  1.
        994   -1    0    0    0    0 -0.00000000000E+00 -0.00000000000E+00  0.11368683772E-12  0.17120000000E+03  0.17120000000E+03 0.  0.
         13    1    1    2    0    0 -0.34102826756E+02 -0.14028948061E+03  0.14258928901E+03  0.20291835222E+03  0.10566000000E+00 0.  1.
        994    1    1    2    0    0  0.16274388598E+03  0.76148695802E+02  0.25261816712E+03  0.35413214293E+03  0.17120000000E+03 0.  0.
        998    1    1    2    0    0 -0.12864105923E+03  0.64140784809E+02  0.11047925401E+04  0.11141495048E+04  0.10000000000E+02 0.  1.
</event>
<event>
 5    1  0.1153629E-008  0.3757057E+03  0.7957747E-01  0.3470073E+00
         13   -1    0    0    0    0  0.00000000000E+00  0.00000000000E+00  0.14999999963E+04  0.15000000000E+04  0.10566000000E+00 0.  1.
        994   -1    0    0    0    0 -0.00000000000E+00 -0.00000000000E+00  0.11368683772E-12  0.17120000000E+03  0.17120000000E+03 0.  0.
         13    1    1    2    0    0  0.20523055695E+02  0.12470598247E+02  0.41859810463E+02  0.48259367295E+02  0.10566000000E+00 0.  1.
        994    1    1    2    0    0 -0.22275047545E+02 -0.13399086930E+02  0.86116217607E+01  0.17337621897E+03  0.17120000000E+03 0.  0.
        998    1    1    2    0    0  0.17519918500E+01  0.92848868322E+00  0.14495285641E+04  0.14495644137E+04  0.10000000000E+02 0.  1.
</event>
<event>
 5    1  0.1153629E-008  0.3804760E+03  0.7957747E-01  0.3449088E+00
         13   -1    0    0    0    0  0.00000000000E+00  0.00000000000E+00  0.14999999963E+04  0.15000000000E+04  0.10566000000E+00 0.  1.
        994   -1    0    0    0    0 -0.00000000000E+00 -0.00000000000E+00  0.11368683772E-12  0.17120000000E+03  0.17120000000E+03 0.  0.
         13    1    1    2    0    0  0.38191945691E+02 -0.19323043243E+02  0.45338373045E+02  0.62350492782E+02  0.10566000000E+00 0.  1.
        994    1    1    2    0    0 -0.56993256551E+02  0.21020300949E+02  0.30108179236E+02  0.18413589221E+03  0.17120000000E+03 0.  0.
        998    1    1    2    0    0  0.18801310860E+02 -0.16972577062E+01  0.14245534440E+04  0.14247136150E+04  0.10000000000E+02 0.  1.
</event>
<event>
 5    1  0.1153629E-008  0.3695149E+03  0.7957747E-01  0.3498123E+00
         13   -1    0    0    0    0  0.00000000000E+00  0.00000000000E+00  0.14999999963E+04  0.15000000000E+04  0.10566000000E+00 0.  1.
        994   -1    0    0    0    0 -0.00000000000E+00 -0.00000000000E+00  0.11368683772E-12  0.17120000000E+03  0.17120000000E+03 0.  0.
         13    1    1    2    0    0  0.15737964359E+02  0.34034018401E+02  0.60358324879E+02  0.71057276031E+02  0.10566000000E+00 0.  1.
        994    1    1    2    0    0 -0.12818399924E+02 -0.30478614279E+02  0.14507651347E+02  0.17496619460E+03  0.17120000000E+03 0.  0.
        998    1    1    2    0    0 -0.29195644358E+01 -0.35554041220E+01  0.14251340201E+04  0.14251765294E+04  0.10000000000E+02 0.  1.
</event>
<event>
 5    1  0.1153629E-008  0.3816415E+03  0.7957747E-01  0.3444042E+00
         13   -1    0    0    0    0  0.00000000000E+00  0.00000000000E+00  0.14999999963E+04  0.15000000000E+04  0.10566000000E+00 0.  1.
        994   -1    0    0    0    0 -0.00000000000E+00 -0.00000000000E+00  0.11368683772E-12  0.17120000000E+03  0.17120000000E+03 0.  0.
         13    1    1    2    0    0  0.37526426908E+01 -0.26464536127E+02  0.10308553849E+03  0.10649456986E+03  0.10566000000E+00 0.  1.
        994    1    1    2    0    0  0.78587038013E+00  0.23066110071E+02  0.50798420299E+01  0.17282334281E+03  0.17120000000E+03 0.  0.
        998    1    1    2    0    0 -0.45385130709E+01  0.33984260553E+01  0.13918346158E+04  0.13918820873E+04  0.10000000000E+02 0.  0.
</event>
<event>
 5    1  0.1153629E-008  0.3745500E+03  0.7957747E-01  0.3475238E+00
         13   -1    0    0    0    0  0.00000000000E+00  0.00000000000E+00  0.14999999963E+04  0.15000000000E+04  0.10566000000E+00 0.  1.
        994   -1    0    0    0    0 -0.00000000000E+00 -0.00000000000E+00  0.11368683772E-12  0.17120000000E+03  0.17120000000E+03 0.  0.
         13    1    1    2    0    0  0.19515951394E+02  0.51384154134E+01  0.26987911635E+02  0.33699172248E+02  0.10566000000E+00 0.  1.
        994    1    1    2    0    0 -0.63836997471E+01 -0.79595515506E+01  0.72644718033E+01  0.17165756212E+03  0.17120000000E+03 0.  0.
        998    1    1    2    0    0 -0.13132251647E+02  0.28211361373E+01  0.14657476128E+04  0.14658432656E+04  0.10000000000E+02 0.  1.
</event>
<event>
 5    1  0.1153629E-008  0.3706657E+03  0.7957747E-01  0.3492837E+00
         13   -1    0    0    0    0  0.00000000000E+00  0.00000000000E+00  0.14999999963E+04  0.15000000000E+04  0.10566000000E+00 0. -1.
        994   -1    0    0    0    0 -0.00000000000E+00 -0.00000000000E+00  0.11368683772E-12  0.17120000000E+03  0.17120000000E+03 0.  0.
         13    1    1    2    0    0  0.71784631914E+02 -0.20379932101E+02  0.33768139018E+03  0.34582814728E+03  0.10566000000E+00 0. -1.
        994    1    1    2    0    0 -0.34716263741E+02 -0.80437029629E+01  0.13315089036E+02  0.17537574439E+03  0.17120000000E+03 0.  0.
        998    1    1    2    0    0 -0.37068368173E+02  0.28423635064E+02  0.11490035171E+04  0.11499961083E+04  0.10000000000E+02 0. -1.
</event>
<event>
 5    1  0.1153629E-008  0.3825029E+03  0.7957747E-01  0.3440332E+00
         13   -1    0    0    0    0  0.00000000000E+00  0.00000000000E+00  0.14999999963E+04  0.15000000000E+04  0.10566000000E+00 0.  1.
        994   -1    0    0    0    0 -0.00000000000E+00 -0.00000000000E+00  0.11368683772E-12  0.17120000000E+03  0.17120000000E+03 0.  0.
         13    1    1    2    0    0 -0.35475233654E+01  0.27862153137E+02  0.13570315167E+03  0.13857936728E+03  0.10566000000E+00 0.  1.
        994    1    1    2    0    0  0.85764052829E+01 -0.16567048552E+02  0.40297167608E+01  0.17226055974E+03  0.17120000000E+03 0.  0.
        998    1    1    2    0    0 -0.50288819176E+01 -0.11295104586E+02  0.13602671279E+04  0.13603600730E+04  0.10000000000E+02 0.  1.
</event>
<event>
 5    1  0.1153629E-008  0.3853545E+03  0.7957747E-01  0.3428170E+00
         13   -1    0    0    0    0  0.00000000000E+00  0.00000000000E+00  0.14999999963E+04  0.15000000000E+04  0.10566000000E+00 0. -1.
        994   -1    0    0    0    0 -0.00000000000E+00 -0.00000000000E+00  0.11368683772E-12  0.17120000000E+03  0.17120000000E+03 0.  0.
         13    1    1    2    0    0  0.15171225312E+02 -0.94895962448E+01  0.10614686589E+03  0.10764472498E+03  0.10566000000E+00 0. -1.
        994    1    1    2    0    0 -0.15789944528E+02  0.51124238468E+01  0.23596077542E+01  0.17201879832E+03  0.17120000000E+03 0.  0.
        998    1    1    2    0    0  0.61871921606E+00  0.43771723980E+01  0.13914935226E+04  0.13915364767E+04  0.10000000000E+02 0. -1.
</event>
<event>
 5    1  0.1153629E-008  0.3851546E+03  0.7957747E-01  0.3429017E+00
         13   -1    0    0    0    0  0.00000000000E+00  0.00000000000E+00  0.14999999963E+04  0.15000000000E+04  0.10566000000E+00 0.  1.
        994   -1    0    0    0    0 -0.00000000000E+00 -0.00000000000E+00  0.11368683772E-12  0.17120000000E+03  0.17120000000E+03 0.  0.
         13    1    1    2    0    0  0.14632023984E+02 -0.27087983898E+00  0.62327832420E+02  0.64022959632E+02  0.10566000000E+00 0.  1.
        994    1    1    2    0    0 -0.26210687625E+02  0.22028907242E+02  0.54162020663E+01  0.17467411985E+03  0.17120000000E+03 0.  0.
        998    1    1    2    0    0  0.11578663641E+02 -0.21758027403E+02  0.14322559618E+04  0.14325029205E+04  0.10000000000E+02 0.  1.
</event>
<event>
 5    1  0.1153629E-008  0.3737967E+03  0.7957747E-01  0.3478622E+00
         13   -1    0    0    0    0  0.00000000000E+00  0.00000000000E+00  0.14999999963E+04  0.15000000000E+04  0.10566000000E+00 0.  1.
        994   -1    0    0    0    0 -0.00000000000E+00 -0.00000000000E+00  0.11368683772E-12  0.17120000000E+03  0.17120000000E+03 0.  0.
         13    1    1    2    0    0 -0.33397454208E+02 -0.90869039679E+02  0.31491715223E+03  0.32946228351E+03  0.10566000000E+00 0.  1.
        994    1    1    2    0    0  0.60008088243E+02  0.62530864552E+02  0.40075410482E+02  0.19602693234E+03  0.17120000000E+03 0.  0.
        998    1    1    2    0    0 -0.26610634035E+02  0.28338175128E+02  0.11450074336E+04  0.11457107842E+04  0.10000000000E+02 0.  1.
</event>
<event>
 5    1  0.1153629E-008  0.3718873E+03  0.7957747E-01  0.3487262E+00
         13   -1    0    0    0    0  0.00000000000E+00  0.00000000000E+00  0.14999999963E+04  0.15000000000E+04  0.10566000000E+00 0. -1.
        994   -1    0    0    0    0 -0.00000000000E+00 -0.00000000000E+00  0.11368683772E-12  0.17120000000E+03  0.17120000000E+03 0.  0.
         13    1    1    2    0    0  0.10217932709E+02 -0.94537812446E+01  0.79198818873E+01  0.16016111320E+02  0.10566000000E+00 0. -1.
        994    1    1    2    0    0 -0.10319065138E+02  0.57376867088E+01  0.87649393184E+01  0.17183034748E+03  0.17120000000E+03 0.  0.
        998    1    1    2    0    0  0.10113242907E+00  0.37160945358E+01  0.14833151751E+04  0.14833535412E+04  0.10000000000E+02 0. -1.
</event>
<event>
 5    1  0.1153629E-008  0.3744925E+03  0.7957747E-01  0.3475496E+00
         13   -1    0    0    0    0  0.00000000000E+00  0.00000000000E+00  0.14999999963E+04  0.15000000000E+04  0.10566000000E+00 0. -1.
        994   -1    0    0    0    0 -0.00000000000E+00 -0.00000000000E+00  0.11368683772E-12  0.17120000000E+03  0.17120000000E+03 0.  0.
         13    1    1    2    0    0 -0.60794060409E+02  0.17535936962E+02  0.22600275266E+03  0.23469274007E+03  0.10566000000E+00 0. -1.
        994    1    1    2    0    0  0.74123257033E+02 -0.13720788083E+02  0.26542125532E+02  0.18893501975E+03  0.17120000000E+03 0.  0.
        998    1    1    2    0    0 -0.13329196624E+02 -0.38151488799E+01  0.12474551181E+04  0.12475722402E+04  0.10000000000E+02 0. -1.
</event>
<event>
 5    1  0.1153629E-008  0.3735739E+03  0.7957747E-01  0.3479626E+00
         13   -1    0    0    0    0  0.00000000000E+00  0.00000000000E+00  0.14999999963E+04  0.15000000000E+04  0.10566000000E+00 0.  1.
        994   -1    0    0    0    0 -0.00000000000E+00 -0.00000000000E+00  0.11368683772E-12  0.17120000000E+03  0.17120000000E+03 0.  0.
         13    1    1    2    0    0 -0.46510482813E+01  0.16396072480E+02  0.17451191800E+02  0.24393005189E+02  0.10566000000E+00 0.  1.
        994    1    1    2    0    0 -0.11989022569E+01  0.15945094263E+02  0.82866998589E+01  0.17214468563E+03  0.17120000000E+03 0.  0.
        998    1    1    2    0    0  0.58499505383E+01 -0.32341166742E+02  0.14742621046E+04  0.14746623092E+04  0.10000000000E+02 0.  1.
</event>
<event>
 5    1  0.1153629E-008  0.3721598E+03  0.7957747E-01  0.3486023E+00
         13   -1    0    0    0    0  0.00000000000E+00  0.00000000000E+00  0.14999999963E+04  0.15000000000E+04  0.10566000000E+00 0. -1.
        994   -1    0    0    0    0 -0.00000000000E+00 -0.00000000000E+00  0.11368683772E-12  0.17120000000E+03  0.17120000000E+03 0.  0.
         13    1    1    2    0    0  0.99398477623E+01 -0.57313844714E+01  0.42873308292E+01  0.12249151447E+02  0.10566000000E+00 0. -1.
        994    1    1    2    0    0 -0.94763554274E+01  0.61015886245E+01  0.85805885121E+01  0.17178503193E+03  0.17120000000E+03 0.  0.
        998    1    1    2    0    0 -0.46349233493E+00 -0.37020415312E+00  0.14871320769E+04  0.14871658166E+04  0.10000000000E+02 0. -1.
</event>
<event>
 5    1  0.1153629E-008  0.3725212E+03  0.7957747E-01  0.3484384E+00
         13   -1    0    0    0    0  0.00000000000E+00  0.00000000000E+00  0.14999999963E+04  0.15000000000E+04  0.10566000000E+00 0.  1.
        994   -1    0    0    0    0 -0.00000000000E+00 -0.00000000000E+00  0.11368683772E-12  0.17120000000E+03  0.17120000000E+03 0.  0.
         13    1    1    2    0    0  0.37115379284E+00 -0.10427182201E+02  0.27530255777E+01  0.10791394611E+02  0.10566000000E+00 0.  1.
        994    1    1    2    0    0 -0.66610470882E+02  0.32891755431E+02  0.27118661873E+02  0.18858336148E+03  0.17120000000E+03 0.  0.
        998    1    1    2    0    0  0.66239317089E+02 -0.22464573230E+02  0.14701283088E+04  0.14718252439E+04  0.10000000000E+02 0.  1.
</event>
<event>
 5    1  0.1153629E-008  0.3769595E+03  0.7957747E-01  0.3464505E+00
         13   -1    0    0    0    0  0.00000000000E+00  0.00000000000E+00  0.14999999963E+04  0.15000000000E+04  0.10566000000E+00 0.  1.
        994   -1    0    0    0    0 -0.00000000000E+00 -0.00000000000E+00  0.11368683772E-12  0.17120000000E+03  0.17120000000E+03 0.  0.
         13    1    1    2    0    0 -0.10430393499E+02 -0.16237857606E+02  0.30881843438E+02  0.36416487287E+02  0.10566000000E+00 0.  1.
        994    1    1    2    0    0  0.52718673989E+01  0.68799246344E+01  0.59296238818E+01  0.17152179567E+03  0.17120000000E+03 0.  0.
        998    1    1    2    0    0  0.51585260997E+01  0.93579329713E+01  0.14631885290E+04  0.14632617170E+04  0.10000000000E+02 0.  1.
</event>
<event>
 5    1  0.1153629E-008  0.3852783E+03  0.7957747E-01  0.3428493E+00
         13   -1    0    0    0    0  0.00000000000E+00  0.00000000000E+00  0.14999999963E+04  0.15000000000E+04  0.10566000000E+00 0.  1.
        994   -1    0    0    0    0 -0.00000000000E+00 -0.00000000000E+00  0.11368683772E-12  0.17120000000E+03  0.17120000000E+03 0.  0.
         13    1    1    2    0    0  0.64971620012E+01 -0.12375430549E+02  0.66027149294E+02  0.67490443792E+02  0.10566000000E+00 0.  1.
        994    1    1    2    0    0  0.19418253981E+01  0.10547423907E+02  0.18700175678E+01  0.17154578340E+03  0.17120000000E+03 0.  0.
        998    1    1    2    0    0 -0.84389873993E+01  0.18280066419E+01  0.14321028294E+04  0.14321637728E+04  0.10000000000E+02 0.  1.
</event>
<event>
 5    1  0.1153629E-008  0.3862148E+03  0.7957747E-01  0.3424536E+00
         13   -1    0    0    0    0  0.00000000000E+00  0.00000000000E+00  0.14999999963E+04  0.15000000000E+04  0.10566000000E+00 0. -1.
        994   -1    0    0    0    0 -0.00000000000E+00 -0.00000000000E+00  0.11368683772E-12  0.17120000000E+03  0.17120000000E+03 0.  0.
         13    1    1    2    0    0 -0.21044718577E+02  0.14755907692E+02  0.84077128062E+01  0.27042887983E+02  0.10566000000E+00 0. -1.
        994    1    1    2    0    0  0.66974503109E+01 -0.14262165030E+02  0.20705044741E+02  0.17316582824E+03  0.17120000000E+03 0.  0.
        998    1    1    2    0    0  0.14347268266E+02 -0.49374266238E+00  0.14708872387E+04  0.14709912838E+04  0.10000000000E+02 0. -1.
</event>
<event>
 5    1  0.1153629E-008  0.3695621E+03  0.7957747E-01  0.3497906E+00
         13   -1    0    0    0    0  0.00000000000E+00  0.00000000000E+00  0.14999999963E+04  0.15000000000E+04  0.10566000000E+00 0. -1.
        994   -1    0    0    0    0 -0.00000000000E+00 -0.00000000000E+00  0.11368683772E-12  0.17120000000E+03  0.17120000000E+03 0.  0.
         13    1    1    2    0    0 -0.45470065168E+02 -0.28181713258E+02  0.29600890734E+03  0.30080395639E+03  0.10566000000E+00 0. -1.
        994    1    1    2    0    0 -0.93816674310E+02 -0.37899139657E+01  0.42148283112E+02  0.19975447328E+03  0.17120000000E+03 0.  0.
        998    1    1    2    0    0  0.13928673948E+03  0.31971627223E+02  0.11618428058E+04  0.11706415703E+04  0.10000000000E+02 0. -1.
</event>
<event>
 5    1  0.1153629E-008  0.3815278E+03  0.7957747E-01  0.3444533E+00
         13   -1    0    0    0    0  0.00000000000E+00  0.00000000000E+00  0.14999999963E+04  0.15000000000E+04  0.10566000000E+00 0.  1.
        994   -1    0    0    0    0 -0.00000000000E+00 -0.00000000000E+00  0.11368683772E-12  0.17120000000E+03  0.17120000000E+03 0.  0.
         13    1    1    2    0    0  0.59450425119E+02  0.35336271481E+02  0.36874778443E+03  0.37517721788E+03  0.10566000000E+00 0.  1.
        994    1    1    2    0    0 -0.72709233527E+02 -0.83478927799E+02  0.45260966659E+02  0.20883811704E+03  0.17120000000E+03 0.  0.
        998    1    1    2    0    0  0.13258808408E+02  0.48142656318E+02  0.10859912452E+04  0.10871846651E+04  0.10000000000E+02 0.  1.
</event>
<event>
 5    1  0.1153629E-008  0.3693380E+03  0.7957747E-01  0.3498939E+00
         13   -1    0    0    0    0  0.00000000000E+00  0.00000000000E+00  0.14999999963E+04  0.15000000000E+04  0.10566000000E+00 0. -1.
        994   -1    0    0    0    0 -0.00000000000E+00 -0.00000000000E+00  0.11368683772E-12  0.17120000000E+03  0.17120000000E+03 0.  0.
         13    1    1    2    0    0  0.10473458064E+02  0.35931899857E+02  0.67150604076E+02  0.76876586442E+02  0.10566000000E+00 0. -1.
        994    1    1    2    0    0 -0.14958939329E+02 -0.31367531767E+02  0.13812379038E+02  0.17523673624E+03  0.17120000000E+03 0.  0.
        998    1    1    2    0    0  0.44854812648E+01 -0.45643680898E+01  0.14190370132E+04  0.14190866773E+04  0.10000000000E+02 0. -1.
</event>
<event>
 5    1  0.1153629E-008  0.3687424E+03  0.7957747E-01  0.3501691E+00
         13   -1    0    0    0    0  0.00000000000E+00  0.00000000000E+00  0.14999999963E+04  0.15000000000E+04  0.10566000000E+00 0. -1.
        994   -1    0    0    0    0 -0.00000000000E+00 -0.00000000000E+00  0.11368683772E-12  0.17120000000E+03  0.17120000000E+03 0.  0.
         13    1    1    2    0    0 -0.15816130066E+03 -0.20415181042E+02  0.64867112430E+03  0.66798653827E+03  0.10566000000E+00 0. -1.
        994    1    1    2    0    0  0.15617722169E+03  0.19524998553E+02  0.10221108808E+03  0.25402577954E+03  0.17120000000E+03 0.  0.
        998    1    1    2    0    0  0.19840789656E+01  0.89018248809E+00  0.74911778390E+03  0.74918768219E+03  0.10000000000E+02 0.  0.
</event>
<event>
 5    1  0.1153629E-008  0.3827778E+03  0.7957747E-01  0.3439152E+00
         13   -1    0    0    0    0  0.00000000000E+00  0.00000000000E+00  0.14999999963E+04  0.15000000000E+04  0.10566000000E+00 0. -1.
        994   -1    0    0    0    0 -0.00000000000E+00 -0.00000000000E+00  0.11368683772E-12  0.17120000000E+03  0.17120000000E+03 0.  0.
         13    1    1    2    0    0 -0.87519174085E+01 -0.27272362744E+02  0.16844929909E+03  0.17086706926E+03  0.10566000000E+00 0. -1.
        994    1    1    2    0    0  0.51586036176E+01  0.75619743217E+00  0.28275079637E+01  0.17130270817E+03  0.17120000000E+03 0.  0.
        998    1    1    2    0    0  0.35933137909E+01  0.26516165312E+02  0.13287231892E+04  0.13290302226E+04  0.10000000000E+02 0. -1.
</event>
<event>
 5    1  0.1153629E-008  0.3860694E+03  0.7957747E-01  0.3425149E+00
         13   -1    0    0    0    0  0.00000000000E+00  0.00000000000E+00  0.14999999963E+04  0.15000000000E+04  0.10566000000E+00 0. -1.
        994   -1    0    0    0    0 -0.00000000000E+00 -0.00000000000E+00  0.11368683772E-12  0.17120000000E+03  0.17120000000E+03 0.  0.
         13    1    1    2    0    0  0.59121125842E+01 -0.83048570725E+01  0.47223152793E+02  0.48311086202E+02  0.10566000000E+00 0. -1.
        994    1    1    2    0    0 -0.36823760052E+01  0.82676071040E+01  0.13686202087E+01  0.17144452847E+03  0.17120000000E+03 0.  0.
        998    1    1    2    0    0 -0.22297365790E+01  0.37249968512E-01  0.14514082233E+04  0.14514443853E+04  0.10000000000E+02 0. -1.
</event>
<event>
 5    1  0.1153629E-008  0.3839594E+03  0.7957747E-01  0.3434098E+00
         13   -1    0    0    0    0  0.00000000000E+00  0.00000000000E+00  0.14999999963E+04  0.15000000000E+04  0.10566000000E+00 0.  1.
        994   -1    0    0    0    0 -0.00000000000E+00 -0.00000000000E+00  0.11368683772E-12  0.17120000000E+03  0.17120000000E+03 0.  0.
         13    1    1    2    0    0 -0.20554058043E+02  0.39270114204E+01  0.10780593595E+03  0.10981813016E+03  0.10566000000E+00 0.  1.
        994    1    1    2    0    0  0.39027367656E+01 -0.51947140312E+01  0.22869934436E+01  0.17133851507E+03  0.17120000000E+03 0.  0.
        998    1    1    2    0    0  0.16651321277E+02  0.12677026109E+01  0.13899070669E+04  0.13900433548E+04  0.10000000000E+02 0.  1.
</event>
<event>
 5    1  0.1153629E-008  0.3727461E+03  0.7957747E-01  0.3483365E+00
         13   -1    0    0    0    0  0.00000000000E+00  0.00000000000E+00  0.14999999963E+04  0.15000000000E+04  0.10566000000E+00 0.  1.
        994   -1    0    0    0    0 -0.00000000000E+00 -0.00000000000E+00  0.11368683772E-12  0.17120000000E+03  0.17120000000E+03 0.  0.
         13    1    1    2    0    0 -0.38153089747E+02 -0.12613759528E+03  0.75113393840E+03  0.76260642260E+03  0.10566000000E+00 0.  1.
        994    1    1    2    0    0  0.30084583506E+02  0.10446554359E+03  0.49472680091E+02  0.20874654018E+03  0.17120000000E+03 0.  0.
        998    1    1    2    0    0  0.80685062401E+01  0.21672051691E+02  0.69939337778E+03  0.69984703722E+03  0.10000000000E+02 0.  1.
</event>
<event>
 5    1  0.1153629E-008  0.3802375E+03  0.7957747E-01  0.3450125E+00
         13   -1    0    0    0    0  0.00000000000E+00  0.00000000000E+00  0.14999999963E+04  0.15000000000E+04  0.10566000000E+00 0. -1.
        994   -1    0    0    0    0 -0.00000000000E+00 -0.00000000000E+00  0.11368683772E-12  0.17120000000E+03  0.17120000000E+03 0.  0.
         13    1    1    2    0    0  0.41936458663E+02  0.20528757135E+02  0.23370080537E+03  0.23831947891E+03  0.10566000000E+00 0. -1.
        994    1    1    2    0    0 -0.35369199739E+02 -0.30430161886E+02  0.11319551116E+02  0.17780480106E+03  0.17120000000E+03 0.  0.
        998    1    1    2    0    0 -0.65672589239E+01  0.99014047506E+01  0.12549796398E+04  0.12550757200E+04  0.10000000000E+02 0. -1.
</event>
<event>
 5    1  0.1153629E-008  0.3846520E+03  0.7957747E-01  0.3431150E+00
         13   -1    0    0    0    0  0.00000000000E+00  0.00000000000E+00  0.14999999963E+04  0.15000000000E+04  0.10566000000E+00 0. -1.
        994   -1    0    0    0    0 -0.00000000000E+00 -0.00000000000E+00  0.11368683772E-12  0.17120000000E+03  0.17120000000E+03 0.  0.
         13    1    1    2    0    0  0.65988682108E+01 -0.15384658053E+02  0.96161648418E+02  0.97607922606E+02  0.10566000000E+00 0. -1.
        994    1    1    2    0    0  0.30998488717E+01 -0.17391471863E+02  0.28311474555E+01  0.17213229724E+03  0.17120000000E+03 0.  0.
        998    1    1    2    0    0 -0.96987170825E+01  0.32776129916E+02  0.14010072004E+04  0.14014597802E+04  0.10000000000E+02 0. -1.
</event>
<event>
 5    1  0.1153629E-008  0.3812608E+03  0.7957747E-01  0.3445687E+00
         13   -1    0    0    0    0  0.00000000000E+00  0.00000000000E+00  0.14999999963E+04  0.15000000000E+04  0.10566000000E+00 0. -1.
        994   -1    0    0    0    0 -0.00000000000E+00 -0.00000000000E+00  0.11368683772E-12  0.17120000000E+03  0.17120000000E+03 0.  0.
         13    1    1    2    0    0 -0.18794404704E+02 -0.53001552549E+01  0.57577790045E+02  0.60799131280E+02  0.10566000000E+00 0. -1.
        994    1    1    2    0    0 -0.68457946801E+01  0.43726138605E+01  0.37177632507E+01  0.17143292105E+03  0.17120000000E+03 0.  0.
        998    1    1    2    0    0  0.25640199384E+02  0.92754139434E+00  0.14387044430E+04  0.14389679477E+04  0.10000000000E+02 0. -1.
</event>
<event>
 5    1  0.1153629E-008  0.3702946E+03  0.7957747E-01  0.3494538E+00
         13   -1    0    0    0    0  0.00000000000E+00  0.00000000000E+00  0.14999999963E+04  0.15000000000E+04  0.10566000000E+00 0. -1.
        994   -1    0    0    0    0 -0.00000000000E+00 -0.00000000000E+00  0.11368683772E-12  0.17120000000E+03  0.17120000000E+03 0.  0.
         13    1    1    2    0    0  0.55508889626E+01 -0.26505309759E+02  0.30464033755E+02  0.40760426033E+02  0.10566000000E+00 0. -1.
        994    1    1    2    0    0  0.21429657836E+02 -0.43480265050E+01  0.12769694955E+02  0.17306253401E+03  0.17120000000E+03 0.  0.
        998    1    1    2    0    0 -0.26980546799E+02  0.30853336264E+02  0.14567662676E+04  0.14573770400E+04  0.10000000000E+02 0. -1.
</event>
<event>
 5    1  0.1153629E-008  0.3686100E+03  0.7957747E-01  0.3502303E+00
         13   -1    0    0    0    0  0.00000000000E+00  0.00000000000E+00  0.14999999963E+04  0.15000000000E+04  0.10566000000E+00 0.  1.
        994   -1    0    0    0    0 -0.00000000000E+00 -0.00000000000E+00  0.11368683772E-12  0.17120000000E+03  0.17120000000E+03 0.  0.
         13    1    1    2    0    0 -0.30875485683E+02  0.10050008875E+02  0.91620500177E+02  0.97204040612E+02  0.10566000000E+00 0.  1.
        994    1    1    2    0    0 -0.13998062510E+03  0.51369580974E+02  0.91749628400E+02  0.24486903350E+03  0.17120000000E+03 0.  0.
        998    1    1    2    0    0  0.17085611078E+03 -0.61419589848E+02  0.13166298677E+04  0.13291269259E+04  0.10000000000E+02 0.  1.
</event>
<event>
 5    1  0.1153629E-008  0.3819042E+03  0.7957747E-01  0.3442909E+00
         13   -1    0    0    0    0  0.00000000000E+00  0.00000000000E+00  0.14999999963E+04  0.15000000000E+04  0.10566000000E+00 0.  1.
        994   -1    0    0    0    0 -0.00000000000E+00 -0.00000000000E+00  0.11368683772E-12  0.17120000000E+03  0.17120000000E+03 0.  0.
         13    1    1    2    0    0  0.31661321172E+01 -0.12326968779E+02  0.22619393343E+02  0.25954318930E+02  0.10566000000E+00 0.  1.
        994    1    1    2    0    0 -0.20872515822E+02  0.27691080221E+02  0.71798676017E+01  0.17482404966E+03  0.17120000000E+03 0.  0.
        998    1    1    2    0    0  0.17706383705E+02 -0.15364111441E+02  0.14702007353E+04  0.14704216314E+04  0.10000000000E+02 0.  1.
</event>
<event>
 5    1  0.1153629E-008  0.3730750E+03  0.7957747E-01  0.3481877E+00
         13   -1    0    0    0    0  0.00000000000E+00  0.00000000000E+00  0.14999999963E+04  0.15000000000E+04  0.10566000000E+00 0.  1.
        994   -1    0    0    0    0 -0.00000000000E+00 -0.00000000000E+00  0.11368683772E-12  0.17120000000E+03  0.17120000000E+03 0.  0.
         13    1    1    2    0    0  0.76827950869E+02 -0.43967401354E+02  0.53447711283E+03  0.54175775187E+03  0.10566000000E+00 0.  1.
        994    1    1    2    0    0 -0.46815058812E+02  0.12547741954E+02  0.15750867372E+02  0.17862425754E+03  0.17120000000E+03 0.  0.
        998    1    1    2    0    0 -0.30012892058E+02  0.31419659400E+02  0.94977201608E+03  0.95081799058E+03  0.10000000000E+02 0. -1.
</event>
<event>
 5    1  0.1158122E-008  0.3861637E+03  0.7957747E-01  0.3424752E+00
         13   -1    0    0    0    0  0.00000000000E+00  0.00000000000E+00  0.14999999963E+04  0.15000000000E+04  0.10566000000E+00 0.  1.
        994   -1    0    0    0    0 -0.00000000000E+00 -0.00000000000E+00  0.11368683772E-12  0.17120000000E+03  0.17120000000E+03 0.  0.
         13    1    1    2    0    0 -0.99874505157E+01 -0.31969120234E+01  0.52343941507E+02  0.53384162360E+02  0.10566000000E+00 0.  1.
        994    1    1    2    0    0  0.10138598138E+02 -0.28745895381E+01  0.14174323123E+01  0.17152989113E+03  0.17120000000E+03 0.  0.
        998    1    1    2    0    0 -0.15114762274E+00  0.60715015615E+01  0.14462386225E+04  0.14462859465E+04  0.10000000000E+02 0.  1.
</event>
<event>
 5    1  0.1153629E-008  0.3847590E+03  0.7957747E-01  0.3430695E+00
         13   -1    0    0    0    0  0.00000000000E+00  0.00000000000E+00  0.14999999963E+04  0.15000000000E+04  0.10566000000E+00 0.  1.
        994   -1    0    0    0    0 -0.00000000000E+00 -0.00000000000E+00  0.11368683772E-12  0.17120000000E+03  0.17120000000E+03 0.  0.
         13    1    1    2    0    0  0.16100236598E+02 -0.41413888787E+00  0.69289400924E+02  0.71136638759E+02  0.10566000000E+00 0.  1.
        994    1    1    2    0    0 -0.20951753808E+02  0.83078030068E+01  0.34235305272E+01  0.17271119286E+03  0.17120000000E+03 0.  0.
        998    1    1    2    0    0  0.48515172103E+01 -0.78936641189E+01  0.14272870648E+04  0.14273521684E+04  0.10000000000E+02 0.  1.
</event>
<event>
 5    1  0.1153629E-008  0.3801695E+03  0.7957747E-01  0.3450421E+00
         13   -1    0    0    0    0  0.00000000000E+00  0.00000000000E+00  0.14999999963E+04  0.15000000000E+04  0.10566000000E+00 0. -1.
        994   -1    0    0    0    0 -0.00000000000E+00 -0.00000000000E+00  0.11368683772E-12  0.17120000000E+03  0.17120000000E+03 0.  0.
         13    1    1    2    0    0 -0.77751527796E+01  0.10029015251E+02  0.18045542524E+02  0.22060981770E+02  0.10566000000E+00 0. -1.
        994    1    1    2    0    0  0.26671758343E+01 -0.13151044481E+02  0.46494214766E+01  0.17178801157E+03  0.17120000000E+03 0.  0.
        998    1    1    2    0    0  0.51079769452E+01  0.31220292304E+01  0.14773050323E+04  0.14773510067E+04  0.10000000000E+02 0. -1.
</event>
<event>
 5    1  0.1153629E-008  0.3804196E+03  0.7957747E-01  0.3449334E+00
         13   -1    0    0    0    0  0.00000000000E+00  0.00000000000E+00  0.14999999963E+04  0.15000000000E+04  0.10566000000E+00 0.  1.
        994   -1    0    0    0    0 -0.00000000000E+00 -0.00000000000E+00  0.11368683772E-12  0.17120000000E+03  0.17120000000E+03 0.  0.
         13    1    1    2    0    0  0.40273228655E+02  0.24062527182E+02  0.25495945775E+03  0.25923980100E+03  0.10566000000E+00 0.  1.
        994    1    1    2    0    0 -0.31677142824E+02 -0.19960974966E+02  0.86155756367E+01  0.17545811478E+03  0.17120000000E+03 0.  0.
        998    1    1    2    0    0 -0.85960858315E+01 -0.41015522154E+01  0.12364249629E+04  0.12365020842E+04  0.10000000000E+02 0.  0.
</event>
<event>
 5    1  0.1153629E-008  0.3762777E+03  0.7957747E-01  0.3467528E+00
         13   -1    0    0    0    0  0.00000000000E+00  0.00000000000E+00  0.14999999963E+04  0.15000000000E+04  0.10566000000E+00 0.  1.
        994   -1    0    0    0    0 -0.00000000000E+00 -0.00000000000E+00  0.11368683772E-12  0.17120000000E+03  0.17120000000E+03 0.  0.
         13    1    1    2    0    0 -0.66978693709E+02  0.30831637148E+02  0.34626432977E+03  0.35402786966E+03  0.10566000000E+00 0.  1.
        994    1    1    2    0    0  0.63004888641E+02 -0.38938276872E+02  0.24823190340E+02  0.18817926607E+03  0.17120000000E+03 0.  0.
        998    1    1    2    0    0  0.39738050680E+01  0.81066397241E+01  0.11289124762E+04  0.11289928643E+04  0.10000000000E+02 0.  0.
</event>
<event>
 5    1  0.1153629E-008  0.3716707E+03  0.7957747E-01  0.3488248E+00
         13   -1    0    0    0    0  0.00000000000E+00  0.00000000000E+00  0.14999999963E+04  0.15000000000E+04  0.10566000000E+00 0.  1.
        994   -1    0    0    0    0 -0.00000000000E+00 -0.00000000000E+00  0.11368683772E-12  0.17120000000E+03  0.17120000000E+03 0.  0.
         13    1    1    2    0    0  0.44814759312E+01 -0.24055863783E+02  0.31658863798E+02  0.40013285667E+02  0.10566000000E+00 0.  1.
        994    1    1    2    0    0 -0.17223076051E+01  0.23681801877E+02  0.10339083558E+02  0.17314771362E+03  0.17120000000E+03 0.  0.
        998    1    1    2    0    0 -0.27591683261E+01  0.37406190634E+00  0.14580020489E+04  0.14580390007E+04  0.10000000000E+02 0.  1.
</event>
<event>
 5    1  0.1153629E-008  0.3835807E+03  0.7957747E-01  0.3435714E+00
         13   -1    0    0    0    0  0.00000000000E+00  0.00000000000E+00  0.14999999963E+04  0.15000000000E+04  0.10566000000E+00 0.  1.
        994   -1    0    0    0    0 -0.00000000000E+00 -0.00000000000E+00  0.11368683772E-12  0.17120000000E+03  0.17120000000E+03 0.  0.
         13    1    1    2    0    0  0.11676002335E+02  0.33793346545E+01  0.32341132375E+02  0.34550093206E+02  0.10566000000E+00 0.  1.
        994    1    1    2    0    0  0.48443891419E+01 -0.51001422264E+01  0.24999087360E+01  0.17136268293E+03  0.17120000000E+03 0.  0.
        998    1    1    2    0    0 -0.16520391477E+02  0.17208075719E+01  0.14651589552E+04  0.14652872239E+04  0.10000000000E+02 0.  1.
</event>
<event>
 5    1  0.1153629E-008  0.3782278E+03  0.7957747E-01  0.3458912E+00
         13   -1    0    0    0    0  0.00000000000E+00  0.00000000000E+00  0.14999999963E+04  0.15000000000E+04  0.10566000000E+00 0.  1.
        994   -1    0    0    0    0 -0.00000000000E+00 -0.00000000000E+00  0.11368683772E-12  0.17120000000E+03  0.17120000000E+03 0.  0.
         13    1    1    2    0    0  0.16898791884E+02 -0.44765343124E+01  0.26464469223E+02  0.31717311075E+02  0.10566000000E+00 0.  1.
        994    1    1    2    0    0 -0.32649054396E+02  0.17183032834E+02  0.96213480617E+01  0.17539449167E+03  0.17120000000E+03 0.  0.
        998    1    1    2    0    0  0.15750262513E+02 -0.12706498522E+02  0.14639141790E+04  0.14640881973E+04  0.10000000000E+02 0.  1.
</event>
<event>
 5    1  0.1153629E-008  0.3799578E+03  0.7957747E-01  0.3451342E+00
         13   -1    0    0    0    0  0.00000000000E+00  0.00000000000E+00  0.14999999963E+04  0.15000000000E+04  0.10566000000E+00 0.  1.
        994   -1    0    0    0    0 -0.00000000000E+00 -0.00000000000E+00  0.11368683772E-12  0.17120000000E+03  0.17120000000E+03 0.  0.
         13    1    1    2    0    0  0.24227699849E+02  0.17067510295E+02  0.11697028537E+03  0.12066623460E+03  0.10566000000E+00 0.  1.
        994    1    1    2    0    0  0.41001592960E+01 -0.15372996300E+01  0.42185495087E+01  0.17130794131E+03  0.17120000000E+03 0.  0.
        998    1    1    2    0    0 -0.28327859146E+02 -0.15530210665E+02  0.13788111614E+04  0.13792258241E+04  0.10000000000E+02 0.  1.
</event>
<event>
 5    1  0.1153629E-008  0.3719447E+03  0.7957747E-01  0.3487001E+00
         13   -1    0    0    0    0  0.00000000000E+00  0.00000000000E+00  0.14999999963E+04  0.15000000000E+04  0.10566000000E+00 0.  1.
        994   -1    0    0    0    0 -0.00000000000E+00 -0.00000000000E+00  0.11368683772E-12  0.17120000000E+03  0.17120000000E+03 0.  0.
         13    1    1    2    0    0 -0.10415480760E+02 -0.33388591198E+02  0.46221530830E+02  0.57963103247E+02  0.10566000000E+00 0.  1.
        994    1    1    2    0    0  0.36432491553E+01  0.26393157925E+02  0.14473540103E+02  0.17386430172E+03  0.17120000000E+03 0.  0.
        998    1    1    2    0    0  0.67722316044E+01  0.69954332733E+01  0.14393049253E+04  0.14393725950E+04  0.10000000000E+02 0.  1.
</event>
<event>
 5    1  0.1153629E-008  0.3819408E+03  0.7957747E-01  0.3442751E+00
         13   -1    0    0    0    0  0.00000000000E+00  0.00000000000E+00  0.14999999963E+04  0.15000000000E+04  0.10566000000E+00 0. -1.
        994   -1    0    0    0    0 -0.00000000000E+00 -0.00000000000E+00  0.11368683772E-12  0.17120000000E+03  0.17120000000E+03 0.  0.
         13    1    1    2    0    0 -0.30504005619E+02  0.39548800068E+02  0.23048167928E+03  0.23583133293E+03  0.10566000000E+00 0. -1.
        994    1    1    2    0    0  0.97718943938E+02 -0.47699661128E+02  0.43481590338E+02  0.20742309026E+03  0.17120000000E+03 0.  0.
        998    1    1    2    0    0 -0.67214938319E+02  0.81508610602E+01  0.12260367267E+04  0.12279455768E+04  0.10000000000E+02 0. -1.
</event>
<event>
 5    1  0.1153629E-008  0.3846876E+03  0.7957747E-01  0.3430998E+00
         13   -1    0    0    0    0  0.00000000000E+00  0.00000000000E+00  0.14999999963E+04  0.15000000000E+04  0.10566000000E+00 0. -1.
        994   -1    0    0    0    0 -0.00000000000E+00 -0.00000000000E+00  0.11368683772E-12  0.17120000000E+03  0.17120000000E+03 0.  0.
         13    1    1    2    0    0  0.98439765355E+01  0.15147747699E+02  0.90233856305E+02  0.92024551735E+02  0.10566000000E+00 0. -1.
        994    1    1    2    0    0 -0.60392969080E+01 -0.11806715035E+02  0.23644799382E+01  0.17172915417E+03  0.17120000000E+03 0.  0.
        998    1    1    2    0    0 -0.38046796275E+01 -0.33410326636E+01  0.14074016600E+04  0.14074462941E+04  0.10000000000E+02 0. -1.
</event>
<event>
 5    1  0.1153629E-008  0.3691446E+03  0.7957747E-01  0.3499831E+00
         13   -1    0    0    0    0  0.00000000000E+00  0.00000000000E+00  0.14999999963E+04  0.15000000000E+04  0.10566000000E+00 0. -1.
        994   -1    0    0    0    0 -0.00000000000E+00 -0.00000000000E+00  0.11368683772E-12  0.17120000000E+03  0.17120000000E+03 0.  0.
         13    1    1    2    0    0  0.35288928920E+02 -0.30382356659E+02  0.11628437312E+03  0.12526157709E+03  0.10566000000E+00 0. -1.
        994    1    1    2    0    0 -0.53737016063E+01  0.10152755907E+02  0.10174601215E+02  0.17188635092E+03  0.17120000000E+03 0.  0.
        998    1    1    2    0    0 -0.29915227313E+02  0.20229600753E+02  0.13735410219E+04  0.13740520720E+04  0.10000000000E+02 0.  1.
</event>
<event>
 5    1  0.1153629E-008  0.3843183E+03  0.7957747E-01  0.3432569E+00
         13   -1    0    0    0    0  0.00000000000E+00  0.00000000000E+00  0.14999999963E+04  0.15000000000E+04  0.10566000000E+00 0. -1.
        994   -1    0    0    0    0 -0.00000000000E+00 -0.00000000000E+00  0.11368683772E-12  0.17120000000E+03  0.17120000000E+03 0.  0.
         13    1    1    2    0    0 -0.26552776355E+01 -0.21420475033E+02  0.11364652926E+03  0.11567813979E+03  0.10566000000E+00 0. -1.
        994    1    1    2    0    0  0.76296131823E+01  0.17598488861E+02  0.31825498840E+01  0.17230057003E+03  0.17120000000E+03 0.  0.
        998    1    1    2    0    0 -0.49743355468E+01  0.38219861723E+01  0.13831709171E+04  0.13832212902E+04  0.10000000000E+02 0. -1.
</event>
<event>
 5    1  0.1153629E-008  0.3820566E+03  0.7957747E-01  0.3442252E+00
         13   -1    0    0    0    0  0.00000000000E+00  0.00000000000E+00  0.14999999963E+04  0.15000000000E+04  0.10566000000E+00 0. -1.
        994   -1    0    0    0    0 -0.00000000000E+00 -0.00000000000E+00  0.11368683772E-12  0.17120000000E+03  0.17120000000E+03 0.  0.
         13    1    1    2    0    0  0.17302185981E+01 -0.13939592771E+02  0.30233635466E+02  0.33337513113E+02  0.10566000000E+00 0. -1.
        994    1    1    2    0    0 -0.34650013219E+01  0.13753876278E+02  0.37668520683E+01  0.17182783395E+03  0.17120000000E+03 0.  0.
        998    1    1    2    0    0  0.17347827238E+01  0.18571649322E+00  0.14659995087E+04  0.14660346529E+04  0.10000000000E+02 0. -1.
</event>
<event>
 5    1  0.1153629E-008  0.3812382E+03  0.7957747E-01  0.3445785E+00
         13   -1    0    0    0    0  0.00000000000E+00  0.00000000000E+00  0.14999999963E+04  0.15000000000E+04  0.10566000000E+00 0. -1.
        994   -1    0    0    0    0 -0.00000000000E+00 -0.00000000000E+00  0.11368683772E-12  0.17120000000E+03  0.17120000000E+03 0.  0.
         13    1    1    2    0    0 -0.14323418635E+02 -0.13675025316E+02  0.55576157570E+02  0.58999043154E+02  0.10566000000E+00 0. -1.
        994    1    1    2    0    0  0.40281900934E+01  0.85048050538E+01  0.38042948031E+01  0.17150064339E+03  0.17120000000E+03 0.  0.
        998    1    1    2    0    0  0.10295228541E+02  0.51702202625E+01  0.14406195439E+04  0.14407003135E+04  0.10000000000E+02 0. -1.
</event>
<event>
 5    1  0.1153629E-008  0.3832248E+03  0.7957747E-01  0.3437236E+00
         13   -1    0    0    0    0  0.00000000000E+00  0.00000000000E+00  0.14999999963E+04  0.15000000000E+04  0.10566000000E+00 0.  1.
        994   -1    0    0    0    0 -0.00000000000E+00 -0.00000000000E+00  0.11368683772E-12  0.17120000000E+03  0.17120000000E+03 0.  0.
         13    1    1    2    0    0 -0.47445932186E+01 -0.11796357977E+02  0.30101812570E+02  0.32677140487E+02  0.10566000000E+00 0.  1.
        994    1    1    2    0    0  0.17228949805E+02  0.14187074280E+02  0.41633743851E+01  0.17269882303E+03  0.17120000000E+03 0.  0.
        998    1    1    2    0    0 -0.12484356587E+02 -0.23907163023E+01  0.14657348093E+04  0.14658240365E+04  0.10000000000E+02 0.  1.
</event>
<event>
 5    1  0.1153629E-008  0.3696425E+03  0.7957747E-01  0.3497535E+00
         13   -1    0    0    0    0  0.00000000000E+00  0.00000000000E+00  0.14999999963E+04  0.15000000000E+04  0.10566000000E+00 0. -1.
        994   -1    0    0    0    0 -0.00000000000E+00 -0.00000000000E+00  0.11368683772E-12  0.17120000000E+03  0.17120000000E+03 0.  0.
         13    1    1    2    0    0  0.19348223131E+02 -0.21586213733E+02  0.37046719893E+02  0.47040291034E+02  0.10566000000E+00 0. -1.
        994    1    1    2    0    0 -0.52865229273E+02  0.25272782396E+02  0.21438021714E+02  0.18221546249E+03  0.17120000000E+03 0.  0.
        998    1    1    2    0    0  0.33517006143E+02 -0.36865686633E+01  0.14415152547E+04  0.14419442465E+04  0.10000000000E+02 0. -1.
</event>
<event>
 5    1  0.1153629E-008  0.3857627E+03  0.7957747E-01  0.3426444E+00
         13   -1    0    0    0    0  0.00000000000E+00  0.00000000000E+00  0.14999999963E+04  0.15000000000E+04  0.10566000000E+00 0. -1.
        994   -1    0    0    0    0 -0.00000000000E+00 -0.00000000000E+00  0.11368683772E-12  0.17120000000E+03  0.17120000000E+03 0.  0.
         13    1    1    2    0    0 -0.52271606717E+00 -0.11466987111E+02  0.50683876699E+02  0.51967600933E+02  0.10566000000E+00 0. -1.
        994    1    1    2    0    0  0.19740789233E+01  0.14869142504E+02  0.19903541417E+01  0.17186736135E+03  0.17120000000E+03 0.  0.
        998    1    1    2    0    0 -0.14513628561E+01 -0.34021553929E+01  0.14473257654E+04  0.14473650377E+04  0.10000000000E+02 0. -1.
</event>
<event>
 5    1  0.1153629E-008  0.3695604E+03  0.7957747E-01  0.3497914E+00
         13   -1    0    0    0    0  0.00000000000E+00  0.00000000000E+00  0.14999999963E+04  0.15000000000E+04  0.10566000000E+00 0. -1.
        994   -1    0    0    0    0 -0.00000000000E+00 -0.00000000000E+00  0.11368683772E-12  0.17120000000E+03  0.17120000000E+03 0.  0.
         13    1    1    2    0    0  0.58708214814E+02 -0.15057561820E+02  0.16902836532E+03  0.17956609953E+03  0.10566000000E+00 0. -1.
        994    1    1    2    0    0 -0.32659011541E+02  0.14833281413E+02  0.15211062303E+02  0.17557748628E+03  0.17120000000E+03 0.  0.
        998    1    1    2    0    0 -0.26049203273E+02  0.22428040772E+00  0.13157605687E+04  0.13160564142E+04  0.10000000000E+02 0. -1.
</event>
<event>
 5    1  0.1153629E-008  0.3834889E+03  0.7957747E-01  0.3436107E+00
         13   -1    0    0    0    0  0.00000000000E+00  0.00000000000E+00  0.14999999963E+04  0.15000000000E+04  0.10566000000E+00 0. -1.
        994   -1    0    0    0    0 -0.00000000000E+00 -0.00000000000E+00  0.11368683772E-12  0.17120000000E+03  0.17120000000E+03 0.  0.
         13    1    1    2    0    0  0.57411874581E+01 -0.17963495797E+02  0.72898326440E+02  0.75298244179E+02  0.10566000000E+00 0. -1.
        994    1    1    2    0    0 -0.53306581854E+01  0.13910751882E+02  0.31160238767E+01  0.17187517139E+03  0.17120000000E+03 0.  0.
        998    1    1    2    0    0 -0.41052927270E+00  0.40527439158E+01  0.14239856460E+04  0.14240265844E+04  0.10000000000E+02 0. -1.
</event>
<event>
 5    1  0.1153629E-008  0.3833335E+03  0.7957747E-01  0.3436771E+00
         13   -1    0    0    0    0  0.00000000000E+00  0.00000000000E+00  0.14999999963E+04  0.15000000000E+04  0.10566000000E+00 0. -1.
        994   -1    0    0    0    0 -0.00000000000E+00 -0.00000000000E+00  0.11368683772E-12  0.17120000000E+03  0.17120000000E+03 0.  0.
         13    1    1    2    0    0 -0.16515589310E+02 -0.19511505455E+01  0.60542234532E+02  0.62784910646E+02  0.10566000000E+00 0. -1.
        994    1    1    2    0    0 -0.53249548348E+01 -0.49559090780E+01  0.26347816480E+01  0.17137473050E+03  0.17120000000E+03 0.  0.
        998    1    1    2    0    0  0.21840544145E+02  0.69070596235E+01  0.14368229801E+04  0.14370403589E+04  0.10000000000E+02 0. -1.
</event>
<event>
 5    1  0.1153629E-008  0.3841900E+03  0.7957747E-01  0.3433115E+00
         13   -1    0    0    0    0  0.00000000000E+00  0.00000000000E+00  0.14999999963E+04  0.15000000000E+04  0.10566000000E+00 0.  1.
        994   -1    0    0    0    0 -0.00000000000E+00 -0.00000000000E+00  0.11368683772E-12  0.17120000000E+03  0.17120000000E+03 0.  0.
         13    1    1    2    0    0  0.14363803454E+02 -0.89455481134E+01  0.87064445527E+02  0.88693689289E+02  0.10566000000E+00 0.  1.
        994    1    1    2    0    0  0.26676757514E+02  0.46902435521E+01  0.44556247621E+01  0.17338667875E+03  0.17120000000E+03 0.  0.
        998    1    1    2    0    0 -0.41040560969E+02  0.42553045613E+01  0.14084799260E+04  0.14091196320E+04  0.10000000000E+02 0.  1.
</event>
<event>
 5    1  0.1153629E-008  0.3807382E+03  0.7957747E-01  0.3447951E+00
         13   -1    0    0    0    0  0.00000000000E+00  0.00000000000E+00  0.14999999963E+04  0.15000000000E+04  0.10566000000E+00 0. -1.
        994   -1    0    0    0    0 -0.00000000000E+00 -0.00000000000E+00  0.11368683772E-12  0.17120000000E+03  0.17120000000E+03 0.  0.
         13    1    1    2    0    0 -0.18574391873E+00  0.31969961306E+02  0.14720713994E+03  0.15063886000E+03  0.10566000000E+00 0. -1.
        994    1    1    2    0    0 -0.13734095780E+02 -0.57540376869E+01  0.45007718353E+01  0.17190529743E+03  0.17120000000E+03 0.  0.
        998    1    1    2    0    0  0.13919839699E+02 -0.26215923619E+02  0.13482920845E+04  0.13486558426E+04  0.10000000000E+02 0. -1.
</event>
<event>
 5    1  0.1153629E-008  0.3749105E+03  0.7957747E-01  0.3473623E+00
         13   -1    0    0    0    0  0.00000000000E+00  0.00000000000E+00  0.14999999963E+04  0.15000000000E+04  0.10566000000E+00 0. -1.
        994   -1    0    0    0    0 -0.00000000000E+00 -0.00000000000E+00  0.11368683772E-12  0.17120000000E+03  0.17120000000E+03 0.  0.
         13    1    1    2    0    0 -0.41930556283E+02  0.11741245692E+02  0.12412944789E+03  0.13154527508E+03  0.10566000000E+00 0. -1.
        994    1    1    2    0    0  0.48536673348E+02 -0.12037077794E+02  0.15275576653E+02  0.17900693602E+03  0.17120000000E+03 0.  0.
        998    1    1    2    0    0 -0.66061170652E+01  0.29583210139E+00  0.13605949717E+04  0.13606477889E+04  0.10000000000E+02 0. -1.
</event>
<event>
 5    1  0.1153629E-008  0.3728598E+03  0.7957747E-01  0.3482850E+00
         13   -1    0    0    0    0  0.00000000000E+00  0.00000000000E+00  0.14999999963E+04  0.15000000000E+04  0.10566000000E+00 0. -1.
        994   -1    0    0    0    0 -0.00000000000E+00 -0.00000000000E+00  0.11368683772E-12  0.17120000000E+03  0.17120000000E+03 0.  0.
         13    1    1    2    0    0  0.12360631600E+02 -0.21509084120E+02  0.19148874346E+02  0.31338737466E+02  0.10566000000E+00 0. -1.
        994    1    1    2    0    0 -0.14449506071E+02  0.19959663458E+02  0.14606087007E+02  0.17357982074E+03  0.17120000000E+03 0.  0.
        998    1    1    2    0    0  0.20888744716E+01  0.15494206617E+01  0.14662450349E+04  0.14662814418E+04  0.10000000000E+02 0. -1.
</event>
<event>
 5    1  0.1153629E-008  0.3796767E+03  0.7957747E-01  0.3452567E+00
         13   -1    0    0    0    0  0.00000000000E+00  0.00000000000E+00  0.14999999963E+04  0.15000000000E+04  0.10566000000E+00 0.  1.
        994   -1    0    0    0    0 -0.00000000000E+00 -0.00000000000E+00  0.11368683772E-12  0.17120000000E+03  0.17120000000E+03 0.  0.
         13    1    1    2    0    0 -0.16096951099E+02  0.63010841575E+00  0.28556807305E+02  0.32787364621E+02  0.10566000000E+00 0.  1.
        994    1    1    2    0    0  0.10262319673E+02  0.53961742380E+01  0.47464347217E+01  0.17165780653E+03  0.17120000000E+03 0.  0.
        998    1    1    2    0    0  0.58346314267E+01 -0.60262826537E+01  0.14666967543E+04  0.14667548288E+04  0.10000000000E+02 0.  1.
</event>
<event>
 5    1  0.1153629E-008  0.3842446E+03  0.7957747E-01  0.3432882E+00
         13   -1    0    0    0    0  0.00000000000E+00  0.00000000000E+00  0.14999999963E+04  0.15000000000E+04  0.10566000000E+00 0. -1.
        994   -1    0    0    0    0 -0.00000000000E+00 -0.00000000000E+00  0.11368683772E-12  0.17120000000E+03  0.17120000000E+03 0.  0.
         13    1    1    2    0    0  0.93009423286E+01  0.12987977670E+02  0.65781269490E+02  0.67693291188E+02  0.10566000000E+00 0. -1.
        994    1    1    2    0    0 -0.99991232686E+01  0.23788643524E+01  0.23539699978E+01  0.17152440828E+03  0.17120000000E+03 0.  0.
        998    1    1    2    0    0  0.69818093999E+00 -0.15366842022E+02  0.14318647568E+04  0.14319823005E+04  0.10000000000E+02 0. -1.
</event>
<event>
 5    1  0.1153629E-008  0.2956329E+03  0.7957747E-01  0.3927698E+00
         13   -1    0    0    0    0  0.00000000000E+00  0.00000000000E+00  0.14999999963E+04  0.15000000000E+04  0.10566000000E+00 0.  1.
        994   -1    0    0    0    0 -0.00000000000E+00 -0.00000000000E+00  0.11368683772E-12  0.17120000000E+03  0.17120000000E+03 0.  0.
         13    1    1    2    0    0  0.49774289472E+02 -0.12920304970E+03  0.79412362717E+03  0.80610374911E+03  0.10566000000E+00 0.  1.
        994    1    1    2    0    0 -0.37264796911E+02  0.33683912094E+02  0.28317837877E+02  0.18065052163E+03  0.17120000000E+03 0.  0.
        998    1    1    2    0    0 -0.12509492561E+02  0.95519137604E+02  0.67755853123E+03  0.68444572926E+03  0.10000000000E+02 0.  1.
</event>
<event>
 5    1  0.1153629E-008  0.3766667E+03  0.7957747E-01  0.3465802E+00
         13   -1    0    0    0    0  0.00000000000E+00  0.00000000000E+00  0.14999999963E+04  0.15000000000E+04  0.10566000000E+00 0.  1.
        994   -1    0    0    0    0 -0.00000000000E+00 -0.00000000000E+00  0.11368683772E-12  0.17120000000E+03  0.17120000000E+03 0.  0.
         13    1    1    2    0    0  0.10306339579E+02  0.20204729064E+02  0.44164748528E+02  0.49648644379E+02  0.10566000000E+00 0.  1.
        994    1    1    2    0    0 -0.31354121586E+01  0.37887149109E+01  0.59070653688E+01  0.17137245575E+03  0.17120000000E+03 0.  0.
        998    1    1    2    0    0 -0.71709274205E+01 -0.23993443975E+02  0.14499281824E+04  0.14501788999E+04  0.10000000000E+02 0.  1.
</event>
<event>
 5    1  0.1153629E-008  0.3813636E+03  0.7957747E-01  0.3445243E+00
         13   -1    0    0    0    0  0.00000000000E+00  0.00000000000E+00  0.14999999963E+04  0.15000000000E+04  0.10566000000E+00 0.  1.
        994   -1    0    0    0    0 -0.00000000000E+00 -0.00000000000E+00  0.11368683772E-12  0.17120000000E+03  0.17120000000E+03 0.  0.
         13    1    1    2    0    0  0.18201249737E+02 -0.12506099569E+02  0.76451674733E+02  0.79577369597E+02  0.10566000000E+00 0.  1.
        994    1    1    2    0    0  0.15995547979E+01 -0.65973236280E+01  0.35997831311E+01  0.17137234810E+03  0.17120000000E+03 0.  0.
        998    1    1    2    0    0 -0.19800804535E+02  0.19103423197E+02  0.14199485384E+04  0.14202502823E+04  0.10000000000E+02 0.  1.
</event>
<event>
 5    1  0.1153629E-008  0.3799531E+03  0.7957747E-01  0.3451363E+00
         13   -1    0    0    0    0  0.00000000000E+00  0.00000000000E+00  0.14999999963E+04  0.15000000000E+04  0.10566000000E+00 0. -1.
        994   -1    0    0    0    0 -0.00000000000E+00 -0.00000000000E+00  0.11368683772E-12  0.17120000000E+03  0.17120000000E+03 0.  0.
         13    1    1    2    0    0  0.17796695238E+02 -0.34701868720E+02  0.16224174433E+03  0.16686322789E+03  0.10566000000E+00 0. -1.
        994    1    1    2    0    0 -0.23996690295E+02  0.32834938905E+02  0.97066742893E+01  0.17623176185E+03  0.17120000000E+03 0.  0.
        998    1    1    2    0    0  0.61999950578E+01  0.18669298150E+01  0.13280515777E+04  0.13281050103E+04  0.10000000000E+02 0. -1.
</event>
<event>
 5    1  0.1153629E-008  0.3841491E+03  0.7957747E-01  0.3433289E+00
         13   -1    0    0    0    0  0.00000000000E+00  0.00000000000E+00  0.14999999963E+04  0.15000000000E+04  0.10566000000E+00 0.  1.
        994   -1    0    0    0    0 -0.00000000000E+00 -0.00000000000E+00  0.11368683772E-12  0.17120000000E+03  0.17120000000E+03 0.  0.
         13    1    1    2    0    0  0.16192072337E+02 -0.79982364120E+01  0.82835763689E+02  0.84781660176E+02  0.10566000000E+00 0.  1.
        994    1    1    2    0    0 -0.78266220755E+01 -0.57511920143E+01  0.23643509472E+01  0.17149158107E+03  0.17120000000E+03 0.  0.
        998    1    1    2    0    0 -0.83654502616E+01  0.13749428426E+02  0.14147998816E+04  0.14149267588E+04  0.10000000000E+02 0.  1.
</event>
<event>
 5    1  0.1153629E-008  0.3830647E+03  0.7957747E-01  0.3437922E+00
         13   -1    0    0    0    0  0.00000000000E+00  0.00000000000E+00  0.14999999963E+04  0.15000000000E+04  0.10566000000E+00 0.  1.
        994   -1    0    0    0    0 -0.00000000000E+00 -0.00000000000E+00  0.11368683772E-12  0.17120000000E+03  0.17120000000E+03 0.  0.
         13    1    1    2    0    0  0.10582097867E+02 -0.42772730160E+01  0.24480581612E+02  0.27010847817E+02  0.10566000000E+00 0.  1.
        994    1    1    2    0    0 -0.20092122347E+01  0.67548798614E+01  0.27584377828E+01  0.17136719148E+03  0.17120000000E+03 0.  0.
        998    1    1    2    0    0 -0.85728856326E+01 -0.24776068454E+01  0.14727609769E+04  0.14728219607E+04  0.10000000000E+02 0.  1.
</event>
<event>
 5    1  0.1153629E-008  0.3695364E+03  0.7957747E-01  0.3498024E+00
         13   -1    0    0    0    0  0.00000000000E+00  0.00000000000E+00  0.14999999963E+04  0.15000000000E+04  0.10566000000E+00 0.  1.
        994   -1    0    0    0    0 -0.00000000000E+00 -0.00000000000E+00  0.11368683772E-12  0.17120000000E+03  0.17120000000E+03 0.  0.
         13    1    1    2    0    0  0.23468671504E+03  0.21979042761E+03  0.77254746996E+03  0.83678867750E+03  0.10566000000E+00 0.  1.
        994    1    1    2    0    0 -0.23147269815E+03 -0.22068827533E+03  0.56380174018E+03  0.67042133549E+03  0.17120000000E+03 0.  0.
        998    1    1    2    0    0 -0.32140168894E+01  0.89784771784E+00  0.16365078613E+03  0.16398998700E+03  0.10000000000E+02 0.  0.
</event>
<event>
 5    1  0.1153629E-008  0.3843348E+03  0.7957747E-01  0.3432498E+00
         13   -1    0    0    0    0  0.00000000000E+00  0.00000000000E+00  0.14999999963E+04  0.15000000000E+04  0.10566000000E+00 0.  1.
        994   -1    0    0    0    0 -0.00000000000E+00 -0.00000000000E+00  0.11368683772E-12  0.17120000000E+03  0.17120000000E+03 0.  0.
         13    1    1    2    0    0 -0.13995126282E+02  0.17757300733E+02  0.13129779938E+03  0.13323028400E+03  0.10566000000E+00 0.  1.
        994    1    1    2    0    0  0.96195231160E+01 -0.86818559176E+01  0.25143280248E+01  0.17170810025E+03  0.17120000000E+03 0.  0.
        998    1    1    2    0    0  0.43756031660E+01 -0.90754448155E+01  0.13661878689E+04  0.13662616157E+04  0.10000000000E+02 0.  1.
</event>
<event>
 5    1  0.1153629E-008  0.3830889E+03  0.7957747E-01  0.3437818E+00
         13   -1    0    0    0    0  0.00000000000E+00  0.00000000000E+00  0.14999999963E+04  0.15000000000E+04  0.10566000000E+00 0.  1.
        994   -1    0    0    0    0 -0.00000000000E+00 -0.00000000000E+00  0.11368683772E-12  0.17120000000E+03  0.17120000000E+03 0.  0.
         13    1    1    2    0    0  0.12329489913E+02 -0.54134212876E+01  0.34305906618E+02  0.36854142840E+02  0.10566000000E+00 0.  1.
        994    1    1    2    0    0 -0.43351224975E+01  0.12391657749E+02  0.31524620637E+01  0.17173154773E+03  0.17120000000E+03 0.  0.
        998    1    1    2    0    0 -0.79943674150E+01 -0.69782364615E+01  0.14625416276E+04  0.14626143094E+04  0.10000000000E+02 0.  1.
</event>
<event>
 5    1  0.1153629E-008  0.3738033E+03  0.7957747E-01  0.3478592E+00
         13   -1    0    0    0    0  0.00000000000E+00  0.00000000000E+00  0.14999999963E+04  0.15000000000E+04  0.10566000000E+00 0. -1.
        994   -1    0    0    0    0 -0.00000000000E+00 -0.00000000000E+00  0.11368683772E-12  0.17120000000E+03  0.17120000000E+03 0.  0.
         13    1    1    2    0    0 -0.27916880874E+01  0.49025911780E+02  0.14667712324E+03  0.15467877422E+03  0.10566000000E+00 0. -1.
        994    1    1    2    0    0  0.70148349565E+01 -0.50300833056E+02  0.16149488043E+02  0.17930317253E+03  0.17120000000E+03 0.  0.
        998    1    1    2    0    0 -0.42231468691E+01  0.12749212754E+01  0.13371733850E+04  0.13372180533E+04  0.10000000000E+02 0. -1.
</event>
<event>
 5    1  0.1153629E-008  0.3826337E+03  0.7957747E-01  0.3439770E+00
         13   -1    0    0    0    0  0.00000000000E+00  0.00000000000E+00  0.14999999963E+04  0.15000000000E+04  0.10566000000E+00 0.  1.
        994   -1    0    0    0    0 -0.00000000000E+00 -0.00000000000E+00  0.11368683772E-12  0.17120000000E+03  0.17120000000E+03 0.  0.
         13    1    1    2    0    0  0.13915878311E+02  0.22083064743E+02  0.12293111299E+03  0.12567172762E+03  0.10566000000E+00 0.  1.
        994    1    1    2    0    0 -0.94061087905E+01 -0.91694927854E+01  0.33816188989E+01  0.17173651279E+03  0.17120000000E+03 0.  0.
        998    1    1    2    0    0 -0.45097695210E+01 -0.12913571958E+02  0.13736872644E+04  0.13737917596E+04  0.10000000000E+02 0.  1.
</event>
<event>
 5    1  0.1153629E-008  0.3759188E+03  0.7957747E-01  0.3469124E+00
         13   -1    0    0    0    0  0.00000000000E+00  0.00000000000E+00  0.14999999963E+04  0.15000000000E+04  0.10566000000E+00 0.  1.
        994   -1    0    0    0    0 -0.00000000000E+00 -0.00000000000E+00  0.11368683772E-12  0.17120000000E+03  0.17120000000E+03 0.  0.
         13    1    1    2    0    0  0.24685824060E+02  0.27416969718E+02  0.90577561379E+02  0.97802791000E+02  0.10566000000E+00 0.  1.
        994    1    1    2    0    0 -0.37628380448E+02 -0.52015915715E+02  0.20304687751E+02  0.18396540666E+03  0.17120000000E+03 0.  0.
        998    1    1    2    0    0  0.12942556388E+02  0.24598945997E+02  0.13891177471E+04  0.13894318023E+04  0.10000000000E+02 0.  1.
</event>
<event>
 5    1  0.1153629E-008  0.3857375E+03  0.7957747E-01  0.3426550E+00
         13   -1    0    0    0    0  0.00000000000E+00  0.00000000000E+00  0.14999999963E+04  0.15000000000E+04  0.10566000000E+00 0. -1.
        994   -1    0    0    0    0 -0.00000000000E+00 -0.00000000000E+00  0.11368683772E-12  0.17120000000E+03  0.17120000000E+03 0.  0.
         13    1    1    2    0    0  0.11753549618E+02 -0.10811757060E+01  0.54988791691E+02  0.56241383742E+02  0.10566000000E+00 0. -1.
        994    1    1    2    0    0 -0.96017095266E+01 -0.19446412607E+01  0.15793458184E+01  0.17148734294E+03  0.17120000000E+03 0.  0.
        998    1    1    2    0    0 -0.21518400912E+01  0.30258169667E+01  0.14434318588E+04  0.14434712733E+04  0.10000000000E+02 0. -1.
</event>
<event>
 5    1  0.1153629E-008  0.3708856E+03  0.7957747E-01  0.3491831E+00
         13   -1    0    0    0    0  0.00000000000E+00  0.00000000000E+00  0.14999999963E+04  0.15000000000E+04  0.10566000000E+00 0. -1.
        994   -1    0    0    0    0 -0.00000000000E+00 -0.00000000000E+00  0.11368683772E-12  0.17120000000E+03  0.17120000000E+03 0.  0.
         13    1    1    2    0    0  0.20606182335E+02 -0.40114417428E+02  0.11572834128E+03  0.12420483636E+03  0.10566000000E+00 0. -1.
        994    1    1    2    0    0 -0.49710012589E+01  0.20638338947E+02  0.10361917152E+02  0.17282205072E+03  0.17120000000E+03 0.  0.
        998    1    1    2    0    0 -0.15635181076E+02  0.19476078481E+02  0.13739097378E+04  0.13741731129E+04  0.10000000000E+02 0. -1.
</event>
<event>
 5    1  0.1153629E-008  0.3744507E+03  0.7957747E-01  0.3475683E+00
         13   -1    0    0    0    0  0.00000000000E+00  0.00000000000E+00  0.14999999963E+04  0.15000000000E+04  0.10566000000E+00 0.  1.
        994   -1    0    0    0    0 -0.00000000000E+00 -0.00000000000E+00  0.11368683772E-12  0.17120000000E+03  0.17120000000E+03 0.  0.
         13    1    1    2    0    0 -0.52032749269E+00 -0.11562721853E+02  0.64188041647E+01  0.13235538836E+02  0.10566000000E+00 0.  1.
        994    1    1    2    0    0  0.49797300378E+00  0.95739590236E+01  0.72741413470E+01  0.17162243968E+03  0.17120000000E+03 0.  0.
        998    1    1    2    0    0  0.22354488902E-01  0.19887628289E+01  0.14863070508E+04  0.14863420215E+04  0.10000000000E+02 0.  1.
</event>
<event>
 5    1  0.1153629E-008  0.3779656E+03  0.7957747E-01  0.3460065E+00
         13   -1    0    0    0    0  0.00000000000E+00  0.00000000000E+00  0.14999999963E+04  0.15000000000E+04  0.10566000000E+00 0.  1.
        994   -1    0    0    0    0 -0.00000000000E+00 -0.00000000000E+00  0.11368683772E-12  0.17120000000E+03  0.17120000000E+03 0.  0.
         13    1    1    2    0    0 -0.24528490361E+02  0.90962676632E+02  0.29509589049E+03  0.30976999714E+03  0.10566000000E+00 0.  1.
        994    1    1    2    0    0  0.32532061116E+01 -0.52066010434E+02  0.25067982077E+02  0.18071883277E+03  0.17120000000E+03 0.  0.
        998    1    1    2    0    0  0.21275284250E+02 -0.38896666198E+02  0.11798361237E+04  0.11807111701E+04  0.10000000000E+02 0.  1.
</event>
<event>
 5    1  0.1153629E-008  0.3797497E+03  0.7957747E-01  0.3452249E+00
         13   -1    0    0    0    0  0.00000000000E+00  0.00000000000E+00  0.14999999963E+04  0.15000000000E+04  0.10566000000E+00 0. -1.
        994   -1    0    0    0    0 -0.00000000000E+00 -0.00000000000E+00  0.11368683772E-12  0.17120000000E+03  0.17120000000E+03 0.  0.
         13    1    1    2    0    0 -0.26481076348E+02 -0.16295415900E+02  0.12198673444E+03  0.12588710231E+03  0.10566000000E+00 0. -1.
        994    1    1    2    0    0  0.52380905233E+01 -0.15419569126E+01  0.43593152704E+01  0.17134251910E+03  0.17120000000E+03 0.  0.
        998    1    1    2    0    0  0.21242985825E+02  0.17837372813E+02  0.13736539466E+04  0.13739703786E+04  0.10000000000E+02 0. -1.
</event>
<event>
 5    1  0.1153629E-008  0.3728652E+03  0.7957747E-01  0.3482826E+00
         13   -1    0    0    0    0  0.00000000000E+00  0.00000000000E+00  0.14999999963E+04  0.15000000000E+04  0.10566000000E+00 0.  1.
        994   -1    0    0    0    0 -0.00000000000E+00 -0.00000000000E+00  0.11368683772E-12  0.17120000000E+03  0.17120000000E+03 0.  0.
         13    1    1    2    0    0 -0.95827935339E+01 -0.17355063805E+02  0.23347886380E+02  0.30629448804E+02  0.10566000000E+00 0.  1.
        994    1    1    2    0    0  0.26682921897E+02 -0.28964836030E+02  0.13107938692E+02  0.17615958136E+03  0.17120000000E+03 0.  0.
        998    1    1    2    0    0 -0.17100128363E+02  0.46319899836E+02  0.14635441712E+04  0.14644109698E+04  0.10000000000E+02 0.  1.
</event>
<event>
 5    1  0.1153629E-008  0.3831764E+03  0.7957747E-01  0.3437443E+00
         13   -1    0    0    0    0  0.00000000000E+00  0.00000000000E+00  0.14999999963E+04  0.15000000000E+04  0.10566000000E+00 0.  1.
        994   -1    0    0    0    0 -0.00000000000E+00 -0.00000000000E+00  0.11368683772E-12  0.17120000000E+03  0.17120000000E+03 0.  0.
         13    1    1    2    0    0 -0.19398646650E+02 -0.55248252380E+02  0.76608194259E+02  0.96423562860E+02  0.10566000000E+00 0.  1.
        994    1    1    2    0    0  0.22088000345E+02  0.86968787380E+02  0.48238130422E+02  0.19921798856E+03  0.17120000000E+03 0.  0.
        998    1    1    2    0    0 -0.26893536953E+01 -0.31720534999E+02  0.13751536716E+04  0.13755584486E+04  0.10000000000E+02 0.  1.
</event>
<event>
 5    1  0.1153629E-008  0.3818805E+03  0.7957747E-01  0.3443011E+00
         13   -1    0    0    0    0  0.00000000000E+00  0.00000000000E+00  0.14999999963E+04  0.15000000000E+04  0.10566000000E+00 0. -1.
        994   -1    0    0    0    0 -0.00000000000E+00 -0.00000000000E+00  0.11368683772E-12  0.17120000000E+03  0.17120000000E+03 0.  0.
         13    1    1    2    0    0 -0.17853380049E+02  0.17728843540E+02  0.10046206193E+03  0.10356491744E+03  0.10566000000E+00 0. -1.
        994    1    1    2    0    0  0.10222864393E+02 -0.62998327573E+01  0.36660778619E+01  0.17165976516E+03  0.17120000000E+03 0.  0.
        998    1    1    2    0    0  0.76305156554E+01 -0.11429010783E+02  0.13958718565E+04  0.13959753174E+04  0.10000000000E+02 0. -1.
</event>
<event>
 5    1  0.1153629E-008  0.3784926E+03  0.7957747E-01  0.3457748E+00
         13   -1    0    0    0    0  0.00000000000E+00  0.00000000000E+00  0.14999999963E+04  0.15000000000E+04  0.10566000000E+00 0.  1.
        994   -1    0    0    0    0 -0.00000000000E+00 -0.00000000000E+00  0.11368683772E-12  0.17120000000E+03  0.17120000000E+03 0.  0.
         13    1    1    2    0    0  0.17675557277E+02 -0.59704858197E+01  0.37064688685E+02  0.41495473697E+02  0.10566000000E+00 0.  1.
        994    1    1    2    0    0  0.19547396480E+02 -0.11770075661E+01  0.61854393878E+01  0.17242733460E+03  0.17120000000E+03 0.  0.
        998    1    1    2    0    0 -0.37222953757E+02  0.71474933857E+01  0.14567498682E+04  0.14572771917E+04  0.10000000000E+02 0.  1.
</event>
<event>
 5    1  0.1153629E-008  0.3842096E+03  0.7957747E-01  0.3433031E+00
         13   -1    0    0    0    0  0.00000000000E+00  0.00000000000E+00  0.14999999963E+04  0.15000000000E+04  0.10566000000E+00 0.  1.
        994   -1    0    0    0    0 -0.00000000000E+00 -0.00000000000E+00  0.11368683772E-12  0.17120000000E+03  0.17120000000E+03 0.  0.
         13    1    1    2    0    0 -0.10544317746E+03  0.23875898037E+03  0.11039004987E+04  0.11343370031E+04  0.10566000000E+00 0.  1.
        994    1    1    2    0    0  0.10733812896E+03 -0.24217601427E+03  0.28453363693E+03  0.42478173968E+03  0.17120000000E+03 0.  0.
        998    1    1    2    0    0 -0.18949515000E+01  0.34170338974E+01  0.11156586066E+03  0.11208125725E+03  0.10000000000E+02 0. -1.
</event>
<event>
 5    1  0.1153629E-008  0.3858869E+03  0.7957747E-01  0.3425919E+00
         13   -1    0    0    0    0  0.00000000000E+00  0.00000000000E+00  0.14999999963E+04  0.15000000000E+04  0.10566000000E+00 0.  1.
        994   -1    0    0    0    0 -0.00000000000E+00 -0.00000000000E+00  0.11368683772E-12  0.17120000000E+03  0.17120000000E+03 0.  0.
         13    1    1    2    0    0 -0.94479817019E+01  0.38579025511E+01  0.44266975655E+02  0.45428229858E+02  0.10566000000E+00 0.  1.
        994    1    1    2    0    0  0.13945700179E+02  0.15820901050E+02  0.26503493084E+01  0.17251448581E+03  0.17120000000E+03 0.  0.
        998    1    1    2    0    0 -0.44977184768E+01 -0.19678803601E+02  0.14530826713E+04  0.14532572843E+04  0.10000000000E+02 0.  1.
</event>
<event>
 5    1  0.1153629E-008  0.3761124E+03  0.7957747E-01  0.3468263E+00
         13   -1    0    0    0    0  0.00000000000E+00  0.00000000000E+00  0.14999999963E+04  0.15000000000E+04  0.10566000000E+00 0. -1.
        994   -1    0    0    0    0 -0.00000000000E+00 -0.00000000000E+00  0.11368683772E-12  0.17120000000E+03  0.17120000000E+03 0.  0.
         13    1    1    2    0    0  0.31805131989E+02 -0.33270636085E+02  0.20641644892E+03  0.21148584632E+03  0.10566000000E+00 0. -1.
        994    1    1    2    0    0  0.10389751404E+02  0.75394226443E+01  0.66668439518E+01  0.17181000156E+03  0.17120000000E+03 0.  0.
        998    1    1    2    0    0 -0.42194883393E+02  0.25731213440E+02  0.12869167034E+04  0.12879041521E+04  0.10000000000E+02 0. -1.
</event>
<event>
 5    1  0.1153629E-008  0.3788083E+03  0.7957747E-01  0.3456364E+00
         13   -1    0    0    0    0  0.00000000000E+00  0.00000000000E+00  0.14999999963E+04  0.15000000000E+04  0.10566000000E+00 0.  1.
        994   -1    0    0    0    0 -0.00000000000E+00 -0.00000000000E+00  0.11368683772E-12  0.17120000000E+03  0.17120000000E+03 0.  0.
         13    1    1    2    0    0  0.14352239859E+02  0.52596993520E+01  0.23899536921E+02  0.28369882892E+02  0.10566000000E+00 0.  1.
        994    1    1    2    0    0  0.67068951579E+01  0.60370920494E+01  0.50092422976E+01  0.17151082016E+03  0.17120000000E+03 0.  0.
        998    1    1    2    0    0 -0.21059135017E+02 -0.11296791401E+02  0.14710912171E+04  0.14713192969E+04  0.10000000000E+02 0.  1.
</event>
<event>
 5    1  0.1153629E-008  0.3705148E+03  0.7957747E-01  0.3493528E+00
         13   -1    0    0    0    0  0.00000000000E+00  0.00000000000E+00  0.14999999963E+04  0.15000000000E+04  0.10566000000E+00 0.  1.
        994   -1    0    0    0    0 -0.00000000000E+00 -0.00000000000E+00  0.11368683772E-12  0.17120000000E+03  0.17120000000E+03 0.  0.
         13    1    1    2    0    0 -0.14851447439E+03 -0.50139226129E+02  0.84497798563E+03  0.85939414617E+03  0.10566000000E+00 0.  1.
        994    1    1    2    0    0  0.11493970239E+03  0.24940745533E+02  0.61366009691E+02  0.21658347841E+03  0.17120000000E+03 0.  0.
        998    1    1    2    0    0  0.33574771998E+02  0.25198480595E+02  0.59365600096E+03  0.59522237543E+03  0.10000000000E+02 0.  1.
</event>
<event>
 5    1  0.1153629E-008  0.3804358E+03  0.7957747E-01  0.3449263E+00
         13   -1    0    0    0    0  0.00000000000E+00  0.00000000000E+00  0.14999999963E+04  0.15000000000E+04  0.10566000000E+00 0.  1.
        994   -1    0    0    0    0 -0.00000000000E+00 -0.00000000000E+00  0.11368683772E-12  0.17120000000E+03  0.17120000000E+03 0.  0.
         13    1    1    2    0    0 -0.43147248003E+00  0.15726653054E+02  0.29362542963E+02  0.33311917959E+02  0.10566000000E+00 0.  1.
        994    1    1    2    0    0 -0.52755676117E+01 -0.18683471344E+02  0.51724614690E+01  0.17237487657E+03  0.17120000000E+03 0.  0.
        998    1    1    2    0    0  0.57070400918E+01  0.29568182899E+01  0.14654649918E+04  0.14655132055E+04  0.10000000000E+02 0.  1.
</event>
<event>
 5    1  0.1153629E-008  0.3774194E+03  0.7957747E-01  0.3462472E+00
         13   -1    0    0    0    0  0.00000000000E+00  0.00000000000E+00  0.14999999963E+04  0.15000000000E+04  0.10566000000E+00 0.  1.
        994   -1    0    0    0    0 -0.00000000000E+00 -0.00000000000E+00  0.11368683772E-12  0.17120000000E+03  0.17120000000E+03 0.  0.
         13    1    1    2    0    0 -0.91437670503E+01  0.96522386265E+02  0.47367791271E+03  0.48349866151E+03  0.10566000000E+00 0.  1.
        994    1    1    2    0    0  0.28455989712E+02 -0.10085006385E+01  0.17832593456E+02  0.17446547456E+03  0.17120000000E+03 0.  0.
        998    1    1    2    0    0 -0.19312222662E+02 -0.95513885626E+02  0.10084894901E+04  0.10132358639E+04  0.10000000000E+02 0.  1.
</event>
<event>
 5    1  0.1206257E-008  0.3852381E+03  0.7957747E-01  0.3428663E+00
         13   -1    0    0    0    0  0.00000000000E+00  0.00000000000E+00  0.14999999963E+04  0.15000000000E+04  0.10566000000E+00 0.  1.
        994   -1    0    0    0    0 -0.00000000000E+00 -0.00000000000E+00  0.11368683772E-12  0.17120000000E+03  0.17120000000E+03 0.  0.
         13    1    1    2    0    0  0.86154038496E+01  0.10770423533E+02  0.64071555744E+02  0.65539321220E+02  0.10566000000E+00 0.  1.
        994    1    1    2    0    0 -0.41531878880E+01 -0.52239133704E+01  0.16583403499E+01  0.17133805279E+03  0.17120000000E+03 0.  0.
        998    1    1    2    0    0 -0.44622159615E+01 -0.55465101621E+01  0.14342701002E+04  0.14343226260E+04  0.10000000000E+02 0.  1.
</event>
<event>
 5    1  0.1153629E-008  0.3772739E+03  0.7957747E-01  0.3463115E+00
         13   -1    0    0    0    0  0.00000000000E+00  0.00000000000E+00  0.14999999963E+04  0.15000000000E+04  0.10566000000E+00 0. -1.
        994   -1    0    0    0    0 -0.00000000000E+00 -0.00000000000E+00  0.11368683772E-12  0.17120000000E+03  0.17120000000E+03 0.  0.
         13    1    1    2    0    0 -0.94958884776E+02  0.29413177891E+02  0.55831968831E+03  0.56710070565E+03  0.10566000000E+00 0. -1.
        994    1    1    2    0    0  0.91783851176E+02 -0.36257510911E+02  0.39106956040E+02  0.20143901421E+03  0.17120000000E+03 0.  0.
        998    1    1    2    0    0  0.31750335996E+01  0.68443330199E+01  0.90257335193E+03  0.90266028014E+03  0.10000000000E+02 0. -1.
</event>
<event>
 5    1  0.1153629E-008  0.3840500E+03  0.7957747E-01  0.3433711E+00
         13   -1    0    0    0    0  0.00000000000E+00  0.00000000000E+00  0.14999999963E+04  0.15000000000E+04  0.10566000000E+00 0. -1.
        994   -1    0    0    0    0 -0.00000000000E+00 -0.00000000000E+00  0.11368683772E-12  0.17120000000E+03  0.17120000000E+03 0.  0.
         13    1    1    2    0    0  0.23268980093E+01  0.17673366078E+02  0.77486095428E+02  0.79510178415E+02  0.10566000000E+00 0. -1.
        994    1    1    2    0    0 -0.23767648702E+01 -0.62910875918E+01  0.22517252463E+01  0.17134683266E+03  0.17120000000E+03 0.  0.
        998    1    1    2    0    0  0.49866860968E-01 -0.11382278486E+02  0.14202621756E+04  0.14203429889E+04  0.10000000000E+02 0. -1.
</event>
<event>
 5    1  0.1153629E-008  0.3845288E+03  0.7957747E-01  0.3431673E+00
         13   -1    0    0    0    0  0.00000000000E+00  0.00000000000E+00  0.14999999963E+04  0.15000000000E+04  0.10566000000E+00 0.  1.
        994   -1    0    0    0    0 -0.00000000000E+00 -0.00000000000E+00  0.11368683772E-12  0.17120000000E+03  0.17120000000E+03 0.  0.
         13    1    1    2    0    0  0.53714115625E+01  0.10133566541E+02  0.35142594191E+02  0.36966935544E+02  0.10566000000E+00 0.  1.
        994    1    1    2    0    0  0.27937705362E+01 -0.86602667387E+01  0.21370373795E+01  0.17145498623E+03  0.17120000000E+03 0.  0.
        998    1    1    2    0    0 -0.81651820987E+01 -0.14732998025E+01  0.14627203647E+04  0.14627780782E+04  0.10000000000E+02 0.  1.
</event>
<event>
 5    1  0.1153629E-008  0.3797860E+03  0.7957747E-01  0.3452091E+00
         13   -1    0    0    0    0  0.00000000000E+00  0.00000000000E+00  0.14999999963E+04  0.15000000000E+04  0.10566000000E+00 0. -1.
        994   -1    0    0    0    0 -0.00000000000E+00 -0.00000000000E+00  0.11368683772E-12  0.17120000000E+03  0.17120000000E+03 0.  0.
         13    1    1    2    0    0 -0.40117207358E+02 -0.18229522503E+02  0.50871266741E+02  0.67302323591E+02  0.10566000000E+00 0. -1.
        994    1    1    2    0    0  0.32277631790E+02  0.54768631848E+02  0.30991944034E+02  0.18523333702E+03  0.17120000000E+03 0.  0.
        998    1    1    2    0    0  0.78395755682E+01 -0.36539109344E+02  0.14181367855E+04  0.14186643394E+04  0.10000000000E+02 0. -1.
</event>
<event>
 5    1  0.1153629E-008  0.3850558E+03  0.7957747E-01  0.3429435E+00
         13   -1    0    0    0    0  0.00000000000E+00  0.00000000000E+00  0.14999999963E+04  0.15000000000E+04  0.10566000000E+00 0. -1.
        994   -1    0    0    0    0 -0.00000000000E+00 -0.00000000000E+00  0.11368683772E-12  0.17120000000E+03  0.17120000000E+03 0.  0.
         13    1    1    2    0    0  0.89075956201E+01 -0.72783277495E+01  0.42886356924E+02  0.44402365802E+02  0.10566000000E+00 0. -1.
        994    1    1    2    0    0  0.60438932963E+01  0.77066191981E+01  0.19178713271E+01  0.17149063781E+03  0.17120000000E+03 0.  0.
        998    1    1    2    0    0 -0.14951488916E+02 -0.42829144857E+00  0.14551957680E+04  0.14553069964E+04  0.10000000000E+02 0. -1.
</event>
<event>
 5    1  0.1153629E-008  0.3839953E+03  0.7957747E-01  0.3433945E+00
         13   -1    0    0    0    0  0.00000000000E+00  0.00000000000E+00  0.14999999963E+04  0.15000000000E+04  0.10566000000E+00 0. -1.
        994   -1    0    0    0    0 -0.00000000000E+00 -0.00000000000E+00  0.11368683772E-12  0.17120000000E+03  0.17120000000E+03 0.  0.
         13    1    1    2    0    0  0.87690283630E+01  0.19806196450E+02  0.11710964414E+03  0.11909601669E+03  0.10566000000E+00 0. -1.
        994    1    1    2    0    0 -0.71477087348E+01 -0.22238720035E+01  0.23146981376E+01  0.17137920870E+03  0.17120000000E+03 0.  0.
        998    1    1    2    0    0 -0.16213196282E+01 -0.17582324447E+02  0.13805756540E+04  0.13807247746E+04  0.10000000000E+02 0. -1.
</event>
<event>
 5    1  0.1153629E-008  0.3846527E+03  0.7957747E-01  0.3431146E+00
         13   -1    0    0    0    0  0.00000000000E+00  0.00000000000E+00  0.14999999963E+04  0.15000000000E+04  0.10566000000E+00 0.  1.
        994   -1    0    0    0    0 -0.00000000000E+00 -0.00000000000E+00  0.11368683772E-12  0.17120000000E+03  0.17120000000E+03 0.  0.
         13    1    1    2    0    0 -0.72020390640E+01 -0.24067500235E+03  0.10878810788E+04  0.11142089476E+04  0.10566000000E+00 0.  1.
        994    1    1    2    0    0 -0.12721180647E+01  0.25192767916E+03  0.25027732374E+03  0.39423007570E+03  0.17120000000E+03 0.  0.
        998    1    1    2    0    0  0.84741571287E+01 -0.11252676808E+02  0.16184159371E+03  0.16276097668E+03  0.10000000000E+02 0.  1.
</event>
<event>
 5    1  0.1153629E-008  0.3821727E+03  0.7957747E-01  0.3441752E+00
         13   -1    0    0    0    0  0.00000000000E+00  0.00000000000E+00  0.14999999963E+04  0.15000000000E+04  0.10566000000E+00 0.  1.
        994   -1    0    0    0    0 -0.00000000000E+00 -0.00000000000E+00  0.11368683772E-12  0.17120000000E+03  0.17120000000E+03 0.  0.
         13    1    1    2    0    0 -0.13158034947E+02  0.13184715794E+03  0.39172768451E+03  0.41353040628E+03  0.10566000000E+00 0.  1.
        994    1    1    2    0    0  0.17437626571E+02 -0.11604052373E+03  0.69736917810E+02  0.21895696306E+03  0.17120000000E+03 0.  0.
        998    1    1    2    0    0 -0.42795916234E+01 -0.15806634209E+02  0.10385353940E+04  0.10387126307E+04  0.10000000000E+02 0.  0.
</event>
<event>
 5    1  0.1153629E-008  0.3736333E+03  0.7957747E-01  0.3479358E+00
         13   -1    0    0    0    0  0.00000000000E+00  0.00000000000E+00  0.14999999963E+04  0.15000000000E+04  0.10566000000E+00 0. -1.
        994   -1    0    0    0    0 -0.00000000000E+00 -0.00000000000E+00  0.11368683772E-12  0.17120000000E+03  0.17120000000E+03 0.  0.
         13    1    1    2    0    0  0.43401018629E+02 -0.34877299263E+02  0.20019648762E+03  0.20779489705E+03  0.10566000000E+00 0. -1.
        994    1    1    2    0    0 -0.29077374354E+02  0.25614576961E+02  0.12527461629E+02  0.17597720746E+03  0.17120000000E+03 0.  0.
        998    1    1    2    0    0 -0.14323644275E+02  0.92627223023E+01  0.12872760470E+04  0.12874278955E+04  0.10000000000E+02 0. -1.
</event>
<event>
 5    1  0.1153629E-008  0.3822422E+03  0.7957747E-01  0.3441453E+00
         13   -1    0    0    0    0  0.00000000000E+00  0.00000000000E+00  0.14999999963E+04  0.15000000000E+04  0.10566000000E+00 0.  1.
        994   -1    0    0    0    0 -0.00000000000E+00 -0.00000000000E+00  0.11368683772E-12  0.17120000000E+03  0.17120000000E+03 0.  0.
         13    1    1    2    0    0  0.17123341899E+02  0.33178279145E+02  0.19476041308E+03  0.19830692553E+03  0.10566000000E+00 0.  1.
        994    1    1    2    0    0 -0.19258681432E+02 -0.37877082309E+02  0.90203163546E+01  0.17662495940E+03  0.17120000000E+03 0.  0.
        998    1    1    2    0    0  0.21353395328E+01  0.46988031642E+01  0.12962192668E+04  0.12962681151E+04  0.10000000000E+02 0.  1.
</event>
<event>
 5    1  0.1153629E-008  0.3797374E+03  0.7957747E-01  0.3452303E+00
         13   -1    0    0    0    0  0.00000000000E+00  0.00000000000E+00  0.14999999963E+04  0.15000000000E+04  0.10566000000E+00 0.  1.
        994   -1    0    0    0    0 -0.00000000000E+00 -0.00000000000E+00  0.11368683772E-12  0.17120000000E+03  0.17120000000E+03 0.  0.
         13    1    1    2    0    0  0.24658069685E+02 -0.25536380682E+02  0.32643451194E+02  0.48225856227E+02  0.10566000000E+00 0.  1.
        994    1    1    2    0    0 -0.19054950255E+02  0.16491067316E+02  0.18485261239E+02  0.17402928292E+03  0.17120000000E+03 0.  0.
        998    1    1    2    0    0 -0.56031194303E+01  0.90453133657E+01  0.14488712838E+04  0.14489448609E+04  0.10000000000E+02 0.  1.
</event>
<event>
 5    1  0.1153629E-008  0.3805113E+03  0.7957747E-01  0.3448935E+00
         13   -1    0    0    0    0  0.00000000000E+00  0.00000000000E+00  0.14999999963E+04  0.15000000000E+04  0.10566000000E+00 0.  1.
        994   -1    0    0    0    0 -0.00000000000E+00 -0.00000000000E+00  0.11368683772E-12  0.17120000000E+03  0.17120000000E+03 0.  0.
         13    1    1    2    0    0 -0.21090279960E+02  0.12165984710E+02  0.71318940305E+02  0.75360556680E+02  0.10566000000E+00 0.  1.
        994    1    1    2    0    0  0.17691023044E+02 -0.23283872806E+02  0.67342578412E+01  0.17380995730E+03  0.17120000000E+03 0.  0.
        998    1    1    2    0    0  0.33992569161E+01  0.11117888096E+02  0.14219467981E+04  0.14220294860E+04  0.10000000000E+02 0.  1.
</event>
<event>
 5    1  0.1153629E-008  0.3823370E+03  0.7957747E-01  0.3441045E+00
         13   -1    0    0    0    0  0.00000000000E+00  0.00000000000E+00  0.14999999963E+04  0.15000000000E+04  0.10566000000E+00 0. -1.
        994   -1    0    0    0    0 -0.00000000000E+00 -0.00000000000E+00  0.11368683772E-12  0.17120000000E+03  0.17120000000E+03 0.  0.
         13    1    1    2    0    0  0.23778753334E+01  0.14823084344E+02  0.37955112445E+02  0.40816416370E+02  0.10566000000E+00 0. -1.
        994    1    1    2    0    0 -0.35774426348E+01 -0.33998973913E+01  0.30388591696E+01  0.17129807957E+03  0.17120000000E+03 0.  0.
        998    1    1    2    0    0  0.11995673014E+01 -0.11423186952E+02  0.14590060247E+04  0.14590855041E+04  0.10000000000E+02 0. -1.
</event>
<event>
 5    1  0.1153629E-008  0.3728036E+03  0.7957747E-01  0.3483104E+00
         13   -1    0    0    0    0  0.00000000000E+00  0.00000000000E+00  0.14999999963E+04  0.15000000000E+04  0.10566000000E+00 0.  1.
        994   -1    0    0    0    0 -0.00000000000E+00 -0.00000000000E+00  0.11368683772E-12  0.17120000000E+03  0.17120000000E+03 0.  0.
         13    1    1    2    0    0  0.81510391898E+01 -0.16020692752E+02  0.74445054410E+01  0.19455946685E+02  0.10566000000E+00 0.  1.
        994    1    1    2    0    0  0.12019509721E+02  0.21064430741E+02  0.14508384767E+02  0.17351689279E+03  0.17120000000E+03 0.  0.
        998    1    1    2    0    0 -0.20170548911E+02 -0.50437379886E+01  0.14780471061E+04  0.14782271605E+04  0.10000000000E+02 0.  1.
</event>
<event>
 5    1  0.1153629E-008  0.3842816E+03  0.7957747E-01  0.3432725E+00
         13   -1    0    0    0    0  0.00000000000E+00  0.00000000000E+00  0.14999999963E+04  0.15000000000E+04  0.10566000000E+00 0.  1.
        994   -1    0    0    0    0 -0.00000000000E+00 -0.00000000000E+00  0.11368683772E-12  0.17120000000E+03  0.17120000000E+03 0.  0.
         13    1    1    2    0    0 -0.25937521753E+01  0.18524500115E+02  0.82003737821E+02  0.84110099485E+02  0.10566000000E+00 0.  1.
        994    1    1    2    0    0 -0.26498742735E+02 -0.27538582279E+02  0.68165975494E+01  0.17554618447E+03  0.17120000000E+03 0.  0.
        998    1    1    2    0    0  0.29092494910E+02  0.90140821634E+01  0.14111796609E+04  0.14115437160E+04  0.10000000000E+02 0.  1.
</event>
<event>
 5    1  0.1153629E-008  0.3857868E+03  0.7957747E-01  0.3426342E+00
         13   -1    0    0    0    0  0.00000000000E+00  0.00000000000E+00  0.14999999963E+04  0.15000000000E+04  0.10566000000E+00 0. -1.
        994   -1    0    0    0    0 -0.00000000000E+00 -0.00000000000E+00  0.11368683772E-12  0.17120000000E+03  0.17120000000E+03 0.  0.
         13    1    1    2    0    0 -0.60653541173E+01 -0.12943715881E+02  0.78149212917E+02  0.79445823962E+02  0.10566000000E+00 0. -1.
        994    1    1    2    0    0  0.81201427090E+01  0.15166919106E+02  0.22114997596E+01  0.17207644488E+03  0.17120000000E+03 0.  0.
        998    1    1    2    0    0 -0.20547885917E+01 -0.22232032256E+01  0.14196392836E+04  0.14196777312E+04  0.10000000000E+02 0. -1.
</event>
<event>
 5    1  0.1153629E-008  0.3777002E+03  0.7957747E-01  0.3461234E+00
         13   -1    0    0    0    0  0.00000000000E+00  0.00000000000E+00  0.14999999963E+04  0.15000000000E+04  0.10566000000E+00 0.  1.
        994   -1    0    0    0    0 -0.00000000000E+00 -0.00000000000E+00  0.11368683772E-12  0.17120000000E+03  0.17120000000E+03 0.  0.
         13    1    1    2    0    0 -0.22131994502E+02 -0.17433303671E+02  0.72136189317E+02  0.77442793278E+02  0.10566000000E+00 0.  1.
        994    1    1    2    0    0  0.17309764190E+02  0.11217787446E+02  0.67330813909E+01  0.17256952534E+03  0.17120000000E+03 0.  0.
        998    1    1    2    0    0  0.48222303116E+01  0.62155162250E+01  0.14211307256E+04  0.14211876814E+04  0.10000000000E+02 0.  1.
</event>
<event>
 5    1  0.1153629E-008  0.3770880E+03  0.7957747E-01  0.3463937E+00
         13   -1    0    0    0    0  0.00000000000E+00  0.00000000000E+00  0.14999999963E+04  0.15000000000E+04  0.10566000000E+00 0. -1.
        994   -1    0    0    0    0 -0.00000000000E+00 -0.00000000000E+00  0.11368683772E-12  0.17120000000E+03  0.17120000000E+03 0.  0.
         13    1    1    2    0    0  0.13405463016E+02 -0.48175030262E+01  0.15696455768E+02  0.21196807821E+02  0.10566000000E+00 0. -1.
        994    1    1    2    0    0 -0.74834990576E+01  0.48593387658E+01  0.58791758410E+01  0.17153314735E+03  0.17120000000E+03 0.  0.
        998    1    1    2    0    0 -0.59219639582E+01 -0.41835739646E-01  0.14784243647E+04  0.14784700448E+04  0.10000000000E+02 0. -1.
</event>
<event>
 5    1  0.1153629E-008  0.3828335E+03  0.7957747E-01  0.3438913E+00
         13   -1    0    0    0    0  0.00000000000E+00  0.00000000000E+00  0.14999999963E+04  0.15000000000E+04  0.10566000000E+00 0. -1.
        994   -1    0    0    0    0 -0.00000000000E+00 -0.00000000000E+00  0.11368683772E-12  0.17120000000E+03  0.17120000000E+03 0.  0.
         13    1    1    2    0    0  0.83418226543E+01 -0.16880562386E+02  0.68933350223E+02  0.71458780626E+02  0.10566000000E+00 0. -1.
        994    1    1    2    0    0 -0.21482618961E+02 -0.10388245633E+02  0.45977591793E+01  0.17291615874E+03  0.17120000000E+03 0.  0.
        998    1    1    2    0    0  0.13140796306E+02  0.27268808019E+02  0.14264688869E+04  0.14268250606E+04  0.10000000000E+02 0. -1.
</event>
<event>
 5    1  0.1153629E-008  0.3772265E+03  0.7957747E-01  0.3463325E+00
         13   -1    0    0    0    0  0.00000000000E+00  0.00000000000E+00  0.14999999963E+04  0.15000000000E+04  0.10566000000E+00 0. -1.
        994   -1    0    0    0    0 -0.00000000000E+00 -0.00000000000E+00  0.11368683772E-12  0.17120000000E+03  0.17120000000E+03 0.  0.
         13    1    1    2    0    0 -0.15621856286E+01  0.32203191680E+02  0.97619572563E+02  0.10280602166E+03  0.10566000000E+00 0. -1.
        994    1    1    2    0    0  0.76901652213E+01 -0.59301671103E+01  0.58580391392E+01  0.17157523757E+03  0.17120000000E+03 0.  0.
        998    1    1    2    0    0 -0.61279795927E+01 -0.26273024569E+02  0.13965223846E+04  0.13968187408E+04  0.10000000000E+02 0. -1.
</event>
<event>
 5    1  0.1153629E-008  0.3735931E+03  0.7957747E-01  0.3479539E+00
         13   -1    0    0    0    0  0.00000000000E+00  0.00000000000E+00  0.14999999963E+04  0.15000000000E+04  0.10566000000E+00 0.  1.
        994   -1    0    0    0    0 -0.00000000000E+00 -0.00000000000E+00  0.11368683772E-12  0.17120000000E+03  0.17120000000E+03 0.  0.
         13    1    1    2    0    0  0.36755937141E+02  0.49818823094E+02  0.15403739666E+03  0.16601338736E+03  0.10566000000E+00 0.  1.
        994    1    1    2    0    0  0.41693238338E+00 -0.29551622494E+02  0.15950241325E+02  0.17446295430E+03  0.17120000000E+03 0.  0.
        998    1    1    2    0    0 -0.37172869524E+02 -0.20267200600E+02  0.13300123583E+04  0.13307236583E+04  0.10000000000E+02 0.  1.
</event>
<event>
 5    1  0.1153629E-008  0.3849423E+03  0.7957747E-01  0.3429917E+00
         13   -1    0    0    0    0  0.00000000000E+00  0.00000000000E+00  0.14999999963E+04  0.15000000000E+04  0.10566000000E+00 0.  1.
        994   -1    0    0    0    0 -0.00000000000E+00 -0.00000000000E+00  0.11368683772E-12  0.17120000000E+03  0.17120000000E+03 0.  0.
         13    1    1    2    0    0  0.52875656226E+01  0.14879954905E+02  0.73378044930E+02  0.75058111154E+02  0.10566000000E+00 0.  1.
        994    1    1    2    0    0 -0.27257076834E+01 -0.13843741309E+02  0.23138681127E+01  0.17179602045E+03  0.17120000000E+03 0.  0.
        998    1    1    2    0    0 -0.25618579392E+01 -0.10362135960E+01  0.14243080832E+04  0.14243458684E+04  0.10000000000E+02 0.  1.
</event>
<event>
 5    1  0.1153629E-008  0.3692575E+03  0.7957747E-01  0.3499310E+00
         13   -1    0    0    0    0  0.00000000000E+00  0.00000000000E+00  0.14999999963E+04  0.15000000000E+04  0.10566000000E+00 0.  1.
        994   -1    0    0    0    0 -0.00000000000E+00 -0.00000000000E+00  0.11368683772E-12  0.17120000000E+03  0.17120000000E+03 0.  0.
         13    1    1    2    0    0 -0.94826778867E+01  0.65548809001E+02  0.26453047125E+03  0.27269570756E+03  0.10566000000E+00 0.  1.
        994    1    1    2    0    0  0.62413827995E+01 -0.10647686517E+02  0.10185910794E+02  0.17194627320E+03  0.17120000000E+03 0.  0.
        998    1    1    2    0    0  0.32412950872E+01 -0.54901122484E+02  0.12252836142E+04  0.12265580192E+04  0.10000000000E+02 0.  1.
</event>
<event>
 5    1  0.1153629E-008  0.3758471E+03  0.7957747E-01  0.3469443E+00
         13   -1    0    0    0    0  0.00000000000E+00  0.00000000000E+00  0.14999999963E+04  0.15000000000E+04  0.10566000000E+00 0. -1.
        994   -1    0    0    0    0 -0.00000000000E+00 -0.00000000000E+00  0.11368683772E-12  0.17120000000E+03  0.17120000000E+03 0.  0.
         13    1    1    2    0    0 -0.15197031434E+02 -0.40397841796E+01  0.17754458249E+02  0.23717115600E+02  0.10566000000E+00 0. -1.
        994    1    1    2    0    0 -0.51080514836E+01  0.78224547761E+00  0.63348743017E+01  0.17139508374E+03  0.17120000000E+03 0.  0.
        998    1    1    2    0    0  0.20305082918E+02  0.32575387020E+01  0.14759106637E+04  0.14760878007E+04  0.10000000000E+02 0. -1.
</event>
<event>
 5    1  0.1153629E-008  0.3779073E+03  0.7957747E-01  0.3460321E+00
         13   -1    0    0    0    0  0.00000000000E+00  0.00000000000E+00  0.14999999963E+04  0.15000000000E+04  0.10566000000E+00 0. -1.
        994   -1    0    0    0    0 -0.00000000000E+00 -0.00000000000E+00  0.11368683772E-12  0.17120000000E+03  0.17120000000E+03 0.  0.
         13    1    1    2    0    0  0.83906347009E+01  0.33189665524E+02  0.10847346042E+03  0.11374734911E+03  0.10566000000E+00 0. -1.
        994    1    1    2    0    0  0.19675914139E+02 -0.31695466113E+02  0.98924848525E+01  0.17549656813E+03  0.17120000000E+03 0.  0.
        998    1    1    2    0    0 -0.28066548840E+02 -0.14941994108E+01  0.13816340510E+04  0.13819560828E+04  0.10000000000E+02 0. -1.
</event>
<event>
 5    1  0.1153629E-008  0.3743652E+03  0.7957747E-01  0.3476067E+00
         13   -1    0    0    0    0  0.00000000000E+00  0.00000000000E+00  0.14999999963E+04  0.15000000000E+04  0.10566000000E+00 0. -1.
        994   -1    0    0    0    0 -0.00000000000E+00 -0.00000000000E+00  0.11368683772E-12  0.17120000000E+03  0.17120000000E+03 0.  0.
         13    1    1    2    0    0 -0.35681930091E+01 -0.94305387979E+01  0.39787400754E+01  0.10840138375E+02  0.10566000000E+00 0. -1.
        994    1    1    2    0    0  0.78381875372E+01  0.74156141102E+01  0.74017854155E+01  0.17169931550E+03  0.17120000000E+03 0.  0.
        998    1    1    2    0    0 -0.42699945281E+01  0.20149246877E+01  0.14886194708E+04  0.14886605461E+04  0.10000000000E+02 0. -1.
</event>
<event>
 5    1  0.1153629E-008  0.3795476E+03  0.7957747E-01  0.3453131E+00
         13   -1    0    0    0    0  0.00000000000E+00  0.00000000000E+00  0.14999999963E+04  0.15000000000E+04  0.10566000000E+00 0. -1.
        994   -1    0    0    0    0 -0.00000000000E+00 -0.00000000000E+00  0.11368683772E-12  0.17120000000E+03  0.17120000000E+03 0.  0.
         13    1    1    2    0    0  0.11956959635E+02  0.33734009070E+01  0.16074552237E+02  0.20316276998E+02  0.10566000000E+00 0. -1.
        994    1    1    2    0    0 -0.53569952717E+01  0.98079375562E+01  0.47799207061E+01  0.17163094325E+03  0.17120000000E+03 0.  0.
        998    1    1    2    0    0 -0.65999643636E+01 -0.13181338463E+02  0.14791455233E+04  0.14792527798E+04  0.10000000000E+02 0. -1.
</event>
<event>
 5    1  0.1924969E-008  0.3863141E+03  0.7957747E-01  0.3424118E+00
         13   -1    0    0    0    0  0.00000000000E+00  0.00000000000E+00  0.14999999963E+04  0.15000000000E+04  0.10566000000E+00 0.  1.
        994   -1    0    0    0    0 -0.00000000000E+00 -0.00000000000E+00  0.11368683772E-12  0.17120000000E+03  0.17120000000E+03 0.  0.
         13    1    1    2    0    0 -0.50257184046E+00  0.10466810001E+02  0.55050021725E+02  0.56038582656E+02  0.10566000000E+00 0.  1.
        994    1    1    2    0    0  0.31399799403E+01 -0.11785022559E+02  0.14663427796E+01  0.17164013631E+03  0.17120000000E+03 0.  0.
        998    1    1    2    0    0 -0.26374080999E+01  0.13182125572E+01  0.14434836318E+04  0.14435212810E+04  0.10000000000E+02 0.  1.
</event>
<event>
 5    1  0.1153629E-008  0.3793999E+03  0.7957747E-01  0.3453776E+00
         13   -1    0    0    0    0  0.00000000000E+00  0.00000000000E+00  0.14999999963E+04  0.15000000000E+04  0.10566000000E+00 0.  1.
        994   -1    0    0    0    0 -0.00000000000E+00 -0.00000000000E+00  0.11368683772E-12  0.17120000000E+03  0.17120000000E+03 0.  0.
         13    1    1    2    0    0 -0.16326391552E+01 -0.17302744214E+02  0.30521066708E+02  0.35122601626E+02  0.10566000000E+00 0.  1.
        994    1    1    2    0    0 -0.29558541658E+01  0.30560746228E+02  0.76004461203E+01  0.17409739534E+03  0.17120000000E+03 0.  0.
        998    1    1    2    0    0  0.45884933210E+01 -0.13258002014E+02  0.14618784835E+04  0.14619800030E+04  0.10000000000E+02 0.  1.
</event>
<event>
 5    1  0.1153629E-008  0.3695952E+03  0.7957747E-01  0.3497753E+00
         13   -1    0    0    0    0  0.00000000000E+00  0.00000000000E+00  0.14999999963E+04  0.15000000000E+04  0.10566000000E+00 0. -1.
        994   -1    0    0    0    0 -0.00000000000E+00 -0.00000000000E+00  0.11368683772E-12  0.17120000000E+03  0.17120000000E+03 0.  0.
         13    1    1    2    0    0 -0.25218105680E+02 -0.12610776494E+02  0.37581948774E+02  0.46982960481E+02  0.10566000000E+00 0. -1.
        994    1    1    2    0    0  0.26347179733E+02  0.29349245677E+01  0.11918029553E+02  0.17364984046E+03  0.17120000000E+03 0.  0.
        998    1    1    2    0    0 -0.11290740533E+01  0.96758519267E+01  0.14505000180E+04  0.14505671991E+04  0.10000000000E+02 0. -1.
</event>
<event>
 5    1  0.1153629E-008  0.3856983E+03  0.7957747E-01  0.3426716E+00
         13   -1    0    0    0    0  0.00000000000E+00  0.00000000000E+00  0.14999999963E+04  0.15000000000E+04  0.10566000000E+00 0. -1.
        994   -1    0    0    0    0 -0.00000000000E+00 -0.00000000000E+00  0.11368683772E-12  0.17120000000E+03  0.17120000000E+03 0.  0.
         13    1    1    2    0    0  0.18357212651E+02 -0.77982692399E+01  0.11800652336E+03  0.11968020296E+03  0.10566000000E+00 0. -1.
        994    1    1    2    0    0 -0.40000122811E+02  0.15907908491E+02  0.73879296593E+01  0.17668359540E+03  0.17120000000E+03 0.  0.
        998    1    1    2    0    0  0.21642910161E+02 -0.81096392508E+01  0.13746055433E+04  0.13748362016E+04  0.10000000000E+02 0. -1.
</event>
<event>
 5    1  0.1153629E-008  0.3838010E+03  0.7957747E-01  0.3434773E+00
         13   -1    0    0    0    0  0.00000000000E+00  0.00000000000E+00  0.14999999963E+04  0.15000000000E+04  0.10566000000E+00 0. -1.
        994   -1    0    0    0    0 -0.00000000000E+00 -0.00000000000E+00  0.11368683772E-12  0.17120000000E+03  0.17120000000E+03 0.  0.
         13    1    1    2    0    0  0.10402349727E+02 -0.26355308118E+01  0.25496259083E+02  0.27662705829E+02  0.10566000000E+00 0. -1.
        994    1    1    2    0    0 -0.26111866220E+01  0.50171724907E+01  0.23322289771E+01  0.17130928056E+03  0.17120000000E+03 0.  0.
        998    1    1    2    0    0 -0.77911631047E+01 -0.23816416789E+01  0.14721715082E+04  0.14722280136E+04  0.10000000000E+02 0. -1.
</event>
<event>
 5    1  0.1153629E-008  0.3846819E+03  0.7957747E-01  0.3431022E+00
         13   -1    0    0    0    0  0.00000000000E+00  0.00000000000E+00  0.14999999963E+04  0.15000000000E+04  0.10566000000E+00 0. -1.
        994   -1    0    0    0    0 -0.00000000000E+00 -0.00000000000E+00  0.11368683772E-12  0.17120000000E+03  0.17120000000E+03 0.  0.
         13    1    1    2    0    0  0.11062756334E+02 -0.28138090764E+01  0.35950007864E+02  0.37718912083E+02  0.10566000000E+00 0. -1.
        994    1    1    2    0    0 -0.79090561658E+01  0.48864819168E+01  0.20727403125E+01  0.17146476935E+03  0.17120000000E+03 0.  0.
        998    1    1    2    0    0 -0.31537001678E+01 -0.20726728404E+01  0.14619772481E+04  0.14620163186E+04  0.10000000000E+02 0. -1.
</event>
<event>
 5    1  0.1153629E-008  0.3819471E+03  0.7957747E-01  0.3442724E+00
         13   -1    0    0    0    0  0.00000000000E+00  0.00000000000E+00  0.14999999963E+04  0.15000000000E+04  0.10566000000E+00 0. -1.
        994   -1    0    0    0    0 -0.00000000000E+00 -0.00000000000E+00  0.11368683772E-12  0.17120000000E+03  0.17120000000E+03 0.  0.
         13    1    1    2    0    0 -0.12479163255E+02 -0.42548789633E+01  0.25038224971E+02  0.28297656869E+02  0.10566000000E+00 0. -1.
        994    1    1    2    0    0  0.27262914619E+02 -0.12957105184E+01  0.56317686278E+01  0.17345345830E+03  0.17120000000E+03 0.  0.
        998    1    1    2    0    0 -0.14783751364E+02  0.55505894816E+01  0.14693300027E+04  0.14694488848E+04  0.10000000000E+02 0. -1.
</event>
<event>
 5    1  0.1555652E-008  0.3861801E+03  0.7957747E-01  0.3424683E+00
         13   -1    0    0    0    0  0.00000000000E+00  0.00000000000E+00  0.14999999963E+04  0.15000000000E+04  0.10566000000E+00 0. -1.
        994   -1    0    0    0    0 -0.00000000000E+00 -0.00000000000E+00  0.11368683772E-12  0.17120000000E+03  0.17120000000E+03 0.  0.
         13    1    1    2    0    0 -0.90629472782E+01  0.71487695463E+01  0.66502739393E+02  0.67497166090E+02  0.10566000000E+00 0. -1.
        994    1    1    2    0    0  0.10988532832E+00 -0.67271199053E+01  0.11936843422E+01  0.17133630993E+03  0.17120000000E+03 0.  0.
        998    1    1    2    0    0  0.89530619498E+01 -0.42164964096E+00  0.14323035725E+04  0.14323665240E+04  0.10000000000E+02 0. -1.
</event>
<event>
 5    1  0.1153629E-008  0.3761213E+03  0.7957747E-01  0.3468223E+00
         13   -1    0    0    0    0  0.00000000000E+00  0.00000000000E+00  0.14999999963E+04  0.15000000000E+04  0.10566000000E+00 0. -1.
        994   -1    0    0    0    0 -0.00000000000E+00 -0.00000000000E+00  0.11368683772E-12  0.17120000000E+03  0.17120000000E+03 0.  0.
         13    1    1    2    0    0 -0.44512097609E+02  0.66401686374E+02  0.41350619737E+03  0.42116255438E+03  0.10566000000E+00 0. -1.
        994    1    1    2    0    0  0.41279892429E+02 -0.57344977241E+02  0.23202324882E+02  0.18665546821E+03  0.17120000000E+03 0.  0.
        998    1    1    2    0    0  0.32322051800E+01 -0.90567091335E+01  0.10632914740E+04  0.10633819774E+04  0.10000000000E+02 0. -1.
</event>
<event>
 5    1  0.1153629E-008  0.3843261E+03  0.7957747E-01  0.3432535E+00
         13   -1    0    0    0    0  0.00000000000E+00  0.00000000000E+00  0.14999999963E+04  0.15000000000E+04  0.10566000000E+00 0.  1.
        994   -1    0    0    0    0 -0.00000000000E+00 -0.00000000000E+00  0.11368683772E-12  0.17120000000E+03  0.17120000000E+03 0.  0.
         13    1    1    2    0    0  0.47469774254E+01 -0.16921298840E+02  0.80489576599E+02  0.82385965153E+02  0.10566000000E+00 0.  1.
        994    1    1    2    0    0 -0.83898907243E+01  0.50372338304E+01  0.22807943425E+01  0.17149462386E+03  0.17120000000E+03 0.  0.
        998    1    1    2    0    0  0.36429132989E+01  0.11884065010E+02  0.14172296253E+04  0.14173194110E+04  0.10000000000E+02 0.  1.
</event>
<event>
 5    1  0.1153629E-008  0.3708259E+03  0.7957747E-01  0.3492104E+00
         13   -1    0    0    0    0  0.00000000000E+00  0.00000000000E+00  0.14999999963E+04  0.15000000000E+04  0.10566000000E+00 0.  1.
        994   -1    0    0    0    0 -0.00000000000E+00 -0.00000000000E+00  0.11368683772E-12  0.17120000000E+03  0.17120000000E+03 0.  0.
         13    1    1    2    0    0 -0.27253784555E+00 -0.27841196173E+02  0.32625265955E+02  0.42890857113E+02  0.10566000000E+00 0.  1.
        994    1    1    2    0    0 -0.17968916484E+02 -0.23087021410E+02  0.14382880400E+02  0.17427621687E+03  0.17120000000E+03 0.  0.
        998    1    1    2    0    0  0.18241454330E+02  0.50928217584E+02  0.14529918499E+04  0.14540329260E+04  0.10000000000E+02 0.  1.
</event>
<event>
 5    1  0.1153629E-008  0.3833139E+03  0.7957747E-01  0.3436855E+00
         13   -1    0    0    0    0  0.00000000000E+00  0.00000000000E+00  0.14999999963E+04  0.15000000000E+04  0.10566000000E+00 0.  1.
        994   -1    0    0    0    0 -0.00000000000E+00 -0.00000000000E+00  0.11368683772E-12  0.17120000000E+03  0.17120000000E+03 0.  0.
         13    1    1    2    0    0  0.13797287589E+02  0.97447484835E+00  0.38216211366E+02  0.40642400535E+02  0.10566000000E+00 0.  1.
        994    1    1    2    0    0 -0.65698375202E+01 -0.20971956280E+02  0.40683210158E+01  0.17265276410E+03  0.17120000000E+03 0.  0.
        998    1    1    2    0    0 -0.72274500692E+01  0.19997481431E+02  0.14577154639E+04  0.14579048354E+04  0.10000000000E+02 0.  1.
</event>
<event>
 5    1  0.1300540E-008  0.3859608E+03  0.7957747E-01  0.3425608E+00
         13   -1    0    0    0    0  0.00000000000E+00  0.00000000000E+00  0.14999999963E+04  0.15000000000E+04  0.10566000000E+00 0. -1.
        994   -1    0    0    0    0 -0.00000000000E+00 -0.00000000000E+00  0.11368683772E-12  0.17120000000E+03  0.17120000000E+03 0.  0.
         13    1    1    2    0    0 -0.22910719077E+01 -0.12037662409E+02  0.63537400438E+02  0.64708320525E+02  0.10566000000E+00 0. -1.
        994    1    1    2    0    0  0.13262398677E+01  0.12883181838E+02  0.17039763312E+01  0.17169763779E+03  0.17120000000E+03 0.  0.
        998    1    1    2    0    0  0.96483204002E+00 -0.84551942908E+00  0.14347586195E+04  0.14347940417E+04  0.10000000000E+02 0. -1.
</event>
<event>
 5    1  0.1153629E-008  0.3861413E+03  0.7957747E-01  0.3424846E+00
         13   -1    0    0    0    0  0.00000000000E+00  0.00000000000E+00  0.14999999963E+04  0.15000000000E+04  0.10566000000E+00 0.  1.
        994   -1    0    0    0    0 -0.00000000000E+00 -0.00000000000E+00  0.11368683772E-12  0.17120000000E+03  0.17120000000E+03 0.  0.
         13    1    1    2    0    0  0.10426281276E+02 -0.42933275246E+01  0.58000596317E+02  0.59086549566E+02  0.10566000000E+00 0.  1.
        994    1    1    2    0    0 -0.13689508774E+02  0.22352450781E+01  0.16951898014E+01  0.17176935885E+03  0.17120000000E+03 0.  0.
        998    1    1    2    0    0  0.32632274975E+01  0.20580824465E+01  0.14403042102E+04  0.14403440916E+04  0.10000000000E+02 0.  1.
</event>
<event>
 5    1  0.1153629E-008  0.3694670E+03  0.7957747E-01  0.3498344E+00
         13   -1    0    0    0    0  0.00000000000E+00  0.00000000000E+00  0.14999999963E+04  0.15000000000E+04  0.10566000000E+00 0.  1.
        994   -1    0    0    0    0 -0.00000000000E+00 -0.00000000000E+00  0.11368683772E-12  0.17120000000E+03  0.17120000000E+03 0.  0.
         13    1    1    2    0    0  0.19056234753E+02 -0.46833606256E+02  0.14589598461E+03  0.15440911970E+03  0.10566000000E+00 0.  1.
        994    1    1    2    0    0 -0.72095915067E+01  0.33844637808E+01  0.97677084484E+01  0.17166327777E+03  0.17120000000E+03 0.  0.
        998    1    1    2    0    0 -0.11846643247E+02  0.43449142476E+02  0.13443363032E+04  0.13451276025E+04  0.10000000000E+02 0.  1.
</event>
<event>
 5    1  0.1153629E-008  0.3836378E+03  0.7957747E-01  0.3435470E+00
         13   -1    0    0    0    0  0.00000000000E+00  0.00000000000E+00  0.14999999963E+04  0.15000000000E+04  0.10566000000E+00 0. -1.
        994   -1    0    0    0    0 -0.00000000000E+00 -0.00000000000E+00  0.11368683772E-12  0.17120000000E+03  0.17120000000E+03 0.  0.
         13    1    1    2    0    0 -0.25547357166E+02 -0.44345267416E+02  0.61276652396E+02  0.79837394079E+02  0.10566000000E+00 0. -1.
        994    1    1    2    0    0  0.23063419238E+02  0.52901939794E+02  0.30675535208E+02  0.18325109823E+03  0.17120000000E+03 0.  0.
        998    1    1    2    0    0  0.24839379286E+01 -0.85566723779E+01  0.14080478087E+04  0.14081115077E+04  0.10000000000E+02 0. -1.
</event>
<event>
 5    1  0.1153629E-008  0.3812927E+03  0.7957747E-01  0.3445549E+00
         13   -1    0    0    0    0  0.00000000000E+00  0.00000000000E+00  0.14999999963E+04  0.15000000000E+04  0.10566000000E+00 0.  1.
        994   -1    0    0    0    0 -0.00000000000E+00 -0.00000000000E+00  0.11368683772E-12  0.17120000000E+03  0.17120000000E+03 0.  0.
         13    1    1    2    0    0 -0.14618323986E+02  0.84326180529E+02  0.48722212825E+03  0.49468172954E+03  0.10566000000E+00 0.  1.
        994    1    1    2    0    0  0.60067625707E+02 -0.10885696185E+03  0.56773519758E+02  0.21906763875E+03  0.17120000000E+03 0.  0.
        998    1    1    2    0    0 -0.45449301721E+02  0.24530781316E+02  0.95600434827E+03  0.95745063172E+03  0.10000000000E+02 0.  1.
</event>
<event>
 5    1  0.1153629E-008  0.3829227E+03  0.7957747E-01  0.3438530E+00
         13   -1    0    0    0    0  0.00000000000E+00  0.00000000000E+00  0.14999999963E+04  0.15000000000E+04  0.10566000000E+00 0. -1.
        994   -1    0    0    0    0 -0.00000000000E+00 -0.00000000000E+00  0.11368683772E-12  0.17120000000E+03  0.17120000000E+03 0.  0.
         13    1    1    2    0    0 -0.16910353406E+01  0.19401370822E+02  0.69670367321E+02  0.72341164194E+02  0.10566000000E+00 0. -1.
        994    1    1    2    0    0 -0.22871454289E+01 -0.14681246272E+02  0.33963063269E+01  0.17187712158E+03  0.17120000000E+03 0.  0.
        998    1    1    2    0    0  0.39781807695E+01 -0.47201245492E+01  0.14269333226E+04  0.14269817142E+04  0.10000000000E+02 0. -1.
</event>
<event>
 5    1  0.1153629E-008  0.3841823E+03  0.7957747E-01  0.3433147E+00
         13   -1    0    0    0    0  0.00000000000E+00  0.00000000000E+00  0.14999999963E+04  0.15000000000E+04  0.10566000000E+00 0.  1.
        994   -1    0    0    0    0 -0.00000000000E+00 -0.00000000000E+00  0.11368683772E-12  0.17120000000E+03  0.17120000000E+03 0.  0.
         13    1    1    2    0    0  0.11779069139E+02 -0.82740249917E+01  0.48876990474E+02  0.50952696898E+02  0.10566000000E+00 0.  1.
        994    1    1    2    0    0 -0.12046951927E+02  0.10701795334E+02  0.28932993319E+01  0.17198101248E+03  0.17120000000E+03 0.  0.
        998    1    1    2    0    0  0.26788278847E+00 -0.24277703419E+01  0.14482297065E+04  0.14482662906E+04  0.10000000000E+02 0.  1.
</event>
<event>
 5    1  0.1153629E-008  0.3818903E+03  0.7957747E-01  0.3442969E+00
         13   -1    0    0    0    0  0.00000000000E+00  0.00000000000E+00  0.14999999963E+04  0.15000000000E+04  0.10566000000E+00 0. -1.
        994   -1    0    0    0    0 -0.00000000000E+00 -0.00000000000E+00  0.11368683772E-12  0.17120000000E+03  0.17120000000E+03 0.  0.
         13    1    1    2    0    0  0.18083996489E+02 -0.24923704039E+02  0.14074135120E+03  0.14407068076E+03  0.10566000000E+00 0. -1.
        994    1    1    2    0    0 -0.20334396367E+02  0.16971223589E+02  0.55159696175E+01  0.17332448190E+03  0.17120000000E+03 0.  0.
        998    1    1    2    0    0  0.22503998787E+01  0.79524804502E+01  0.13537426755E+04  0.13538048373E+04  0.10000000000E+02 0. -1.
</event>
<event>
 5    1  0.1153629E-008  0.3846729E+03  0.7957747E-01  0.3431061E+00
         13   -1    0    0    0    0  0.00000000000E+00  0.00000000000E+00  0.14999999963E+04  0.15000000000E+04  0.10566000000E+00 0. -1.
        994   -1    0    0    0    0 -0.00000000000E+00 -0.00000000000E+00  0.11368683772E-12  0.17120000000E+03  0.17120000000E+03 0.  0.
         13    1    1    2    0    0  0.64843872001E+01  0.79330107913E+01  0.29576265987E+02  0.31300904322E+02  0.10566000000E+00 0. -1.
        994    1    1    2    0    0  0.39069508519E+01 -0.52915933713E+01  0.19350623123E+01  0.17133723965E+03  0.17120000000E+03 0.  0.
        998    1    1    2    0    0 -0.10391338052E+02 -0.26414174200E+01  0.14684886680E+04  0.14685618560E+04  0.10000000000E+02 0. -1.
</event>
<event>
 5    1  0.1153629E-008  0.3850660E+03  0.7957747E-01  0.3429392E+00
         13   -1    0    0    0    0  0.00000000000E+00  0.00000000000E+00  0.14999999963E+04  0.15000000000E+04  0.10566000000E+00 0.  1.
        994   -1    0    0    0    0 -0.00000000000E+00 -0.00000000000E+00  0.11368683772E-12  0.17120000000E+03  0.17120000000E+03 0.  0.
         13    1    1    2    0    0 -0.78506928269E+01 -0.18169158686E+02  0.11943632990E+03  0.12106527070E+03  0.10566000000E+00 0.  1.
        994    1    1    2    0    0  0.88181493530E+01  0.13174549281E+02  0.24241493853E+01  0.17194954204E+03  0.17120000000E+03 0.  0.
        998    1    1    2    0    0 -0.96745652609E+00  0.49946094053E+01  0.13781395170E+04  0.13781851873E+04  0.10000000000E+02 0.  1.
</event>
<event>
 5    1  0.1153629E-008  0.3828446E+03  0.7957747E-01  0.3438865E+00
         13   -1    0    0    0    0  0.00000000000E+00  0.00000000000E+00  0.14999999963E+04  0.15000000000E+04  0.10566000000E+00 0.  1.
        994   -1    0    0    0    0 -0.00000000000E+00 -0.00000000000E+00  0.11368683772E-12  0.17120000000E+03  0.17120000000E+03 0.  0.
         13    1    1    2    0    0 -0.46463426423E+01  0.14978335958E+02  0.45986717211E+02  0.48587327277E+02  0.10566000000E+00 0.  1.
        994    1    1    2    0    0  0.73805304869E+01 -0.13315082961E+01  0.28903668632E+01  0.17138856253E+03  0.17120000000E+03 0.  0.
        998    1    1    2    0    0 -0.27341878446E+01 -0.13646827662E+02  0.14511229122E+04  0.14512241102E+04  0.10000000000E+02 0.  1.
</event>
<event>
 5    1  0.1153629E-008  0.3762798E+03  0.7957747E-01  0.3467519E+00
         13   -1    0    0    0    0  0.00000000000E+00  0.00000000000E+00  0.14999999963E+04  0.15000000000E+04  0.10566000000E+00 0.  1.
        994   -1    0    0    0    0 -0.00000000000E+00 -0.00000000000E+00  0.11368683772E-12  0.17120000000E+03  0.17120000000E+03 0.  0.
         13    1    1    2    0    0 -0.10995217646E+02 -0.83945862963E+02  0.38834061251E+03  0.39746225633E+03  0.10566000000E+00 0.  1.
        994    1    1    2    0    0  0.27116154766E+02  0.94462468496E+02  0.39446538022E+02  0.20130552195E+03  0.17120000000E+03 0.  0.
        998    1    1    2    0    0 -0.16120937121E+02 -0.10516605533E+02  0.10722128457E+04  0.10724322217E+04  0.10000000000E+02 0.  1.
</event>
<event>
 5    1  0.1153629E-008  0.3820053E+03  0.7957747E-01  0.3442473E+00
         13   -1    0    0    0    0  0.00000000000E+00  0.00000000000E+00  0.14999999963E+04  0.15000000000E+04  0.10566000000E+00 0.  1.
        994   -1    0    0    0    0 -0.00000000000E+00 -0.00000000000E+00  0.11368683772E-12  0.17120000000E+03  0.17120000000E+03 0.  0.
         13    1    1    2    0    0 -0.25631936117E+02  0.76870058283E+01  0.12315125522E+03  0.12602511271E+03  0.10566000000E+00 0.  1.
        994    1    1    2    0    0  0.15831059163E+01 -0.84584990098E+01  0.33702596099E+01  0.17144926678E+03  0.17120000000E+03 0.  0.
        998    1    1    2    0    0  0.24048830201E+02  0.77149318149E+00  0.13734784814E+04  0.13737256205E+04  0.10000000000E+02 0.  1.
</event>
<event>
 5    1  0.1153629E-008  0.3706894E+03  0.7957747E-01  0.3492728E+00
         13   -1    0    0    0    0  0.00000000000E+00  0.00000000000E+00  0.14999999963E+04  0.15000000000E+04  0.10566000000E+00 0.  1.
        994   -1    0    0    0    0 -0.00000000000E+00 -0.00000000000E+00  0.11368683772E-12  0.17120000000E+03  0.17120000000E+03 0.  0.
         13    1    1    2    0    0 -0.58170622711E+02  0.10273609816E+03  0.50578401788E+03  0.51938041080E+03  0.10566000000E+00 0.  1.
        994    1    1    2    0    0  0.50843147345E+02 -0.76676263343E+02  0.41587635191E+02  0.19875423616E+03  0.17120000000E+03 0.  0.
        998    1    1    2    0    0  0.73274753661E+01 -0.26059834814E+02  0.95262834320E+03  0.95306535304E+03  0.10000000000E+02 0.  1.
</event>
<event>
 5    1  0.1153629E-008  0.3704889E+03  0.7957747E-01  0.3493647E+00
         13   -1    0    0    0    0  0.00000000000E+00  0.00000000000E+00  0.14999999963E+04  0.15000000000E+04  0.10566000000E+00 0.  1.
        994   -1    0    0    0    0 -0.00000000000E+00 -0.00000000000E+00  0.11368683772E-12  0.17120000000E+03  0.17120000000E+03 0.  0.
         13    1    1    2    0    0  0.22559738173E+02  0.46748821319E+02  0.10438676403E+03  0.11658045184E+03  0.10566000000E+00 0.  1.
        994    1    1    2    0    0 -0.26288021134E+02 -0.57437095763E+02  0.25304621044E+02  0.18422769572E+03  0.17120000000E+03 0.  0.
        998    1    1    2    0    0  0.37282829604E+01  0.10688274444E+02  0.13703086112E+04  0.13703918524E+04  0.10000000000E+02 0.  1.
</event>
<event>
 5    1  0.1153629E-008  0.3771843E+03  0.7957747E-01  0.3463511E+00
         13   -1    0    0    0    0  0.00000000000E+00  0.00000000000E+00  0.14999999963E+04  0.15000000000E+04  0.10566000000E+00 0. -1.
        994   -1    0    0    0    0 -0.00000000000E+00 -0.00000000000E+00  0.11368683772E-12  0.17120000000E+03  0.17120000000E+03 0.  0.
         13    1    1    2    0    0  0.67729156607E+01  0.86810800561E+01  0.82937288496E+01  0.13785160128E+02  0.10566000000E+00 0. -1.
        994    1    1    2    0    0 -0.11176368739E+02 -0.72352517026E+01  0.61596746728E+01  0.17182736010E+03  0.17120000000E+03 0.  0.
        998    1    1    2    0    0  0.44034530782E+01 -0.14458283535E+01  0.14855465928E+04  0.14855874798E+04  0.10000000000E+02 0. -1.
</event>
<event>
 5    1  0.1153629E-008  0.3842524E+03  0.7957747E-01  0.3432849E+00
         13   -1    0    0    0    0  0.00000000000E+00  0.00000000000E+00  0.14999999963E+04  0.15000000000E+04  0.10566000000E+00 0.  1.
        994   -1    0    0    0    0 -0.00000000000E+00 -0.00000000000E+00  0.11368683772E-12  0.17120000000E+03  0.17120000000E+03 0.  0.
         13    1    1    2    0    0  0.27836124536E+01  0.22352503666E+02  0.13166102031E+03  0.13357401825E+03  0.10566000000E+00 0.  1.
        994    1    1    2    0    0  0.12344084104E+01 -0.91787134035E+01  0.22845640145E+01  0.17146554108E+03  0.17120000000E+03 0.  0.
        998    1    1    2    0    0 -0.40180208641E+01 -0.13173790262E+02  0.13660544120E+04  0.13661604407E+04  0.10000000000E+02 0.  1.
</event>
<event>
 5    1  0.1153629E-008  0.3824363E+03  0.7957747E-01  0.3440619E+00
         13   -1    0    0    0    0  0.00000000000E+00  0.00000000000E+00  0.14999999963E+04  0.15000000000E+04  0.10566000000E+00 0. -1.
        994   -1    0    0    0    0 -0.00000000000E+00 -0.00000000000E+00  0.11368683772E-12  0.17120000000E+03  0.17120000000E+03 0.  0.
         13    1    1    2    0    0 -0.13917524297E+02  0.27179543992E+01  0.33583073334E+02  0.36454337701E+02  0.10566000000E+00 0. -1.
        994    1    1    2    0    0  0.77578880115E+01 -0.91387929297E+01  0.33850499628E+01  0.17165255875E+03  0.17120000000E+03 0.  0.
        998    1    1    2    0    0  0.61596362851E+01  0.64208385305E+01  0.14630318730E+04  0.14630931035E+04  0.10000000000E+02 0. -1.
</event>
<event>
 5    1  0.1153629E-008  0.3851447E+03  0.7957747E-01  0.3429059E+00
         13   -1    0    0    0    0  0.00000000000E+00  0.00000000000E+00  0.14999999963E+04  0.15000000000E+04  0.10566000000E+00 0. -1.
        994   -1    0    0    0    0 -0.00000000000E+00 -0.00000000000E+00  0.11368683772E-12  0.17120000000E+03  0.17120000000E+03 0.  0.
         13    1    1    2    0    0 -0.51354534724E+01  0.12235701083E+02  0.55611873909E+02  0.57173218793E+02  0.10566000000E+00 0. -1.
        994    1    1    2    0    0  0.96845066867E+01 -0.86043388949E+01  0.21101618864E+01  0.17170240855E+03  0.17120000000E+03 0.  0.
        998    1    1    2    0    0 -0.45490532143E+01 -0.36313621877E+01  0.14422779605E+04  0.14423243727E+04  0.10000000000E+02 0. -1.
</event>
<event>
 5    1  0.1153629E-008  0.3842008E+03  0.7957747E-01  0.3433069E+00
         13   -1    0    0    0    0  0.00000000000E+00  0.00000000000E+00  0.14999999963E+04  0.15000000000E+04  0.10566000000E+00 0.  1.
        994   -1    0    0    0    0 -0.00000000000E+00 -0.00000000000E+00  0.11368683772E-12  0.17120000000E+03  0.17120000000E+03 0.  0.
         13    1    1    2    0    0 -0.39499100935E+01  0.11649031611E+02  0.36322152522E+02  0.38348554798E+02  0.10566000000E+00 0.  1.
        994    1    1    2    0    0  0.30279007691E+01 -0.11206455684E+02  0.24718802723E+01  0.17161090590E+03  0.17120000000E+03 0.  0.
        998    1    1    2    0    0  0.92200932443E+00 -0.44257592684E+00  0.14612059635E+04  0.14612405393E+04  0.10000000000E+02 0.  1.
</event>
<event>
 5    1  0.2120624E-008  0.3865525E+03  0.7957747E-01  0.3423114E+00
         13   -1    0    0    0    0  0.00000000000E+00  0.00000000000E+00  0.14999999963E+04  0.15000000000E+04  0.10566000000E+00 0. -1.
        994   -1    0    0    0    0 -0.00000000000E+00 -0.00000000000E+00  0.11368683772E-12  0.17120000000E+03  0.17120000000E+03 0.  0.
         13    1    1    2    0    0 -0.94243588702E+01  0.33742399202E+01  0.57651987398E+02  0.58514672093E+02  0.10566000000E+00 0. -1.
        994    1    1    2    0    0  0.96664064696E+01 -0.47743206985E+01  0.12417018282E+01  0.17154362528E+03  0.17120000000E+03 0.  0.
        998    1    1    2    0    0 -0.24204759938E+00  0.14000807784E+01  0.14411063071E+04  0.14411417026E+04  0.10000000000E+02 0. -1.
</event>
<event>
 5    1  0.1153629E-008  0.3834648E+03  0.7957747E-01  0.3436209E+00
         13   -1    0    0    0    0  0.00000000000E+00  0.00000000000E+00  0.14999999963E+04  0.15000000000E+04  0.10566000000E+00 0. -1.
        994   -1    0    0    0    0 -0.00000000000E+00 -0.00000000000E+00  0.11368683772E-12  0.17120000000E+03  0.17120000000E+03 0.  0.
         13    1    1    2    0    0  0.78746543881E+02  0.43482235059E+01  0.15528889242E+03  0.17416824192E+03  0.10566000000E+00 0. -1.
        994    1    1    2    0    0 -0.66354957675E+02 -0.10265961415E+02  0.34983710686E+02  0.18719420500E+03  0.17120000000E+03 0.  0.
        998    1    1    2    0    0 -0.12391586206E+02  0.59177379089E+01  0.13097273932E+04  0.13098375531E+04  0.10000000000E+02 0. -1.
</event>
<event>
 5    1  0.1153629E-008  0.3703405E+03  0.7957747E-01  0.3494328E+00
         13   -1    0    0    0    0  0.00000000000E+00  0.00000000000E+00  0.14999999963E+04  0.15000000000E+04  0.10566000000E+00 0.  1.
        994   -1    0    0    0    0 -0.00000000000E+00 -0.00000000000E+00  0.11368683772E-12  0.17120000000E+03  0.17120000000E+03 0.  0.
         13    1    1    2    0    0 -0.12066381633E+02  0.80910415005E+00  0.16615267933E+01  0.12207540725E+02  0.10566000000E+00 0.  1.
        994    1    1    2    0    0 -0.16326013047E+02  0.77129459677E+01  0.12260906711E+02  0.17258562533E+03  0.17120000000E+03 0.  0.
        998    1    1    2    0    0  0.28392394680E+02 -0.85220501177E+01  0.14860775628E+04  0.14864068339E+04  0.10000000000E+02 0.  1.
</event>
<event>
 5    1  0.1153629E-008  0.3767256E+03  0.7957747E-01  0.3465541E+00
         13   -1    0    0    0    0  0.00000000000E+00  0.00000000000E+00  0.14999999963E+04  0.15000000000E+04  0.10566000000E+00 0. -1.
        994   -1    0    0    0    0 -0.00000000000E+00 -0.00000000000E+00  0.11368683772E-12  0.17120000000E+03  0.17120000000E+03 0.  0.
         13    1    1    2    0    0 -0.15922095642E+02  0.33326602614E+02  0.11882607805E+03  0.12443401288E+03  0.10566000000E+00 0. -1.
        994    1    1    2    0    0  0.11512084599E+02 -0.13000288582E+02  0.68149797997E+01  0.17221329665E+03  0.17120000000E+03 0.  0.
        998    1    1    2    0    0  0.44100110426E+01 -0.20326314031E+02  0.13743589384E+04  0.13745526905E+04  0.10000000000E+02 0. -1.
</event>
<event>
 5    1  0.1153629E-008  0.3798511E+03  0.7957747E-01  0.3451807E+00
         13   -1    0    0    0    0  0.00000000000E+00  0.00000000000E+00  0.14999999963E+04  0.15000000000E+04  0.10566000000E+00 0. -1.
        994   -1    0    0    0    0 -0.00000000000E+00 -0.00000000000E+00  0.11368683772E-12  0.17120000000E+03  0.17120000000E+03 0.  0.
         13    1    1    2    0    0  0.16472243508E+02 -0.41786141399E+01  0.32114870470E+02  0.36334167002E+02  0.10566000000E+00 0. -1.
        994    1    1    2    0    0 -0.15869784270E+02  0.57986687326E+01  0.51637014066E+01  0.17210920494E+03  0.17120000000E+03 0.  0.
        998    1    1    2    0    0 -0.60245923821E+00 -0.16200545928E+01  0.14627214244E+04  0.14627566281E+04  0.10000000000E+02 0. -1.
</event>
<event>
 5    1  0.1153629E-008  0.3811088E+03  0.7957747E-01  0.3446345E+00
         13   -1    0    0    0    0  0.00000000000E+00  0.00000000000E+00  0.14999999963E+04  0.15000000000E+04  0.10566000000E+00 0. -1.
        994   -1    0    0    0    0 -0.00000000000E+00 -0.00000000000E+00  0.11368683772E-12  0.17120000000E+03  0.17120000000E+03 0.  0.
         13    1    1    2    0    0  0.75279794056E+01 -0.26937829315E+02  0.11449763179E+03  0.11786448138E+03  0.10566000000E+00 0. -1.
        994    1    1    2    0    0 -0.90819536887E+01  0.52188814601E+01  0.39399997798E+01  0.17156538755E+03  0.17120000000E+03 0.  0.
        998    1    1    2    0    0  0.15539742831E+01  0.21718947855E+02  0.13815623647E+04  0.13817701311E+04  0.10000000000E+02 0. -1.
</event>
<event>
 5    1  0.1153629E-008  0.3818242E+03  0.7957747E-01  0.3443254E+00
         13   -1    0    0    0    0  0.00000000000E+00  0.00000000000E+00  0.14999999963E+04  0.15000000000E+04  0.10566000000E+00 0. -1.
        994   -1    0    0    0    0 -0.00000000000E+00 -0.00000000000E+00  0.11368683772E-12  0.17120000000E+03  0.17120000000E+03 0.  0.
         13    1    1    2    0    0 -0.16954236743E+02  0.23598058919E+00  0.42260460301E+02  0.45535255564E+02  0.10566000000E+00 0. -1.
        994    1    1    2    0    0  0.19322069615E+02  0.55765317319E+01  0.45602058172E+01  0.17243745404E+03  0.17120000000E+03 0.  0.
        998    1    1    2    0    0 -0.23678328719E+01 -0.58125123211E+01  0.14531793302E+04  0.14532272904E+04  0.10000000000E+02 0. -1.
</event>
<event>
 5    1  0.1153629E-008  0.3817169E+03  0.7957747E-01  0.3443717E+00
         13   -1    0    0    0    0  0.00000000000E+00  0.00000000000E+00  0.14999999963E+04  0.15000000000E+04  0.10566000000E+00 0. -1.
        994   -1    0    0    0    0 -0.00000000000E+00 -0.00000000000E+00  0.11368683772E-12  0.17120000000E+03  0.17120000000E+03 0.  0.
         13    1    1    2    0    0 -0.32517920050E+01 -0.88643590353E+02  0.23707244023E+03  0.25312371153E+03  0.10566000000E+00 0. -1.
        994    1    1    2    0    0 -0.82045184419E+01  0.40993589301E+02  0.23673852020E+02  0.17781360959E+03  0.17120000000E+03 0.  0.
        998    1    1    2    0    0  0.11456310447E+02  0.47650001052E+02  0.12392537040E+04  0.12402626789E+04  0.10000000000E+02 0. -1.
</event>
<event>
 5    1  0.1153629E-008  0.3827894E+03  0.7957747E-01  0.3439102E+00
         13   -1    0    0    0    0  0.00000000000E+00  0.00000000000E+00  0.14999999963E+04  0.15000000000E+04  0.10566000000E+00 0. -1.
        994   -1    0    0    0    0 -0.00000000000E+00 -0.00000000000E+00  0.11368683772E-12  0.17120000000E+03  0.17120000000E+03 0.  0.
         13    1    1    2    0    0  0.98500860041E+01 -0.31577077124E+01  0.18386021380E+02  0.21096261719E+02  0.10566000000E+00 0. -1.
        994    1    1    2    0    0 -0.10220807189E+02  0.10076685844E+01  0.30811219880E+01  0.17153545875E+03  0.17120000000E+03 0.  0.
        998    1    1    2    0    0  0.37072118454E+00  0.21500391280E+01  0.14785328529E+04  0.14785682795E+04  0.10000000000E+02 0. -1.
</event>
<event>
 5    1  0.1153629E-008  0.3757915E+03  0.7957747E-01  0.3469691E+00
         13   -1    0    0    0    0  0.00000000000E+00  0.00000000000E+00  0.14999999963E+04  0.15000000000E+04  0.10566000000E+00 0.  1.
        994   -1    0    0    0    0 -0.00000000000E+00 -0.00000000000E+00  0.11368683772E-12  0.17120000000E+03  0.17120000000E+03 0.  0.
         13    1    1    2    0    0  0.54504388064E+01  0.47623906622E+02  0.12944756361E+03  0.13803777256E+03  0.10566000000E+00 0.  1.
        994    1    1    2    0    0 -0.54902417308E+01 -0.98055756886E+02  0.39706343966E+02  0.20132339150E+03  0.17120000000E+03 0.  0.
        998    1    1    2    0    0  0.39802924328E-01  0.50431850264E+02  0.13308460887E+04  0.13318388359E+04  0.10000000000E+02 0.  1.
</event>
<event>
 5    1  0.1153629E-008  0.2729168E+03  0.7957747E-01  0.4110601E+00
         13   -1    0    0    0    0  0.00000000000E+00  0.00000000000E+00  0.14999999963E+04  0.15000000000E+04  0.10566000000E+00 0.  1.
        994   -1    0    0    0    0 -0.00000000000E+00 -0.00000000000E+00  0.11368683772E-12  0.17120000000E+03  0.17120000000E+03 0.  0.
         13    1    1    2    0    0 -0.95503061412E+02 -0.18527740635E+03  0.50996126776E+03  0.55091656158E+03  0.10566000000E+00 0.  1.
        994    1    1    2    0    0  0.14889202700E+03  0.79492449524E+02  0.17686360243E+03  0.29845947648E+03  0.17120000000E+03 0.  0.
        998    1    1    2    0    0 -0.53388965587E+02  0.10578495683E+03  0.81317512609E+03  0.82182396194E+03  0.10000000000E+02 0.  1.
</event>
<event>
 5    1  0.1153629E-008  0.3738829E+03  0.7957747E-01  0.3478234E+00
         13   -1    0    0    0    0  0.00000000000E+00  0.00000000000E+00  0.14999999963E+04  0.15000000000E+04  0.10566000000E+00 0. -1.
        994   -1    0    0    0    0 -0.00000000000E+00 -0.00000000000E+00  0.11368683772E-12  0.17120000000E+03  0.17120000000E+03 0.  0.
         13    1    1    2    0    0 -0.11955748515E+02  0.28404406057E+02  0.52522553407E+02  0.60896469409E+02  0.10566000000E+00 0. -1.
        994    1    1    2    0    0  0.26056398506E+02 -0.70607012382E+02  0.26833706537E+02  0.18892795957E+03  0.17120000000E+03 0.  0.
        998    1    1    2    0    0 -0.14100649991E+02  0.42202606325E+02  0.14206437363E+04  0.14213755710E+04  0.10000000000E+02 0. -1.
</event>
<event>
 5    1  0.1153629E-008  0.3696218E+03  0.7957747E-01  0.3497631E+00
         13   -1    0    0    0    0  0.00000000000E+00  0.00000000000E+00  0.14999999963E+04  0.15000000000E+04  0.10566000000E+00 0.  1.
        994   -1    0    0    0    0 -0.00000000000E+00 -0.00000000000E+00  0.11368683772E-12  0.17120000000E+03  0.17120000000E+03 0.  0.
         13    1    1    2    0    0 -0.94215403021E+02 -0.82636301685E+02  0.44993049969E+03  0.46705756202E+03  0.10566000000E+00 0.  1.
        994    1    1    2    0    0  0.82589826183E+02  0.11225756390E+03  0.81989395601E+02  0.23548787874E+03  0.17120000000E+03 0.  0.
        998    1    1    2    0    0  0.11625576838E+02 -0.29621262219E+02  0.96808010098E+03  0.96865455924E+03  0.10000000000E+02 0.  1.
</event>
<event>
 5    1  0.1153629E-008  0.3725614E+03  0.7957747E-01  0.3484201E+00
         13   -1    0    0    0    0  0.00000000000E+00  0.00000000000E+00  0.14999999963E+04  0.15000000000E+04  0.10566000000E+00 0. -1.
        994   -1    0    0    0    0 -0.00000000000E+00 -0.00000000000E+00  0.11368683772E-12  0.17120000000E+03  0.17120000000E+03 0.  0.
         13    1    1    2    0    0  0.18306456324E+02 -0.16394099162E+02  0.34045423154E+02  0.41988032012E+02  0.10566000000E+00 0. -1.
        994    1    1    2    0    0 -0.19881736487E+02  0.15682261251E+02  0.10137197041E+02  0.17335922106E+03  0.17120000000E+03 0.  0.
        998    1    1    2    0    0  0.15752801633E+01  0.71183791082E+00  0.14558173761E+04  0.14558527469E+04  0.10000000000E+02 0. -1.
</event>
<event>
 5    1  0.1153629E-008  0.3791413E+03  0.7957747E-01  0.3454906E+00
         13   -1    0    0    0    0  0.00000000000E+00  0.00000000000E+00  0.14999999963E+04  0.15000000000E+04  0.10566000000E+00 0. -1.
        994   -1    0    0    0    0 -0.00000000000E+00 -0.00000000000E+00  0.11368683772E-12  0.17120000000E+03  0.17120000000E+03 0.  0.
         13    1    1    2    0    0 -0.70722054260E+01 -0.59532578414E+02  0.28261263804E+03  0.28890146820E+03  0.10566000000E+00 0. -1.
        994    1    1    2    0    0  0.25869239116E+02  0.72028140359E+02  0.24460713924E+02  0.18911646428E+03  0.17120000000E+03 0.  0.
        998    1    1    2    0    0 -0.18797033690E+02 -0.12495561945E+02  0.11929266443E+04  0.11931820675E+04  0.10000000000E+02 0. -1.
</event>
<event>
 5    1  0.1153629E-008  0.3793590E+03  0.7957747E-01  0.3453954E+00
         13   -1    0    0    0    0  0.00000000000E+00  0.00000000000E+00  0.14999999963E+04  0.15000000000E+04  0.10566000000E+00 0.  1.
        994   -1    0    0    0    0 -0.00000000000E+00 -0.00000000000E+00  0.11368683772E-12  0.17120000000E+03  0.17120000000E+03 0.  0.
         13    1    1    2    0    0  0.35667258885E+02 -0.20721821136E+01  0.15198458743E+03  0.15612742640E+03  0.10566000000E+00 0.  1.
        994    1    1    2    0    0 -0.99046980729E+01 -0.25170267529E+01  0.48070303063E+01  0.17157210148E+03  0.17120000000E+03 0.  0.
        998    1    1    2    0    0 -0.25762560812E+02  0.45892088665E+01  0.13432083785E+04  0.13435004721E+04  0.10000000000E+02 0.  1.
</event>
<event>
 5    1  0.1153629E-008  0.3850574E+03  0.7957747E-01  0.3429429E+00
         13   -1    0    0    0    0  0.00000000000E+00  0.00000000000E+00  0.14999999963E+04  0.15000000000E+04  0.10566000000E+00 0. -1.
        994   -1    0    0    0    0 -0.00000000000E+00 -0.00000000000E+00  0.11368683772E-12  0.17120000000E+03  0.17120000000E+03 0.  0.
         13    1    1    2    0    0  0.83518345208E+01 -0.13962918381E+02  0.77785145947E+02  0.79468587024E+02  0.10566000000E+00 0. -1.
        994    1    1    2    0    0 -0.64986662927E+01  0.18863742451E+02  0.29116036478E+01  0.17238326740E+03  0.17120000000E+03 0.  0.
        998    1    1    2    0    0 -0.18531682281E+01 -0.49008240702E+01  0.14193032467E+04  0.14193481456E+04  0.10000000000E+02 0. -1.
</event>
<event>
 5    1  0.1153629E-008  0.3753974E+03  0.7957747E-01  0.3471447E+00
         13   -1    0    0    0    0  0.00000000000E+00  0.00000000000E+00  0.14999999963E+04  0.15000000000E+04  0.10566000000E+00 0.  1.
        994   -1    0    0    0    0 -0.00000000000E+00 -0.00000000000E+00  0.11368683772E-12  0.17120000000E+03  0.17120000000E+03 0.  0.
         13    1    1    2    0    0 -0.79092870769E+02  0.24282044113E+02  0.19574399676E+03  0.21251123101E+03  0.10566000000E+00 0.  1.
        994    1    1    2    0    0  0.95725842326E+02 -0.24437227727E+02  0.49477068620E+02  0.20375974899E+03  0.17120000000E+03 0.  0.
        998    1    1    2    0    0 -0.16632971557E+02  0.15518361464E+00  0.12547789309E+04  0.12549290200E+04  0.10000000000E+02 0.  1.
</event>
<event>
 5    1  0.1153629E-008  0.3803069E+03  0.7957747E-01  0.3449823E+00
         13   -1    0    0    0    0  0.00000000000E+00  0.00000000000E+00  0.14999999963E+04  0.15000000000E+04  0.10566000000E+00 0. -1.
        994   -1    0    0    0    0 -0.00000000000E+00 -0.00000000000E+00  0.11368683772E-12  0.17120000000E+03  0.17120000000E+03 0.  0.
         13    1    1    2    0    0 -0.58710953314E+01  0.15773576055E+02  0.35074730987E+02  0.38904027810E+02  0.10566000000E+00 0. -1.
        994    1    1    2    0    0  0.29108174865E+02  0.81773562510E+01  0.70371699307E+01  0.17399171463E+03  0.17120000000E+03 0.  0.
        998    1    1    2    0    0 -0.23237079534E+02 -0.23950932306E+02  0.14578880954E+04  0.14583042576E+04  0.10000000000E+02 0. -1.
</event>
<event>
 5    1  0.1153629E-008  0.3809997E+03  0.7957747E-01  0.3446817E+00
         13   -1    0    0    0    0  0.00000000000E+00  0.00000000000E+00  0.14999999963E+04  0.15000000000E+04  0.10566000000E+00 0. -1.
        994   -1    0    0    0    0 -0.00000000000E+00 -0.00000000000E+00  0.11368683772E-12  0.17120000000E+03  0.17120000000E+03 0.  0.
         13    1    1    2    0    0 -0.20505823035E+02 -0.52943439835E+01  0.55583879859E+02  0.59481910870E+02  0.10566000000E+00 0. -1.
        994    1    1    2    0    0  0.31295454448E+02  0.15864225912E+02  0.77420927010E+01  0.17492986918E+03  0.17120000000E+03 0.  0.
        998    1    1    2    0    0 -0.10789631413E+02 -0.10569881929E+02  0.14366740237E+04  0.14367882199E+04  0.10000000000E+02 0. -1.
</event>
<event>
 5    1  0.1153629E-008  0.3851332E+03  0.7957747E-01  0.3429107E+00
         13   -1    0    0    0    0  0.00000000000E+00  0.00000000000E+00  0.14999999963E+04  0.15000000000E+04  0.10566000000E+00 0. -1.
        994   -1    0    0    0    0 -0.00000000000E+00 -0.00000000000E+00  0.11368683772E-12  0.17120000000E+03  0.17120000000E+03 0.  0.
         13    1    1    2    0    0  0.50975665024E+01  0.11595693746E+02  0.48928410605E+02  0.50541525759E+02  0.10566000000E+00 0. -1.
        994    1    1    2    0    0 -0.48689224924E+01 -0.16417916877E+02  0.25285881641E+01  0.17207291524E+03  0.17120000000E+03 0.  0.
        998    1    1    2    0    0 -0.22864400999E+00  0.48222231311E+01  0.14485429975E+04  0.14485855590E+04  0.10000000000E+02 0. -1.
</event>
<event>
 5    1  0.1153629E-008  0.3696211E+03  0.7957747E-01  0.3497634E+00
         13   -1    0    0    0    0  0.00000000000E+00  0.00000000000E+00  0.14999999963E+04  0.15000000000E+04  0.10566000000E+00 0. -1.
        994   -1    0    0    0    0 -0.00000000000E+00 -0.00000000000E+00  0.11368683772E-12  0.17120000000E+03  0.17120000000E+03 0.  0.
         13    1    1    2    0    0  0.71499882384E+02  0.34756343716E+02  0.44005166592E+03  0.44717526369E+03  0.10566000000E+00 0. -1.
        994    1    1    2    0    0 -0.16238371733E+02  0.29866189913E+01  0.10411628939E+02  0.17230916002E+03  0.17120000000E+03 0.  0.
        998    1    1    2    0    0 -0.55261510651E+02 -0.37742962707E+02  0.10495367014E+04  0.10517155763E+04  0.10000000000E+02 0.  0.
</event>
<event>
 5    1  0.1153629E-008  0.3748008E+03  0.7957747E-01  0.3474114E+00
         13   -1    0    0    0    0  0.00000000000E+00  0.00000000000E+00  0.14999999963E+04  0.15000000000E+04  0.10566000000E+00 0.  1.
        994   -1    0    0    0    0 -0.00000000000E+00 -0.00000000000E+00  0.11368683772E-12  0.17120000000E+03  0.17120000000E+03 0.  0.
         13    1    1    2    0    0 -0.68982810206E+02  0.79012377817E+02  0.46523304804E+03  0.47691024743E+03  0.10566000000E+00 0.  1.
        994    1    1    2    0    0  0.84262142316E+02 -0.85977033603E+02  0.57794216511E+02  0.21712155673E+03  0.17120000000E+03 0.  0.
        998    1    1    2    0    0 -0.15279332110E+02  0.69646557857E+01  0.97697273173E+03  0.97716819584E+03  0.10000000000E+02 0.  1.
</event>
<event>
 5    1  0.1153629E-008  0.3801184E+03  0.7957747E-01  0.3450643E+00
         13   -1    0    0    0    0  0.00000000000E+00  0.00000000000E+00  0.14999999963E+04  0.15000000000E+04  0.10566000000E+00 0. -1.
        994   -1    0    0    0    0 -0.00000000000E+00 -0.00000000000E+00  0.11368683772E-12  0.17120000000E+03  0.17120000000E+03 0.  0.
         13    1    1    2    0    0  0.99223692343E+01 -0.15998017652E+02  0.42889691155E+02  0.46839371808E+02  0.10566000000E+00 0. -1.
        994    1    1    2    0    0  0.39980059163E+00  0.76216083194E+01  0.42680808709E+01  0.17142317599E+03  0.17120000000E+03 0.  0.
        998    1    1    2    0    0 -0.10322169826E+02  0.83764093326E+01  0.14528422243E+04  0.14529374522E+04  0.10000000000E+02 0. -1.
</event>
<event>
 5    1  0.1153629E-008  0.3832770E+03  0.7957747E-01  0.3437013E+00
         13   -1    0    0    0    0  0.00000000000E+00  0.00000000000E+00  0.14999999963E+04  0.15000000000E+04  0.10566000000E+00 0.  1.
        994   -1    0    0    0    0 -0.00000000000E+00 -0.00000000000E+00  0.11368683772E-12  0.17120000000E+03  0.17120000000E+03 0.  0.
         13    1    1    2    0    0 -0.12147554875E+02  0.14807955045E+01  0.29379437164E+02  0.31826378004E+02  0.10566000000E+00 0.  1.
        994    1    1    2    0    0  0.72557182538E+01 -0.21069978731E+01  0.26768263443E+01  0.17138754414E+03  0.17120000000E+03 0.  0.
        998    1    1    2    0    0  0.48918366215E+01  0.62620236860E+00  0.14679437328E+04  0.14679860779E+04  0.10000000000E+02 0.  1.
</event>
<event>
 5    1  0.1153629E-008  0.3778368E+03  0.7957747E-01  0.3460632E+00
         13   -1    0    0    0    0  0.00000000000E+00  0.00000000000E+00  0.14999999963E+04  0.15000000000E+04  0.10566000000E+00 0. -1.
        994   -1    0    0    0    0 -0.00000000000E+00 -0.00000000000E+00  0.11368683772E-12  0.17120000000E+03  0.17120000000E+03 0.  0.
         13    1    1    2    0    0  0.27384895606E+02  0.35494564521E+02  0.19355879953E+03  0.19868270347E+03  0.10566000000E+00 0. -1.
        994    1    1    2    0    0 -0.20924619958E+02 -0.13545015831E+02  0.73238568605E+01  0.17316000131E+03  0.17120000000E+03 0.  0.
        998    1    1    2    0    0 -0.64602756478E+01 -0.21949548691E+02  0.12991173399E+04  0.12993572952E+04  0.10000000000E+02 0. -1.
</event>
<event>
 5    1  0.1153629E-008  0.3839870E+03  0.7957747E-01  0.3433980E+00
         13   -1    0    0    0    0  0.00000000000E+00  0.00000000000E+00  0.14999999963E+04  0.15000000000E+04  0.10566000000E+00 0. -1.
        994   -1    0    0    0    0 -0.00000000000E+00 -0.00000000000E+00  0.11368683772E-12  0.17120000000E+03  0.17120000000E+03 0.  0.
         13    1    1    2    0    0  0.12402943051E+02  0.33659709375E+01  0.38305169642E+02  0.40403711983E+02  0.10566000000E+00 0. -1.
        994    1    1    2    0    0 -0.85597523061E+01  0.15715569543E+01  0.23838468244E+01  0.17143763261E+03  0.17120000000E+03 0.  0.
        998    1    1    2    0    0 -0.38431907451E+01 -0.49375278918E+01  0.14593109798E+04  0.14593586554E+04  0.10000000000E+02 0. -1.
</event>
<event>
 5    1  0.1153629E-008  0.3862760E+03  0.7957747E-01  0.3424278E+00
         13   -1    0    0    0    0  0.00000000000E+00  0.00000000000E+00  0.14999999963E+04  0.15000000000E+04  0.10566000000E+00 0.  1.
        994   -1    0    0    0    0 -0.00000000000E+00 -0.00000000000E+00  0.11368683772E-12  0.17120000000E+03  0.17120000000E+03 0.  0.
         13    1    1    2    0    0 -0.44878776848E+01 -0.10630484816E+02  0.67447551488E+02  0.68427564762E+02  0.10566000000E+00 0.  1.
        994    1    1    2    0    0 -0.54381850583E+00  0.93371051541E+01  0.12844755706E+01  0.17146010366E+03  0.17120000000E+03 0.  0.
        998    1    1    2    0    0  0.50316961906E+01  0.12933796623E+01  0.14312679692E+04  0.14313123316E+04  0.10000000000E+02 0.  1.
</event>
<event>
 5    1  0.1153629E-008  0.3854152E+03  0.7957747E-01  0.3427913E+00
         13   -1    0    0    0    0  0.00000000000E+00  0.00000000000E+00  0.14999999963E+04  0.15000000000E+04  0.10566000000E+00 0. -1.
        994   -1    0    0    0    0 -0.00000000000E+00 -0.00000000000E+00  0.11368683772E-12  0.17120000000E+03  0.17120000000E+03 0.  0.
         13    1    1    2    0    0  0.93685864228E+00 -0.13390378654E+02  0.61492584833E+02  0.62940679200E+02  0.10566000000E+00 0. -1.
        994    1    1    2    0    0 -0.87413974035E+01  0.13370915170E+02  0.22626873500E+01  0.17195857977E+03  0.17120000000E+03 0.  0.
        998    1    1    2    0    0  0.78045387613E+01  0.19463483773E-01  0.14362447241E+04  0.14363007410E+04  0.10000000000E+02 0. -1.
</event>
<event>
 5    1  0.1153629E-008  0.3714357E+03  0.7957747E-01  0.3489319E+00
         13   -1    0    0    0    0  0.00000000000E+00  0.00000000000E+00  0.14999999963E+04  0.15000000000E+04  0.10566000000E+00 0. -1.
        994   -1    0    0    0    0 -0.00000000000E+00 -0.00000000000E+00  0.11368683772E-12  0.17120000000E+03  0.17120000000E+03 0.  0.
         13    1    1    2    0    0 -0.92573014453E+02 -0.35251837056E+02  0.40789126268E+03  0.41974724342E+03  0.10566000000E+00 0. -1.
        994    1    1    2    0    0  0.94047838359E+02  0.33505056835E+02  0.43637895613E+02  0.20293173893E+03  0.17120000000E+03 0.  0.
        998    1    1    2    0    0 -0.14748239064E+01  0.17467802214E+01  0.10484708380E+04  0.10485210176E+04  0.10000000000E+02 0.  0.
</event>
<event>
 5    1  0.1153629E-008  0.3808322E+03  0.7957747E-01  0.3447543E+00
         13   -1    0    0    0    0  0.00000000000E+00  0.00000000000E+00  0.14999999963E+04  0.15000000000E+04  0.10566000000E+00 0.  1.
        994   -1    0    0    0    0 -0.00000000000E+00 -0.00000000000E+00  0.11368683772E-12  0.17120000000E+03  0.17120000000E+03 0.  0.
         13    1    1    2    0    0 -0.67687127453E+02  0.10341911232E+02  0.12449185522E+03  0.14208003214E+03  0.10566000000E+00 0.  1.
        994    1    1    2    0    0  0.65544985641E+02 -0.10948808860E+02  0.33016524347E+02  0.18658926131E+03  0.17120000000E+03 0.  0.
        998    1    1    2    0    0  0.21421418123E+01  0.60689762834E+00  0.13424916167E+04  0.13425307065E+04  0.10000000000E+02 0.  1.
</event>
<event>
 5    1  0.1153629E-008  0.4006173E+03  0.7957747E-01  0.3366023E+00
         13   -1    0    0    0    0  0.00000000000E+00  0.00000000000E+00  0.14999999963E+04  0.15000000000E+04  0.10566000000E+00 0.  1.
        994   -1    0    0    0    0 -0.00000000000E+00 -0.00000000000E+00  0.11368683772E-12  0.17120000000E+03  0.17120000000E+03 0.  0.
         13    1    1    2    0    0  0.85089555341E+01 -0.69967810242E+02  0.83377044855E+02  0.10917710184E+03  0.10566000000E+00 0.  1.
        994    1    1    2    0    0  0.13420957916E+01  0.34376255443E+02  0.32806113982E+02  0.17767726156E+03  0.17120000000E+03 0.  0.
        998    1    1    2    0    0 -0.98510513257E+01  0.35591554799E+02  0.13838168374E+04  0.13843456366E+04  0.10000000000E+02 0.  1.
</event>
<event>
 5    1  0.1153629E-008  0.3794357E+03  0.7957747E-01  0.3453619E+00
         13   -1    0    0    0    0  0.00000000000E+00  0.00000000000E+00  0.14999999963E+04  0.15000000000E+04  0.10566000000E+00 0.  1.
        994   -1    0    0    0    0 -0.00000000000E+00 -0.00000000000E+00  0.11368683772E-12  0.17120000000E+03  0.17120000000E+03 0.  0.
         13    1    1    2    0    0 -0.14689783236E+02 -0.19873593322E+02  0.67968095389E+02  0.72321660641E+02  0.10566000000E+00 0.  1.
        994    1    1    2    0    0  0.36436171645E+01  0.14752838598E+02  0.51920519052E+01  0.17195150362E+03  0.17120000000E+03 0.  0.
        998    1    1    2    0    0  0.11046166072E+02  0.51207547236E+01  0.14268398490E+04  0.14269268357E+04  0.10000000000E+02 0.  1.
</event>
<event>
 5    1  0.1153629E-008  0.3734604E+03  0.7957747E-01  0.3480137E+00
         13   -1    0    0    0    0  0.00000000000E+00  0.00000000000E+00  0.14999999963E+04  0.15000000000E+04  0.10566000000E+00 0. -1.
        994   -1    0    0    0    0 -0.00000000000E+00 -0.00000000000E+00  0.11368683772E-12  0.17120000000E+03  0.17120000000E+03 0.  0.
         13    1    1    2    0    0 -0.33024519942E+01  0.13338939048E+02  0.91718810014E+01  0.16521744739E+02  0.10566000000E+00 0. -1.
        994    1    1    2    0    0  0.24253285648E+01 -0.14507599215E+02  0.82110884365E+01  0.17202678462E+03  0.17120000000E+03 0.  0.
        998    1    1    2    0    0  0.87712342935E+00  0.11686601675E+01  0.14826170268E+04  0.14826514706E+04  0.10000000000E+02 0. -1.
</event>
<event>
 5    1  0.1153629E-008  0.3703021E+03  0.7957747E-01  0.3494504E+00
         13   -1    0    0    0    0  0.00000000000E+00  0.00000000000E+00  0.14999999963E+04  0.15000000000E+04  0.10566000000E+00 0.  1.
        994   -1    0    0    0    0 -0.00000000000E+00 -0.00000000000E+00  0.11368683772E-12  0.17120000000E+03  0.17120000000E+03 0.  0.
         13    1    1    2    0    0 -0.33082612755E+02 -0.57181660987E+01  0.46527515339E+02  0.57375757406E+02  0.10566000000E+00 0.  1.
        994    1    1    2    0    0  0.19546585745E+02  0.19387908448E+02  0.13755792154E+02  0.17394430668E+03  0.17120000000E+03 0.  0.
        998    1    1    2    0    0  0.13536027010E+02 -0.13669742349E+02  0.14397166888E+04  0.14398799359E+04  0.10000000000E+02 0.  1.
</event>
<event>
 5    1  0.1153629E-008  0.3808073E+03  0.7957747E-01  0.3447651E+00
         13   -1    0    0    0    0  0.00000000000E+00  0.00000000000E+00  0.14999999963E+04  0.15000000000E+04  0.10566000000E+00 0.  1.
        994   -1    0    0    0    0 -0.00000000000E+00 -0.00000000000E+00  0.11368683772E-12  0.17120000000E+03  0.17120000000E+03 0.  0.
         13    1    1    2    0    0 -0.14626234952E+02 -0.22547781860E+02  0.11207501460E+03  0.11525254564E+03  0.10566000000E+00 0.  1.
        994    1    1    2    0    0 -0.14514347110E+02 -0.32672591368E+01  0.44645070923E+01  0.17190320846E+03  0.17120000000E+03 0.  0.
        998    1    1    2    0    0  0.29140582062E+02  0.25815040996E+02  0.13834604746E+04  0.13840442459E+04  0.10000000000E+02 0.  1.
</event>
<event>
 5    1  0.1153629E-008  0.3699924E+03  0.7957747E-01  0.3495926E+00
         13   -1    0    0    0    0  0.00000000000E+00  0.00000000000E+00  0.14999999963E+04  0.15000000000E+04  0.10566000000E+00 0. -1.
        994   -1    0    0    0    0 -0.00000000000E+00 -0.00000000000E+00  0.11368683772E-12  0.17120000000E+03  0.17120000000E+03 0.  0.
         13    1    1    2    0    0  0.92308815087E+01 -0.85472363714E+02  0.43145490614E+03  0.43993645146E+03  0.10566000000E+00 0. -1.
        994    1    1    2    0    0 -0.27228646589E+02  0.37356614885E+02  0.16698428058E+02  0.17811567413E+03  0.17120000000E+03 0.  0.
        998    1    1    2    0    0  0.17997765080E+02  0.48115748829E+02  0.10518466621E+04  0.10531478744E+04  0.10000000000E+02 0. -1.
</event>
<event>
 5    1  0.1153629E-008  0.3720279E+03  0.7957747E-01  0.3486622E+00
         13   -1    0    0    0    0  0.00000000000E+00  0.00000000000E+00  0.14999999963E+04  0.15000000000E+04  0.10566000000E+00 0. -1.
        994   -1    0    0    0    0 -0.00000000000E+00 -0.00000000000E+00  0.11368683772E-12  0.17120000000E+03  0.17120000000E+03 0.  0.
         13    1    1    2    0    0  0.56397053233E+02  0.92889759525E+02  0.46909088924E+03  0.48151366395E+03  0.10566000000E+00 0. -1.
        994    1    1    2    0    0 -0.39189203399E+02 -0.56006658347E+02  0.28654418760E+02  0.18655576956E+03  0.17120000000E+03 0.  0.
        998    1    1    2    0    0 -0.17207849834E+02 -0.36883101177E+02  0.10022546883E+04  0.10031305665E+04  0.10000000000E+02 0. -1.
</event>
<event>
 5    1  0.1153629E-008  0.3783306E+03  0.7957747E-01  0.3458460E+00
         13   -1    0    0    0    0  0.00000000000E+00  0.00000000000E+00  0.14999999963E+04  0.15000000000E+04  0.10566000000E+00 0.  1.
        994   -1    0    0    0    0 -0.00000000000E+00 -0.00000000000E+00  0.11368683772E-12  0.17120000000E+03  0.17120000000E+03 0.  0.
         13    1    1    2    0    0 -0.13880222255E+02 -0.12407841877E+02  0.32674772908E+02  0.37606742195E+02  0.10566000000E+00 0.  1.
        994    1    1    2    0    0  0.14179989551E+02  0.51433798192E+01  0.57434198796E+01  0.17195916181E+03  0.17120000000E+03 0.  0.
        998    1    1    2    0    0 -0.29976729622E+00  0.72644620582E+01  0.14615818035E+04  0.14616340960E+04  0.10000000000E+02 0.  1.
</event>
<event>
 5    1  0.1257800E-008  0.3859264E+03  0.7957747E-01  0.3425753E+00
         13   -1    0    0    0    0  0.00000000000E+00  0.00000000000E+00  0.14999999963E+04  0.15000000000E+04  0.10566000000E+00 0.  1.
        994   -1    0    0    0    0 -0.00000000000E+00 -0.00000000000E+00  0.11368683772E-12  0.17120000000E+03  0.17120000000E+03 0.  0.
         13    1    1    2    0    0  0.11397867609E+01 -0.11103878043E+02  0.53929894302E+02  0.55073041362E+02  0.10566000000E+00 0.  1.
        994    1    1    2    0    0  0.34036103634E+00  0.71255743540E+01  0.13377709017E+01  0.17135378399E+03  0.17120000000E+03 0.  0.
        998    1    1    2    0    0 -0.14801477972E+01  0.39783036893E+01  0.14447323311E+04  0.14447731747E+04  0.10000000000E+02 0.  0.
</event>
<event>
 5    1  0.1188216E-008  0.3831732E+03  0.7957747E-01  0.3437457E+00
         13   -1    0    0    0    0  0.00000000000E+00  0.00000000000E+00  0.14999999963E+04  0.15000000000E+04  0.10566000000E+00 0.  1.
        994   -1    0    0    0    0 -0.00000000000E+00 -0.00000000000E+00  0.11368683772E-12  0.17120000000E+03  0.17120000000E+03 0.  0.
         13    1    1    2    0    0 -0.10205549009E+02  0.10354900157E+01  0.19489414194E+02  0.22024393290E+02  0.10566000000E+00 0.  1.
        994    1    1    2    0    0  0.11960692878E+02 -0.10577648867E+01  0.30169354100E+01  0.17164707670E+03  0.17120000000E+03 0.  0.
        998    1    1    2    0    0 -0.17551438687E+01  0.22274870960E-01  0.14774936467E+04  0.14775285300E+04  0.10000000000E+02 0.  1.
</event>
<event>
 5    1  0.1153629E-008  0.3853727E+03  0.7957747E-01  0.3428093E+00
         13   -1    0    0    0    0  0.00000000000E+00  0.00000000000E+00  0.14999999963E+04  0.15000000000E+04  0.10566000000E+00 0. -1.
        994   -1    0    0    0    0 -0.00000000000E+00 -0.00000000000E+00  0.11368683772E-12  0.17120000000E+03  0.17120000000E+03 0.  0.
         13    1    1    2    0    0 -0.10980956435E+02  0.15724502145E+01  0.41564726114E+02  0.43019665559E+02  0.10566000000E+00 0. -1.
        994    1    1    2    0    0  0.11963304545E+02 -0.29595492388E+01  0.19442679585E+01  0.17165401179E+03  0.17120000000E+03 0.  0.
        998    1    1    2    0    0 -0.98234810982E+00  0.13870990243E+01  0.14564910022E+04  0.14565263226E+04  0.10000000000E+02 0.  0.
</event>
<event>
 5    1  0.1153629E-008  0.3788490E+03  0.7957747E-01  0.3456186E+00
         13   -1    0    0    0    0  0.00000000000E+00  0.00000000000E+00  0.14999999963E+04  0.15000000000E+04  0.10566000000E+00 0. -1.
        994   -1    0    0    0    0 -0.00000000000E+00 -0.00000000000E+00  0.11368683772E-12  0.17120000000E+03  0.17120000000E+03 0.  0.
         13    1    1    2    0    0 -0.13749228609E+02 -0.69465949174E+02  0.42040721397E+03  0.42632944551E+03  0.10566000000E+00 0. -1.
        994    1    1    2    0    0  0.22820991137E+02  0.59420065169E+02  0.18433362695E+02  0.18357769647E+03  0.17120000000E+03 0.  0.
        998    1    1    2    0    0 -0.90717625286E+01  0.10045884006E+02  0.10611594196E+04  0.10612928580E+04  0.10000000000E+02 0. -1.
</event>
<event>
 5    1  0.1153629E-008  0.3716865E+03  0.7957747E-01  0.3488176E+00
         13   -1    0    0    0    0  0.00000000000E+00  0.00000000000E+00  0.14999999963E+04  0.15000000000E+04  0.10566000000E+00 0. -1.
        994   -1    0    0    0    0 -0.00000000000E+00 -0.00000000000E+00  0.11368683772E-12  0.17120000000E+03  0.17120000000E+03 0.  0.
         13    1    1    2    0    0  0.61196248938E+01  0.25661503209E+02  0.24502481402E+02  0.36004795717E+02  0.10566000000E+00 0. -1.
        994    1    1    2    0    0  0.16290436838E-01 -0.19516871447E+02  0.13174043166E+02  0.17281175871E+03  0.17120000000E+03 0.  0.
        998    1    1    2    0    0 -0.61359153306E+01 -0.61446317619E+01  0.14623234717E+04  0.14623834456E+04  0.10000000000E+02 0. -1.
</event>
<event>
 5    1  0.1153629E-008  0.3756981E+03  0.7957747E-01  0.3470107E+00
         13   -1    0    0    0    0  0.00000000000E+00  0.00000000000E+00  0.14999999963E+04  0.15000000000E+04  0.10566000000E+00 0. -1.
        994   -1    0    0    0    0 -0.00000000000E+00 -0.00000000000E+00  0.11368683772E-12  0.17120000000E+03  0.17120000000E+03 0.  0.
         13    1    1    2    0    0  0.11717045568E+02 -0.10871100963E+02  0.17325800575E+02  0.23572537466E+02  0.10566000000E+00 0. -1.
        994    1    1    2    0    0 -0.70776114983E+01  0.14213595911E+02  0.71761433815E+01  0.17208444418E+03  0.17120000000E+03 0.  0.
        998    1    1    2    0    0 -0.46394340697E+01 -0.33424949485E+01  0.14754980523E+04  0.14755430184E+04  0.10000000000E+02 0. -1.
</event>
<event>
 5    1  0.1153629E-008  0.3818009E+03  0.7957747E-01  0.3443354E+00
         13   -1    0    0    0    0  0.00000000000E+00  0.00000000000E+00  0.14999999963E+04  0.15000000000E+04  0.10566000000E+00 0.  1.
        994   -1    0    0    0    0 -0.00000000000E+00 -0.00000000000E+00  0.11368683772E-12  0.17120000000E+03  0.17120000000E+03 0.  0.
         13    1    1    2    0    0 -0.60644542671E+00 -0.11122131991E+02  0.16654419444E+02  0.20036228366E+02  0.10566000000E+00 0.  1.
        994    1    1    2    0    0  0.13099990973E+02  0.33511784950E+02  0.75410893422E+01  0.17510270564E+03  0.17120000000E+03 0.  0.
        998    1    1    2    0    0 -0.12493545546E+02 -0.22389652958E+02  0.14758044875E+04  0.14760610660E+04  0.10000000000E+02 0.  1.
</event>
<event>
 5    1  0.1153629E-008  0.3845706E+03  0.7957747E-01  0.3431496E+00
         13   -1    0    0    0    0  0.00000000000E+00  0.00000000000E+00  0.14999999963E+04  0.15000000000E+04  0.10566000000E+00 0.  1.
        994   -1    0    0    0    0 -0.00000000000E+00 -0.00000000000E+00  0.11368683772E-12  0.17120000000E+03  0.17120000000E+03 0.  0.
         13    1    1    2    0    0 -0.12158291376E+02 -0.16610528482E+02  0.11397564234E+03  0.11581965255E+03  0.10566000000E+00 0.  1.
        994    1    1    2    0    0  0.94274680552E+01  0.10113878518E+02  0.24733086263E+01  0.17177521634E+03  0.17120000000E+03 0.  0.
        998    1    1    2    0    0  0.27308233212E+01  0.64966499632E+01  0.13835510453E+04  0.13836051311E+04  0.10000000000E+02 0.  1.
</event>
<event>
 5    1  0.1153629E-008  0.3780095E+03  0.7957747E-01  0.3459872E+00
         13   -1    0    0    0    0  0.00000000000E+00  0.00000000000E+00  0.14999999963E+04  0.15000000000E+04  0.10566000000E+00 0.  1.
        994   -1    0    0    0    0 -0.00000000000E+00 -0.00000000000E+00  0.11368683772E-12  0.17120000000E+03  0.17120000000E+03 0.  0.
         13    1    1    2    0    0  0.38908997281E+01 -0.16206803435E+02  0.24471809717E+02  0.29608786080E+02  0.10566000000E+00 0.  1.
        994    1    1    2    0    0 -0.58784016561E+01  0.16713067116E+02  0.61982752838E+01  0.17222584253E+03  0.17120000000E+03 0.  0.
        998    1    1    2    0    0  0.19875019280E+01 -0.50626368176E+00  0.14693299113E+04  0.14693653714E+04  0.10000000000E+02 0.  1.
</event>
<event>
 5    1  0.1153629E-008  0.3798941E+03  0.7957747E-01  0.3451620E+00
         13   -1    0    0    0    0  0.00000000000E+00  0.00000000000E+00  0.14999999963E+04  0.15000000000E+04  0.10566000000E+00 0. -1.
        994   -1    0    0    0    0 -0.00000000000E+00 -0.00000000000E+00  0.11368683772E-12  0.17120000000E+03  0.17120000000E+03 0.  0.
         13    1    1    2    0    0  0.24281556697E+02 -0.36942667194E+01  0.68119362447E+02  0.72412017693E+02  0.10566000000E+00 0. -1.
        994    1    1    2    0    0 -0.22052543747E+02  0.12839187242E+02  0.63671734400E+01  0.17320837252E+03  0.17120000000E+03 0.  0.
        998    1    1    2    0    0 -0.22290129499E+01 -0.91449205223E+01  0.14255134604E+04  0.14255796098E+04  0.10000000000E+02 0. -1.
</event>
<event>
 5    1  0.1153629E-008  0.3862659E+03  0.7957747E-01  0.3424321E+00
         13   -1    0    0    0    0  0.00000000000E+00  0.00000000000E+00  0.14999999963E+04  0.15000000000E+04  0.10566000000E+00 0.  1.
        994   -1    0    0    0    0 -0.00000000000E+00 -0.00000000000E+00  0.11368683772E-12  0.17120000000E+03  0.17120000000E+03 0.  0.
         13    1    1    2    0    0  0.19366760823E+00  0.11179986701E+02  0.62669144342E+02  0.63658954015E+02  0.10566000000E+00 0.  1.
        994    1    1    2    0    0  0.44525243083E+01 -0.89933833329E+01  0.13328503702E+01  0.17149904491E+03  0.17120000000E+03 0.  0.
        998    1    1    2    0    0 -0.46461919165E+01 -0.21866033679E+01  0.14359980016E+04  0.14360420011E+04  0.10000000000E+02 0.  1.
</event>
<event>
 5    1  0.1153629E-008  0.3846115E+03  0.7957747E-01  0.3431322E+00
         13   -1    0    0    0    0  0.00000000000E+00  0.00000000000E+00  0.14999999963E+04  0.15000000000E+04  0.10566000000E+00 0.  1.
        994   -1    0    0    0    0 -0.00000000000E+00 -0.00000000000E+00  0.11368683772E-12  0.17120000000E+03  0.17120000000E+03 0.  0.
         13    1    1    2    0    0 -0.11478162622E+02  0.55722290663E+00  0.35577424026E+02  0.37387470881E+02  0.10566000000E+00 0.  1.
        994    1    1    2    0    0  0.98998290899E+01  0.33102586091E+01  0.21820241800E+01  0.17153182112E+03  0.17120000000E+03 0.  0.
        998    1    1    2    0    0  0.15783335319E+01 -0.38674815158E+01  0.14622405481E+04  0.14622807080E+04  0.10000000000E+02 0.  1.
</event>
<event>
 5    1  0.1153629E-008  0.3778047E+03  0.7957747E-01  0.3460773E+00
         13   -1    0    0    0    0  0.00000000000E+00  0.00000000000E+00  0.14999999963E+04  0.15000000000E+04  0.10566000000E+00 0.  1.
        994   -1    0    0    0    0 -0.00000000000E+00 -0.00000000000E+00  0.11368683772E-12  0.17120000000E+03  0.17120000000E+03 0.  0.
         13    1    1    2    0    0 -0.34911954782E+00  0.10310754804E+02  0.74268579519E+01  0.12712314194E+02  0.10566000000E+00 0.  1.
        994    1    1    2    0    0  0.17944045009E+02 -0.25496567426E+02  0.85256686076E+01  0.17422454112E+03  0.17120000000E+03 0.  0.
        998    1    1    2    0    0 -0.17594925461E+02  0.15185812623E+02  0.14840474697E+04  0.14842631447E+04  0.10000000000E+02 0.  1.
</event>
<event>
 5    1  0.1153629E-008  0.3838650E+03  0.7957747E-01  0.3434500E+00
         13   -1    0    0    0    0  0.00000000000E+00  0.00000000000E+00  0.14999999963E+04  0.15000000000E+04  0.10566000000E+00 0. -1.
        994   -1    0    0    0    0 -0.00000000000E+00 -0.00000000000E+00  0.11368683772E-12  0.17120000000E+03  0.17120000000E+03 0.  0.
         13    1    1    2    0    0 -0.11264386149E+01 -0.13340172427E+02  0.39195766158E+02  0.41419178083E+02  0.10566000000E+00 0. -1.
        994    1    1    2    0    0  0.34230209703E+01  0.14972066434E+02  0.29736689485E+01  0.17191324135E+03  0.17120000000E+03 0.  0.
        998    1    1    2    0    0 -0.22965823554E+01 -0.16318940069E+01  0.14578305612E+04  0.14578675806E+04  0.10000000000E+02 0. -1.
</event>
<event>
 5    1  0.1153629E-008  0.3748370E+03  0.7957747E-01  0.3473952E+00
         13   -1    0    0    0    0  0.00000000000E+00  0.00000000000E+00  0.14999999963E+04  0.15000000000E+04  0.10566000000E+00 0.  1.
        994   -1    0    0    0    0 -0.00000000000E+00 -0.00000000000E+00  0.11368683772E-12  0.17120000000E+03  0.17120000000E+03 0.  0.
         13    1    1    2    0    0  0.65062380359E+01  0.72945988537E+02  0.17600971352E+03  0.19063808327E+03  0.10566000000E+00 0.  1.
        994    1    1    2    0    0 -0.15480370728E+02 -0.66674061101E+02  0.30374602172E+02  0.18686125537E+03  0.17120000000E+03 0.  0.
        998    1    1    2    0    0  0.89741326923E+01 -0.62719274357E+01  0.12936156806E+04  0.12937006614E+04  0.10000000000E+02 0.  1.
</event>
<event>
 5    1  0.1153629E-008  0.3766094E+03  0.7957747E-01  0.3466056E+00
         13   -1    0    0    0    0  0.00000000000E+00  0.00000000000E+00  0.14999999963E+04  0.15000000000E+04  0.10566000000E+00 0. -1.
        994   -1    0    0    0    0 -0.00000000000E+00 -0.00000000000E+00  0.11368683772E-12  0.17120000000E+03  0.17120000000E+03 0.  0.
         13    1    1    2    0    0 -0.25099858510E+02  0.35719790633E+01  0.16844472328E+02  0.30438615995E+02  0.10566000000E+00 0. -1.
        994    1    1    2    0    0  0.20078657373E+01  0.34884004683E+02  0.18859417497E+02  0.17574425435E+03  0.17120000000E+03 0.  0.
        998    1    1    2    0    0  0.23091992773E+02 -0.38455983746E+02  0.14642961065E+04  0.14650171297E+04  0.10000000000E+02 0. -1.
</event>
<event>
 5    1  0.1153629E-008  0.3823924E+03  0.7957747E-01  0.3440807E+00
         13   -1    0    0    0    0  0.00000000000E+00  0.00000000000E+00  0.14999999963E+04  0.15000000000E+04  0.10566000000E+00 0. -1.
        994   -1    0    0    0    0 -0.00000000000E+00 -0.00000000000E+00  0.11368683772E-12  0.17120000000E+03  0.17120000000E+03 0.  0.
         13    1    1    2    0    0  0.18207860575E+02  0.13736800107E+02  0.84823153800E+02  0.87836236534E+02  0.10566000000E+00 0. -1.
        994    1    1    2    0    0 -0.13794338940E+02 -0.16020599887E+02  0.44141266410E+01  0.17255685417E+03  0.17120000000E+03 0.  0.
        998    1    1    2    0    0 -0.44135216357E+01  0.22837997799E+01  0.14107627158E+04  0.14108069093E+04  0.10000000000E+02 0. -1.
</event>
<event>
 5    1  0.1153629E-008  0.3762280E+03  0.7957747E-01  0.3467749E+00
         13   -1    0    0    0    0  0.00000000000E+00  0.00000000000E+00  0.14999999963E+04  0.15000000000E+04  0.10566000000E+00 0. -1.
        994   -1    0    0    0    0 -0.00000000000E+00 -0.00000000000E+00  0.11368683772E-12  0.17120000000E+03  0.17120000000E+03 0.  0.
         13    1    1    2    0    0 -0.15322504132E+02  0.63890803316E+01  0.20071073110E+02  0.26047238245E+02  0.10566000000E+00 0. -1.
        994    1    1    2    0    0  0.11912739167E+02 -0.81943501082E+01  0.67574818534E+01  0.17194232838E+03  0.17120000000E+03 0.  0.
        998    1    1    2    0    0  0.34097649651E+01  0.18052697766E+01  0.14731714413E+04  0.14732104334E+04  0.10000000000E+02 0. -1.
</event>
<event>
 5    1  0.1153629E-008  0.3809281E+03  0.7957747E-01  0.3447127E+00
         13   -1    0    0    0    0  0.00000000000E+00  0.00000000000E+00  0.14999999963E+04  0.15000000000E+04  0.10566000000E+00 0.  1.
        994   -1    0    0    0    0 -0.00000000000E+00 -0.00000000000E+00  0.11368683772E-12  0.17120000000E+03  0.17120000000E+03 0.  0.
         13    1    1    2    0    0 -0.12109010538E+02  0.10333654168E+02  0.33666652296E+02  0.37240665751E+02  0.10566000000E+00 0.  1.
        994    1    1    2    0    0  0.80590146460E+01 -0.27864155019E+00  0.38821379274E+01  0.17143376667E+03  0.17120000000E+03 0.  0.
        998    1    1    2    0    0  0.40499958917E+01 -0.10055012618E+02  0.14624512061E+04  0.14625255676E+04  0.10000000000E+02 0.  1.
</event>
<event>
 5    1  0.1153629E-008  0.3810963E+03  0.7957747E-01  0.3446399E+00
         13   -1    0    0    0    0  0.00000000000E+00  0.00000000000E+00  0.14999999963E+04  0.15000000000E+04  0.10566000000E+00 0.  1.
        994   -1    0    0    0    0 -0.00000000000E+00 -0.00000000000E+00  0.11368683772E-12  0.17120000000E+03  0.17120000000E+03 0.  0.
         13    1    1    2    0    0 -0.87680632314E+01 -0.13532174900E+02  0.34612662052E+02  0.38184371525E+02  0.10566000000E+00 0.  1.
        994    1    1    2    0    0  0.18095944974E+02  0.46723844458E+01  0.47450609550E+01  0.17228247155E+03  0.17120000000E+03 0.  0.
        998    1    1    2    0    0 -0.93278817422E+01  0.88597904547E+01  0.14606422733E+04  0.14607331569E+04  0.10000000000E+02 0.  1.
</event>
<event>
 5    1  0.1153629E-008  0.3819009E+03  0.7957747E-01  0.3442923E+00
         13   -1    0    0    0    0  0.00000000000E+00  0.00000000000E+00  0.14999999963E+04  0.15000000000E+04  0.10566000000E+00 0.  1.
        994   -1    0    0    0    0 -0.00000000000E+00 -0.00000000000E+00  0.11368683772E-12  0.17120000000E+03  0.17120000000E+03 0.  0.
         13    1    1    2    0    0 -0.15241738378E+02 -0.13651914108E+01  0.34605417436E+02  0.37838081563E+02  0.10566000000E+00 0.  1.
        994    1    1    2    0    0  0.17965501493E+02  0.14169970303E+02  0.49178473348E+01  0.17279228144E+03  0.17120000000E+03 0.  0.
        998    1    1    2    0    0 -0.27237631156E+01 -0.12804778892E+02  0.14604767315E+04  0.14605696370E+04  0.10000000000E+02 0.  1.
</event>
<event>
 5    1  0.1153629E-008  0.3847571E+03  0.7957747E-01  0.3430703E+00
         13   -1    0    0    0    0  0.00000000000E+00  0.00000000000E+00  0.14999999963E+04  0.15000000000E+04  0.10566000000E+00 0. -1.
        994   -1    0    0    0    0 -0.00000000000E+00 -0.00000000000E+00  0.11368683772E-12  0.17120000000E+03  0.17120000000E+03 0.  0.
         13    1    1    2    0    0  0.97611019795E+01 -0.52288338387E+01  0.34704750112E+02  0.36428706531E+02  0.10566000000E+00 0. -1.
        994    1    1    2    0    0 -0.56306569204E+01  0.58596960582E+01  0.19681525698E+01  0.17140406635E+03  0.17120000000E+03 0.  0.
        998    1    1    2    0    0 -0.41304450591E+01 -0.63086221953E+00  0.14633270936E+04  0.14633672271E+04  0.10000000000E+02 0. -1.
</event>
<event>
 5    1  0.1153629E-008  0.3853364E+03  0.7957747E-01  0.3428247E+00
         13   -1    0    0    0    0  0.00000000000E+00  0.00000000000E+00  0.14999999963E+04  0.15000000000E+04  0.10566000000E+00 0. -1.
        994   -1    0    0    0    0 -0.00000000000E+00 -0.00000000000E+00  0.11368683772E-12  0.17120000000E+03  0.17120000000E+03 0.  0.
         13    1    1    2    0    0 -0.10628012671E+02 -0.19665142254E+01  0.38500828294E+02  0.39989333264E+02  0.10566000000E+00 0. -1.
        994    1    1    2    0    0  0.17067334797E+02 -0.11812305896E+02  0.28797719074E+01  0.17247770167E+03  0.17120000000E+03 0.  0.
        998    1    1    2    0    0 -0.64393221263E+01  0.13778820122E+02  0.14586193961E+04  0.14587329651E+04  0.10000000000E+02 0. -1.
</event>
<event>
 5    1  0.1153629E-008  0.3850046E+03  0.7957747E-01  0.3429653E+00
         13   -1    0    0    0    0  0.00000000000E+00  0.00000000000E+00  0.14999999963E+04  0.15000000000E+04  0.10566000000E+00 0.  1.
        994   -1    0    0    0    0 -0.00000000000E+00 -0.00000000000E+00  0.11368683772E-12  0.17120000000E+03  0.17120000000E+03 0.  0.
         13    1    1    2    0    0  0.11639700123E+02 -0.76586711053E+01  0.57753270376E+02  0.59410346449E+02  0.10566000000E+00 0.  1.
        994    1    1    2    0    0 -0.53686640926E+01  0.18714671422E+02  0.28754357919E+01  0.17232750683E+03  0.17120000000E+03 0.  0.
        998    1    1    2    0    0 -0.62710360306E+01 -0.11056000317E+02  0.14393712901E+04  0.14394621467E+04  0.10000000000E+02 0.  1.
</event>
<event>
 5    1  0.1153629E-008  0.3810931E+03  0.7957747E-01  0.3446413E+00
         13   -1    0    0    0    0  0.00000000000E+00  0.00000000000E+00  0.14999999963E+04  0.15000000000E+04  0.10566000000E+00 0. -1.
        994   -1    0    0    0    0 -0.00000000000E+00 -0.00000000000E+00  0.11368683772E-12  0.17120000000E+03  0.17120000000E+03 0.  0.
         13    1    1    2    0    0 -0.91466739536E+01 -0.19471738352E+02  0.60260809680E+02  0.63985831136E+02  0.10566000000E+00 0. -1.
        994    1    1    2    0    0  0.42446274271E+01  0.26080893515E+02  0.59115602955E+01  0.17332806009E+03  0.17120000000E+03 0.  0.
        998    1    1    2    0    0  0.49020465265E+01 -0.66091551635E+01  0.14338276263E+04  0.14338861088E+04  0.10000000000E+02 0. -1.
</event>
<event>
 5    1  0.1153629E-008  0.3797103E+03  0.7957747E-01  0.3452421E+00
         13   -1    0    0    0    0  0.00000000000E+00  0.00000000000E+00  0.14999999963E+04  0.15000000000E+04  0.10566000000E+00 0.  1.
        994   -1    0    0    0    0 -0.00000000000E+00 -0.00000000000E+00  0.11368683772E-12  0.17120000000E+03  0.17120000000E+03 0.  0.
         13    1    1    2    0    0  0.32662834751E+02  0.13769230139E+02  0.14233867358E+03  0.14668592854E+03  0.10566000000E+00 0.  1.
        994    1    1    2    0    0 -0.19076354111E+02 -0.17680677231E+02  0.65464532957E+01  0.17328822719E+03  0.17120000000E+03 0.  0.
        998    1    1    2    0    0 -0.13586480639E+02  0.39114470919E+01  0.13511148694E+04  0.13512258443E+04  0.10000000000E+02 0.  1.
</event>
<event>
 5    1  0.1153629E-008  0.3855575E+03  0.7957747E-01  0.3427311E+00
         13   -1    0    0    0    0  0.00000000000E+00  0.00000000000E+00  0.14999999963E+04  0.15000000000E+04  0.10566000000E+00 0.  1.
        994   -1    0    0    0    0 -0.00000000000E+00 -0.00000000000E+00  0.11368683772E-12  0.17120000000E+03  0.17120000000E+03 0.  0.
         13    1    1    2    0    0  0.97904530854E+01  0.30705955143E+01  0.38748575019E+02  0.40084220817E+02  0.10566000000E+00 0.  1.
        994    1    1    2    0    0 -0.10564276193E+02  0.58219894221E+01  0.18313833959E+01  0.17163418499E+03  0.17120000000E+03 0.  0.
        998    1    1    2    0    0  0.77382310773E+00 -0.88925849364E+01  0.14594200379E+04  0.14594815942E+04  0.10000000000E+02 0.  1.
</event>
<event>
 5    1  0.1153629E-008  0.3838289E+03  0.7957747E-01  0.3434654E+00
         13   -1    0    0    0    0  0.00000000000E+00  0.00000000000E+00  0.14999999963E+04  0.15000000000E+04  0.10566000000E+00 0.  1.
        994   -1    0    0    0    0 -0.00000000000E+00 -0.00000000000E+00  0.11368683772E-12  0.17120000000E+03  0.17120000000E+03 0.  0.
         13    1    1    2    0    0  0.20238670193E+02 -0.14267682136E+02  0.12866866369E+03  0.13102979320E+03  0.10566000000E+00 0.  1.
        994    1    1    2    0    0 -0.13608783777E+02  0.23153093096E+02  0.45973362582E+01  0.17335466598E+03  0.17120000000E+03 0.  0.
        998    1    1    2    0    0 -0.66298864161E+01 -0.88854109604E+01  0.13667339963E+04  0.13668155408E+04  0.10000000000E+02 0.  1.
</event>
<event>
 5    1  0.1153629E-008  0.3772649E+03  0.7957747E-01  0.3463155E+00
         13   -1    0    0    0    0  0.00000000000E+00  0.00000000000E+00  0.14999999963E+04  0.15000000000E+04  0.10566000000E+00 0. -1.
        994   -1    0    0    0    0 -0.00000000000E+00 -0.00000000000E+00  0.11368683772E-12  0.17120000000E+03  0.17120000000E+03 0.  0.
         13    1    1    2    0    0  0.16692726555E+02  0.10633652161E+01  0.23185064814E+02  0.28589093373E+02  0.10566000000E+00 0. -1.
        994    1    1    2    0    0 -0.89031012598E+01 -0.51374601694E+00  0.57885530945E+01  0.17152981226E+03  0.17120000000E+03 0.  0.
        998    1    1    2    0    0 -0.77896252950E+01 -0.54961919915E+00  0.14710263784E+04  0.14710810944E+04  0.10000000000E+02 0. -1.
</event>
<event>
 5    1  0.1153629E-008  0.3831777E+03  0.7957747E-01  0.3437438E+00
         13   -1    0    0    0    0  0.00000000000E+00  0.00000000000E+00  0.14999999963E+04  0.15000000000E+04  0.10566000000E+00 0. -1.
        994   -1    0    0    0    0 -0.00000000000E+00 -0.00000000000E+00  0.11368683772E-12  0.17120000000E+03  0.17120000000E+03 0.  0.
         13    1    1    2    0    0 -0.58554414454E+01 -0.11911747955E+02  0.33913928989E+02  0.36418974140E+02  0.10566000000E+00 0. -1.
        994    1    1    2    0    0  0.29929204421E+01  0.84603382231E+01  0.28040571633E+01  0.17145797629E+03  0.17120000000E+03 0.  0.
        998    1    1    2    0    0  0.28625210033E+01  0.34514097319E+01  0.14632820101E+04  0.14633230496E+04  0.10000000000E+02 0. -1.
</event>
<event>
 5    1  0.1153629E-008  0.3826647E+03  0.7957747E-01  0.3439637E+00
         13   -1    0    0    0    0  0.00000000000E+00  0.00000000000E+00  0.14999999963E+04  0.15000000000E+04  0.10566000000E+00 0. -1.
        994   -1    0    0    0    0 -0.00000000000E+00 -0.00000000000E+00  0.11368683772E-12  0.17120000000E+03  0.17120000000E+03 0.  0.
         13    1    1    2    0    0  0.67018707591E+01 -0.12250938506E+02  0.33124851837E+02  0.35948122888E+02  0.10566000000E+00 0. -1.
        994    1    1    2    0    0 -0.98702576343E+01  0.12921470508E+02  0.36706145959E+01  0.17200959217E+03  0.17120000000E+03 0.  0.
        998    1    1    2    0    0  0.31683868752E+01 -0.67053200216E+00  0.14632045298E+04  0.14632422849E+04  0.10000000000E+02 0. -1.
</event>
<event>
 5    1  0.1153629E-008  0.3854855E+03  0.7957747E-01  0.3427616E+00
         13   -1    0    0    0    0  0.00000000000E+00  0.00000000000E+00  0.14999999963E+04  0.15000000000E+04  0.10566000000E+00 0. -1.
        994   -1    0    0    0    0 -0.00000000000E+00 -0.00000000000E+00  0.11368683772E-12  0.17120000000E+03  0.17120000000E+03 0.  0.
         13    1    1    2    0    0 -0.10672718871E+02  0.91010784513E+01  0.65937861885E+02  0.67413272811E+02  0.10566000000E+00 0. -1.
        994    1    1    2    0    0  0.84151058526E+01 -0.21959517020E+02  0.32072891158E+01  0.17283738339E+03  0.17120000000E+03 0.  0.
        998    1    1    2    0    0  0.22576130180E+01  0.12858438568E+02  0.14308548453E+04  0.14309493438E+04  0.10000000000E+02 0. -1.
</event>
<event>
 5    1  0.1153629E-008  0.3843877E+03  0.7957747E-01  0.3432273E+00
         13   -1    0    0    0    0  0.00000000000E+00  0.00000000000E+00  0.14999999963E+04  0.15000000000E+04  0.10566000000E+00 0.  1.
        994   -1    0    0    0    0 -0.00000000000E+00 -0.00000000000E+00  0.11368683772E-12  0.17120000000E+03  0.17120000000E+03 0.  0.
         13    1    1    2    0    0 -0.11024709258E+02 -0.14320595304E+02  0.85351664623E+02  0.87244148698E+02  0.10566000000E+00 0.  1.
        994    1    1    2    0    0  0.37322822576E+01  0.91176212094E+01  0.22543445956E+01  0.17149805543E+03  0.17120000000E+03 0.  0.
        998    1    1    2    0    0  0.72924270005E+01  0.52029740943E+01  0.14123939871E+04  0.14124577959E+04  0.10000000000E+02 0.  1.
</event>
<event>
 5    1  0.1153629E-008  0.3837471E+03  0.7957747E-01  0.3435003E+00
         13   -1    0    0    0    0  0.00000000000E+00  0.00000000000E+00  0.14999999963E+04  0.15000000000E+04  0.10566000000E+00 0.  1.
        994   -1    0    0    0    0 -0.00000000000E+00 -0.00000000000E+00  0.11368683772E-12  0.17120000000E+03  0.17120000000E+03 0.  0.
         13    1    1    2    0    0  0.19961590936E+02  0.10335378386E+02  0.95861114189E+02  0.98461411409E+02  0.10566000000E+00 0.  1.
        994    1    1    2    0    0 -0.39702863289E+02 -0.55082835979E+01  0.75768724210E+01  0.17599291900E+03  0.17120000000E+03 0.  0.
        998    1    1    2    0    0  0.19741272353E+02 -0.48270947881E+01  0.13965620097E+04  0.13967456696E+04  0.10000000000E+02 0.  1.
</event>
<event>
 5    1  0.1153629E-008  0.3724671E+03  0.7957747E-01  0.3484629E+00
         13   -1    0    0    0    0  0.00000000000E+00  0.00000000000E+00  0.14999999963E+04  0.15000000000E+04  0.10566000000E+00 0. -1.
        994   -1    0    0    0    0 -0.00000000000E+00 -0.00000000000E+00  0.11368683772E-12  0.17120000000E+03  0.17120000000E+03 0.  0.
         13    1    1    2    0    0  0.97002888357E+02 -0.65047314320E+02  0.39664138913E+03  0.41347928144E+03  0.10566000000E+00 0. -1.
        994    1    1    2    0    0 -0.89602684145E+02  0.75863019744E+02  0.62587384565E+02  0.21681895553E+03  0.17120000000E+03 0.  0.
        998    1    1    2    0    0 -0.74002042119E+01 -0.10815705424E+02  0.10407712226E+04  0.10409017630E+04  0.10000000000E+02 0. -1.
</event>
<event>
 5    1  0.2306616E-008  0.3857848E+03  0.7957747E-01  0.3426350E+00
         13   -1    0    0    0    0  0.00000000000E+00  0.00000000000E+00  0.14999999963E+04  0.15000000000E+04  0.10566000000E+00 0. -1.
        994   -1    0    0    0    0 -0.00000000000E+00 -0.00000000000E+00  0.11368683772E-12  0.17120000000E+03  0.17120000000E+03 0.  0.
         13    1    1    2    0    0  0.39126135793E+00  0.13371175926E+02  0.74443821963E+02  0.75636203128E+02  0.10566000000E+00 0. -1.
        994    1    1    2    0    0  0.20226272244E+00 -0.57918035089E+01  0.13511657524E+01  0.17130339035E+03  0.17120000000E+03 0.  0.
        998    1    1    2    0    0 -0.59352408036E+00 -0.75793724170E+01  0.14242050086E+04  0.14242604065E+04  0.10000000000E+02 0. -1.
</event>
<event>
 5    1  0.1798925E-008  0.3862228E+03  0.7957747E-01  0.3424503E+00
         13   -1    0    0    0    0  0.00000000000E+00  0.00000000000E+00  0.14999999963E+04  0.15000000000E+04  0.10566000000E+00 0. -1.
        994   -1    0    0    0    0 -0.00000000000E+00 -0.00000000000E+00  0.11368683772E-12  0.17120000000E+03  0.17120000000E+03 0.  0.
         13    1    1    2    0    0 -0.30423225019E+01  0.11152947612E+02  0.66455532690E+02  0.67453635601E+02  0.10566000000E+00 0. -1.
        994    1    1    2    0    0  0.28163553276E+01 -0.68340033251E+01  0.12032520931E+01  0.17136371633E+03  0.17120000000E+03 0.  0.
        998    1    1    2    0    0  0.22596717430E+00 -0.43189442870E+01  0.14323412115E+04  0.14323826481E+04  0.10000000000E+02 0. -1.
</event>
<event>
 5    1  0.1202229E-008  0.3845429E+03  0.7957747E-01  0.3431613E+00
         13   -1    0    0    0    0  0.00000000000E+00  0.00000000000E+00  0.14999999963E+04  0.15000000000E+04  0.10566000000E+00 0.  1.
        994   -1    0    0    0    0 -0.00000000000E+00 -0.00000000000E+00  0.11368683772E-12  0.17120000000E+03  0.17120000000E+03 0.  0.
         13    1    1    2    0    0 -0.86883823789E+01  0.98406948717E+01  0.46817217606E+02  0.48622939980E+02  0.10566000000E+00 0.  1.
        994    1    1    2    0    0  0.30332410607E+01 -0.50780813410E+01  0.19725140335E+01  0.17131350873E+03  0.17120000000E+03 0.  0.
        998    1    1    2    0    0  0.56551413182E+01 -0.47626135307E+01  0.14512102646E+04  0.14512635513E+04  0.10000000000E+02 0.  1.
</event>
<event>
 5    1  0.1153629E-008  0.3826108E+03  0.7957747E-01  0.3439869E+00
         13   -1    0    0    0    0  0.00000000000E+00  0.00000000000E+00  0.14999999963E+04  0.15000000000E+04  0.10566000000E+00 0. -1.
        994   -1    0    0    0    0 -0.00000000000E+00 -0.00000000000E+00  0.11368683772E-12  0.17120000000E+03  0.17120000000E+03 0.  0.
         13    1    1    2    0    0  0.14046623499E+02 -0.29604595547E+02  0.15865996233E+03  0.16200843966E+03  0.10566000000E+00 0. -1.
        994    1    1    2    0    0 -0.21222109927E+02  0.37401494970E+02  0.89743612560E+01  0.17674622750E+03  0.17120000000E+03 0.  0.
        998    1    1    2    0    0  0.71754864280E+01 -0.77968994222E+01  0.13323656727E+04  0.13324453328E+04  0.10000000000E+02 0. -1.
</event>
<event>
 5    1  0.1153629E-008  0.3824956E+03  0.7957747E-01  0.3440364E+00
         13   -1    0    0    0    0  0.00000000000E+00  0.00000000000E+00  0.14999999963E+04  0.15000000000E+04  0.10566000000E+00 0. -1.
        994   -1    0    0    0    0 -0.00000000000E+00 -0.00000000000E+00  0.11368683772E-12  0.17120000000E+03  0.17120000000E+03 0.  0.
         13    1    1    2    0    0  0.15930254350E+02  0.22462277605E+02  0.15188764449E+03  0.15436383849E+03  0.10566000000E+00 0. -1.
        994    1    1    2    0    0 -0.21535971547E+01  0.50197855125E+01  0.29775884587E+01  0.17131299501E+03  0.17120000000E+03 0.  0.
        998    1    1    2    0    0 -0.13776657195E+02 -0.27482063118E+02  0.13451347633E+04  0.13455231665E+04  0.10000000000E+02 0. -1.
</event>
<event>
 5    1  0.1153629E-008  0.3731732E+03  0.7957747E-01  0.3481433E+00
         13   -1    0    0    0    0  0.00000000000E+00  0.00000000000E+00  0.14999999963E+04  0.15000000000E+04  0.10566000000E+00 0.  1.
        994   -1    0    0    0    0 -0.00000000000E+00 -0.00000000000E+00  0.11368683772E-12  0.17120000000E+03  0.17120000000E+03 0.  0.
         13    1    1    2    0    0 -0.29672214551E+02 -0.51008326495E+02  0.19173019548E+03  0.20060600368E+03  0.10566000000E+00 0.  1.
        994    1    1    2    0    0  0.40917526518E+02  0.51021658451E+02  0.22394293343E+02  0.18463043623E+03  0.17120000000E+03 0.  0.
        998    1    1    2    0    0 -0.11245311968E+02 -0.13331955612E-01  0.12858755075E+04  0.12859635601E+04  0.10000000000E+02 0.  1.
</event>
<event>
 5    1  0.1153629E-008  0.3835107E+03  0.7957747E-01  0.3436013E+00
         13   -1    0    0    0    0  0.00000000000E+00  0.00000000000E+00  0.14999999963E+04  0.15000000000E+04  0.10566000000E+00 0. -1.
        994   -1    0    0    0    0 -0.00000000000E+00 -0.00000000000E+00  0.11368683772E-12  0.17120000000E+03  0.17120000000E+03 0.  0.
         13    1    1    2    0    0 -0.15534814417E+02 -0.74091559354E+01  0.64329982893E+02  0.66592671621E+02  0.10566000000E+00 0. -1.
        994    1    1    2    0    0  0.77052094966E+01 -0.70450456830E+01  0.27316693177E+01  0.17153980570E+03  0.17120000000E+03 0.  0.
        998    1    1    2    0    0  0.78296049209E+01  0.14454201618E+02  0.14329383441E+04  0.14330675227E+04  0.10000000000E+02 0. -1.
</event>
<event>
 5    1  0.1153629E-008  0.3804031E+03  0.7957747E-01  0.3449405E+00
         13   -1    0    0    0    0  0.00000000000E+00  0.00000000000E+00  0.14999999963E+04  0.15000000000E+04  0.10566000000E+00 0. -1.
        994   -1    0    0    0    0 -0.00000000000E+00 -0.00000000000E+00  0.11368683772E-12  0.17120000000E+03  0.17120000000E+03 0.  0.
         13    1    1    2    0    0  0.28438664970E+02 -0.10621486257E+02  0.13478419170E+03  0.13816064248E+03  0.10566000000E+00 0. -1.
        994    1    1    2    0    0 -0.13316509071E+01 -0.19353397991E+02  0.51871676871E+01  0.17237364653E+03  0.17120000000E+03 0.  0.
        998    1    1    2    0    0 -0.27107014063E+02  0.29974884248E+02  0.13600286369E+04  0.13606657110E+04  0.10000000000E+02 0. -1.
</event>
<event>
 5    1  0.1153629E-008  0.3787881E+03  0.7957747E-01  0.3456452E+00
         13   -1    0    0    0    0  0.00000000000E+00  0.00000000000E+00  0.14999999963E+04  0.15000000000E+04  0.10566000000E+00 0.  1.
        994   -1    0    0    0    0 -0.00000000000E+00 -0.00000000000E+00  0.11368683772E-12  0.17120000000E+03  0.17120000000E+03 0.  0.
         13    1    1    2    0    0  0.30595810369E+02 -0.93226430550E+01  0.10493640295E+03  0.10970266685E+03  0.10566000000E+00 0.  1.
        994    1    1    2    0    0 -0.17971953262E+02  0.15358000329E+02  0.66241505353E+01  0.17295137654E+03  0.17120000000E+03 0.  0.
        998    1    1    2    0    0 -0.12623857106E+02 -0.60353572739E+01  0.13884394428E+04  0.13885459566E+04  0.10000000000E+02 0.  1.
</event>
<event>
 5    1  0.1153629E-008  0.3774182E+03  0.7957747E-01  0.3462478E+00
         13   -1    0    0    0    0  0.00000000000E+00  0.00000000000E+00  0.14999999963E+04  0.15000000000E+04  0.10566000000E+00 0.  1.
        994   -1    0    0    0    0 -0.00000000000E+00 -0.00000000000E+00  0.11368683772E-12  0.17120000000E+03  0.17120000000E+03 0.  0.
         13    1    1    2    0    0  0.50674358151E+01 -0.28984685117E+02  0.76930518760E+02  0.82365689202E+02  0.10566000000E+00 0.  1.
        994    1    1    2    0    0 -0.41535526934E+01  0.19966990253E+02  0.68458102988E+01  0.17254633528E+03  0.17120000000E+03 0.  0.
        998    1    1    2    0    0 -0.91388312171E+00  0.90176948639E+01  0.14162236672E+04  0.14162879755E+04  0.10000000000E+02 0.  1.
</event>
<event>
 5    1  0.1153629E-008  0.3792882E+03  0.7957747E-01  0.3454264E+00
         13   -1    0    0    0    0  0.00000000000E+00  0.00000000000E+00  0.14999999963E+04  0.15000000000E+04  0.10566000000E+00 0. -1.
        994   -1    0    0    0    0 -0.00000000000E+00 -0.00000000000E+00  0.11368683772E-12  0.17120000000E+03  0.17120000000E+03 0.  0.
         13    1    1    2    0    0  0.17982893224E+02 -0.58982712598E+01  0.38682275080E+02  0.43063948054E+02  0.10566000000E+00 0. -1.
        994    1    1    2    0    0 -0.61786346980E+01  0.70955829423E+01  0.47895446006E+01  0.17152522427E+03  0.17120000000E+03 0.  0.
        998    1    1    2    0    0 -0.11804258526E+02 -0.11973116826E+01  0.14565281766E+04  0.14566108277E+04  0.10000000000E+02 0. -1.
</event>
<event>
 5    1  0.1153629E-008  0.3780951E+03  0.7957747E-01  0.3459495E+00
         13   -1    0    0    0    0  0.00000000000E+00  0.00000000000E+00  0.14999999963E+04  0.15000000000E+04  0.10566000000E+00 0.  1.
        994   -1    0    0    0    0 -0.00000000000E+00 -0.00000000000E+00  0.11368683772E-12  0.17120000000E+03  0.17120000000E+03 0.  0.
         13    1    1    2    0    0 -0.22774058878E+02  0.10027751316E+02  0.75064785466E+02  0.79081898910E+02  0.10566000000E+00 0.  1.
        994    1    1    2    0    0 -0.40104044298E+02  0.12942628697E+02  0.11095313547E+02  0.17665897087E+03  0.17120000000E+03 0.  0.
        998    1    1    2    0    0  0.62878103175E+02 -0.22970380013E+02  0.14138398973E+04  0.14154591302E+04  0.10000000000E+02 0.  1.
</event>
<event>
 5    1  0.1153629E-008  0.3822826E+03  0.7957747E-01  0.3441279E+00
         13   -1    0    0    0    0  0.00000000000E+00  0.00000000000E+00  0.14999999963E+04  0.15000000000E+04  0.10566000000E+00 0.  1.
        994   -1    0    0    0    0 -0.00000000000E+00 -0.00000000000E+00  0.11368683772E-12  0.17120000000E+03  0.17120000000E+03 0.  0.
         13    1    1    2    0    0  0.19623879257E+02  0.12741486958E+00  0.62004962742E+02  0.65036447014E+02  0.10566000000E+00 0.  1.
        994    1    1    2    0    0 -0.17858030049E+02  0.27267298024E+01  0.40688242293E+01  0.17219854710E+03  0.17120000000E+03 0.  0.
        998    1    1    2    0    0 -0.17658492087E+01 -0.28541446720E+01  0.14339262093E+04  0.14339650059E+04  0.10000000000E+02 0.  1.
</event>
<event>
 5    1  0.1153629E-008  0.3828611E+03  0.7957747E-01  0.3438794E+00
         13   -1    0    0    0    0  0.00000000000E+00  0.00000000000E+00  0.14999999963E+04  0.15000000000E+04  0.10566000000E+00 0. -1.
        994   -1    0    0    0    0 -0.00000000000E+00 -0.00000000000E+00  0.11368683772E-12  0.17120000000E+03  0.17120000000E+03 0.  0.
         13    1    1    2    0    0 -0.21039480104E+02  0.16952337990E+01  0.77094185509E+02  0.79931584146E+02  0.10566000000E+00 0. -1.
        994    1    1    2    0    0  0.24207505416E+02 -0.30930543464E+01  0.46705895554E+01  0.17299371292E+03  0.17120000000E+03 0.  0.
        998    1    1    2    0    0 -0.31680253119E+01  0.13978205474E+01  0.14182352212E+04  0.14182747029E+04  0.10000000000E+02 0. -1.
</event>
<event>
 5    1  0.1153629E-008  0.4032842E+03  0.7957747E-01  0.3355645E+00
         13   -1    0    0    0    0  0.00000000000E+00  0.00000000000E+00  0.14999999963E+04  0.15000000000E+04  0.10566000000E+00 0. -1.
        994   -1    0    0    0    0 -0.00000000000E+00 -0.00000000000E+00  0.11368683772E-12  0.17120000000E+03  0.17120000000E+03 0.  0.
         13    1    1    2    0    0 -0.10725251690E+03 -0.58677112865E+02  0.25053959648E+03  0.27877626607E+03  0.10566000000E+00 0. -1.
        994    1    1    2    0    0  0.96827164242E+02 -0.26854914361E+02  0.71075262554E+02  0.21085022909E+03  0.17120000000E+03 0.  0.
        998    1    1    2    0    0  0.10425352655E+02  0.85532027226E+02  0.11783851372E+04  0.11815735048E+04  0.10000000000E+02 0. -1.
</event>
<event>
 5    1  0.1153629E-008  0.3764917E+03  0.7957747E-01  0.3466578E+00
         13   -1    0    0    0    0  0.00000000000E+00  0.00000000000E+00  0.14999999963E+04  0.15000000000E+04  0.10566000000E+00 0. -1.
        994   -1    0    0    0    0 -0.00000000000E+00 -0.00000000000E+00  0.11368683772E-12  0.17120000000E+03  0.17120000000E+03 0.  0.
         13    1    1    2    0    0 -0.79534268810E+02 -0.17674512294E+01  0.29151511965E+03  0.30217528018E+03  0.10566000000E+00 0. -1.
        994    1    1    2    0    0  0.12992872488E+03 -0.25885407253E+02  0.67792178803E+02  0.22684079740E+03  0.17120000000E+03 0.  0.
        998    1    1    2    0    0 -0.50394456068E+02  0.27652858482E+02  0.11406926978E+04  0.11421839224E+04  0.10000000000E+02 0. -1.
</event>
<event>
 5    1  0.1153629E-008  0.3840614E+03  0.7957747E-01  0.3433663E+00
         13   -1    0    0    0    0  0.00000000000E+00  0.00000000000E+00  0.14999999963E+04  0.15000000000E+04  0.10566000000E+00 0. -1.
        994   -1    0    0    0    0 -0.00000000000E+00 -0.00000000000E+00  0.11368683772E-12  0.17120000000E+03  0.17120000000E+03 0.  0.
         13    1    1    2    0    0  0.11058810824E+02 -0.18124560450E+02  0.10310899201E+03  0.10527237238E+03  0.10566000000E+00 0. -1.
        994    1    1    2    0    0  0.54533993329E+01  0.25713463904E+02  0.43793328472E+01  0.17326147970E+03  0.17120000000E+03 0.  0.
        998    1    1    2    0    0 -0.16512210157E+02 -0.75889034536E+01  0.13925116714E+04  0.13926661479E+04  0.10000000000E+02 0. -1.
</event>
<event>
 5    1  0.1153629E-008  0.3860404E+03  0.7957747E-01  0.3425272E+00
         13   -1    0    0    0    0  0.00000000000E+00  0.00000000000E+00  0.14999999963E+04  0.15000000000E+04  0.10566000000E+00 0.  1.
        994   -1    0    0    0    0 -0.00000000000E+00 -0.00000000000E+00  0.11368683772E-12  0.17120000000E+03  0.17120000000E+03 0.  0.
         13    1    1    2    0    0 -0.10890929489E+02 -0.16677618089E+01  0.54596722216E+02  0.55697459685E+02  0.10566000000E+00 0.  1.
        994    1    1    2    0    0  0.90255204686E+01 -0.60024624633E+00  0.13827153957E+01  0.17144437062E+03  0.17120000000E+03 0.  0.
        998    1    1    2    0    0  0.18654090208E+01  0.22680080553E+01  0.14440205587E+04  0.14440581697E+04  0.10000000000E+02 0.  1.
</event>
<event>
 5    1  0.1153629E-008  0.3841314E+03  0.7957747E-01  0.3433365E+00
         13   -1    0    0    0    0  0.00000000000E+00  0.00000000000E+00  0.14999999963E+04  0.15000000000E+04  0.10566000000E+00 0. -1.
        994   -1    0    0    0    0 -0.00000000000E+00 -0.00000000000E+00  0.11368683772E-12  0.17120000000E+03  0.17120000000E+03 0.  0.
         13    1    1    2    0    0 -0.69774585409E+01  0.17136170043E+02  0.82946954749E+02  0.84985538285E+02  0.10566000000E+00 0. -1.
        994    1    1    2    0    0  0.60705611536E+00 -0.11932123205E+02  0.25329212824E+01  0.17163507733E+03  0.17120000000E+03 0.  0.
        998    1    1    2    0    0  0.63704024255E+01 -0.52040468384E+01  0.14145201202E+04  0.14145793844E+04  0.10000000000E+02 0. -1.
</event>
<event>
 5    1  0.1153629E-008  0.3824286E+03  0.7957747E-01  0.3440651E+00
         13   -1    0    0    0    0  0.00000000000E+00  0.00000000000E+00  0.14999999963E+04  0.15000000000E+04  0.10566000000E+00 0. -1.
        994   -1    0    0    0    0 -0.00000000000E+00 -0.00000000000E+00  0.11368683772E-12  0.17120000000E+03  0.17120000000E+03 0.  0.
         13    1    1    2    0    0 -0.21119802280E+02 -0.91090151650E+01  0.85394045765E+02  0.88437403975E+02  0.10566000000E+00 0. -1.
        994    1    1    2    0    0  0.22839912353E+02  0.69863336298E+01  0.48063393763E+01  0.17292487199E+03  0.17120000000E+03 0.  0.
        998    1    1    2    0    0 -0.17201100734E+01  0.21226815351E+01  0.14097996111E+04  0.14098377240E+04  0.10000000000E+02 0.  0.
</event>
<event>
 5    1  0.1153629E-008  0.3783698E+03  0.7957747E-01  0.3458287E+00
         13   -1    0    0    0    0  0.00000000000E+00  0.00000000000E+00  0.14999999963E+04  0.15000000000E+04  0.10566000000E+00 0. -1.
        994   -1    0    0    0    0 -0.00000000000E+00 -0.00000000000E+00  0.11368683772E-12  0.17120000000E+03  0.17120000000E+03 0.  0.
         13    1    1    2    0    0 -0.24949608067E+02  0.41105089815E+02  0.19341690101E+03  0.19930434042E+03  0.10566000000E+00 0. -1.
        994    1    1    2    0    0  0.26361495667E+02 -0.48688996522E+02  0.15331725359E+02  0.18058252584E+03  0.17120000000E+03 0.  0.
        998    1    1    2    0    0 -0.14118876003E+01  0.75839067069E+01  0.12912513699E+04  0.12913131337E+04  0.10000000000E+02 0. -1.
</event>
<event>
 5    1  0.1153629E-008  0.3801767E+03  0.7957747E-01  0.3450390E+00
         13   -1    0    0    0    0  0.00000000000E+00  0.00000000000E+00  0.14999999963E+04  0.15000000000E+04  0.10566000000E+00 0.  1.
        994   -1    0    0    0    0 -0.00000000000E+00 -0.00000000000E+00  0.11368683772E-12  0.17120000000E+03  0.17120000000E+03 0.  0.
         13    1    1    2    0    0 -0.18441303360E+02  0.43958727042E+01  0.43489954989E+02  0.47442520121E+02  0.10566000000E+00 0.  1.
        994    1    1    2    0    0  0.10281664178E+02  0.52189772340E+01  0.44882945587E+01  0.17164654127E+03  0.17120000000E+03 0.  0.
        998    1    1    2    0    0  0.81596391814E+01 -0.96148499382E+01  0.14520217467E+04  0.14521109386E+04  0.10000000000E+02 0.  1.
</event>
<event>
 5    1  0.1153629E-008  0.3844126E+03  0.7957747E-01  0.3432167E+00
         13   -1    0    0    0    0  0.00000000000E+00  0.00000000000E+00  0.14999999963E+04  0.15000000000E+04  0.10566000000E+00 0. -1.
        994   -1    0    0    0    0 -0.00000000000E+00 -0.00000000000E+00  0.11368683772E-12  0.17120000000E+03  0.17120000000E+03 0.  0.
         13    1    1    2    0    0  0.13322190468E+02  0.84765604031E+01  0.76397406354E+02  0.78012227868E+02  0.10566000000E+00 0. -1.
        994    1    1    2    0    0  0.25358305204E+02 -0.12737823644E+02  0.45799287672E+01  0.17359640417E+03  0.17120000000E+03 0.  0.
        998    1    1    2    0    0 -0.38680495673E+02  0.42612632405E+01  0.14190226612E+04  0.14195913680E+04  0.10000000000E+02 0. -1.
</event>
<event>
 5    1  0.1153629E-008  0.3718403E+03  0.7957747E-01  0.3487476E+00
         13   -1    0    0    0    0  0.00000000000E+00  0.00000000000E+00  0.14999999963E+04  0.15000000000E+04  0.10566000000E+00 0. -1.
        994   -1    0    0    0    0 -0.00000000000E+00 -0.00000000000E+00  0.11368683772E-12  0.17120000000E+03  0.17120000000E+03 0.  0.
         13    1    1    2    0    0 -0.26833461127E+02 -0.72308347710E+02  0.21134160722E+03  0.22497514949E+03  0.10566000000E+00 0. -1.
        994    1    1    2    0    0  0.34783534124E+02  0.69333168128E+02  0.33399882437E+02  0.19089781192E+03  0.17120000000E+03 0.  0.
        998    1    1    2    0    0 -0.79500729972E+01  0.29751795821E+01  0.12552585066E+04  0.12553270386E+04  0.10000000000E+02 0. -1.
</event>
<event>
 5    1  0.1153629E-008  0.3722084E+03  0.7957747E-01  0.3485803E+00
         13   -1    0    0    0    0  0.00000000000E+00  0.00000000000E+00  0.14999999963E+04  0.15000000000E+04  0.10566000000E+00 0. -1.
        994   -1    0    0    0    0 -0.00000000000E+00 -0.00000000000E+00  0.11368683772E-12  0.17120000000E+03  0.17120000000E+03 0.  0.
         13    1    1    2    0    0 -0.20346489497E+02  0.12770626262E+02  0.31949146029E+02  0.39972836102E+02  0.10566000000E+00 0. -1.
        994    1    1    2    0    0  0.15943440196E+02 -0.11759372073E+02  0.94672349618E+01  0.17260227303E+03  0.17120000000E+03 0.  0.
        998    1    1    2    0    0  0.44030493015E+01 -0.10112541896E+01  0.14585836153E+04  0.14586248909E+04  0.10000000000E+02 0. -1.
</event>
<event>
 5    1  0.1153629E-008  0.3810147E+03  0.7957747E-01  0.3446752E+00
         13   -1    0    0    0    0  0.00000000000E+00  0.00000000000E+00  0.14999999963E+04  0.15000000000E+04  0.10566000000E+00 0.  1.
        994   -1    0    0    0    0 -0.00000000000E+00 -0.00000000000E+00  0.11368683772E-12  0.17120000000E+03  0.17120000000E+03 0.  0.
         13    1    1    2    0    0  0.21571382953E+02 -0.28548497785E+01  0.70062540293E+02  0.73363788384E+02  0.10566000000E+00 0.  1.
        994    1    1    2    0    0  0.69195333768E+01  0.12728689082E+02  0.43214298932E+01  0.17186626843E+03  0.17120000000E+03 0.  0.
        998    1    1    2    0    0 -0.28490916330E+02 -0.98738393030E+01  0.14256160261E+04  0.14259699432E+04  0.10000000000E+02 0.  1.
</event>
<event>
 5    1  0.1153629E-008  0.3855835E+03  0.7957747E-01  0.3427201E+00
         13   -1    0    0    0    0  0.00000000000E+00  0.00000000000E+00  0.14999999963E+04  0.15000000000E+04  0.10566000000E+00 0. -1.
        994   -1    0    0    0    0 -0.00000000000E+00 -0.00000000000E+00  0.11368683772E-12  0.17120000000E+03  0.17120000000E+03 0.  0.
         13    1    1    2    0    0  0.12630128108E+02 -0.10498527224E+01  0.59462921017E+02  0.60798622243E+02  0.10566000000E+00 0. -1.
        994    1    1    2    0    0 -0.11265197811E+02 -0.81273387403E+01  0.19743418194E+01  0.17177396876E+03  0.17120000000E+03 0.  0.
        998    1    1    2    0    0 -0.13649302969E+01  0.91771914627E+01  0.14385627334E+04  0.14386274090E+04  0.10000000000E+02 0. -1.
</event>
<event>
 5    1  0.1153629E-008  0.3001195E+03  0.7957747E-01  0.3895166E+00
         13   -1    0    0    0    0  0.00000000000E+00  0.00000000000E+00  0.14999999963E+04  0.15000000000E+04  0.10566000000E+00 0.  1.
        994   -1    0    0    0    0 -0.00000000000E+00 -0.00000000000E+00  0.11368683772E-12  0.17120000000E+03  0.17120000000E+03 0.  0.
         13    1    1    2    0    0  0.27542258611E+02 -0.16292827646E+03  0.87698000751E+03  0.89241142083E+03  0.10566000000E+00 0.  1.
        994    1    1    2    0    0 -0.66348567676E+01  0.40708325339E+02  0.37301475696E+02  0.18000563648E+03  0.17120000000E+03 0.  0.
        998    1    1    2    0    0 -0.20907401844E+02  0.12221995113E+03  0.58571851307E+03  0.59878294269E+03  0.10000000000E+02 0. -1.
</event>
<event>
 5    1  0.1153629E-008  0.3837378E+03  0.7957747E-01  0.3435043E+00
         13   -1    0    0    0    0  0.00000000000E+00  0.00000000000E+00  0.14999999963E+04  0.15000000000E+04  0.10566000000E+00 0.  1.
        994   -1    0    0    0    0 -0.00000000000E+00 -0.00000000000E+00  0.11368683772E-12  0.17120000000E+03  0.17120000000E+03 0.  0.
         13    1    1    2    0    0  0.12531619180E+02  0.54684719908E+01  0.42659915215E+02  0.44797602562E+02  0.10566000000E+00 0.  1.
        994    1    1    2    0    0  0.42442588874E+01 -0.80116389067E+01  0.25295558480E+01  0.17145856276E+03  0.17120000000E+03 0.  0.
        998    1    1    2    0    0 -0.16775878067E+02  0.25431669159E+01  0.14548105252E+04  0.14549438347E+04  0.10000000000E+02 0.  1.
</event>
<event>
 5    1  0.1153629E-008  0.3818273E+03  0.7957747E-01  0.3443240E+00
         13   -1    0    0    0    0  0.00000000000E+00  0.00000000000E+00  0.14999999963E+04  0.15000000000E+04  0.10566000000E+00 0. -1.
        994   -1    0    0    0    0 -0.00000000000E+00 -0.00000000000E+00  0.11368683772E-12  0.17120000000E+03  0.17120000000E+03 0.  0.
         13    1    1    2    0    0  0.16465784989E+02  0.11015569086E+01  0.41061672673E+02  0.44253899598E+02  0.10566000000E+00 0. -1.
        994    1    1    2    0    0 -0.12177250268E+02  0.76668327975E+00  0.37084003051E+01  0.17167430052E+03  0.17120000000E+03 0.  0.
        998    1    1    2    0    0 -0.42885347216E+01 -0.18682401883E+01  0.14552299233E+04  0.14552717999E+04  0.10000000000E+02 0. -1.
</event>
<event>
 5    1  0.1153629E-008  0.3716878E+03  0.7957747E-01  0.3488170E+00
         13   -1    0    0    0    0  0.00000000000E+00  0.00000000000E+00  0.14999999963E+04  0.15000000000E+04  0.10566000000E+00 0. -1.
        994   -1    0    0    0    0 -0.00000000000E+00 -0.00000000000E+00  0.11368683772E-12  0.17120000000E+03  0.17120000000E+03 0.  0.
         13    1    1    2    0    0  0.46611814370E+02 -0.66879811304E+01  0.12911252434E+03  0.13743160275E+03  0.10566000000E+00 0. -1.
        994    1    1    2    0    0 -0.26816293768E+02  0.16826057115E+02  0.11842606392E+02  0.17450477683E+03  0.17120000000E+03 0.  0.
        998    1    1    2    0    0 -0.19795520602E+02 -0.10138075985E+02  0.13590448655E+04  0.13592636204E+04  0.10000000000E+02 0. -1.
</event>
<event>
 5    1  0.1153629E-008  0.3855227E+03  0.7957747E-01  0.3427458E+00
         13   -1    0    0    0    0  0.00000000000E+00  0.00000000000E+00  0.14999999963E+04  0.15000000000E+04  0.10566000000E+00 0. -1.
        994   -1    0    0    0    0 -0.00000000000E+00 -0.00000000000E+00  0.11368683772E-12  0.17120000000E+03  0.17120000000E+03 0.  0.
         13    1    1    2    0    0 -0.75007789296E+01 -0.12573462419E+02  0.81735654244E+02  0.83036630354E+02  0.10566000000E+00 0. -1.
        994    1    1    2    0    0 -0.80916921584E+01  0.10397714179E+02  0.19409662801E+01  0.17171719568E+03  0.17120000000E+03 0.  0.
        998    1    1    2    0    0  0.15592471088E+02  0.21757482400E+01  0.14163233758E+04  0.14164461740E+04  0.10000000000E+02 0. -1.
</event>
<event>
 5    1  0.1153629E-008  0.3804170E+03  0.7957747E-01  0.3449345E+00
         13   -1    0    0    0    0  0.00000000000E+00  0.00000000000E+00  0.14999999963E+04  0.15000000000E+04  0.10566000000E+00 0.  1.
        994   -1    0    0    0    0 -0.00000000000E+00 -0.00000000000E+00  0.11368683772E-12  0.17120000000E+03  0.17120000000E+03 0.  0.
         13    1    1    2    0    0 -0.24813502581E+02  0.32292008060E+02  0.18435492998E+03  0.18879945728E+03  0.10566000000E+00 0.  1.
        994    1    1    2    0    0  0.34716172312E+02 -0.26514880048E+02  0.10319569841E+02  0.17698639780E+03  0.17120000000E+03 0.  0.
        998    1    1    2    0    0 -0.99026697319E+01 -0.57771280125E+01  0.13053254965E+04  0.13054141449E+04  0.10000000000E+02 0.  1.
</event>
<event>
 5    1  0.1153629E-008  0.3850850E+03  0.7957747E-01  0.3429312E+00
         13   -1    0    0    0    0  0.00000000000E+00  0.00000000000E+00  0.14999999963E+04  0.15000000000E+04  0.10566000000E+00 0. -1.
        994   -1    0    0    0    0 -0.00000000000E+00 -0.00000000000E+00  0.11368683772E-12  0.17120000000E+03  0.17120000000E+03 0.  0.
         13    1    1    2    0    0 -0.56266079224E+00 -0.13541333042E+02  0.59926120887E+02  0.61439689260E+02  0.10566000000E+00 0. -1.
        994    1    1    2    0    0 -0.37040173611E+02  0.65409595421E+01  0.62532018190E+01  0.17539470102E+03  0.17120000000E+03 0.  0.
        998    1    1    2    0    0  0.37602834403E+02  0.70003735004E+01  0.14338206736E+04  0.14343656097E+04  0.10000000000E+02 0. -1.
</event>
<event>
 5    1  0.1153629E-008  0.3836316E+03  0.7957747E-01  0.3435497E+00
         13   -1    0    0    0    0  0.00000000000E+00  0.00000000000E+00  0.14999999963E+04  0.15000000000E+04  0.10566000000E+00 0.  1.
        994   -1    0    0    0    0 -0.00000000000E+00 -0.00000000000E+00  0.11368683772E-12  0.17120000000E+03  0.17120000000E+03 0.  0.
         13    1    1    2    0    0 -0.13522609832E+02  0.39718195627E+01  0.41666736545E+02  0.43985957142E+02  0.10566000000E+00 0.  1.
        994    1    1    2    0    0  0.99823560539E+01 -0.12798745860E+02  0.31818034658E+01  0.17199714882E+03  0.17120000000E+03 0.  0.
        998    1    1    2    0    0  0.35402537779E+01  0.88269262975E+01  0.14551514563E+04  0.14552168940E+04  0.10000000000E+02 0.  1.
</event>
<event>
 5    1  0.1153629E-008  0.3784589E+03  0.7957747E-01  0.3457896E+00
         13   -1    0    0    0    0  0.00000000000E+00  0.00000000000E+00  0.14999999963E+04  0.15000000000E+04  0.10566000000E+00 0.  1.
        994   -1    0    0    0    0 -0.00000000000E+00 -0.00000000000E+00  0.11368683772E-12  0.17120000000E+03  0.17120000000E+03 0.  0.
         13    1    1    2    0    0  0.30561587459E+02 -0.92471232056E+01  0.14337116752E+03  0.14688370486E+03  0.10566000000E+00 0.  1.
        994    1    1    2    0    0  0.42207719723E+02  0.13804207869E+02  0.11568008853E+02  0.17724363624E+03  0.17120000000E+03 0.  0.
        998    1    1    2    0    0 -0.72769307181E+02 -0.45570846638E+01  0.13450608199E+04  0.13470726589E+04  0.10000000000E+02 0.  1.
</event>
<event>
 5    1  0.1153629E-008  0.3842902E+03  0.7957747E-01  0.3432688E+00
         13   -1    0    0    0    0  0.00000000000E+00  0.00000000000E+00  0.14999999963E+04  0.15000000000E+04  0.10566000000E+00 0. -1.
        994   -1    0    0    0    0 -0.00000000000E+00 -0.00000000000E+00  0.11368683772E-12  0.17120000000E+03  0.17120000000E+03 0.  0.
         13    1    1    2    0    0 -0.12003450294E+02  0.62114299210E+01  0.46846236396E+02  0.48757006770E+02  0.10566000000E+00 0. -1.
        994    1    1    2    0    0  0.20689999742E+00 -0.82890823746E+01  0.22095841145E+01  0.17141491754E+03  0.17120000000E+03 0.  0.
        998    1    1    2    0    0  0.11796550296E+02  0.20776524536E+01  0.14509441758E+04  0.14510280757E+04  0.10000000000E+02 0. -1.
</event>
<event>
 5    1  0.1153629E-008  0.3770108E+03  0.7957747E-01  0.3464278E+00
         13   -1    0    0    0    0  0.00000000000E+00  0.00000000000E+00  0.14999999963E+04  0.15000000000E+04  0.10566000000E+00 0.  1.
        994   -1    0    0    0    0 -0.00000000000E+00 -0.00000000000E+00  0.11368683772E-12  0.17120000000E+03  0.17120000000E+03 0.  0.
         13    1    1    2    0    0  0.43167383526E+02  0.46907426394E+01  0.22625711011E+03  0.23038601760E+03  0.10566000000E+00 0.  1.
        994    1    1    2    0    0  0.19524726254E+02 -0.12795803283E+02  0.74918080536E+01  0.17294656604E+03  0.17120000000E+03 0.  0.
        998    1    1    2    0    0 -0.62692109781E+02  0.81050606432E+01  0.12662510781E+04  0.12678674164E+04  0.10000000000E+02 0.  1.
</event>
<event>
 5    1  0.1153629E-008  0.2998278E+03  0.7957747E-01  0.3897249E+00
         13   -1    0    0    0    0  0.00000000000E+00  0.00000000000E+00  0.14999999963E+04  0.15000000000E+04  0.10566000000E+00 0. -1.
        994   -1    0    0    0    0 -0.00000000000E+00 -0.00000000000E+00  0.11368683772E-12  0.17120000000E+03  0.17120000000E+03 0.  0.
         13    1    1    2    0    0 -0.17423781522E+03 -0.49442310223E+02  0.68007642954E+03  0.70378073253E+03  0.10566000000E+00 0. -1.
        994    1    1    2    0    0  0.16680008359E+03 -0.94215232290E+00  0.12346292819E+03  0.26902730377E+03  0.17120000000E+03 0.  0.
        998    1    1    2    0    0  0.74377316290E+01  0.50384462546E+02  0.69646063855E+03  0.69839196370E+03  0.10000000000E+02 0. -1.
</event>
<event>
 5    1  0.1153629E-008  0.3724661E+03  0.7957747E-01  0.3484634E+00
         13   -1    0    0    0    0  0.00000000000E+00  0.00000000000E+00  0.14999999963E+04  0.15000000000E+04  0.10566000000E+00 0. -1.
        994   -1    0    0    0    0 -0.00000000000E+00 -0.00000000000E+00  0.11368683772E-12  0.17120000000E+03  0.17120000000E+03 0.  0.
         13    1    1    2    0    0  0.17736990900E+02 -0.32872671209E+02  0.91802689636E+02  0.99110838696E+02  0.10566000000E+00 0. -1.
        994    1    1    2    0    0 -0.13188103681E+02 -0.52511898826E+01  0.86768922477E+01  0.17200648108E+03  0.17120000000E+03 0.  0.
        998    1    1    2    0    0 -0.45488872192E+01  0.38123861091E+02  0.13995204144E+04  0.14000826802E+04  0.10000000000E+02 0. -1.
</event>
<event>
 5    1  0.1192424E-008  0.3862462E+03  0.7957747E-01  0.3424404E+00
         13   -1    0    0    0    0  0.00000000000E+00  0.00000000000E+00  0.14999999963E+04  0.15000000000E+04  0.10566000000E+00 0.  1.
        994   -1    0    0    0    0 -0.00000000000E+00 -0.00000000000E+00  0.11368683772E-12  0.17120000000E+03  0.17120000000E+03 0.  0.
         13    1    1    2    0    0 -0.88186505680E+01  0.85683949942E+01  0.70425204552E+02  0.71490604913E+02  0.10566000000E+00 0.  1.
        994    1    1    2    0    0  0.12132032335E+02 -0.12169348424E+02  0.19804234009E+01  0.17207161685E+03  0.17120000000E+03 0.  0.
        998    1    1    2    0    0 -0.33133817669E+01  0.36009534302E+01  0.14275943683E+04  0.14276377782E+04  0.10000000000E+02 0.  1.
</event>
<event>
 5    1  0.1153629E-008  0.3884527E+03  0.7957747E-01  0.3415160E+00
         13   -1    0    0    0    0  0.00000000000E+00  0.00000000000E+00  0.14999999963E+04  0.15000000000E+04  0.10566000000E+00 0. -1.
        994   -1    0    0    0    0 -0.00000000000E+00 -0.00000000000E+00  0.11368683772E-12  0.17120000000E+03  0.17120000000E+03 0.  0.
         13    1    1    2    0    0 -0.86078411890E+02 -0.53625337590E+02  0.39609017004E+03  0.40886746483E+03  0.10566000000E+00 0. -1.
        994    1    1    2    0    0 -0.19725935860E+01 -0.38463857270E+02  0.26617617625E+02  0.17748604737E+03  0.17120000000E+03 0.  0.
        998    1    1    2    0    0  0.88051005476E+02  0.92089194860E+02  0.10772922086E+04  0.10848464878E+04  0.10000000000E+02 0. -1.
</event>
<event>
 5    1  0.1332969E-008  0.3852861E+03  0.7957747E-01  0.3428460E+00
         13   -1    0    0    0    0  0.00000000000E+00  0.00000000000E+00  0.14999999963E+04  0.15000000000E+04  0.10566000000E+00 0.  1.
        994   -1    0    0    0    0 -0.00000000000E+00 -0.00000000000E+00  0.11368683772E-12  0.17120000000E+03  0.17120000000E+03 0.  0.
         13    1    1    2    0    0 -0.10567237111E+02  0.27844813592E+01  0.41059161448E+02  0.42488654244E+02  0.10566000000E+00 0.  1.
        994    1    1    2    0    0  0.17901778455E+01 -0.53843921482E+01  0.15939681561E+01  0.17130142191E+03  0.17120000000E+03 0.  0.
        998    1    1    2    0    0  0.87770592655E+01  0.25999107890E+01  0.14573468667E+04  0.14574099238E+04  0.10000000000E+02 0.  1.
</event>
<event>
 5    1  0.1153629E-008  0.3850551E+03  0.7957747E-01  0.3429438E+00
         13   -1    0    0    0    0  0.00000000000E+00  0.00000000000E+00  0.14999999963E+04  0.15000000000E+04  0.10566000000E+00 0. -1.
        994   -1    0    0    0    0 -0.00000000000E+00 -0.00000000000E+00  0.11368683772E-12  0.17120000000E+03  0.17120000000E+03 0.  0.
         13    1    1    2    0    0 -0.21865707584E+01 -0.14542505831E+02  0.69484942927E+02  0.71024179158E+02  0.10566000000E+00 0. -1.
        994    1    1    2    0    0 -0.94670460690E+01  0.69703633978E+01  0.20573484198E+01  0.17161551098E+03  0.17120000000E+03 0.  0.
        998    1    1    2    0    0  0.11653616827E+02  0.75721424333E+01  0.14284577049E+04  0.14285603099E+04  0.10000000000E+02 0. -1.
</event>
<event>
 5    1  0.1153629E-008  0.3791212E+03  0.7957747E-01  0.3454994E+00
         13   -1    0    0    0    0  0.00000000000E+00  0.00000000000E+00  0.14999999963E+04  0.15000000000E+04  0.10566000000E+00 0. -1.
        994   -1    0    0    0    0 -0.00000000000E+00 -0.00000000000E+00  0.11368683772E-12  0.17120000000E+03  0.17120000000E+03 0.  0.
         13    1    1    2    0    0 -0.82144265554E-01  0.31072594132E+02  0.10700399543E+03  0.11142431986E+03  0.10566000000E+00 0. -1.
        994    1    1    2    0    0  0.99263001805E+01 -0.13036794574E+02  0.54780596227E+01  0.17206957484E+03  0.17120000000E+03 0.  0.
        998    1    1    2    0    0 -0.98441559149E+01 -0.18035799559E+02  0.13875179412E+04  0.13877061053E+04  0.10000000000E+02 0. -1.
</event>
<event>
 5    1  0.1153629E-008  0.3855587E+03  0.7957747E-01  0.3427306E+00
         13   -1    0    0    0    0  0.00000000000E+00  0.00000000000E+00  0.14999999963E+04  0.15000000000E+04  0.10566000000E+00 0.  1.
        994   -1    0    0    0    0 -0.00000000000E+00 -0.00000000000E+00  0.11368683772E-12  0.17120000000E+03  0.17120000000E+03 0.  0.
         13    1    1    2    0    0  0.93191853665E+01  0.13174733884E+02  0.90482918667E+02  0.91910775012E+02  0.10566000000E+00 0.  1.
        994    1    1    2    0    0 -0.87901160076E+01 -0.16745864987E+02  0.25280599490E+01  0.17226003954E+03  0.17120000000E+03 0.  0.
        998    1    1    2    0    0 -0.52906935893E+00  0.35711311030E+01  0.14069890177E+04  0.14070291855E+04  0.10000000000E+02 0.  0.
</event>
<event>
 5    1  0.1153629E-008  0.3853379E+03  0.7957747E-01  0.3428241E+00
         13   -1    0    0    0    0  0.00000000000E+00  0.00000000000E+00  0.14999999963E+04  0.15000000000E+04  0.10566000000E+00 0.  1.
        994   -1    0    0    0    0 -0.00000000000E+00 -0.00000000000E+00  0.11368683772E-12  0.17120000000E+03  0.17120000000E+03 0.  0.
         13    1    1    2    0    0  0.53984489449E+01  0.11470216151E+02  0.54951221304E+02  0.56394653970E+02  0.10566000000E+00 0.  1.
        994    1    1    2    0    0 -0.37133789108E+01 -0.81032992514E+01  0.17235343680E+01  0.17144055300E+03  0.17120000000E+03 0.  0.
        998    1    1    2    0    0 -0.16850700340E+01 -0.33669169001E+01  0.14433252406E+04  0.14433647930E+04  0.10000000000E+02 0.  1.
</event>
<event>
 5    1  0.1153629E-008  0.3845654E+03  0.7957747E-01  0.3431517E+00
         13   -1    0    0    0    0  0.00000000000E+00  0.00000000000E+00  0.14999999963E+04  0.15000000000E+04  0.10566000000E+00 0. -1.
        994   -1    0    0    0    0 -0.00000000000E+00 -0.00000000000E+00  0.11368683772E-12  0.17120000000E+03  0.17120000000E+03 0.  0.
         13    1    1    2    0    0  0.16965685583E+02  0.27692898939E+01  0.75957471492E+02  0.77878444343E+02  0.10566000000E+00 0. -1.
        994    1    1    2    0    0 -0.24363465500E+02  0.25346454298E+02  0.59272761616E+01  0.17487307912E+03  0.17120000000E+03 0.  0.
        998    1    1    2    0    0  0.73977799170E+01 -0.28115744192E+02  0.14181152486E+04  0.14184484765E+04  0.10000000000E+02 0. -1.
</event>
<event>
 5    1  0.1153629E-008  0.3828561E+03  0.7957747E-01  0.3438816E+00
         13   -1    0    0    0    0  0.00000000000E+00  0.00000000000E+00  0.14999999963E+04  0.15000000000E+04  0.10566000000E+00 0. -1.
        994   -1    0    0    0    0 -0.00000000000E+00 -0.00000000000E+00  0.11368683772E-12  0.17120000000E+03  0.17120000000E+03 0.  0.
         13    1    1    2    0    0  0.11165921549E+02  0.23400106635E+02  0.12600980886E+03  0.12864962451E+03  0.10566000000E+00 0. -1.
        994    1    1    2    0    0 -0.23443141885E+01 -0.13481430643E+02  0.33186106168E+01  0.17177804853E+03  0.17120000000E+03 0.  0.
        998    1    1    2    0    0 -0.88216073601E+01 -0.99186759927E+01  0.13706715768E+04  0.13707723270E+04  0.10000000000E+02 0. -1.
</event>
<event>
 5    1  0.1153629E-008  0.3794998E+03  0.7957747E-01  0.3453339E+00
         13   -1    0    0    0    0  0.00000000000E+00  0.00000000000E+00  0.14999999963E+04  0.15000000000E+04  0.10566000000E+00 0. -1.
        994   -1    0    0    0    0 -0.00000000000E+00 -0.00000000000E+00  0.11368683772E-12  0.17120000000E+03  0.17120000000E+03 0.  0.
         13    1    1    2    0    0  0.91101658490E+02 -0.78412575227E+02  0.68737741801E+03  0.69780783178E+03  0.10566000000E+00 0. -1.
        994    1    1    2    0    0 -0.94989660812E+02  0.93105208738E+02  0.66103050621E+02  0.22665098468E+03  0.17120000000E+03 0.  0.
        998    1    1    2    0    0  0.38880023215E+01 -0.14692633511E+02  0.74651952765E+03  0.74674118354E+03  0.10000000000E+02 0. -1.
</event>
<event>
 5    1  0.1153629E-008  0.3763155E+03  0.7957747E-01  0.3467360E+00
         13   -1    0    0    0    0  0.00000000000E+00  0.00000000000E+00  0.14999999963E+04  0.15000000000E+04  0.10566000000E+00 0. -1.
        994   -1    0    0    0    0 -0.00000000000E+00 -0.00000000000E+00  0.11368683772E-12  0.17120000000E+03  0.17120000000E+03 0.  0.
         13    1    1    2    0    0  0.16707682530E+02  0.23982913950E+02  0.70021841316E+02  0.75877508146E+02  0.10566000000E+00 0. -1.
        994    1    1    2    0    0 -0.84157848506E+01 -0.11487880562E+02  0.66913135056E+01  0.17192152428E+03  0.17120000000E+03 0.  0.
        998    1    1    2    0    0 -0.82918976794E+01 -0.12495033388E+02  0.14232868415E+04  0.14234009676E+04  0.10000000000E+02 0. -1.
</event>
<event>
 5    1  0.1153629E-008  0.3828164E+03  0.7957747E-01  0.3438986E+00
         13   -1    0    0    0    0  0.00000000000E+00  0.00000000000E+00  0.14999999963E+04  0.15000000000E+04  0.10566000000E+00 0.  1.
        994   -1    0    0    0    0 -0.00000000000E+00 -0.00000000000E+00  0.11368683772E-12  0.17120000000E+03  0.17120000000E+03 0.  0.
         13    1    1    2    0    0 -0.15821414177E+02  0.78015282742E+01  0.54858007785E+02  0.57624588260E+02  0.10566000000E+00 0.  1.
        994    1    1    2    0    0  0.88623389455E+01 -0.22079559127E+02  0.45951923018E+01  0.17290634394E+03  0.17120000000E+03 0.  0.
        998    1    1    2    0    0  0.69590752317E+01  0.14278030853E+02  0.14405467962E+04  0.14406690678E+04  0.10000000000E+02 0.  1.
</event>
<event>
 5    1  0.1153629E-008  0.3732187E+03  0.7957747E-01  0.3481228E+00
         13   -1    0    0    0    0  0.00000000000E+00  0.00000000000E+00  0.14999999963E+04  0.15000000000E+04  0.10566000000E+00 0.  1.
        994   -1    0    0    0    0 -0.00000000000E+00 -0.00000000000E+00  0.11368683772E-12  0.17120000000E+03  0.17120000000E+03 0.  0.
         13    1    1    2    0    0 -0.68779672938E+01 -0.27188738965E+02  0.47694536351E+02  0.55329141710E+02  0.10566000000E+00 0.  1.
        994    1    1    2    0    0  0.28218352202E+02  0.19853189483E+02  0.11678151615E+02  0.17503212208E+03  0.17120000000E+03 0.  0.
        998    1    1    2    0    0 -0.21340384908E+02  0.73355494821E+01  0.14406273083E+04  0.14408387362E+04  0.10000000000E+02 0.  1.
</event>
<event>
 5    1  0.1153629E-008  0.3830932E+03  0.7957747E-01  0.3437800E+00
         13   -1    0    0    0    0  0.00000000000E+00  0.00000000000E+00  0.14999999963E+04  0.15000000000E+04  0.10566000000E+00 0.  1.
        994   -1    0    0    0    0 -0.00000000000E+00 -0.00000000000E+00  0.11368683772E-12  0.17120000000E+03  0.17120000000E+03 0.  0.
         13    1    1    2    0    0 -0.11313641738E+02  0.83683247666E+01  0.35748256363E+02  0.38418437577E+02  0.10566000000E+00 0.  1.
        994    1    1    2    0    0  0.97323330799E+01 -0.24171459272E+02  0.48298327185E+01  0.17323898243E+03  0.17120000000E+03 0.  0.
        998    1    1    2    0    0  0.15813086584E+01  0.15803134505E+02  0.14594219072E+04  0.14595425800E+04  0.10000000000E+02 0.  1.
</event>
<event>
 5    1  0.1153629E-008  0.3859024E+03  0.7957747E-01  0.3425854E+00
         13   -1    0    0    0    0  0.00000000000E+00  0.00000000000E+00  0.14999999963E+04  0.15000000000E+04  0.10566000000E+00 0. -1.
        994   -1    0    0    0    0 -0.00000000000E+00 -0.00000000000E+00  0.11368683772E-12  0.17120000000E+03  0.17120000000E+03 0.  0.
         13    1    1    2    0    0  0.11033928080E+02  0.34490802080E+01  0.57668246221E+02  0.58815657009E+02  0.10566000000E+00 0. -1.
        994    1    1    2    0    0 -0.79229499879E+01  0.41789827798E+01  0.14459312866E+01  0.17144027459E+03  0.17120000000E+03 0.  0.
        998    1    1    2    0    0 -0.31109780925E+01 -0.76280629878E+01  0.14408858188E+04  0.14409440684E+04  0.10000000000E+02 0. -1.
</event>
<event>
 5    1  0.1153629E-008  0.3885047E+03  0.7957747E-01  0.3414943E+00
         13   -1    0    0    0    0  0.00000000000E+00  0.00000000000E+00  0.14999999963E+04  0.15000000000E+04  0.10566000000E+00 0. -1.
        994   -1    0    0    0    0 -0.00000000000E+00 -0.00000000000E+00  0.11368683772E-12  0.17120000000E+03  0.17120000000E+03 0.  0.
         13    1    1    2    0    0  0.10092313145E+03  0.95334062073E+02  0.43255757605E+03  0.45429079851E+03  0.10566000000E+00 0. -1.
        994    1    1    2    0    0 -0.52046904204E+02 -0.76360660901E+02  0.53783918753E+02  0.20184642847E+03  0.17120000000E+03 0.  0.
        998    1    1    2    0    0 -0.48876227248E+02 -0.18973401172E+02  0.10136585015E+04  0.10150627730E+04  0.10000000000E+02 0. -1.
</event>
<event>
 5    1  0.1153629E-008  0.3684847E+03  0.7957747E-01  0.3502884E+00
         13   -1    0    0    0    0  0.00000000000E+00  0.00000000000E+00  0.14999999963E+04  0.15000000000E+04  0.10566000000E+00 0.  1.
        994   -1    0    0    0    0 -0.00000000000E+00 -0.00000000000E+00  0.11368683772E-12  0.17120000000E+03  0.17120000000E+03 0.  0.
         13    1    1    2    0    0 -0.63775980523E+02  0.27128254874E+02  0.31841775086E+03  0.32587297085E+03  0.10566000000E+00 0.  1.
        994    1    1    2    0    0 -0.17500900697E+02 -0.37181164838E+02  0.15955934543E+02  0.17678448006E+03  0.17120000000E+03 0.  0.
        998    1    1    2    0    0  0.81276881220E+02  0.10052909964E+02  0.11656263109E+04  0.11685425491E+04  0.10000000000E+02 0.  1.
</event>
<event>
 5    1  0.1153629E-008  0.3789951E+03  0.7957747E-01  0.3455546E+00
         13   -1    0    0    0    0  0.00000000000E+00  0.00000000000E+00  0.14999999963E+04  0.15000000000E+04  0.10566000000E+00 0. -1.
        994   -1    0    0    0    0 -0.00000000000E+00 -0.00000000000E+00  0.11368683772E-12  0.17120000000E+03  0.17120000000E+03 0.  0.
         13    1    1    2    0    0 -0.15851578457E+02 -0.21354612930E+02  0.72420813583E+02  0.77149707952E+02  0.10566000000E+00 0. -1.
        994    1    1    2    0    0  0.19369532151E+02  0.14849041345E+02  0.66417715412E+01  0.17305844658E+03  0.17120000000E+03 0.  0.
        998    1    1    2    0    0 -0.35179536932E+01  0.65055715853E+01  0.14209374112E+04  0.14209918455E+04  0.10000000000E+02 0. -1.
</event>
<event>
 5    1  0.1153629E-008  0.3696417E+03  0.7957747E-01  0.3497539E+00
         13   -1    0    0    0    0  0.00000000000E+00  0.00000000000E+00  0.14999999963E+04  0.15000000000E+04  0.10566000000E+00 0.  1.
        994   -1    0    0    0    0 -0.00000000000E+00 -0.00000000000E+00  0.11368683772E-12  0.17120000000E+03  0.17120000000E+03 0.  0.
         13    1    1    2    0    0 -0.98103418035E+01 -0.35731130757E+02  0.67920785446E+02  0.77370542012E+02  0.10566000000E+00 0.  1.
        994    1    1    2    0    0  0.11287849125E+02  0.27503804597E+02  0.12522462338E+02  0.17421287802E+03  0.17120000000E+03 0.  0.
        998    1    1    2    0    0 -0.14775073214E+01  0.82273261607E+01  0.14195567485E+04  0.14196165800E+04  0.10000000000E+02 0.  1.
</event>
<event>
 5    1  0.1153629E-008  0.3765134E+03  0.7957747E-01  0.3466482E+00
         13   -1    0    0    0    0  0.00000000000E+00  0.00000000000E+00  0.14999999963E+04  0.15000000000E+04  0.10566000000E+00 0. -1.
        994   -1    0    0    0    0 -0.00000000000E+00 -0.00000000000E+00  0.11368683772E-12  0.17120000000E+03  0.17120000000E+03 0.  0.
         13    1    1    2    0    0 -0.11609737351E+02 -0.31975387862E+01  0.93300498968E+01  0.15233884953E+02  0.10566000000E+00 0. -1.
        994    1    1    2    0    0  0.22908434692E+02  0.77506416152E-01  0.76804615891E+01  0.17289659302E+03  0.17120000000E+03 0.  0.
        998    1    1    2    0    0 -0.11298697341E+02  0.31200323701E+01  0.14829894848E+04  0.14830695220E+04  0.10000000000E+02 0. -1.
</event>
<event>
 5    1  0.1153629E-008  0.3832462E+03  0.7957747E-01  0.3437144E+00
         13   -1    0    0    0    0  0.00000000000E+00  0.00000000000E+00  0.14999999963E+04  0.15000000000E+04  0.10566000000E+00 0.  1.
        994   -1    0    0    0    0 -0.00000000000E+00 -0.00000000000E+00  0.11368683772E-12  0.17120000000E+03  0.17120000000E+03 0.  0.
         13    1    1    2    0    0  0.10523125907E+02 -0.12398735300E+02  0.57669565638E+02  0.59918734807E+02  0.10566000000E+00 0.  1.
        994    1    1    2    0    0  0.96429602158E+01 -0.43988986387E+01  0.28750086527E+01  0.17155186582E+03  0.17120000000E+03 0.  0.
        998    1    1    2    0    0 -0.20166086122E+02  0.16797633939E+02  0.14394554220E+04  0.14397293994E+04  0.10000000000E+02 0.  1.
</event>
<event>
 5    1  0.1153629E-008  0.3776918E+03  0.7957747E-01  0.3461271E+00
         13   -1    0    0    0    0  0.00000000000E+00  0.00000000000E+00  0.14999999963E+04  0.15000000000E+04  0.10566000000E+00 0.  1.
        994   -1    0    0    0    0 -0.00000000000E+00 -0.00000000000E+00  0.11368683772E-12  0.17120000000E+03  0.17120000000E+03 0.  0.
         13    1    1    2    0    0  0.10923634359E+01 -0.12479541285E+03  0.64402212527E+03  0.65600274186E+03  0.10566000000E+00 0.  1.
        994    1    1    2    0    0  0.54844913281E+01  0.13888925294E+03  0.73422302845E+02  0.23242327505E+03  0.17120000000E+03 0.  0.
        998    1    1    2    0    0 -0.65768547639E+01 -0.14093840093E+02  0.78255556816E+03  0.78277398309E+03  0.10000000000E+02 0. -1.
</event>
<event>
 5    1  0.1153629E-008  0.3724652E+03  0.7957747E-01  0.3484638E+00
         13   -1    0    0    0    0  0.00000000000E+00  0.00000000000E+00  0.14999999963E+04  0.15000000000E+04  0.10566000000E+00 0. -1.
        994   -1    0    0    0    0 -0.00000000000E+00 -0.00000000000E+00  0.11368683772E-12  0.17120000000E+03  0.17120000000E+03 0.  0.
         13    1    1    2    0    0  0.16265579784E+02  0.53061067560E+02  0.18091445103E+03  0.18923555621E+03  0.10566000000E+00 0. -1.
        994    1    1    2    0    0 -0.22783871879E+02 -0.37221223783E+02  0.14544258007E+02  0.17727238860E+03  0.17120000000E+03 0.  0.
        998    1    1    2    0    0  0.65182920949E+01 -0.15839843777E+02  0.13045412872E+04  0.13046920552E+04  0.10000000000E+02 0. -1.
</event>
<event>
 5    1  0.1153629E-008  0.3846023E+03  0.7957747E-01  0.3431361E+00
         13   -1    0    0    0    0  0.00000000000E+00  0.00000000000E+00  0.14999999963E+04  0.15000000000E+04  0.10566000000E+00 0. -1.
        994   -1    0    0    0    0 -0.00000000000E+00 -0.00000000000E+00  0.11368683772E-12  0.17120000000E+03  0.17120000000E+03 0.  0.
         13    1    1    2    0    0 -0.37169286844E+00 -0.14166425498E+02  0.55607565573E+02  0.57385000479E+02  0.10566000000E+00 0. -1.
        994    1    1    2    0    0  0.75456343994E+00  0.65125812238E+01  0.19692573052E+01  0.17133680590E+03  0.17120000000E+03 0.  0.
        998    1    1    2    0    0 -0.38287057150E+00  0.76538442744E+01  0.14424231734E+04  0.14424781936E+04  0.10000000000E+02 0. -1.
</event>
<event>
 5    1  0.1153629E-008  0.3810588E+03  0.7957747E-01  0.3446561E+00
         13   -1    0    0    0    0  0.00000000000E+00  0.00000000000E+00  0.14999999963E+04  0.15000000000E+04  0.10566000000E+00 0. -1.
        994   -1    0    0    0    0 -0.00000000000E+00 -0.00000000000E+00  0.11368683772E-12  0.17120000000E+03  0.17120000000E+03 0.  0.
         13    1    1    2    0    0  0.43327100945E+02  0.94300912528E+01  0.23495418283E+03  0.23910174297E+03  0.10566000000E+00 0. -1.
        994    1    1    2    0    0 -0.44512545926E+02  0.22833451156E+01  0.10245901704E+02  0.17720327004E+03  0.17120000000E+03 0.  0.
        998    1    1    2    0    0  0.11854449816E+01 -0.11713436368E+02  0.12547999117E+04  0.12548949870E+04  0.10000000000E+02 0. -1.
</event>
<event>
 5    1  0.1153629E-008  0.3821913E+03  0.7957747E-01  0.3441672E+00
         13   -1    0    0    0    0  0.00000000000E+00  0.00000000000E+00  0.14999999963E+04  0.15000000000E+04  0.10566000000E+00 0. -1.
        994   -1    0    0    0    0 -0.00000000000E+00 -0.00000000000E+00  0.11368683772E-12  0.17120000000E+03  0.17120000000E+03 0.  0.
         13    1    1    2    0    0  0.16663757902E+01  0.22833372471E+02  0.89220474852E+02  0.92111041703E+02  0.10566000000E+00 0. -1.
        994    1    1    2    0    0 -0.11624379585E+00 -0.66937465541E+01  0.31798153869E+01  0.17136035417E+03  0.17120000000E+03 0.  0.
        998    1    1    2    0    0 -0.15501319943E+01 -0.16139625917E+02  0.14075997060E+04  0.14077286041E+04  0.10000000000E+02 0. -1.
</event>
<event>
 5    1  0.1153629E-008  0.3815278E+03  0.7957747E-01  0.3444533E+00
         13   -1    0    0    0    0  0.00000000000E+00  0.00000000000E+00  0.14999999963E+04  0.15000000000E+04  0.10566000000E+00 0.  1.
        994   -1    0    0    0    0 -0.00000000000E+00 -0.00000000000E+00  0.11368683772E-12  0.17120000000E+03  0.17120000000E+03 0.  0.
         13    1    1    2    0    0 -0.18065747485E+02 -0.27734445330E+02  0.17183889614E+03  0.17499768022E+03  0.10566000000E+00 0.  1.
        994    1    1    2    0    0  0.41127706252E+01  0.10894673082E+02  0.38150845335E+01  0.17163800178E+03  0.17120000000E+03 0.  0.
        998    1    1    2    0    0  0.13952976860E+02  0.16839772249E+02  0.13243460156E+04  0.13245643180E+04  0.10000000000E+02 0.  1.
</event>
<event>
 5    1  0.1153629E-008  0.3846774E+03  0.7957747E-01  0.3431041E+00
         13   -1    0    0    0    0  0.00000000000E+00  0.00000000000E+00  0.14999999963E+04  0.15000000000E+04  0.10566000000E+00 0.  1.
        994   -1    0    0    0    0 -0.00000000000E+00 -0.00000000000E+00  0.11368683772E-12  0.17120000000E+03  0.17120000000E+03 0.  0.
         13    1    1    2    0    0 -0.11659408867E+02 -0.11794009944E+01  0.37408273712E+02  0.39201057485E+02  0.10566000000E+00 0.  1.
        994    1    1    2    0    0  0.11179143740E+02  0.56583546278E+01  0.23073610537E+01  0.17167339382E+03  0.17120000000E+03 0.  0.
        998    1    1    2    0    0  0.48026512669E+00 -0.44789536334E+01  0.14602843615E+04  0.14603255487E+04  0.10000000000E+02 0.  1.
</event>
<event>
 5    1  0.1153629E-008  0.3855626E+03  0.7957747E-01  0.3427290E+00
         13   -1    0    0    0    0  0.00000000000E+00  0.00000000000E+00  0.14999999963E+04  0.15000000000E+04  0.10566000000E+00 0. -1.
        994   -1    0    0    0    0 -0.00000000000E+00 -0.00000000000E+00  0.11368683772E-12  0.17120000000E+03  0.17120000000E+03 0.  0.
         13    1    1    2    0    0 -0.60770197990E+01  0.92881174287E+01  0.42645540092E+02  0.44066456050E+02  0.10566000000E+00 0. -1.
        994    1    1    2    0    0  0.13812486515E+02 -0.15224970672E+02  0.27394950324E+01  0.17245152753E+03  0.17120000000E+03 0.  0.
        998    1    1    2    0    0 -0.77354667163E+01  0.59368532436E+01  0.14546149612E+04  0.14546820164E+04  0.10000000000E+02 0. -1.
</event>
<event>
 5    1  0.1153629E-008  0.3744919E+03  0.7957747E-01  0.3475498E+00
         13   -1    0    0    0    0  0.00000000000E+00  0.00000000000E+00  0.14999999963E+04  0.15000000000E+04  0.10566000000E+00 0.  1.
        994   -1    0    0    0    0 -0.00000000000E+00 -0.00000000000E+00  0.11368683772E-12  0.17120000000E+03  0.17120000000E+03 0.  0.
         13    1    1    2    0    0 -0.59498580704E+02  0.87717346771E+01  0.27848854910E+03  0.28490859513E+03  0.10566000000E+00 0.  1.
        994    1    1    2    0    0  0.23428011830E+02 -0.55764631595E+01  0.89171865205E+01  0.17311535141E+03  0.17120000000E+03 0.  0.
        998    1    1    2    0    0  0.36070568874E+02 -0.31952715176E+01  0.12125942607E+04  0.12131760535E+04  0.10000000000E+02 0.  1.
</event>
<event>
 5    1  0.1153629E-008  0.3752244E+03  0.7957747E-01  0.3472220E+00
         13   -1    0    0    0    0  0.00000000000E+00  0.00000000000E+00  0.14999999963E+04  0.15000000000E+04  0.10566000000E+00 0. -1.
        994   -1    0    0    0    0 -0.00000000000E+00 -0.00000000000E+00  0.11368683772E-12  0.17120000000E+03  0.17120000000E+03 0.  0.
         13    1    1    2    0    0  0.23060208678E+02 -0.31993032459E+02  0.12289552118E+03  0.12906838358E+03  0.10566000000E+00 0. -1.
        994    1    1    2    0    0 -0.11026395984E+02  0.66974297951E+01  0.71290529817E+01  0.17183335058E+03  0.17120000000E+03 0.  0.
        998    1    1    2    0    0 -0.12033812695E+02  0.25295602664E+02  0.13699754221E+04  0.13702982658E+04  0.10000000000E+02 0. -1.
</event>
<event>
 5    1  0.1153629E-008  0.3831193E+03  0.7957747E-01  0.3437688E+00
         13   -1    0    0    0    0  0.00000000000E+00  0.00000000000E+00  0.14999999963E+04  0.15000000000E+04  0.10566000000E+00 0.  1.
        994   -1    0    0    0    0 -0.00000000000E+00 -0.00000000000E+00  0.11368683772E-12  0.17120000000E+03  0.17120000000E+03 0.  0.
         13    1    1    2    0    0 -0.24732546402E+02  0.68529301235E+01  0.14376348138E+03  0.14603633536E+03  0.10566000000E+00 0.  1.
        994    1    1    2    0    0  0.29258983447E+01  0.89237560316E+01  0.28586113898E+01  0.17148121169E+03  0.17120000000E+03 0.  0.
        998    1    1    2    0    0  0.21806648057E+02 -0.15776686155E+02  0.13533779035E+04  0.13536824529E+04  0.10000000000E+02 0.  1.
</event>
<event>
 5    1  0.1153629E-008  0.3842302E+03  0.7957747E-01  0.3432944E+00
         13   -1    0    0    0    0  0.00000000000E+00  0.00000000000E+00  0.14999999963E+04  0.15000000000E+04  0.10566000000E+00 0. -1.
        994   -1    0    0    0    0 -0.00000000000E+00 -0.00000000000E+00  0.11368683772E-12  0.17120000000E+03  0.17120000000E+03 0.  0.
         13    1    1    2    0    0  0.99243488311E+01 -0.49141909273E+01  0.30919898999E+02  0.32843466479E+02  0.10566000000E+00 0. -1.
        994    1    1    2    0    0 -0.31494948931E+01 -0.67687648884E+01  0.21965951490E+01  0.17137677943E+03  0.17120000000E+03 0.  0.
        998    1    1    2    0    0 -0.67748539380E+01  0.11682955816E+02  0.14668835021E+04  0.14669797541E+04  0.10000000000E+02 0. -1.
</event>
<event>
 5    1  0.1153629E-008  0.3817362E+03  0.7957747E-01  0.3443633E+00
         13   -1    0    0    0    0  0.00000000000E+00  0.00000000000E+00  0.14999999963E+04  0.15000000000E+04  0.10566000000E+00 0. -1.
        994   -1    0    0    0    0 -0.00000000000E+00 -0.00000000000E+00  0.11368683772E-12  0.17120000000E+03  0.17120000000E+03 0.  0.
         13    1    1    2    0    0 -0.95198918138E+01 -0.54351968996E+02  0.81265979784E+02  0.98228995252E+02  0.10566000000E+00 0. -1.
        994    1    1    2    0    0  0.79316699483E+01  0.40881125345E+02  0.23634943956E+02  0.17777015603E+03  0.17120000000E+03 0.  0.
        998    1    1    2    0    0  0.15882218655E+01  0.13470843651E+02  0.13950990725E+04  0.13952008487E+04  0.10000000000E+02 0. -1.
</event>
<event>
 5    1  0.1153629E-008  0.3753492E+03  0.7957747E-01  0.3471662E+00
         13   -1    0    0    0    0  0.00000000000E+00  0.00000000000E+00  0.14999999963E+04  0.15000000000E+04  0.10566000000E+00 0. -1.
        994   -1    0    0    0    0 -0.00000000000E+00 -0.00000000000E+00  0.11368683772E-12  0.17120000000E+03  0.17120000000E+03 0.  0.
         13    1    1    2    0    0 -0.36456262064E+02  0.86871874602E+02  0.50982952365E+03  0.51846112293E+03  0.10566000000E+00 0. -1.
        994    1    1    2    0    0  0.11035595767E+02  0.46354065726E+01  0.14306325849E+02  0.17221318860E+03  0.17120000000E+03 0.  0.
        998    1    1    2    0    0  0.25420666297E+02 -0.91507281174E+02  0.97586414678E+03  0.98052568848E+03  0.10000000000E+02 0. -1.
</event>
<event>
 5    1  0.1153629E-008  0.3824274E+03  0.7957747E-01  0.3440657E+00
         13   -1    0    0    0    0  0.00000000000E+00  0.00000000000E+00  0.14999999963E+04  0.15000000000E+04  0.10566000000E+00 0.  1.
        994   -1    0    0    0    0 -0.00000000000E+00 -0.00000000000E+00  0.11368683772E-12  0.17120000000E+03  0.17120000000E+03 0.  0.
         13    1    1    2    0    0 -0.16791442272E+02  0.78946919991E+01  0.59226519497E+02  0.62065050319E+02  0.10566000000E+00 0.  1.
        994    1    1    2    0    0  0.11061792093E+02  0.42000456090E+01  0.33772438564E+01  0.17164163074E+03  0.17120000000E+03 0.  0.
        998    1    1    2    0    0  0.57296501790E+01 -0.12094737608E+02  0.14373962329E+04  0.14374933189E+04  0.10000000000E+02 0.  1.
</event>
<event>
 5    1  0.1153629E-008  0.3821534E+03  0.7957747E-01  0.3441835E+00
         13   -1    0    0    0    0  0.00000000000E+00  0.00000000000E+00  0.14999999963E+04  0.15000000000E+04  0.10566000000E+00 0. -1.
        994   -1    0    0    0    0 -0.00000000000E+00 -0.00000000000E+00  0.11368683772E-12  0.17120000000E+03  0.17120000000E+03 0.  0.
         13    1    1    2    0    0 -0.21729422146E+02  0.21072116694E+02  0.13513619283E+03  0.13848466942E+03  0.10566000000E+00 0. -1.
        994    1    1    2    0    0  0.22919257317E+02 -0.23350251264E+02  0.66115658141E+01  0.17442384984E+03  0.17120000000E+03 0.  0.
        998    1    1    2    0    0 -0.11898351713E+01  0.22781345705E+01  0.13582522376E+04  0.13582914807E+04  0.10000000000E+02 0.  0.
</event>
<event>
 5    1  0.1153629E-008  0.3860310E+03  0.7957747E-01  0.3425312E+00
         13   -1    0    0    0    0  0.00000000000E+00  0.00000000000E+00  0.14999999963E+04  0.15000000000E+04  0.10566000000E+00 0.  1.
        994   -1    0    0    0    0 -0.00000000000E+00 -0.00000000000E+00  0.11368683772E-12  0.17120000000E+03  0.17120000000E+03 0.  0.
         13    1    1    2    0    0  0.99912115177E+01 -0.72877166916E+01  0.67480539644E+02  0.68604442399E+02  0.10566000000E+00 0.  1.
        994    1    1    2    0    0 -0.10352449459E+02  0.51686113292E+01  0.15581105524E+01  0.17159765576E+03  0.17120000000E+03 0.  0.
        998    1    1    2    0    0  0.36123794158E+00  0.21191053623E+01  0.14309613461E+04  0.14309979018E+04  0.10000000000E+02 0.  1.
</event>
<event>
 5    1  0.1153629E-008  0.3794875E+03  0.7957747E-01  0.3453393E+00
         13   -1    0    0    0    0  0.00000000000E+00  0.00000000000E+00  0.14999999963E+04  0.15000000000E+04  0.10566000000E+00 0. -1.
        994   -1    0    0    0    0 -0.00000000000E+00 -0.00000000000E+00  0.11368683772E-12  0.17120000000E+03  0.17120000000E+03 0.  0.
         13    1    1    2    0    0  0.22642298895E+02 -0.24837665082E+02  0.14433346813E+03  0.14819495434E+03  0.10566000000E+00 0. -1.
        994    1    1    2    0    0 -0.69394698916E+01 -0.72283245340E+01  0.47283814201E+01  0.17155816072E+03  0.17120000000E+03 0.  0.
        998    1    1    2    0    0 -0.15702829004E+02  0.32065989616E+02  0.13509381467E+04  0.13514468849E+04  0.10000000000E+02 0. -1.
</event>
<event>
 5    1  0.1153629E-008  0.3771390E+03  0.7957747E-01  0.3463711E+00
         13   -1    0    0    0    0  0.00000000000E+00  0.00000000000E+00  0.14999999963E+04  0.15000000000E+04  0.10566000000E+00 0. -1.
        994   -1    0    0    0    0 -0.00000000000E+00 -0.00000000000E+00  0.11368683772E-12  0.17120000000E+03  0.17120000000E+03 0.  0.
         13    1    1    2    0    0 -0.29804778224E+02 -0.85215196480E+02  0.50449203703E+03  0.51250578641E+03  0.10566000000E+00 0. -1.
        994    1    1    2    0    0  0.29819745069E+02  0.80388756533E+02  0.30811556834E+02  0.19393390990E+03  0.17120000000E+03 0.  0.
        998    1    1    2    0    0 -0.14966845240E-01  0.48264399469E+01  0.96469640242E+03  0.96476030370E+03  0.10000000000E+02 0.  0.
</event>
<event>
 5    1  0.1153629E-008  0.3693035E+03  0.7957747E-01  0.3499098E+00
         13   -1    0    0    0    0  0.00000000000E+00  0.00000000000E+00  0.14999999963E+04  0.15000000000E+04  0.10566000000E+00 0. -1.
        994   -1    0    0    0    0 -0.00000000000E+00 -0.00000000000E+00  0.11368683772E-12  0.17120000000E+03  0.17120000000E+03 0.  0.
         13    1    1    2    0    0  0.34304136746E+02 -0.18592935199E+02  0.79339872250E+02  0.88415482411E+02  0.10566000000E+00 0. -1.
        994    1    1    2    0    0 -0.11690937622E+02  0.26392103320E+00  0.10107705159E+02  0.17189634487E+03  0.17120000000E+03 0.  0.
        998    1    1    2    0    0 -0.22613199124E+02  0.18329014166E+02  0.14105524189E+04  0.14108881727E+04  0.10000000000E+02 0. -1.
</event>
<event>
 5    1  0.1153629E-008  0.3813397E+03  0.7957747E-01  0.3445346E+00
         13   -1    0    0    0    0  0.00000000000E+00  0.00000000000E+00  0.14999999963E+04  0.15000000000E+04  0.10566000000E+00 0.  1.
        994   -1    0    0    0    0 -0.00000000000E+00 -0.00000000000E+00  0.11368683772E-12  0.17120000000E+03  0.17120000000E+03 0.  0.
         13    1    1    2    0    0 -0.17410700382E+02  0.45453169644E+00  0.49456418857E+02  0.52433649663E+02  0.10566000000E+00 0.  1.
        994    1    1    2    0    0 -0.25377207704E+02 -0.70646620329E+01  0.57712665587E+01  0.17331087571E+03  0.17120000000E+03 0.  0.
        998    1    1    2    0    0  0.42787908085E+02  0.66101303364E+01  0.14447723109E+04  0.14454554746E+04  0.10000000000E+02 0.  1.
</event>
<event>
 5    1  0.1153629E-008  0.3722928E+03  0.7957747E-01  0.3485420E+00
         13   -1    0    0    0    0  0.00000000000E+00  0.00000000000E+00  0.14999999963E+04  0.15000000000E+04  0.10566000000E+00 0.  1.
        994   -1    0    0    0    0 -0.00000000000E+00 -0.00000000000E+00  0.11368683772E-12  0.17120000000E+03  0.17120000000E+03 0.  0.
         13    1    1    2    0    0  0.11288930320E+02  0.38370611696E+02  0.93843775042E+02  0.10201180847E+03  0.10566000000E+00 0.  1.
        994    1    1    2    0    0 -0.18348173310E+02 -0.27275934108E+02  0.11791726786E+02  0.17472583342E+03  0.17120000000E+03 0.  0.
        998    1    1    2    0    0  0.70592429898E+01 -0.11094677588E+02  0.13943644945E+04  0.13944623581E+04  0.10000000000E+02 0.  1.
</event>
<event>
 5    1  0.1153629E-008  0.3807208E+03  0.7957747E-01  0.3448026E+00
         13   -1    0    0    0    0  0.00000000000E+00  0.00000000000E+00  0.14999999963E+04  0.15000000000E+04  0.10566000000E+00 0.  1.
        994   -1    0    0    0    0 -0.00000000000E+00 -0.00000000000E+00  0.11368683772E-12  0.17120000000E+03  0.17120000000E+03 0.  0.
         13    1    1    2    0    0 -0.17376537342E+02 -0.36257846005E+02  0.19488224875E+03  0.19898662641E+03  0.10566000000E+00 0.  1.
        994    1    1    2    0    0  0.21576971933E+02  0.28770804586E+02  0.80949856569E+01  0.17512365262E+03  0.17120000000E+03 0.  0.
        998    1    1    2    0    0 -0.42004345909E+01  0.74870414195E+01  0.12970227619E+04  0.12970897210E+04  0.10000000000E+02 0.  1.
</event>
<event>
 5    1  0.1153629E-008  0.3814183E+03  0.7957747E-01  0.3445006E+00
         13   -1    0    0    0    0  0.00000000000E+00  0.00000000000E+00  0.14999999963E+04  0.15000000000E+04  0.10566000000E+00 0.  1.
        994   -1    0    0    0    0 -0.00000000000E+00 -0.00000000000E+00  0.11368683772E-12  0.17120000000E+03  0.17120000000E+03 0.  0.
         13    1    1    2    0    0  0.14377186505E+02 -0.26200917819E+02  0.11875108840E+03  0.12245416999E+03  0.10566000000E+00 0.  1.
        994    1    1    2    0    0 -0.20098998276E+02  0.25869016320E+02  0.69979275523E+01  0.17444651538E+03  0.17120000000E+03 0.  0.
        998    1    1    2    0    0  0.57218117717E+01  0.33190149903E+00  0.13742509803E+04  0.13742993146E+04  0.10000000000E+02 0.  1.
</event>
<event>
 5    1  0.1153629E-008  0.3837320E+03  0.7957747E-01  0.3435068E+00
         13   -1    0    0    0    0  0.00000000000E+00  0.00000000000E+00  0.14999999963E+04  0.15000000000E+04  0.10566000000E+00 0. -1.
        994   -1    0    0    0    0 -0.00000000000E+00 -0.00000000000E+00  0.11368683772E-12  0.17120000000E+03  0.17120000000E+03 0.  0.
         13    1    1    2    0    0  0.16575858119E+02 -0.13103131392E+02  0.95839724892E+02  0.98141301989E+02  0.10566000000E+00 0. -1.
        994    1    1    2    0    0 -0.16687996408E+02  0.63050118132E+01  0.33125738096E+01  0.17215880908E+03  0.17120000000E+03 0.  0.
        998    1    1    2    0    0  0.11213828951E+00  0.67981195788E+01  0.14008476976E+04  0.14008998889E+04  0.10000000000E+02 0. -1.
</event>
<event>
 5    1  0.1153629E-008  0.3815159E+03  0.7957747E-01  0.3444585E+00
         13   -1    0    0    0    0  0.00000000000E+00  0.00000000000E+00  0.14999999963E+04  0.15000000000E+04  0.10566000000E+00 0. -1.
        994   -1    0    0    0    0 -0.00000000000E+00 -0.00000000000E+00  0.11368683772E-12  0.17120000000E+03  0.17120000000E+03 0.  0.
         13    1    1    2    0    0 -0.72073706865E+01  0.83081967999E+01  0.16412784434E+02  0.19757605705E+02  0.10566000000E+00 0. -1.
        994    1    1    2    0    0  0.11703583250E+02 -0.45007333205E+01  0.38930641620E+01  0.17170272686E+03  0.17120000000E+03 0.  0.
        998    1    1    2    0    0 -0.44962125640E+01 -0.38074634794E+01  0.14796941477E+04  0.14797396674E+04  0.10000000000E+02 0. -1.
</event>
<event>
 5    1  0.1153629E-008  0.3849938E+03  0.7957747E-01  0.3429698E+00
         13   -1    0    0    0    0  0.00000000000E+00  0.00000000000E+00  0.14999999963E+04  0.15000000000E+04  0.10566000000E+00 0. -1.
        994   -1    0    0    0    0 -0.00000000000E+00 -0.00000000000E+00  0.11368683772E-12  0.17120000000E+03  0.17120000000E+03 0.  0.
         13    1    1    2    0    0  0.69194694106E+01 -0.14591684859E+02  0.74730742116E+02  0.76455812763E+02  0.10566000000E+00 0. -1.
        994    1    1    2    0    0 -0.93905783362E+01  0.18210017078E+02  0.30149860046E+01  0.17244801485E+03  0.17120000000E+03 0.  0.
        998    1    1    2    0    0  0.24711089255E+01 -0.36183322187E+01  0.14222542682E+04  0.14222961724E+04  0.10000000000E+02 0. -1.
</event>
<event>
 5    1  0.1153629E-008  0.3839073E+03  0.7957747E-01  0.3434320E+00
         13   -1    0    0    0    0  0.00000000000E+00  0.00000000000E+00  0.14999999963E+04  0.15000000000E+04  0.10566000000E+00 0.  1.
        994   -1    0    0    0    0 -0.00000000000E+00 -0.00000000000E+00  0.11368683772E-12  0.17120000000E+03  0.17120000000E+03 0.  0.
         13    1    1    2    0    0 -0.19792809017E+02 -0.96394210131E+01  0.98901749764E+02  0.10132246047E+03  0.10566000000E+00 0.  1.
        994    1    1    2    0    0  0.32093135155E+02  0.51723031182E+01  0.56689777862E+01  0.17435108073E+03  0.17120000000E+03 0.  0.
        998    1    1    2    0    0 -0.12300326138E+02  0.44671178949E+01  0.13954292687E+04  0.13955264588E+04  0.10000000000E+02 0.  1.
</event>
<event>
 5    1  0.1153629E-008  0.3719162E+03  0.7957747E-01  0.3487130E+00
         13   -1    0    0    0    0  0.00000000000E+00  0.00000000000E+00  0.14999999963E+04  0.15000000000E+04  0.10566000000E+00 0. -1.
        994   -1    0    0    0    0 -0.00000000000E+00 -0.00000000000E+00  0.11368683772E-12  0.17120000000E+03  0.17120000000E+03 0.  0.
         13    1    1    2    0    0 -0.65856327473E+02  0.22028416691E+02  0.17338286679E+03  0.18677241946E+03  0.10566000000E+00 0. -1.
        994    1    1    2    0    0  0.48982611541E+02 -0.84655825588E+02  0.46432484509E+02  0.20256189340E+03  0.17120000000E+03 0.  0.
        998    1    1    2    0    0  0.16873715932E+02  0.62627408896E+02  0.12801846450E+04  0.12818656871E+04  0.10000000000E+02 0. -1.
</event>
<event>
 5    1  0.1153629E-008  0.3852545E+03  0.7957747E-01  0.3428594E+00
         13   -1    0    0    0    0  0.00000000000E+00  0.00000000000E+00  0.14999999963E+04  0.15000000000E+04  0.10566000000E+00 0. -1.
        994   -1    0    0    0    0 -0.00000000000E+00 -0.00000000000E+00  0.11368683772E-12  0.17120000000E+03  0.17120000000E+03 0.  0.
         13    1    1    2    0    0 -0.65251870538E+01  0.11844110548E+02  0.63044410085E+02  0.64478444675E+02  0.10566000000E+00 0. -1.
        994    1    1    2    0    0  0.11040531837E+02  0.16253346440E+01  0.19131793746E+01  0.17157399369E+03  0.17120000000E+03 0.  0.
        998    1    1    2    0    0 -0.45153447833E+01 -0.13469445192E+02  0.14350424068E+04  0.14351475616E+04  0.10000000000E+02 0. -1.
</event>
<event>
 5    1  0.1153629E-008  0.3777320E+03  0.7957747E-01  0.3461094E+00
         13   -1    0    0    0    0  0.00000000000E+00  0.00000000000E+00  0.14999999963E+04  0.15000000000E+04  0.10566000000E+00 0. -1.
        994   -1    0    0    0    0 -0.00000000000E+00 -0.00000000000E+00  0.11368683772E-12  0.17120000000E+03  0.17120000000E+03 0.  0.
         13    1    1    2    0    0 -0.86254710025E+01  0.11599939059E+02 -0.33331378374E-01  0.14455781238E+02  0.10566000000E+00 0. -1.
        994    1    1    2    0    0  0.10322023254E+02 -0.12913629645E+02  0.16069784400E+02  0.17274543110E+03  0.17120000000E+03 0.  0.
        998    1    1    2    0    0 -0.16965522511E+01  0.13136905865E+01  0.14839635433E+04  0.14839987877E+04  0.10000000000E+02 0. -1.
</event>
<event>
 5    1  0.1153629E-008  0.3834181E+03  0.7957747E-01  0.3436409E+00
         13   -1    0    0    0    0  0.00000000000E+00  0.00000000000E+00  0.14999999963E+04  0.15000000000E+04  0.10566000000E+00 0. -1.
        994   -1    0    0    0    0 -0.00000000000E+00 -0.00000000000E+00  0.11368683772E-12  0.17120000000E+03  0.17120000000E+03 0.  0.
         13    1    1    2    0    0 -0.23523867922E+02 -0.16593258267E+01  0.12504503343E+03  0.12724935078E+03  0.10566000000E+00 0. -1.
        994    1    1    2    0    0  0.17664285511E+01  0.30263784689E+02  0.54613740684E+01  0.17394908318E+03  0.17120000000E+03 0.  0.
        998    1    1    2    0    0  0.21757439371E+02 -0.28604458862E+02  0.13694935888E+04  0.13700015660E+04  0.10000000000E+02 0. -1.
</event>
<event>
 5    1  0.1153629E-008  0.3980526E+03  0.7957747E-01  0.3376133E+00
         13   -1    0    0    0    0  0.00000000000E+00  0.00000000000E+00  0.14999999963E+04  0.15000000000E+04  0.10566000000E+00 0. -1.
        994   -1    0    0    0    0 -0.00000000000E+00 -0.00000000000E+00  0.11368683772E-12  0.17120000000E+03  0.17120000000E+03 0.  0.
         13    1    1    2    0    0 -0.86315918837E+01  0.61439241308E+02  0.62322090885E+02  0.87939404860E+02  0.10566000000E+00 0. -1.
        994    1    1    2    0    0 -0.26332820753E+02 -0.55951050579E+02  0.41626440320E+02  0.18672476548E+03  0.17120000000E+03 0.  0.
        998    1    1    2    0    0  0.34964412637E+02 -0.54881907291E+01  0.13960514651E+04  0.13965358297E+04  0.10000000000E+02 0. -1.
</event>
<event>
 5    1  0.1153629E-008  0.3777289E+03  0.7957747E-01  0.3461108E+00
         13   -1    0    0    0    0  0.00000000000E+00  0.00000000000E+00  0.14999999963E+04  0.15000000000E+04  0.10566000000E+00 0.  1.
        994   -1    0    0    0    0 -0.00000000000E+00 -0.00000000000E+00  0.11368683772E-12  0.17120000000E+03  0.17120000000E+03 0.  0.
         13    1    1    2    0    0 -0.13915513635E+02 -0.26765398570E+02  0.94569504723E+02  0.99264447150E+02  0.10566000000E+00 0.  1.
        994    1    1    2    0    0  0.33530366533E+01 -0.93630228811E+01  0.56172308295E+01  0.17158060011E+03  0.17120000000E+03 0.  0.
        998    1    1    2    0    0  0.10562476982E+02  0.36128421451E+02  0.13998132607E+04  0.14003549527E+04  0.10000000000E+02 0.  1.
</event>
<event>
 5    1  0.1153629E-008  0.3839787E+03  0.7957747E-01  0.3434015E+00
         13   -1    0    0    0    0  0.00000000000E+00  0.00000000000E+00  0.14999999963E+04  0.15000000000E+04  0.10566000000E+00 0. -1.
        994   -1    0    0    0    0 -0.00000000000E+00 -0.00000000000E+00  0.11368683772E-12  0.17120000000E+03  0.17120000000E+03 0.  0.
         13    1    1    2    0    0 -0.18173114973E+01 -0.21605836474E+02  0.10413348186E+03  0.10636685574E+03  0.10566000000E+00 0. -1.
        994    1    1    2    0    0  0.10058466498E+02  0.20023864463E+02  0.37965828342E+01  0.17270200328E+03  0.17120000000E+03 0.  0.
        998    1    1    2    0    0 -0.82411550005E+01  0.15819720114E+01  0.13920699316E+04  0.13921311410E+04  0.10000000000E+02 0. -1.
</event>
<event>
 5    1  0.1153629E-008  0.3740052E+03  0.7957747E-01  0.3477684E+00
         13   -1    0    0    0    0  0.00000000000E+00  0.00000000000E+00  0.14999999963E+04  0.15000000000E+04  0.10566000000E+00 0.  1.
        994   -1    0    0    0    0 -0.00000000000E+00 -0.00000000000E+00  0.11368683772E-12  0.17120000000E+03  0.17120000000E+03 0.  0.
         13    1    1    2    0    0 -0.15081978067E+02  0.66339117752E+01  0.15676435734E+02  0.22742837317E+02  0.10566000000E+00 0.  1.
        994    1    1    2    0    0  0.11900352117E+02 -0.64745386331E+01  0.78166952735E+01  0.17191299764E+03  0.17120000000E+03 0.  0.
        998    1    1    2    0    0  0.31816259503E+01 -0.15937314213E+00  0.14765068653E+04  0.14765441650E+04  0.10000000000E+02 0.  1.
</event>
<event>
 5    1  0.1153629E-008  0.3716948E+03  0.7957747E-01  0.3488138E+00
         13   -1    0    0    0    0  0.00000000000E+00  0.00000000000E+00  0.14999999963E+04  0.15000000000E+04  0.10566000000E+00 0.  1.
        994   -1    0    0    0    0 -0.00000000000E+00 -0.00000000000E+00  0.11368683772E-12  0.17120000000E+03  0.17120000000E+03 0.  0.
         13    1    1    2    0    0 -0.62071206760E+02  0.24019501212E+02  0.21294746312E+03  0.22310626249E+03  0.10566000000E+00 0.  1.
        994    1    1    2    0    0  0.68704544768E+02 -0.32625719589E+02  0.28541651418E+02  0.18949622138E+03  0.17120000000E+03 0.  0.
        998    1    1    2    0    0 -0.66333380079E+01  0.86062183777E+01  0.12585108817E+04  0.12585975161E+04  0.10000000000E+02 0.  1.
</event>
<event>
 5    1  0.1153629E-008  0.3857846E+03  0.7957747E-01  0.3426352E+00
         13   -1    0    0    0    0  0.00000000000E+00  0.00000000000E+00  0.14999999963E+04  0.15000000000E+04  0.10566000000E+00 0. -1.
        994   -1    0    0    0    0 -0.00000000000E+00 -0.00000000000E+00  0.11368683772E-12  0.17120000000E+03  0.17120000000E+03 0.  0.
         13    1    1    2    0    0 -0.91666566190E+01  0.11184853452E+02  0.85985925071E+02  0.87193572095E+02  0.10566000000E+00 0. -1.
        994    1    1    2    0    0  0.25726356077E+01 -0.82189485587E+01  0.14844521153E+01  0.17142290736E+03  0.17120000000E+03 0.  0.
        998    1    1    2    0    0  0.65940210112E+01 -0.29659048931E+01  0.14125296191E+04  0.14125835205E+04  0.10000000000E+02 0. -1.
</event>
<event>
 5    1  0.1153629E-008  0.3833491E+03  0.7957747E-01  0.3436704E+00
         13   -1    0    0    0    0  0.00000000000E+00  0.00000000000E+00  0.14999999963E+04  0.15000000000E+04  0.10566000000E+00 0.  1.
        994   -1    0    0    0    0 -0.00000000000E+00 -0.00000000000E+00  0.11368683772E-12  0.17120000000E+03  0.17120000000E+03 0.  0.
         13    1    1    2    0    0 -0.96022655361E+01  0.25231642476E+02  0.13415474079E+03  0.13684423599E+03  0.10566000000E+00 0.  1.
        994    1    1    2    0    0  0.14702694440E+02 -0.25932203066E+02  0.53957038883E+01  0.17385971931E+03  0.17120000000E+03 0.  0.
        998    1    1    2    0    0 -0.51004289037E+01  0.70056059046E+00  0.13604495516E+04  0.13604960447E+04  0.10000000000E+02 0.  1.
</event>
<event>
 5    1  0.1153629E-008  0.3844877E+03  0.7957747E-01  0.3431848E+00
         13   -1    0    0    0    0  0.00000000000E+00  0.00000000000E+00  0.14999999963E+04  0.15000000000E+04  0.10566000000E+00 0. -1.
        994   -1    0    0    0    0 -0.00000000000E+00 -0.00000000000E+00  0.11368683772E-12  0.17120000000E+03  0.17120000000E+03 0.  0.
         13    1    1    2    0    0  0.11043902652E+02 -0.13818469832E+02  0.85733727017E+02  0.87539711026E+02  0.10566000000E+00 0. -1.
        994    1    1    2    0    0 -0.70743071517E+01  0.23959470229E+01  0.20684917396E+01  0.17137533382E+03  0.17120000000E+03 0.  0.
        998    1    1    2    0    0 -0.39695955003E+01  0.11422522809E+02  0.14121977775E+04  0.14122849552E+04  0.10000000000E+02 0. -1.
</event>
<event>
 5    1  0.1153629E-008  0.3944522E+03  0.7957747E-01  0.3390548E+00
         13   -1    0    0    0    0  0.00000000000E+00  0.00000000000E+00  0.14999999963E+04  0.15000000000E+04  0.10566000000E+00 0. -1.
        994   -1    0    0    0    0 -0.00000000000E+00 -0.00000000000E+00  0.11368683772E-12  0.17120000000E+03  0.17120000000E+03 0.  0.
         13    1    1    2    0    0  0.74120772491E+01  0.19166195015E+02 -0.22644133768E+01  0.20674154215E+02  0.10566000000E+00 0. -1.
        994    1    1    2    0    0 -0.10754010810E+02 -0.20907066755E+02  0.26622813998E+02  0.17484555589E+03  0.17120000000E+03 0.  0.
        998    1    1    2    0    0  0.33419335609E+01  0.17408717391E+01  0.14756415957E+04  0.14756802899E+04  0.10000000000E+02 0. -1.
</event>
<event>
 5    1  0.1153629E-008  0.3765278E+03  0.7957747E-01  0.3466418E+00
         13   -1    0    0    0    0  0.00000000000E+00  0.00000000000E+00  0.14999999963E+04  0.15000000000E+04  0.10566000000E+00 0. -1.
        994   -1    0    0    0    0 -0.00000000000E+00 -0.00000000000E+00  0.11368683772E-12  0.17120000000E+03  0.17120000000E+03 0.  0.
         13    1    1    2    0    0 -0.11203908219E+02  0.48439770948E+02  0.20038800961E+03  0.20646380924E+03  0.10566000000E+00 0. -1.
        994    1    1    2    0    0  0.85144136850E+01 -0.33331930701E+02  0.99090890551E+01  0.17490323865E+03  0.17120000000E+03 0.  0.
        998    1    1    2    0    0  0.26894945344E+01 -0.15107840247E+02  0.12897028976E+04  0.12898329521E+04  0.10000000000E+02 0. -1.
</event>
<event>
 5    1  0.1153629E-008  0.3800713E+03  0.7957747E-01  0.3450848E+00
         13   -1    0    0    0    0  0.00000000000E+00  0.00000000000E+00  0.14999999963E+04  0.15000000000E+04  0.10566000000E+00 0.  1.
        994   -1    0    0    0    0 -0.00000000000E+00 -0.00000000000E+00  0.11368683772E-12  0.17120000000E+03  0.17120000000E+03 0.  0.
         13    1    1    2    0    0 -0.50383350896E+02 -0.11486006993E+02  0.29429935294E+03  0.29880182514E+03  0.10566000000E+00 0.  1.
        994    1    1    2    0    0  0.34547197724E+02  0.35100438921E+02  0.12246622984E+02  0.17856362860E+03  0.17120000000E+03 0.  0.
        998    1    1    2    0    0  0.15836153173E+02 -0.23614431928E+02  0.11934540204E+04  0.11938345463E+04  0.10000000000E+02 0.  1.
</event>
<event>
 5    1  0.1153629E-008  0.3853644E+03  0.7957747E-01  0.3428128E+00
         13   -1    0    0    0    0  0.00000000000E+00  0.00000000000E+00  0.14999999963E+04  0.15000000000E+04  0.10566000000E+00 0. -1.
        994   -1    0    0    0    0 -0.00000000000E+00 -0.00000000000E+00  0.11368683772E-12  0.17120000000E+03  0.17120000000E+03 0.  0.
         13    1    1    2    0    0  0.13296190598E+02 -0.28395050147E+01  0.63638933131E+02  0.65075159986E+02  0.10566000000E+00 0. -1.
        994    1    1    2    0    0 -0.11461463008E+02 -0.60159444706E+01  0.19998993474E+01  0.17170030961E+03  0.17120000000E+03 0.  0.
        998    1    1    2    0    0 -0.18347275901E+01  0.88554494853E+01  0.14343611638E+04  0.14344245304E+04  0.10000000000E+02 0. -1.
</event>
<event>
 5    1  0.1153629E-008  0.3814335E+03  0.7957747E-01  0.3444940E+00
         13   -1    0    0    0    0  0.00000000000E+00  0.00000000000E+00  0.14999999963E+04  0.15000000000E+04  0.10566000000E+00 0. -1.
        994   -1    0    0    0    0 -0.00000000000E+00 -0.00000000000E+00  0.11368683772E-12  0.17120000000E+03  0.17120000000E+03 0.  0.
         13    1    1    2    0    0 -0.15711689165E+03 -0.15123502857E+03  0.11555427209E+04  0.11759407904E+04  0.10566000000E+00 0. -1.
        994    1    1    2    0    0  0.14767822660E+03  0.15544926512E+03  0.17552837068E+03  0.32571917590E+03  0.17120000000E+03 0.  0.
        998    1    1    2    0    0  0.94386650488E+01 -0.42142365442E+01  0.16892890471E+03  0.16954003372E+03  0.10000000000E+02 0.  1.
</event>
<event>
 5    1  0.1153629E-008  0.3701110E+03  0.7957747E-01  0.3495381E+00
         13   -1    0    0    0    0  0.00000000000E+00  0.00000000000E+00  0.14999999963E+04  0.15000000000E+04  0.10566000000E+00 0. -1.
        994   -1    0    0    0    0 -0.00000000000E+00 -0.00000000000E+00  0.11368683772E-12  0.17120000000E+03  0.17120000000E+03 0.  0.
         13    1    1    2    0    0 -0.17749663182E+02  0.17022502303E+02  0.29224391151E+02  0.38195449073E+02  0.10566000000E+00 0. -1.
        994    1    1    2    0    0  0.11339039877E+02 -0.93096913046E+01  0.99553457127E+01  0.17211563870E+03  0.17120000000E+03 0.  0.
        998    1    1    2    0    0  0.64106233053E+01 -0.77128109981E+01  0.14608202594E+04  0.14608889122E+04  0.10000000000E+02 0. -1.
</event>
<event>
 5    1  0.1153629E-008  0.3830506E+03  0.7957747E-01  0.3437982E+00
         13   -1    0    0    0    0  0.00000000000E+00  0.00000000000E+00  0.14999999963E+04  0.15000000000E+04  0.10566000000E+00 0.  1.
        994   -1    0    0    0    0 -0.00000000000E+00 -0.00000000000E+00  0.11368683772E-12  0.17120000000E+03  0.17120000000E+03 0.  0.
         13    1    1    2    0    0  0.32347850068E+01 -0.20957758025E+02  0.82956874361E+02  0.85624445243E+02  0.10566000000E+00 0.  1.
        994    1    1    2    0    0  0.37376777603E+00  0.19353813833E+02  0.38421880071E+01  0.17233372340E+03  0.17120000000E+03 0.  0.
        998    1    1    2    0    0 -0.36085527828E+01  0.16039441914E+01  0.14132009339E+04  0.14132418314E+04  0.10000000000E+02 0.  1.
</event>
<event>
 5    1  0.1153629E-008  0.3838927E+03  0.7957747E-01  0.3434382E+00
         13   -1    0    0    0    0  0.00000000000E+00  0.00000000000E+00  0.14999999963E+04  0.15000000000E+04  0.10566000000E+00 0.  1.
        994   -1    0    0    0    0 -0.00000000000E+00 -0.00000000000E+00  0.11368683772E-12  0.17120000000E+03  0.17120000000E+03 0.  0.
         13    1    1    2    0    0 -0.89136467388E+01 -0.10102433601E+02  0.41262341347E+02  0.43406269597E+02  0.10566000000E+00 0.  1.
        994    1    1    2    0    0  0.50152925668E+01  0.62309517396E+01  0.23920616557E+01  0.17140344185E+03  0.17120000000E+03 0.  0.
        998    1    1    2    0    0  0.38983541720E+01  0.38714818614E+01  0.14563455933E+04  0.14563902886E+04  0.10000000000E+02 0.  1.
</event>
<event>
 5    1  0.1153629E-008  0.3753424E+03  0.7957747E-01  0.3471693E+00
         13   -1    0    0    0    0  0.00000000000E+00  0.00000000000E+00  0.14999999963E+04  0.15000000000E+04  0.10566000000E+00 0.  1.
        994   -1    0    0    0    0 -0.00000000000E+00 -0.00000000000E+00  0.11368683772E-12  0.17120000000E+03  0.17120000000E+03 0.  0.
         13    1    1    2    0    0  0.13849852439E+02  0.55602886037E+02  0.19941355951E+03  0.20748319987E+03  0.10566000000E+00 0.  1.
        994    1    1    2    0    0 -0.10261248779E+02 -0.71419351085E+02  0.24389272668E+02  0.18737740941E+03  0.17120000000E+03 0.  0.
        998    1    1    2    0    0 -0.35886036600E+01  0.15816465047E+02  0.12761971641E+04  0.12763393907E+04  0.10000000000E+02 0.  1.
</event>
<event>
 5    1  0.1153629E-008  0.3846382E+03  0.7957747E-01  0.3431208E+00
         13   -1    0    0    0    0  0.00000000000E+00  0.00000000000E+00  0.14999999963E+04  0.15000000000E+04  0.10566000000E+00 0.  1.
        994   -1    0    0    0    0 -0.00000000000E+00 -0.00000000000E+00  0.11368683772E-12  0.17120000000E+03  0.17120000000E+03 0.  0.
         13    1    1    2    0    0  0.16321196438E+02  0.62252662397E+01  0.78825168126E+02  0.80737560572E+02  0.10566000000E+00 0.  1.
        994    1    1    2    0    0 -0.18166203760E+02 -0.12072037613E+02  0.33778113614E+01  0.17261690143E+03  0.17120000000E+03 0.  0.
        998    1    1    2    0    0  0.18450073217E+01  0.58467713736E+01  0.14177970168E+04  0.14178455380E+04  0.10000000000E+02 0.  1.
</event>
<event>
 5    1  0.1153629E-008  0.3817608E+03  0.7957747E-01  0.3443527E+00
         13   -1    0    0    0    0  0.00000000000E+00  0.00000000000E+00  0.14999999963E+04  0.15000000000E+04  0.10566000000E+00 0.  1.
        994   -1    0    0    0    0 -0.00000000000E+00 -0.00000000000E+00  0.11368683772E-12  0.17120000000E+03  0.17120000000E+03 0.  0.
         13    1    1    2    0    0  0.28264266079E+02  0.72575488325E+01  0.11736584933E+03  0.12093921823E+03  0.10566000000E+00 0.  1.
        994    1    1    2    0    0 -0.33108024340E+02 -0.92842312310E+01  0.71865088638E+01  0.17476677068E+03  0.17120000000E+03 0.  0.
        998    1    1    2    0    0  0.48437582616E+01  0.20266823984E+01  0.13754476381E+04  0.13754940111E+04  0.10000000000E+02 0.  1.
</event>
<event>
 5    1  0.1153629E-008  0.3800551E+03  0.7957747E-01  0.3450918E+00
         13   -1    0    0    0    0  0.00000000000E+00  0.00000000000E+00  0.14999999963E+04  0.15000000000E+04  0.10566000000E+00 0.  1.
        994   -1    0    0    0    0 -0.00000000000E+00 -0.00000000000E+00  0.11368683772E-12  0.17120000000E+03  0.17120000000E+03 0.  0.
         13    1    1    2    0    0 -0.25044353361E+02 -0.48986756601E+01  0.82846776161E+02  0.86688039214E+02  0.10566000000E+00 0.  1.
        994    1    1    2    0    0  0.18068913487E+01  0.55770357483E+01  0.42201980415E+01  0.17135232200E+03  0.17120000000E+03 0.  0.
        998    1    1    2    0    0  0.23237462013E+02 -0.67836008825E+00  0.14129330221E+04  0.14131596388E+04  0.10000000000E+02 0.  1.
</event>
<event>
 5    1  0.1153629E-008  0.4038678E+03  0.7957747E-01  0.3353392E+00
         13   -1    0    0    0    0  0.00000000000E+00  0.00000000000E+00  0.14999999963E+04  0.15000000000E+04  0.10566000000E+00 0. -1.
        994   -1    0    0    0    0 -0.00000000000E+00 -0.00000000000E+00  0.11368683772E-12  0.17120000000E+03  0.17120000000E+03 0.  0.
         13    1    1    2    0    0 -0.67818891213E+02 -0.63683612861E+02  0.13759048489E+03  0.16609081025E+03  0.10566000000E+00 0. -1.
        994    1    1    2    0    0  0.52792899784E+02  0.31006965825E+02  0.45176009809E+02  0.18734682826E+03  0.17120000000E+03 0.  0.
        998    1    1    2    0    0  0.15025991429E+02  0.32676647036E+02  0.13172335016E+04  0.13177623615E+04  0.10000000000E+02 0. -1.
</event>
<event>
 5    1  0.1153629E-008  0.3858336E+03  0.7957747E-01  0.3426145E+00
         13   -1    0    0    0    0  0.00000000000E+00  0.00000000000E+00  0.14999999963E+04  0.15000000000E+04  0.10566000000E+00 0. -1.
        994   -1    0    0    0    0 -0.00000000000E+00 -0.00000000000E+00  0.11368683772E-12  0.17120000000E+03  0.17120000000E+03 0.  0.
         13    1    1    2    0    0 -0.98931355913E+01 -0.74429766992E+01  0.62536912645E+02  0.63750675613E+02  0.10566000000E+00 0. -1.
        994    1    1    2    0    0  0.69525732973E+01  0.82837238118E+01  0.16005488207E+01  0.17154871061E+03  0.17120000000E+03 0.  0.
        998    1    1    2    0    0  0.29405622940E+01 -0.84074711269E+00  0.14358625348E+04  0.14359006138E+04  0.10000000000E+02 0. -1.
</event>
<event>
 5    1  0.1153629E-008  0.3800487E+03  0.7957747E-01  0.3450947E+00
         13   -1    0    0    0    0  0.00000000000E+00  0.00000000000E+00  0.14999999963E+04  0.15000000000E+04  0.10566000000E+00 0. -1.
        994   -1    0    0    0    0 -0.00000000000E+00 -0.00000000000E+00  0.11368683772E-12  0.17120000000E+03  0.17120000000E+03 0.  0.
         13    1    1    2    0    0  0.23827299712E+02 -0.22185575743E+02  0.12707865765E+03  0.13118283568E+03  0.10566000000E+00 0. -1.
        994    1    1    2    0    0 -0.17264586127E+02  0.10957675839E+02  0.55073863982E+01  0.17250480544E+03  0.17120000000E+03 0.  0.
        998    1    1    2    0    0 -0.65627135852E+01  0.11227899903E+02  0.13674139522E+04  0.13675123589E+04  0.10000000000E+02 0. -1.
</event>
<event>
 5    1  0.1153629E-008  0.3804460E+03  0.7957747E-01  0.3449219E+00
         13   -1    0    0    0    0  0.00000000000E+00  0.00000000000E+00  0.14999999963E+04  0.15000000000E+04  0.10566000000E+00 0.  1.
        994   -1    0    0    0    0 -0.00000000000E+00 -0.00000000000E+00  0.11368683772E-12  0.17120000000E+03  0.17120000000E+03 0.  0.
         13    1    1    2    0    0 -0.11305385408E+02  0.30818142438E+02  0.12688906562E+03  0.13106645559E+03  0.10566000000E+00 0.  1.
        994    1    1    2    0    0  0.55073352282E+01 -0.32089163890E+02  0.74546982417E+01  0.17442780084E+03  0.17120000000E+03 0.  0.
        998    1    1    2    0    0  0.57980501798E+01  0.12710214519E+01  0.13656562324E+04  0.13657057436E+04  0.10000000000E+02 0.  1.
</event>
<event>
 5    1  0.1153629E-008  0.3747019E+03  0.7957747E-01  0.3474557E+00
         13   -1    0    0    0    0  0.00000000000E+00  0.00000000000E+00  0.14999999963E+04  0.15000000000E+04  0.10566000000E+00 0.  1.
        994   -1    0    0    0    0 -0.00000000000E+00 -0.00000000000E+00  0.11368683772E-12  0.17120000000E+03  0.17120000000E+03 0.  0.
         13    1    1    2    0    0  0.10619651469E+02  0.97825554354E+01  0.12113662612E+02  0.18847476597E+02  0.10566000000E+00 0.  1.
        994    1    1    2    0    0 -0.99009085734E+01 -0.10452650334E+02  0.75375016537E+01  0.17196958981E+03  0.17120000000E+03 0.  0.
        998    1    1    2    0    0 -0.71874289592E+00  0.67009489901E+00  0.14803488320E+04  0.14803829336E+04  0.10000000000E+02 0.  1.
</event>
<event>
 5    1  0.1153629E-008  0.3807761E+03  0.7957747E-01  0.3447786E+00
         13   -1    0    0    0    0  0.00000000000E+00  0.00000000000E+00  0.14999999963E+04  0.15000000000E+04  0.10566000000E+00 0. -1.
        994   -1    0    0    0    0 -0.00000000000E+00 -0.00000000000E+00  0.11368683772E-12  0.17120000000E+03  0.17120000000E+03 0.  0.
         13    1    1    2    0    0 -0.71214655581E+01  0.22159162619E+02  0.70403729735E+02  0.74151467176E+02  0.10566000000E+00 0. -1.
        994    1    1    2    0    0  0.14758003831E+02 -0.12966300598E+02  0.50297752951E+01  0.17239681629E+03  0.17120000000E+03 0.  0.
        998    1    1    2    0    0 -0.76365382731E+01 -0.91928620206E+01  0.14245664912E+04  0.14246517165E+04  0.10000000000E+02 0. -1.
</event>
<event>
 5    1  0.1153629E-008  0.3757425E+03  0.7957747E-01  0.3469909E+00
         13   -1    0    0    0    0  0.00000000000E+00  0.00000000000E+00  0.14999999963E+04  0.15000000000E+04  0.10566000000E+00 0.  1.
        994   -1    0    0    0    0 -0.00000000000E+00 -0.00000000000E+00  0.11368683772E-12  0.17120000000E+03  0.17120000000E+03 0.  0.
         13    1    1    2    0    0  0.13164575190E+02 -0.17685831015E+02  0.34769255171E+02  0.41170461836E+02  0.10566000000E+00 0.  1.
        994    1    1    2    0    0 -0.12422973801E+02  0.25064532278E+02  0.89559135271E+01  0.17370149523E+03  0.17120000000E+03 0.  0.
        998    1    1    2    0    0 -0.74160138884E+00 -0.73787012627E+01  0.14562748276E+04  0.14563280429E+04  0.10000000000E+02 0.  1.
</event>
<event>
 5    1  0.1153629E-008  0.3823497E+03  0.7957747E-01  0.3440991E+00
         13   -1    0    0    0    0  0.00000000000E+00  0.00000000000E+00  0.14999999963E+04  0.15000000000E+04  0.10566000000E+00 0.  1.
        994   -1    0    0    0    0 -0.00000000000E+00 -0.00000000000E+00  0.11368683772E-12  0.17120000000E+03  0.17120000000E+03 0.  0.
         13    1    1    2    0    0  0.16313897550E+02 -0.51136435930E+01  0.49662455268E+02  0.52522978127E+02  0.10566000000E+00 0.  1.
        994    1    1    2    0    0 -0.28535472302E+01  0.10849327190E+02  0.33692861556E+01  0.17160024103E+03  0.17120000000E+03 0.  0.
        998    1    1    2    0    0 -0.13460350320E+02 -0.57356835969E+01  0.14469682549E+04  0.14470767808E+04  0.10000000000E+02 0.  1.
</event>
<event>
 5    1  0.1153629E-008  0.3816115E+03  0.7957747E-01  0.3444172E+00
         13   -1    0    0    0    0  0.00000000000E+00  0.00000000000E+00  0.14999999963E+04  0.15000000000E+04  0.10566000000E+00 0. -1.
        994   -1    0    0    0    0 -0.00000000000E+00 -0.00000000000E+00  0.11368683772E-12  0.17120000000E+03  0.17120000000E+03 0.  0.
         13    1    1    2    0    0  0.77857633054E+01 -0.42677711908E+02  0.22040013871E+03  0.22462911101E+03  0.10566000000E+00 0. -1.
        994    1    1    2    0    0  0.19391650295E+02  0.60862342870E+02  0.17010485170E+02  0.18351854807E+03  0.17120000000E+03 0.  0.
        998    1    1    2    0    0 -0.27177413600E+02 -0.18184630961E+02  0.12625893724E+04  0.12630523409E+04  0.10000000000E+02 0. -1.
</event>
<event>
 5    1  0.1153629E-008  0.3854652E+03  0.7957747E-01  0.3427702E+00
         13   -1    0    0    0    0  0.00000000000E+00  0.00000000000E+00  0.14999999963E+04  0.15000000000E+04  0.10566000000E+00 0.  1.
        994   -1    0    0    0    0 -0.00000000000E+00 -0.00000000000E+00  0.11368683772E-12  0.17120000000E+03  0.17120000000E+03 0.  0.
         13    1    1    2    0    0 -0.80773991373E+01 -0.16867397484E+02  0.11143633021E+03  0.11299478010E+03  0.10566000000E+00 0.  1.
        994    1    1    2    0    0  0.56295602600E+01  0.25523538039E+02  0.36458018807E+01  0.17322203905E+03  0.17120000000E+03 0.  0.
        998    1    1    2    0    0  0.24478388773E+01 -0.86561405553E+01  0.13849178642E+04  0.13849831808E+04  0.10000000000E+02 0.  1.
</event>
<event>
 5    1  0.1153629E-008  0.3765695E+03  0.7957747E-01  0.3466233E+00
         13   -1    0    0    0    0  0.00000000000E+00  0.00000000000E+00  0.14999999963E+04  0.15000000000E+04  0.10566000000E+00 0. -1.
        994   -1    0    0    0    0 -0.00000000000E+00 -0.00000000000E+00  0.11368683772E-12  0.17120000000E+03  0.17120000000E+03 0.  0.
         13    1    1    2    0    0 -0.57931715786E+00  0.86127861469E+02  0.23201724915E+03  0.24748809910E+03  0.10566000000E+00 0. -1.
        994    1    1    2    0    0 -0.32139259716E+02 -0.69959366844E+02  0.35984109349E+02  0.19113226088E+03  0.17120000000E+03 0.  0.
        998    1    1    2    0    0  0.32718576874E+02 -0.16168494625E+02  0.12319986378E+04  0.12325796400E+04  0.10000000000E+02 0. -1.
</event>
<event>
 5    1  0.1153629E-008  0.3806487E+03  0.7957747E-01  0.3448339E+00
         13   -1    0    0    0    0  0.00000000000E+00  0.00000000000E+00  0.14999999963E+04  0.15000000000E+04  0.10566000000E+00 0. -1.
        994   -1    0    0    0    0 -0.00000000000E+00 -0.00000000000E+00  0.11368683772E-12  0.17120000000E+03  0.17120000000E+03 0.  0.
         13    1    1    2    0    0 -0.16371921827E+02 -0.59544313023E+01  0.37887351018E+02  0.41700810635E+02  0.10566000000E+00 0. -1.
        994    1    1    2    0    0  0.17083769501E+02 -0.84327373789E+00  0.47825866376E+01  0.17211879452E+03  0.17120000000E+03 0.  0.
        998    1    1    2    0    0 -0.71184767362E+00  0.67977050402E+01  0.14573300586E+04  0.14573803948E+04  0.10000000000E+02 0. -1.
</event>
<event>
 5    1  0.1153629E-008  0.3828233E+03  0.7957747E-01  0.3438956E+00
         13   -1    0    0    0    0  0.00000000000E+00  0.00000000000E+00  0.14999999963E+04  0.15000000000E+04  0.10566000000E+00 0.  1.
        994   -1    0    0    0    0 -0.00000000000E+00 -0.00000000000E+00  0.11368683772E-12  0.17120000000E+03  0.17120000000E+03 0.  0.
         13    1    1    2    0    0  0.14577985575E+02 -0.11695474164E+03  0.59762106315E+03  0.60913206741E+03  0.10566000000E+00 0.  1.
        994    1    1    2    0    0 -0.34182616913E+02  0.16904830346E+03  0.10842705900E+03  0.26610457967E+03  0.17120000000E+03 0.  0.
        998    1    1    2    0    0  0.19604631338E+02 -0.52093561818E+02  0.79395187413E+03  0.79596335292E+03  0.10000000000E+02 0.  1.
</event>
<event>
 5    1  0.1153629E-008  0.3786110E+03  0.7957747E-01  0.3457229E+00
         13   -1    0    0    0    0  0.00000000000E+00  0.00000000000E+00  0.14999999963E+04  0.15000000000E+04  0.10566000000E+00 0.  1.
        994   -1    0    0    0    0 -0.00000000000E+00 -0.00000000000E+00  0.11368683772E-12  0.17120000000E+03  0.17120000000E+03 0.  0.
         13    1    1    2    0    0  0.11941081437E+03 -0.32509489889E+02  0.39410416277E+03  0.41307857824E+03  0.10566000000E+00 0.  1.
        994    1    1    2    0    0 -0.11311045068E+03 -0.62867289051E+01  0.63425002324E+02  0.21486197414E+03  0.17120000000E+03 0.  0.
        998    1    1    2    0    0 -0.63003636931E+01  0.38796218794E+02  0.10424708312E+04  0.10432594476E+04  0.10000000000E+02 0.  1.
</event>
<event>
 5    1  0.1153629E-008  0.3842083E+03  0.7957747E-01  0.3433037E+00
         13   -1    0    0    0    0  0.00000000000E+00  0.00000000000E+00  0.14999999963E+04  0.15000000000E+04  0.10566000000E+00 0. -1.
        994   -1    0    0    0    0 -0.00000000000E+00 -0.00000000000E+00  0.11368683772E-12  0.17120000000E+03  0.17120000000E+03 0.  0.
         13    1    1    2    0    0 -0.21164036326E+02  0.36549673267E+01  0.10730058659E+03  0.10942898276E+03  0.10566000000E+00 0. -1.
        994    1    1    2    0    0  0.22667476032E+02  0.56291625691E+01  0.38243807668E+01  0.17282814536E+03  0.17120000000E+03 0.  0.
        998    1    1    2    0    0 -0.15034397064E+01 -0.92841298958E+01  0.13888750289E+04  0.13889428719E+04  0.10000000000E+02 0. -1.
</event>
<event>
 5    1  0.1153629E-008  0.3863965E+03  0.7957747E-01  0.3423771E+00
         13   -1    0    0    0    0  0.00000000000E+00  0.00000000000E+00  0.14999999963E+04  0.15000000000E+04  0.10566000000E+00 0. -1.
        994   -1    0    0    0    0 -0.00000000000E+00 -0.00000000000E+00  0.11368683772E-12  0.17120000000E+03  0.17120000000E+03 0.  0.
         13    1    1    2    0    0 -0.23598691002E+02  0.35838320045E+02  0.39114225220E+02  0.58062183728E+02  0.10566000000E+00 0. -1.
        994    1    1    2    0    0  0.58233489846E+01 -0.30491262205E+02  0.23469971831E+02  0.17556738889E+03  0.17120000000E+03 0.  0.
        998    1    1    2    0    0  0.17775342018E+02 -0.53470578396E+01  0.14374157992E+04  0.14375704274E+04  0.10000000000E+02 0. -1.
</event>
<event>
 5    1  0.1153629E-008  0.3859567E+03  0.7957747E-01  0.3425625E+00
         13   -1    0    0    0    0  0.00000000000E+00  0.00000000000E+00  0.14999999963E+04  0.15000000000E+04  0.10566000000E+00 0.  1.
        994   -1    0    0    0    0 -0.00000000000E+00 -0.00000000000E+00  0.11368683772E-12  0.17120000000E+03  0.17120000000E+03 0.  0.
         13    1    1    2    0    0  0.92808234641E-01 -0.12877025361E+02  0.74607252800E+02  0.75710499469E+02  0.10566000000E+00 0.  1.
        994    1    1    2    0    0  0.86682137624E+01  0.51635795462E+01  0.14897270887E+01  0.17150352699E+03  0.17120000000E+03 0.  0.
        998    1    1    2    0    0 -0.87610219971E+01  0.77134458151E+01  0.14239030164E+04  0.14239859735E+04  0.10000000000E+02 0.  1.
</event>
<event>
 5    1  0.1153629E-008  0.3842269E+03  0.7957747E-01  0.3432958E+00
         13   -1    0    0    0    0  0.00000000000E+00  0.00000000000E+00  0.14999999963E+04  0.15000000000E+04  0.10566000000E+00 0. -1.
        994   -1    0    0    0    0 -0.00000000000E+00 -0.00000000000E+00  0.11368683772E-12  0.17120000000E+03  0.17120000000E+03 0.  0.
         13    1    1    2    0    0 -0.98523840586E+01 -0.50034757161E+01  0.28953491412E+02  0.30990644876E+02  0.10566000000E+00 0. -1.
        994    1    1    2    0    0  0.11882513778E+02  0.91078194397E+01  0.27537909898E+01  0.17187544872E+03  0.17120000000E+03 0.  0.
        998    1    1    2    0    0 -0.20301297191E+01 -0.41043437236E+01  0.14682927139E+04  0.14683339064E+04  0.10000000000E+02 0. -1.
</event>
<event>
 5    1  0.1153629E-008  0.3856732E+03  0.7957747E-01  0.3426822E+00
         13   -1    0    0    0    0  0.00000000000E+00  0.00000000000E+00  0.14999999963E+04  0.15000000000E+04  0.10566000000E+00 0.  1.
        994   -1    0    0    0    0 -0.00000000000E+00 -0.00000000000E+00  0.11368683772E-12  0.17120000000E+03  0.17120000000E+03 0.  0.
         13    1    1    2    0    0  0.18275191970E+02 -0.38612690804E+02  0.31994852890E+02  0.53372317808E+02  0.10566000000E+00 0.  1.
        994    1    1    2    0    0 -0.66977840592E+02  0.86800973814E+02  0.65462757193E+02  0.21357727586E+03  0.17120000000E+03 0.  0.
        998    1    1    2    0    0  0.48702648622E+02 -0.48188283010E+02  0.14025423862E+04  0.14042504063E+04  0.10000000000E+02 0.  1.
</event>
<event>
 5    1  0.1153629E-008  0.3813894E+03  0.7957747E-01  0.3445131E+00
         13   -1    0    0    0    0  0.00000000000E+00  0.00000000000E+00  0.14999999963E+04  0.15000000000E+04  0.10566000000E+00 0. -1.
        994   -1    0    0    0    0 -0.00000000000E+00 -0.00000000000E+00  0.11368683772E-12  0.17120000000E+03  0.17120000000E+03 0.  0.
         13    1    1    2    0    0 -0.44885209892E+01 -0.13514907974E+02  0.27801199234E+02  0.31236475491E+02  0.10566000000E+00 0. -1.
        994    1    1    2    0    0  0.55419725293E+01  0.13290800364E+02  0.41237451667E+01  0.17185401976E+03  0.17120000000E+03 0.  0.
        998    1    1    2    0    0 -0.10534515401E+01  0.22410760979E+00  0.14680750519E+04  0.14681095047E+04  0.10000000000E+02 0. -1.
</event>
<event>
 5    1  0.1153629E-008  0.3707015E+03  0.7957747E-01  0.3492673E+00
         13   -1    0    0    0    0  0.00000000000E+00  0.00000000000E+00  0.14999999963E+04  0.15000000000E+04  0.10566000000E+00 0. -1.
        994   -1    0    0    0    0 -0.00000000000E+00 -0.00000000000E+00  0.11368683772E-12  0.17120000000E+03  0.17120000000E+03 0.  0.
         13    1    1    2    0    0  0.36662242531E+01  0.54925879042E+02  0.14667270053E+03  0.15666264914E+03  0.10566000000E+00 0. -1.
        994    1    1    2    0    0 -0.46438911250E+02 -0.59864376182E+02  0.28971633350E+02  0.18944421752E+03  0.17120000000E+03 0.  0.
        998    1    1    2    0    0  0.42772686997E+02  0.49384971400E+01  0.13243556624E+04  0.13250931333E+04  0.10000000000E+02 0. -1.
</event>
<event>
 5    1  0.1153629E-008  0.3805234E+03  0.7957747E-01  0.3448883E+00
         13   -1    0    0    0    0  0.00000000000E+00  0.00000000000E+00  0.14999999963E+04  0.15000000000E+04  0.10566000000E+00 0. -1.
        994   -1    0    0    0    0 -0.00000000000E+00 -0.00000000000E+00  0.11368683772E-12  0.17120000000E+03  0.17120000000E+03 0.  0.
         13    1    1    2    0    0 -0.41523473142E+01 -0.20357138825E+02  0.54223770294E+02  0.58067921594E+02  0.10566000000E+00 0. -1.
        994    1    1    2    0    0  0.27968969855E+01  0.13880762592E+02  0.45385404152E+01  0.17184451272E+03  0.17120000000E+03 0.  0.
        998    1    1    2    0    0  0.13554503287E+01  0.64763762327E+01  0.14412376856E+04  0.14412875657E+04  0.10000000000E+02 0. -1.
</event>
<event>
 5    1  0.1153629E-008  0.3813329E+03  0.7957747E-01  0.3445375E+00
         13   -1    0    0    0    0  0.00000000000E+00  0.00000000000E+00  0.14999999963E+04  0.15000000000E+04  0.10566000000E+00 0. -1.
        994   -1    0    0    0    0 -0.00000000000E+00 -0.00000000000E+00  0.11368683772E-12  0.17120000000E+03  0.17120000000E+03 0.  0.
         13    1    1    2    0    0 -0.27632656993E+02 -0.20561650242E+02  0.17945544196E+03  0.18273098261E+03  0.10566000000E+00 0. -1.
        994    1    1    2    0    0  0.37723502260E+02 -0.24078324954E+02  0.10156607409E+02  0.17724397036E+03  0.17120000000E+03 0.  0.
        998    1    1    2    0    0 -0.10090845267E+02  0.44639975196E+02  0.13103879469E+04  0.13112250470E+04  0.10000000000E+02 0. -1.
</event>
<event>
 5    1  0.1153629E-008  0.3851910E+03  0.7957747E-01  0.3428863E+00
         13   -1    0    0    0    0  0.00000000000E+00  0.00000000000E+00  0.14999999963E+04  0.15000000000E+04  0.10566000000E+00 0.  1.
        994   -1    0    0    0    0 -0.00000000000E+00 -0.00000000000E+00  0.11368683772E-12  0.17120000000E+03  0.17120000000E+03 0.  0.
         13    1    1    2    0    0 -0.15378772789E+02 -0.71028832536E+01  0.92012196167E+02  0.93558607357E+02  0.10566000000E+00 0.  1.
        994    1    1    2    0    0  0.14478236952E+02  0.22704573165E+00  0.22247468806E+01  0.17182566861E+03  0.17120000000E+03 0.  0.
        998    1    1    2    0    0  0.90053583757E+00  0.68758375220E+01  0.14057630532E+04  0.14058157240E+04  0.10000000000E+02 0.  1.
</event>
<event>
 5    1  0.1153629E-008  0.3839513E+03  0.7957747E-01  0.3434132E+00
         13   -1    0    0    0    0  0.00000000000E+00  0.00000000000E+00  0.14999999963E+04  0.15000000000E+04  0.10566000000E+00 0. -1.
        994   -1    0    0    0    0 -0.00000000000E+00 -0.00000000000E+00  0.11368683772E-12  0.17120000000E+03  0.17120000000E+03 0.  0.
         13    1    1    2    0    0  0.18893824631E+02 -0.33120084491E+00  0.86265064625E+02  0.88310581710E+02  0.10566000000E+00 0. -1.
        994    1    1    2    0    0 -0.52723166084E+01 -0.31346140075E+01  0.22758795859E+01  0.17132496244E+03  0.17120000000E+03 0.  0.
        998    1    1    2    0    0 -0.13621508022E+02  0.34658148524E+01  0.14114590521E+04  0.14115644558E+04  0.10000000000E+02 0. -1.
</event>
<event>
 5    1  0.1153629E-008  0.3688970E+03  0.7957747E-01  0.3500975E+00
         13   -1    0    0    0    0  0.00000000000E+00  0.00000000000E+00  0.14999999963E+04  0.15000000000E+04  0.10566000000E+00 0.  1.
        994   -1    0    0    0    0 -0.00000000000E+00 -0.00000000000E+00  0.11368683772E-12  0.17120000000E+03  0.17120000000E+03 0.  0.
         13    1    1    2    0    0  0.14706652740E+02 -0.20646906894E+02  0.28225484535E+02  0.37937706050E+02  0.10566000000E+00 0.  1.
        994    1    1    2    0    0 -0.38369560455E+01  0.25122582639E+02  0.12091684916E+02  0.17349788251E+03  0.17120000000E+03 0.  0.
        998    1    1    2    0    0 -0.10869696694E+02 -0.44756757444E+01  0.14596828268E+04  0.14597644114E+04  0.10000000000E+02 0.  1.
</event>
<event>
 5    1  0.1153629E-008  0.3815415E+03  0.7957747E-01  0.3444474E+00
         13   -1    0    0    0    0  0.00000000000E+00  0.00000000000E+00  0.14999999963E+04  0.15000000000E+04  0.10566000000E+00 0.  1.
        994   -1    0    0    0    0 -0.00000000000E+00 -0.00000000000E+00  0.11368683772E-12  0.17120000000E+03  0.17120000000E+03 0.  0.
         13    1    1    2    0    0  0.14799808877E+02 -0.68872348299E+01  0.37595101899E+02  0.40986231801E+02  0.10566000000E+00 0.  1.
        994    1    1    2    0    0 -0.17805675586E+02  0.26612461822E+01  0.44358064370E+01  0.17220116345E+03  0.17120000000E+03 0.  0.
        998    1    1    2    0    0  0.30058667088E+01  0.42259886477E+01  0.14579690879E+04  0.14580126048E+04  0.10000000000E+02 0.  1.
</event>
<event>
 5    1  0.1153629E-008  0.3859009E+03  0.7957747E-01  0.3425860E+00
         13   -1    0    0    0    0  0.00000000000E+00  0.00000000000E+00  0.14999999963E+04  0.15000000000E+04  0.10566000000E+00 0. -1.
        994   -1    0    0    0    0 -0.00000000000E+00 -0.00000000000E+00  0.11368683772E-12  0.17120000000E+03  0.17120000000E+03 0.  0.
         13    1    1    2    0    0 -0.83238332809E+00  0.14624872029E+02  0.74881016059E+02  0.76300442161E+02  0.10566000000E+00 0. -1.
        994    1    1    2    0    0  0.79385313772E+01 -0.35579742427E+02  0.55533700855E+01  0.17512629235E+03  0.17120000000E+03 0.  0.
        998    1    1    2    0    0 -0.71061480491E+01  0.20954870397E+02  0.14195656101E+04  0.14197732655E+04  0.10000000000E+02 0. -1.
</event>
<event>
 5    1  0.1153629E-008  0.3796631E+03  0.7957747E-01  0.3452627E+00
         13   -1    0    0    0    0  0.00000000000E+00  0.00000000000E+00  0.14999999963E+04  0.15000000000E+04  0.10566000000E+00 0.  1.
        994   -1    0    0    0    0 -0.00000000000E+00 -0.00000000000E+00  0.11368683772E-12  0.17120000000E+03  0.17120000000E+03 0.  0.
         13    1    1    2    0    0 -0.15964738987E+03 -0.50565005212E+01  0.87339715525E+03  0.88788257064E+03  0.10566000000E+00 0.  1.
        994    1    1    2    0    0  0.16868241877E+03  0.18334494893E+02  0.10759045760E+03  0.26396033541E+03  0.17120000000E+03 0.  0.
        998    1    1    2    0    0 -0.90350288966E+01 -0.13277994372E+02  0.51901238343E+03  0.51935709395E+03  0.10000000000E+02 0.  1.
</event>
<event>
 5    1  0.1153629E-008  0.3698978E+03  0.7957747E-01  0.3496361E+00
         13   -1    0    0    0    0  0.00000000000E+00  0.00000000000E+00  0.14999999963E+04  0.15000000000E+04  0.10566000000E+00 0. -1.
        994   -1    0    0    0    0 -0.00000000000E+00 -0.00000000000E+00  0.11368683772E-12  0.17120000000E+03  0.17120000000E+03 0.  0.
         13    1    1    2    0    0  0.18661776628E+01 -0.30800480565E+02  0.38329644131E+02  0.49206960944E+02  0.10566000000E+00 0. -1.
        994    1    1    2    0    0  0.75062040699E+01  0.32714785381E+02  0.14832134281E+02  0.17508864181E+03  0.17120000000E+03 0.  0.
        998    1    1    2    0    0 -0.93723817327E+01 -0.19143048159E+01  0.14468382179E+04  0.14469043972E+04  0.10000000000E+02 0. -1.
</event>
<event>
 5    1  0.1153629E-008  0.2689139E+03  0.7957747E-01  0.4146423E+00
         13   -1    0    0    0    0  0.00000000000E+00  0.00000000000E+00  0.14999999963E+04  0.15000000000E+04  0.10566000000E+00 0. -1.
        994   -1    0    0    0    0 -0.00000000000E+00 -0.00000000000E+00  0.11368683772E-12  0.17120000000E+03  0.17120000000E+03 0.  0.
         13    1    1    2    0    0 -0.45104975331E+01  0.15573962077E+03  0.56971437969E+03  0.59063496311E+03  0.10566000000E+00 0. -1.
        994    1    1    2    0    0  0.22365570428E+02 -0.72906894189E+02  0.47069549357E+02  0.19323720252E+03  0.17120000000E+03 0.  0.
        998    1    1    2    0    0 -0.17855072895E+02 -0.82832726583E+02  0.88321606724E+03  0.88732783437E+03  0.10000000000E+02 0. -1.
</event>
<event>
 5    1  0.1153629E-008  0.3853602E+03  0.7957747E-01  0.3428146E+00
         13   -1    0    0    0    0  0.00000000000E+00  0.00000000000E+00  0.14999999963E+04  0.15000000000E+04  0.10566000000E+00 0.  1.
        994   -1    0    0    0    0 -0.00000000000E+00 -0.00000000000E+00  0.11368683772E-12  0.17120000000E+03  0.17120000000E+03 0.  0.
         13    1    1    2    0    0 -0.10755182405E+00  0.10133817470E+02  0.44393085044E+02  0.45535293869E+02  0.10566000000E+00 0.  1.
        994    1    1    2    0    0  0.57757575116E+01  0.32318392333E+02  0.49999409663E+01  0.17439116167E+03  0.17120000000E+03 0.  0.
        998    1    1    2    0    0 -0.56682056876E+01 -0.42452209803E+02  0.14506069703E+04  0.14512735445E+04  0.10000000000E+02 0.  1.
</event>
<event>
 5    1  0.1153629E-008  0.3838991E+03  0.7957747E-01  0.3434355E+00
         13   -1    0    0    0    0  0.00000000000E+00  0.00000000000E+00  0.14999999963E+04  0.15000000000E+04  0.10566000000E+00 0. -1.
        994   -1    0    0    0    0 -0.00000000000E+00 -0.00000000000E+00  0.11368683772E-12  0.17120000000E+03  0.17120000000E+03 0.  0.
         13    1    1    2    0    0 -0.13369374166E+02  0.12914604729E+02  0.73354596095E+02  0.75673212653E+02  0.10566000000E+00 0. -1.
        994    1    1    2    0    0  0.16313423507E+02 -0.18262750704E+02  0.41593356865E+01  0.17299247360E+03  0.17120000000E+03 0.  0.
        998    1    1    2    0    0 -0.29440493413E+01  0.53481459743E+01  0.14224860645E+04  0.14225343137E+04  0.10000000000E+02 0. -1.
</event>
<event>
 5    1  0.1153629E-008  0.3728733E+03  0.7957747E-01  0.3482789E+00
         13   -1    0    0    0    0  0.00000000000E+00  0.00000000000E+00  0.14999999963E+04  0.15000000000E+04  0.10566000000E+00 0.  1.
        994   -1    0    0    0    0 -0.00000000000E+00 -0.00000000000E+00  0.11368683772E-12  0.17120000000E+03  0.17120000000E+03 0.  0.
         13    1    1    2    0    0 -0.64279443281E+02  0.15899090271E+02  0.28514982132E+03  0.29273718531E+03  0.10566000000E+00 0.  1.
        994    1    1    2    0    0  0.36978137597E+02  0.26602826472E+01  0.12495349174E+02  0.17561330677E+03  0.17120000000E+03 0.  0.
        998    1    1    2    0    0  0.27301305684E+02 -0.18559372918E+02  0.12023548258E+04  0.12028495079E+04  0.10000000000E+02 0.  1.
</event>
<event>
 5    1  0.1153629E-008  0.3824527E+03  0.7957747E-01  0.3440548E+00
         13   -1    0    0    0    0  0.00000000000E+00  0.00000000000E+00  0.14999999963E+04  0.15000000000E+04  0.10566000000E+00 0. -1.
        994   -1    0    0    0    0 -0.00000000000E+00 -0.00000000000E+00  0.11368683772E-12  0.17120000000E+03  0.17120000000E+03 0.  0.
         13    1    1    2    0    0 -0.33178336195E+02 -0.12748505181E+02  0.20197870866E+03  0.20508226713E+03  0.10566000000E+00 0. -1.
        994    1    1    2    0    0  0.22240180523E+02  0.23672011773E+02  0.64064149428E+01  0.17437164885E+03  0.17120000000E+03 0.  0.
        998    1    1    2    0    0  0.10938155671E+02 -0.10923506592E+02  0.12916148727E+04  0.12917460840E+04  0.10000000000E+02 0. -1.
</event>
<event>
 5    1  0.1153629E-008  0.3687941E+03  0.7957747E-01  0.3501451E+00
         13   -1    0    0    0    0  0.00000000000E+00  0.00000000000E+00  0.14999999963E+04  0.15000000000E+04  0.10566000000E+00 0. -1.
        994   -1    0    0    0    0 -0.00000000000E+00 -0.00000000000E+00  0.11368683772E-12  0.17120000000E+03  0.17120000000E+03 0.  0.
         13    1    1    2    0    0 -0.52828014571E+02 -0.57951269949E+02  0.46244686292E+03  0.46904825019E+03  0.10566000000E+00 0. -1.
        994    1    1    2    0    0 -0.11673231359E+02  0.47363042273E+01  0.10855238602E+02  0.17200573570E+03  0.17120000000E+03 0.  0.
        998    1    1    2    0    0  0.64501245931E+02  0.53214965722E+02  0.10266978948E+04  0.10301460141E+04  0.10000000000E+02 0.  1.
</event>
<event>
 5    1  0.1153629E-008  0.3842918E+03  0.7957747E-01  0.3432681E+00
         13   -1    0    0    0    0  0.00000000000E+00  0.00000000000E+00  0.14999999963E+04  0.15000000000E+04  0.10566000000E+00 0.  1.
        994   -1    0    0    0    0 -0.00000000000E+00 -0.00000000000E+00  0.11368683772E-12  0.17120000000E+03  0.17120000000E+03 0.  0.
         13    1    1    2    0    0  0.13272858339E+02 -0.10022928358E+02  0.68803922563E+02  0.70785724447E+02  0.10566000000E+00 0.  1.
        994    1    1    2    0    0 -0.12686840838E+02  0.38774133453E+01  0.25624738215E+01  0.17173233981E+03  0.17120000000E+03 0.  0.
        998    1    1    2    0    0 -0.58601750092E+00  0.61455150130E+01  0.14286335999E+04  0.14286819357E+04  0.10000000000E+02 0.  1.
</event>
<event>
 5    1  0.1153629E-008  0.3751309E+03  0.7957747E-01  0.3472638E+00
         13   -1    0    0    0    0  0.00000000000E+00  0.00000000000E+00  0.14999999963E+04  0.15000000000E+04  0.10566000000E+00 0. -1.
        994   -1    0    0    0    0 -0.00000000000E+00 -0.00000000000E+00  0.11368683772E-12  0.17120000000E+03  0.17120000000E+03 0.  0.
         13    1    1    2    0    0  0.17568955756E+02 -0.14465688074E+02  0.38164956533E+02  0.44435339641E+02  0.10566000000E+00 0. -1.
        994    1    1    2    0    0 -0.67589757996E+01 -0.83819472155E+01  0.70055650150E+01  0.17168127077E+03  0.17120000000E+03 0.  0.
        998    1    1    2    0    0 -0.10809979957E+02  0.22847635289E+02  0.14548294747E+04  0.14550833896E+04  0.10000000000E+02 0. -1.
</event>
<event>
 5    1  0.1153629E-008  0.3817729E+03  0.7957747E-01  0.3443475E+00
         13   -1    0    0    0    0  0.00000000000E+00  0.00000000000E+00  0.14999999963E+04  0.15000000000E+04  0.10566000000E+00 0.  1.
        994   -1    0    0    0    0 -0.00000000000E+00 -0.00000000000E+00  0.11368683772E-12  0.17120000000E+03  0.17120000000E+03 0.  0.
         13    1    1    2    0    0 -0.23703095641E+02 -0.23607157260E+01  0.97191198067E+02  0.10006772640E+03  0.10566000000E+00 0.  1.
        994    1    1    2    0    0 -0.46381001844E+01 -0.88780259959E+01  0.35743871131E+01  0.17153001942E+03  0.17120000000E+03 0.  0.
        998    1    1    2    0    0  0.28341195825E+02  0.11238741722E+02  0.13992344111E+04  0.13996022542E+04  0.10000000000E+02 0.  1.
</event>
<event>
 5    1  0.1153629E-008  0.3836407E+03  0.7957747E-01  0.3435458E+00
         13   -1    0    0    0    0  0.00000000000E+00  0.00000000000E+00  0.14999999963E+04  0.15000000000E+04  0.10566000000E+00 0.  1.
        994   -1    0    0    0    0 -0.00000000000E+00 -0.00000000000E+00  0.11368683772E-12  0.17120000000E+03  0.17120000000E+03 0.  0.
         13    1    1    2    0    0  0.55154221220E+01  0.10520400307E+02  0.32072141971E+02  0.34201347319E+02  0.10566000000E+00 0.  1.
        994    1    1    2    0    0  0.62154670369E+01  0.77766167120E+01  0.26339384216E+01  0.17150943248E+03  0.17120000000E+03 0.  0.
        998    1    1    2    0    0 -0.11730889159E+02 -0.18297017019E+02  0.14652939159E+04  0.14654892202E+04  0.10000000000E+02 0.  1.
</event>
<event>
 5    1  0.1153629E-008  0.3820518E+03  0.7957747E-01  0.3442273E+00
         13   -1    0    0    0    0  0.00000000000E+00  0.00000000000E+00  0.14999999963E+04  0.15000000000E+04  0.10566000000E+00 0.  1.
        994   -1    0    0    0    0 -0.00000000000E+00 -0.00000000000E+00  0.11368683772E-12  0.17120000000E+03  0.17120000000E+03 0.  0.
         13    1    1    2    0    0 -0.16981751324E+02  0.86609555634E+01  0.58851099280E+02  0.61861579997E+02  0.10566000000E+00 0.  1.
        994    1    1    2    0    0  0.70389578373E+01 -0.26595066516E+01  0.32889921941E+01  0.17139684178E+03  0.17120000000E+03 0.  0.
        998    1    1    2    0    0  0.99427934866E+01 -0.60014489118E+01  0.14378599048E+04  0.14379415782E+04  0.10000000000E+02 0.  1.
</event>
<event>
 5    1  0.1153629E-008  0.3816068E+03  0.7957747E-01  0.3444192E+00
         13   -1    0    0    0    0  0.00000000000E+00  0.00000000000E+00  0.14999999963E+04  0.15000000000E+04  0.10566000000E+00 0. -1.
        994   -1    0    0    0    0 -0.00000000000E+00 -0.00000000000E+00  0.11368683772E-12  0.17120000000E+03  0.17120000000E+03 0.  0.
         13    1    1    2    0    0 -0.53087928756E+01 -0.18505903055E+02  0.52755850162E+02  0.56159083148E+02  0.10566000000E+00 0. -1.
        994    1    1    2    0    0 -0.11266216113E+01  0.21923624072E+02  0.49283700169E+01  0.17267206896E+03  0.17120000000E+03 0.  0.
        998    1    1    2    0    0  0.64354144869E+01 -0.34177210168E+01  0.14423157761E+04  0.14423688479E+04  0.10000000000E+02 0. -1.
</event>
<event>
 5    1  0.1153629E-008  0.3837763E+03  0.7957747E-01  0.3434878E+00
         13   -1    0    0    0    0  0.00000000000E+00  0.00000000000E+00  0.14999999963E+04  0.15000000000E+04  0.10566000000E+00 0.  1.
        994   -1    0    0    0    0 -0.00000000000E+00 -0.00000000000E+00  0.11368683772E-12  0.17120000000E+03  0.17120000000E+03 0.  0.
         13    1    1    2    0    0  0.12479585238E+02 -0.98205722942E+01  0.52872336114E+02  0.55205785730E+02  0.10566000000E+00 0.  1.
        994    1    1    2    0    0 -0.17497377659E+02  0.12272886541E+02  0.37485100364E+01  0.17256961869E+03  0.17120000000E+03 0.  0.
        998    1    1    2    0    0  0.50177924219E+01 -0.24523142463E+01  0.14433791501E+04  0.14434245956E+04  0.10000000000E+02 0.  1.
</event>
<event>
 5    1  0.1153629E-008  0.3724014E+03  0.7957747E-01  0.3484927E+00
         13   -1    0    0    0    0  0.00000000000E+00  0.00000000000E+00  0.14999999963E+04  0.15000000000E+04  0.10566000000E+00 0.  1.
        994   -1    0    0    0    0 -0.00000000000E+00 -0.00000000000E+00  0.11368683772E-12  0.17120000000E+03  0.17120000000E+03 0.  0.
         13    1    1    2    0    0 -0.60466263952E+02 -0.44305897691E+02  0.28664015962E+03  0.29627989118E+03  0.10566000000E+00 0.  1.
        994    1    1    2    0    0  0.55439148479E+02  0.46537822295E+02  0.26205652043E+02  0.18771106597E+03  0.17120000000E+03 0.  0.
        998    1    1    2    0    0  0.50271154731E+01 -0.22319246044E+01  0.11871541846E+04  0.11872090428E+04  0.10000000000E+02 0.  1.
</event>
<event>
 5    1  0.1153629E-008  0.3803998E+03  0.7957747E-01  0.3449420E+00
         13   -1    0    0    0    0  0.00000000000E+00  0.00000000000E+00  0.14999999963E+04  0.15000000000E+04  0.10566000000E+00 0.  1.
        994   -1    0    0    0    0 -0.00000000000E+00 -0.00000000000E+00  0.11368683772E-12  0.17120000000E+03  0.17120000000E+03 0.  0.
         13    1    1    2    0    0  0.40792619391E+02  0.47992022011E+01  0.23018193542E+03  0.23381788789E+03  0.10566000000E+00 0.  1.
        994    1    1    2    0    0 -0.15137240858E+02  0.49506814725E+01  0.47787357393E+01  0.17200558602E+03  0.17120000000E+03 0.  0.
        998    1    1    2    0    0 -0.25655378533E+02 -0.97498836736E+01  0.12650393251E+04  0.12653765261E+04  0.10000000000E+02 0.  1.
</event>
<event>
 5    1  0.1153629E-008  0.3863947E+03  0.7957747E-01  0.3423779E+00
         13   -1    0    0    0    0  0.00000000000E+00  0.00000000000E+00  0.14999999963E+04  0.15000000000E+04  0.10566000000E+00 0.  1.
        994   -1    0    0    0    0 -0.00000000000E+00 -0.00000000000E+00  0.11368683772E-12  0.17120000000E+03  0.17120000000E+03 0.  0.
         13    1    1    2    0    0 -0.39491295429E+01 -0.96228955389E+01  0.61159322092E+02  0.62037646518E+02  0.10566000000E+00 0.  1.
        994    1    1    2    0    0 -0.97728257080E+01  0.63598936758E+01  0.13844935812E+01  0.17160219460E+03  0.17120000000E+03 0.  0.
        998    1    1    2    0    0  0.13721955251E+02  0.32630018631E+01  0.14374561806E+04  0.14375601589E+04  0.10000000000E+02 0.  1.
</event>
<event>
 5    1  0.1153629E-008  0.3803211E+03  0.7957747E-01  0.3449762E+00
         13   -1    0    0    0    0  0.00000000000E+00  0.00000000000E+00  0.14999999963E+04  0.15000000000E+04  0.10566000000E+00 0. -1.
        994   -1    0    0    0    0 -0.00000000000E+00 -0.00000000000E+00  0.11368683772E-12  0.17120000000E+03  0.17120000000E+03 0.  0.
         13    1    1    2    0    0 -0.18066954866E+02 -0.64406372430E+01  0.49094031519E+02  0.52707985743E+02  0.10566000000E+00 0. -1.
        994    1    1    2    0    0 -0.11406179176E+02 -0.14718735371E+01  0.44129790943E+01  0.17164259879E+03  0.17120000000E+03 0.  0.
        998    1    1    2    0    0  0.29473134042E+02  0.79125107801E+01  0.14464929857E+04  0.14468494155E+04  0.10000000000E+02 0. -1.
</event>
<event>
 5    1  0.1153629E-008  0.3684928E+03  0.7957747E-01  0.3502847E+00
         13   -1    0    0    0    0  0.00000000000E+00  0.00000000000E+00  0.14999999963E+04  0.15000000000E+04  0.10566000000E+00 0.  1.
        994   -1    0    0    0    0 -0.00000000000E+00 -0.00000000000E+00  0.11368683772E-12  0.17120000000E+03  0.17120000000E+03 0.  0.
         13    1    1    2    0    0 -0.18071267509E+02  0.91111134335E+01  0.15691946834E+02  0.25609206486E+02  0.10566000000E+00 0.  1.
        994    1    1    2    0    0  0.12443245744E+02 -0.14180448711E+02  0.11382745899E+02  0.17261206909E+03  0.17120000000E+03 0.  0.
        998    1    1    2    0    0  0.56280217642E+01  0.50693352771E+01  0.14729253035E+04  0.14729787244E+04  0.10000000000E+02 0.  1.
</event>
<event>
 5    1  0.1153629E-008  0.3835184E+03  0.7957747E-01  0.3435980E+00
         13   -1    0    0    0    0  0.00000000000E+00  0.00000000000E+00  0.14999999963E+04  0.15000000000E+04  0.10566000000E+00 0. -1.
        994   -1    0    0    0    0 -0.00000000000E+00 -0.00000000000E+00  0.11368683772E-12  0.17120000000E+03  0.17120000000E+03 0.  0.
         13    1    1    2    0    0 -0.14726780793E+02  0.15610210007E+02  0.88686029343E+02  0.91245710549E+02  0.10566000000E+00 0. -1.
        994    1    1    2    0    0  0.25165595317E+02 -0.14236487877E+02  0.51349451444E+01  0.17370029487E+03  0.17120000000E+03 0.  0.
        998    1    1    2    0    0 -0.10438814524E+02 -0.13737221296E+01  0.14061790218E+04  0.14062539946E+04  0.10000000000E+02 0. -1.
</event>
<event>
 5    1  0.1153629E-008  0.3847089E+03  0.7957747E-01  0.3430908E+00
         13   -1    0    0    0    0  0.00000000000E+00  0.00000000000E+00  0.14999999963E+04  0.15000000000E+04  0.10566000000E+00 0. -1.
        994   -1    0    0    0    0 -0.00000000000E+00 -0.00000000000E+00  0.11368683772E-12  0.17120000000E+03  0.17120000000E+03 0.  0.
         13    1    1    2    0    0  0.11700246455E+02 -0.13577495374E+02  0.86634804744E+02  0.88469456339E+02  0.10566000000E+00 0. -1.
        994    1    1    2    0    0 -0.83446826352E+01  0.16083162065E+02  0.28561587225E+01  0.17217984630E+03  0.17120000000E+03 0.  0.
        998    1    1    2    0    0 -0.33555638198E+01 -0.25056666912E+01  0.14105090328E+04  0.14105506974E+04  0.10000000000E+02 0. -1.
</event>
<event>
 5    1  0.1153629E-008  0.3696429E+03  0.7957747E-01  0.3497534E+00
         13   -1    0    0    0    0  0.00000000000E+00  0.00000000000E+00  0.14999999963E+04  0.15000000000E+04  0.10566000000E+00 0. -1.
        994   -1    0    0    0    0 -0.00000000000E+00 -0.00000000000E+00  0.11368683772E-12  0.17120000000E+03  0.17120000000E+03 0.  0.
         13    1    1    2    0    0 -0.87195307669E+01 -0.11536572170E+02  0.67757388369E+01  0.15970113182E+02  0.10566000000E+00 0. -1.
        994    1    1    2    0    0  0.12428017247E+01  0.12054353674E+02  0.99643801264E+01  0.17191736640E+03  0.17120000000E+03 0.  0.
        998    1    1    2    0    0  0.74767290422E+01 -0.51778150389E+00  0.14832598773E+04  0.14833125204E+04  0.10000000000E+02 0. -1.
</event>
<event>
 5    1  0.1153629E-008  0.3831814E+03  0.7957747E-01  0.3437422E+00
         13   -1    0    0    0    0  0.00000000000E+00  0.00000000000E+00  0.14999999963E+04  0.15000000000E+04  0.10566000000E+00 0. -1.
        994   -1    0    0    0    0 -0.00000000000E+00 -0.00000000000E+00  0.11368683772E-12  0.17120000000E+03  0.17120000000E+03 0.  0.
         13    1    1    2    0    0 -0.26421068846E+02  0.10650119087E+02  0.13815458723E+03  0.14106097636E+03  0.10566000000E+00 0. -1.
        994    1    1    2    0    0  0.38203181198E+02 -0.29942285316E+01  0.74088311220E+01  0.17559265143E+03  0.17120000000E+03 0.  0.
        998    1    1    2    0    0 -0.11782112351E+02 -0.76558905559E+01  0.13544365779E+04  0.13545463722E+04  0.10000000000E+02 0. -1.
</event>
<event>
 5    1  0.1153629E-008  0.3176954E+03  0.7957747E-01  0.3777264E+00
         13   -1    0    0    0    0  0.00000000000E+00  0.00000000000E+00  0.14999999963E+04  0.15000000000E+04  0.10566000000E+00 0. -1.
        994   -1    0    0    0    0 -0.00000000000E+00 -0.00000000000E+00  0.11368683772E-12  0.17120000000E+03  0.17120000000E+03 0.  0.
         13    1    1    2    0    0  0.78628731520E+01  0.21759487162E+03  0.70575987276E+03  0.73858402507E+03  0.10566000000E+00 0. -1.
        994    1    1    2    0    0  0.25425564037E+02 -0.22164091240E+03  0.21930365925E+03  0.35661560302E+03  0.17120000000E+03 0.  0.
        998    1    1    2    0    0 -0.33288437189E+02  0.40460407821E+01  0.57493646426E+03  0.57600037191E+03  0.10000000000E+02 0.  1.
</event>
<event>
 5    1  0.1153629E-008  0.3793379E+03  0.7957747E-01  0.3454047E+00
         13   -1    0    0    0    0  0.00000000000E+00  0.00000000000E+00  0.14999999963E+04  0.15000000000E+04  0.10566000000E+00 0.  1.
        994   -1    0    0    0    0 -0.00000000000E+00 -0.00000000000E+00  0.11368683772E-12  0.17120000000E+03  0.17120000000E+03 0.  0.
         13    1    1    2    0    0 -0.15041988146E+02  0.28140496046E+02  0.13055301443E+03  0.13439586923E+03  0.10566000000E+00 0.  1.
        994    1    1    2    0    0 -0.30551647363E+02 -0.99303277235E+01  0.79329877758E+01  0.17436853747E+03  0.17120000000E+03 0.  0.
        998    1    1    2    0    0  0.45593635509E+02 -0.18210168323E+02  0.13615139941E+04  0.13624355933E+04  0.10000000000E+02 0.  1.
</event>
<event>
 5    1  0.1153629E-008  0.4110273E+03  0.7957747E-01  0.3326270E+00
         13   -1    0    0    0    0  0.00000000000E+00  0.00000000000E+00  0.14999999963E+04  0.15000000000E+04  0.10566000000E+00 0. -1.
        994   -1    0    0    0    0 -0.00000000000E+00 -0.00000000000E+00  0.11368683772E-12  0.17120000000E+03  0.17120000000E+03 0.  0.
         13    1    1    2    0    0  0.16975102583E+02  0.51526314929E+02  0.32838157963E+02  0.63415069347E+02  0.10566000000E+00 0. -1.
        994    1    1    2    0    0 -0.66151031243E+02  0.15702811228E+02  0.53753537281E+02  0.19188908251E+03  0.17120000000E+03 0.  0.
        998    1    1    2    0    0  0.49175928660E+02 -0.67229126157E+02  0.14134083010E+04  0.14158958481E+04  0.10000000000E+02 0. -1.
</event>
<event>
 5    1  0.1153629E-008  0.3835750E+03  0.7957747E-01  0.3435738E+00
         13   -1    0    0    0    0  0.00000000000E+00  0.00000000000E+00  0.14999999963E+04  0.15000000000E+04  0.10566000000E+00 0. -1.
        994   -1    0    0    0    0 -0.00000000000E+00 -0.00000000000E+00  0.11368683772E-12  0.17120000000E+03  0.17120000000E+03 0.  0.
         13    1    1    2    0    0  0.75254779535E-01  0.12968066908E+02  0.35400081064E+02  0.37700839858E+02  0.10566000000E+00 0. -1.
        994    1    1    2    0    0  0.30540282643E+01 -0.78454808875E+01  0.25734747127E+01  0.17142619821E+03  0.17120000000E+03 0.  0.
        998    1    1    2    0    0 -0.31292830438E+01 -0.51225860210E+01  0.14620264405E+04  0.14620729619E+04  0.10000000000E+02 0. -1.
</event>
<event>
 5    1  0.1153629E-008  0.3907222E+03  0.7957747E-01  0.3405760E+00
         13   -1    0    0    0    0  0.00000000000E+00  0.00000000000E+00  0.14999999963E+04  0.15000000000E+04  0.10566000000E+00 0.  1.
        994   -1    0    0    0    0 -0.00000000000E+00 -0.00000000000E+00  0.11368683772E-12  0.17120000000E+03  0.17120000000E+03 0.  0.
         13    1    1    2    0    0 -0.10407713463E+02  0.58586575163E+01 -0.70123201205E+01  0.13850204509E+02  0.10566000000E+00 0.  1.
        994    1    1    2    0    0  0.45987356738E+01 -0.39241943843E+01  0.22484856317E+02  0.17277602969E+03  0.17120000000E+03 0.  0.
        998    1    1    2    0    0  0.58089777897E+01 -0.19344631320E+01  0.14845274601E+04  0.14845737658E+04  0.10000000000E+02 0.  1.
</event>
<event>
 5    1  0.1153629E-008  0.3800690E+03  0.7957747E-01  0.3450858E+00
         13   -1    0    0    0    0  0.00000000000E+00  0.00000000000E+00  0.14999999963E+04  0.15000000000E+04  0.10566000000E+00 0.  1.
        994   -1    0    0    0    0 -0.00000000000E+00 -0.00000000000E+00  0.11368683772E-12  0.17120000000E+03  0.17120000000E+03 0.  0.
         13    1    1    2    0    0  0.65006607819E+02  0.19845730137E+03  0.10398707088E+04  0.10606329534E+04  0.10566000000E+00 0.  1.
        994    1    1    2    0    0 -0.70599195576E+02 -0.19793293356E+03  0.16945306731E+03  0.31966462836E+03  0.17120000000E+03 0.  0.
        998    1    1    2    0    0  0.55925877572E+01 -0.52436780720E+00  0.29067622014E+03  0.29090241827E+03  0.10000000000E+02 0.  0.
</event>
<event>
 5    1  0.1153629E-008  0.3818905E+03  0.7957747E-01  0.3442968E+00
         13   -1    0    0    0    0  0.00000000000E+00  0.00000000000E+00  0.14999999963E+04  0.15000000000E+04  0.10566000000E+00 0.  1.
        994   -1    0    0    0    0 -0.00000000000E+00 -0.00000000000E+00  0.11368683772E-12  0.17120000000E+03  0.17120000000E+03 0.  0.
         13    1    1    2    0    0 -0.28893283166E+02  0.56083991267E+01  0.12791390427E+03  0.13125644374E+03  0.10566000000E+00 0.  1.
        994    1    1    2    0    0  0.27545958016E+02  0.46620691008E+01  0.57792016636E+01  0.17356080739E+03  0.17120000000E+03 0.  0.
        998    1    1    2    0    0  0.13473251504E+01 -0.10270468227E+02  0.13663068903E+04  0.13663827489E+04  0.10000000000E+02 0.  1.
</event>
<event>
 5    1  0.1153629E-008  0.3826089E+03  0.7957747E-01  0.3439877E+00
         13   -1    0    0    0    0  0.00000000000E+00  0.00000000000E+00  0.14999999963E+04  0.15000000000E+04  0.10566000000E+00 0. -1.
        994   -1    0    0    0    0 -0.00000000000E+00 -0.00000000000E+00  0.11368683772E-12  0.17120000000E+03  0.17120000000E+03 0.  0.
         13    1    1    2    0    0 -0.25380171279E+02  0.13142832348E+02  0.12262413709E+03  0.12591098958E+03  0.10566000000E+00 0. -1.
        994    1    1    2    0    0  0.40329747090E+02 -0.12373692293E+02  0.87426900433E+01  0.17653745039E+03  0.17120000000E+03 0.  0.
        998    1    1    2    0    0 -0.14949575811E+02 -0.76914005444E+00  0.13686331691E+04  0.13687515600E+04  0.10000000000E+02 0. -1.
</event>
<event>
 5    1  0.1153629E-008  0.3790000E+03  0.7957747E-01  0.3455524E+00
         13   -1    0    0    0    0  0.00000000000E+00  0.00000000000E+00  0.14999999963E+04  0.15000000000E+04  0.10566000000E+00 0.  1.
        994   -1    0    0    0    0 -0.00000000000E+00 -0.00000000000E+00  0.11368683772E-12  0.17120000000E+03  0.17120000000E+03 0.  0.
         13    1    1    2    0    0  0.50491318056E+02  0.30326844150E+01  0.27646624587E+03  0.28105545119E+03  0.10566000000E+00 0.  1.
        994    1    1    2    0    0 -0.27570028620E+02 -0.59581317341E+01  0.73118475725E+01  0.17366205379E+03  0.17120000000E+03 0.  0.
        998    1    1    2    0    0 -0.22921289436E+02  0.29254473191E+01  0.12162219028E+04  0.12164824950E+04  0.10000000000E+02 0.  1.
</event>
<event>
 5    1  0.1153629E-008  0.3810214E+03  0.7957747E-01  0.3446723E+00
         13   -1    0    0    0    0  0.00000000000E+00  0.00000000000E+00  0.14999999963E+04  0.15000000000E+04  0.10566000000E+00 0.  1.
        994   -1    0    0    0    0 -0.00000000000E+00 -0.00000000000E+00  0.11368683772E-12  0.17120000000E+03  0.17120000000E+03 0.  0.
         13    1    1    2    0    0 -0.10925003283E+02  0.37175641165E+02  0.22410119195E+03  0.22742633839E+03  0.10566000000E+00 0.  1.
        994    1    1    2    0    0  0.95746162072E-01 -0.13087213400E+02  0.41892852450E+01  0.17175061698E+03  0.17120000000E+03 0.  0.
        998    1    1    2    0    0  0.10829257121E+02 -0.24088427765E+02  0.12717095191E+04  0.12720230446E+04  0.10000000000E+02 0.  1.
</event>
<event>
 5    1  0.1153629E-008  0.3842009E+03  0.7957747E-01  0.3433069E+00
         13   -1    0    0    0    0  0.00000000000E+00  0.00000000000E+00  0.14999999963E+04  0.15000000000E+04  0.10566000000E+00 0. -1.
        994   -1    0    0    0    0 -0.00000000000E+00 -0.00000000000E+00  0.11368683772E-12  0.17120000000E+03  0.17120000000E+03 0.  0.
         13    1    1    2    0    0  0.10000856912E+02  0.11170783035E+02  0.60663417862E+02  0.62488918724E+02  0.10566000000E+00 0. -1.
        994    1    1    2    0    0  0.12951017863E+02 -0.19266238702E+01  0.25928928360E+01  0.17171954995E+03  0.17120000000E+03 0.  0.
        998    1    1    2    0    0 -0.22951874774E+02 -0.92441591645E+01  0.14367436856E+04  0.14369915313E+04  0.10000000000E+02 0. -1.
</event>
<event>
 5    1  0.1153629E-008  0.3700988E+03  0.7957747E-01  0.3495437E+00
         13   -1    0    0    0    0  0.00000000000E+00  0.00000000000E+00  0.14999999963E+04  0.15000000000E+04  0.10566000000E+00 0.  1.
        994   -1    0    0    0    0 -0.00000000000E+00 -0.00000000000E+00  0.11368683772E-12  0.17120000000E+03  0.17120000000E+03 0.  0.
         13    1    1    2    0    0 -0.42478772824E+02  0.31389887225E+02  0.11749275081E+03  0.12881897693E+03  0.10566000000E+00 0.  1.
        994    1    1    2    0    0  0.33150087183E+02 -0.31644052311E+02  0.18372401406E+02  0.17817760651E+03  0.17120000000E+03 0.  0.
        998    1    1    2    0    0  0.93286856409E+01  0.25416508595E+00  0.13641348441E+04  0.13642034166E+04  0.10000000000E+02 0.  1.
</event>
<event>
 5    1  0.1153629E-008  0.3839584E+03  0.7957747E-01  0.3434102E+00
         13   -1    0    0    0    0  0.00000000000E+00  0.00000000000E+00  0.14999999963E+04  0.15000000000E+04  0.10566000000E+00 0. -1.
        994   -1    0    0    0    0 -0.00000000000E+00 -0.00000000000E+00  0.11368683772E-12  0.17120000000E+03  0.17120000000E+03 0.  0.
         13    1    1    2    0    0 -0.65361380520E+01 -0.86802209269E+01  0.26389771835E+02  0.28539421114E+02  0.10566000000E+00 0. -1.
        994    1    1    2    0    0  0.69878641557E+01  0.98776415670E+01  0.26313958371E+01  0.17164720298E+03  0.17120000000E+03 0.  0.
        998    1    1    2    0    0 -0.45172610372E+00 -0.11974206400E+01  0.14709788286E+04  0.14710133759E+04  0.10000000000E+02 0. -1.
</event>
<event>
 5    1  0.1153629E-008  0.3842642E+03  0.7957747E-01  0.3432799E+00
         13   -1    0    0    0    0  0.00000000000E+00  0.00000000000E+00  0.14999999963E+04  0.15000000000E+04  0.10566000000E+00 0. -1.
        994   -1    0    0    0    0 -0.00000000000E+00 -0.00000000000E+00  0.11368683772E-12  0.17120000000E+03  0.17120000000E+03 0.  0.
         13    1    1    2    0    0 -0.49098582531E+01  0.20557239249E+02  0.10696728191E+03  0.10903539498E+03  0.10566000000E+00 0. -1.
        994    1    1    2    0    0  0.65607572669E+01 -0.17935102667E+02  0.31991102530E+01  0.17229157191E+03  0.17120000000E+03 0.  0.
        998    1    1    2    0    0 -0.16508990137E+01 -0.26221365818E+01  0.13898336041E+04  0.13898730331E+04  0.10000000000E+02 0. -1.
</event>
<event>
 5    1  0.1153629E-008  0.3750736E+03  0.7957747E-01  0.3472894E+00
         13   -1    0    0    0    0  0.00000000000E+00  0.00000000000E+00  0.14999999963E+04  0.15000000000E+04  0.10566000000E+00 0. -1.
        994   -1    0    0    0    0 -0.00000000000E+00 -0.00000000000E+00  0.11368683772E-12  0.17120000000E+03  0.17120000000E+03 0.  0.
         13    1    1    2    0    0  0.69542904342E+02 -0.61578938972E+02  0.30988988646E+03  0.32351187639E+03  0.10566000000E+00 0. -1.
        994    1    1    2    0    0 -0.39031317598E+02  0.40257426605E+02  0.24923928554E+02  0.18186463748E+03  0.17120000000E+03 0.  0.
        998    1    1    2    0    0 -0.30511586744E+02  0.21321512367E+02  0.11651861813E+04  0.11658234861E+04  0.10000000000E+02 0. -1.
</event>
<event>
 5    1  0.1153629E-008  0.3742373E+03  0.7957747E-01  0.3476641E+00
         13   -1    0    0    0    0  0.00000000000E+00  0.00000000000E+00  0.14999999963E+04  0.15000000000E+04  0.10566000000E+00 0.  1.
        994   -1    0    0    0    0 -0.00000000000E+00 -0.00000000000E+00  0.11368683772E-12  0.17120000000E+03  0.17120000000E+03 0.  0.
         13    1    1    2    0    0 -0.16275642172E+02 -0.14157271491E+03  0.84061296108E+03  0.85260652803E+03  0.10566000000E+00 0.  1.
        994    1    1    2    0    0  0.16405194042E+01  0.12416462334E+03  0.61586389295E+02  0.22027679937E+03  0.17120000000E+03 0.  0.
        998    1    1    2    0    0  0.14635122768E+02  0.17408091570E+02  0.59780064590E+03  0.59831667260E+03  0.10000000000E+02 0.  1.
</event>
<event>
 5    1  0.1153629E-008  0.3958128E+03  0.7957747E-01  0.3385069E+00
         13   -1    0    0    0    0  0.00000000000E+00  0.00000000000E+00  0.14999999963E+04  0.15000000000E+04  0.10566000000E+00 0. -1.
        994   -1    0    0    0    0 -0.00000000000E+00 -0.00000000000E+00  0.11368683772E-12  0.17120000000E+03  0.17120000000E+03 0.  0.
         13    1    1    2    0    0  0.28220692611E+02 -0.34531934310E+02  0.29681736181E+02  0.53571247936E+02  0.10566000000E+00 0. -1.
        994    1    1    2    0    0 -0.83986493406E+01  0.38859826130E+02  0.31407113684E+02  0.17853982801E+03  0.17120000000E+03 0.  0.
        998    1    1    2    0    0 -0.19822043271E+02 -0.43278918195E+01  0.14389111464E+04  0.14390889240E+04  0.10000000000E+02 0. -1.
</event>
<event>
 5    1  0.1153629E-008  0.3859212E+03  0.7957747E-01  0.3425775E+00
         13   -1    0    0    0    0  0.00000000000E+00  0.00000000000E+00  0.14999999963E+04  0.15000000000E+04  0.10566000000E+00 0.  1.
        994   -1    0    0    0    0 -0.00000000000E+00 -0.00000000000E+00  0.11368683772E-12  0.17120000000E+03  0.17120000000E+03 0.  0.
         13    1    1    2    0    0  0.90520070726E+01  0.88353251597E+01  0.68032295882E+02  0.69198311033E+02  0.10566000000E+00 0.  1.
        994    1    1    2    0    0 -0.86445686684E+01 -0.55333617732E+01  0.15189555579E+01  0.17151412154E+03  0.17120000000E+03 0.  0.
        998    1    1    2    0    0 -0.40743840412E+00 -0.33019633866E+01  0.14304487448E+04  0.14304875674E+04  0.10000000000E+02 0.  1.
</event>
<event>
 5    1  0.1153629E-008  0.3768348E+03  0.7957747E-01  0.3465058E+00
         13   -1    0    0    0    0  0.00000000000E+00  0.00000000000E+00  0.14999999963E+04  0.15000000000E+04  0.10566000000E+00 0.  1.
        994   -1    0    0    0    0 -0.00000000000E+00 -0.00000000000E+00  0.11368683772E-12  0.17120000000E+03  0.17120000000E+03 0.  0.
         13    1    1    2    0    0  0.85768721956E+01  0.16484895056E+02  0.28256259279E+02  0.33819252714E+02  0.10566000000E+00 0.  1.
        994    1    1    2    0    0  0.90787007558E+01 -0.10994365243E+02  0.64266432629E+01  0.17191288671E+03  0.17120000000E+03 0.  0.
        998    1    1    2    0    0 -0.17655572951E+02 -0.54905298123E+01  0.14653170937E+04  0.14654678606E+04  0.10000000000E+02 0.  1.
</event>
<event>
 5    1  0.1153629E-008  0.3828433E+03  0.7957747E-01  0.3438871E+00
         13   -1    0    0    0    0  0.00000000000E+00  0.00000000000E+00  0.14999999963E+04  0.15000000000E+04  0.10566000000E+00 0. -1.
        994   -1    0    0    0    0 -0.00000000000E+00 -0.00000000000E+00  0.11368683772E-12  0.17120000000E+03  0.17120000000E+03 0.  0.
         13    1    1    2    0    0  0.33571620924E+02 -0.46262968365E+01  0.20480397175E+03  0.20758885896E+03  0.10566000000E+00 0. -1.
        994    1    1    2    0    0 -0.23435025089E+02  0.51990954230E+00  0.45265467603E+01  0.17285658892E+03  0.17120000000E+03 0.  0.
        998    1    1    2    0    0 -0.10136595835E+02  0.41063872942E+01  0.12906694778E+04  0.12907545521E+04  0.10000000000E+02 0. -1.
</event>
<event>
 5    1  0.1153629E-008  0.3765148E+03  0.7957747E-01  0.3466476E+00
         13   -1    0    0    0    0  0.00000000000E+00  0.00000000000E+00  0.14999999963E+04  0.15000000000E+04  0.10566000000E+00 0. -1.
        994   -1    0    0    0    0 -0.00000000000E+00 -0.00000000000E+00  0.11368683772E-12  0.17120000000E+03  0.17120000000E+03 0.  0.
         13    1    1    2    0    0 -0.80554212813E+01 -0.25760919665E+02  0.58161898526E+02  0.64119672474E+02  0.10566000000E+00 0. -1.
        994    1    1    2    0    0  0.95888915737E+01  0.21855618472E+02  0.78316914408E+01  0.17303291679E+03  0.17120000000E+03 0.  0.
        998    1    1    2    0    0 -0.15334702924E+01  0.39053011927E+01  0.14340064063E+04  0.14340474107E+04  0.10000000000E+02 0. -1.
</event>
<event>
 5    1  0.1153629E-008  0.3691235E+03  0.7957747E-01  0.3499929E+00
         13   -1    0    0    0    0  0.00000000000E+00  0.00000000000E+00  0.14999999963E+04  0.15000000000E+04  0.10566000000E+00 0. -1.
        994   -1    0    0    0    0 -0.00000000000E+00 -0.00000000000E+00  0.11368683772E-12  0.17120000000E+03  0.17120000000E+03 0.  0.
         13    1    1    2    0    0  0.26617547447E+02 -0.99589311258E+01  0.38273002500E+02  0.47670829924E+02  0.10566000000E+00 0. -1.
        994    1    1    2    0    0 -0.11735257056E+02  0.60622640758E+01  0.10333225301E+02  0.17201942579E+03  0.17120000000E+03 0.  0.
        998    1    1    2    0    0 -0.14882290391E+02  0.38966670499E+01  0.14513937685E+04  0.14515097443E+04  0.10000000000E+02 0. -1.
</event>
<event>
 5    1  0.1153629E-008  0.3844228E+03  0.7957747E-01  0.3432124E+00
         13   -1    0    0    0    0  0.00000000000E+00  0.00000000000E+00  0.14999999963E+04  0.15000000000E+04  0.10566000000E+00 0. -1.
        994   -1    0    0    0    0 -0.00000000000E+00 -0.00000000000E+00  0.11368683772E-12  0.17120000000E+03  0.17120000000E+03 0.  0.
         13    1    1    2    0    0  0.11393141874E+02  0.56408449448E+01  0.43376164646E+02  0.45200947301E+02  0.10566000000E+00 0. -1.
        994    1    1    2    0    0 -0.44023575783E+01  0.66121113236E+01  0.21249249956E+01  0.17139736309E+03  0.17120000000E+03 0.  0.
        998    1    1    2    0    0 -0.69907842953E+01 -0.12252956268E+02  0.14544989066E+04  0.14546016896E+04  0.10000000000E+02 0. -1.
</event>
<event>
 5    1  0.1153629E-008  0.3732384E+03  0.7957747E-01  0.3481139E+00
         13   -1    0    0    0    0  0.00000000000E+00  0.00000000000E+00  0.14999999963E+04  0.15000000000E+04  0.10566000000E+00 0. -1.
        994   -1    0    0    0    0 -0.00000000000E+00 -0.00000000000E+00  0.11368683772E-12  0.17120000000E+03  0.17120000000E+03 0.  0.
         13    1    1    2    0    0 -0.27104623106E+02  0.23106277666E+01  0.44556094230E+02  0.52203987314E+02  0.10566000000E+00 0. -1.
        994    1    1    2    0    0  0.27017823937E+02 -0.61538390191E+01  0.10216249406E+02  0.17372865134E+03  0.17120000000E+03 0.  0.
        998    1    1    2    0    0  0.86799168589E-01  0.38432112525E+01  0.14452276526E+04  0.14452673613E+04  0.10000000000E+02 0. -1.
</event>
<event>
 5    1  0.1153629E-008  0.3858459E+03  0.7957747E-01  0.3426093E+00
         13   -1    0    0    0    0  0.00000000000E+00  0.00000000000E+00  0.14999999963E+04  0.15000000000E+04  0.10566000000E+00 0. -1.
        994   -1    0    0    0    0 -0.00000000000E+00 -0.00000000000E+00  0.11368683772E-12  0.17120000000E+03  0.17120000000E+03 0.  0.
         13    1    1    2    0    0 -0.58594018437E+01  0.12480138166E+02  0.77028946729E+02  0.78253154804E+02  0.10566000000E+00 0. -1.
        994    1    1    2    0    0  0.69754381677E+01 -0.10656710837E+02  0.17429665143E+01  0.17168197388E+03  0.17120000000E+03 0.  0.
        998    1    1    2    0    0 -0.11160363241E+01 -0.18234273283E+01  0.14212280830E+04  0.14212648713E+04  0.10000000000E+02 0. -1.
</event>
<event>
 5    1  0.1153629E-008  0.3799227E+03  0.7957747E-01  0.3451495E+00
         13   -1    0    0    0    0  0.00000000000E+00  0.00000000000E+00  0.14999999963E+04  0.15000000000E+04  0.10566000000E+00 0. -1.
        994   -1    0    0    0    0 -0.00000000000E+00 -0.00000000000E+00  0.11368683772E-12  0.17120000000E+03  0.17120000000E+03 0.  0.
         13    1    1    2    0    0  0.39762647979E+02  0.42523595209E+01  0.16873788560E+03  0.17341175259E+03  0.10566000000E+00 0. -1.
        994    1    1    2    0    0 -0.40381205377E+02 -0.13255753615E+02  0.10235977480E+02  0.17669344070E+03  0.17120000000E+03 0.  0.
        998    1    1    2    0    0  0.61855739778E+00  0.90033940939E+01  0.13210261332E+04  0.13210948067E+04  0.10000000000E+02 0. -1.
</event>
<event>
 5    1  0.1153629E-008  0.3826275E+03  0.7957747E-01  0.3439797E+00
         13   -1    0    0    0    0  0.00000000000E+00  0.00000000000E+00  0.14999999963E+04  0.15000000000E+04  0.10566000000E+00 0. -1.
        994   -1    0    0    0    0 -0.00000000000E+00 -0.00000000000E+00  0.11368683772E-12  0.17120000000E+03  0.17120000000E+03 0.  0.
         13    1    1    2    0    0  0.25775082746E+02  0.17541770386E+02  0.16023349759E+03  0.16323863977E+03  0.10566000000E+00 0. -1.
        994    1    1    2    0    0 -0.27468483636E+02 -0.87858984173E+01  0.55739392544E+01  0.17370152102E+03  0.17120000000E+03 0.  0.
        998    1    1    2    0    0  0.16934008895E+01 -0.87558719688E+01  0.13341925594E+04  0.13342598392E+04  0.10000000000E+02 0. -1.
</event>
<event>
 5    1  0.1153629E-008  0.3823692E+03  0.7957747E-01  0.3440907E+00
         13   -1    0    0    0    0  0.00000000000E+00  0.00000000000E+00  0.14999999963E+04  0.15000000000E+04  0.10566000000E+00 0. -1.
        994   -1    0    0    0    0 -0.00000000000E+00 -0.00000000000E+00  0.11368683772E-12  0.17120000000E+03  0.17120000000E+03 0.  0.
         13    1    1    2    0    0 -0.75283709138E+01 -0.11201588274E+02  0.29019690515E+02  0.32004773864E+02  0.10566000000E+00 0. -1.
        994    1    1    2    0    0  0.10550719775E+02  0.14496614414E+02  0.40089647346E+01  0.17218298788E+03  0.17120000000E+03 0.  0.
        998    1    1    2    0    0 -0.30223488610E+01 -0.32950261397E+01  0.14669713410E+04  0.14670122383E+04  0.10000000000E+02 0. -1.
</event>
<event>
 5    1  0.1153629E-008  0.3749850E+03  0.7957747E-01  0.3473290E+00
         13   -1    0    0    0    0  0.00000000000E+00  0.00000000000E+00  0.14999999963E+04  0.15000000000E+04  0.10566000000E+00 0.  1.
        994   -1    0    0    0    0 -0.00000000000E+00 -0.00000000000E+00  0.11368683772E-12  0.17120000000E+03  0.17120000000E+03 0.  0.
         13    1    1    2    0    0 -0.88676737590E+01  0.22600152653E+02  0.39985277109E+02  0.46778585777E+02  0.10566000000E+00 0.  1.
        994    1    1    2    0    0  0.71376437922E+01 -0.27472842549E+02  0.94301739739E+01  0.17379318519E+03  0.17120000000E+03 0.  0.
        998    1    1    2    0    0  0.17300299668E+01  0.48726898963E+01  0.14505845452E+04  0.14506282290E+04  0.10000000000E+02 0.  1.
</event>
<event>
 5    1  0.1153629E-008  0.3815690E+03  0.7957747E-01  0.3444355E+00
         13   -1    0    0    0    0  0.00000000000E+00  0.00000000000E+00  0.14999999963E+04  0.15000000000E+04  0.10566000000E+00 0. -1.
        994   -1    0    0    0    0 -0.00000000000E+00 -0.00000000000E+00  0.11368683772E-12  0.17120000000E+03  0.17120000000E+03 0.  0.
         13    1    1    2    0    0  0.63557422751E+00 -0.12166685613E+02  0.20277309086E+02  0.23656132845E+02  0.10566000000E+00 0. -1.
        994    1    1    2    0    0 -0.47087617754E+01  0.18149368619E+02  0.45133220843E+01  0.17228285491E+03  0.17120000000E+03 0.  0.
        998    1    1    2    0    0  0.40731875478E+01 -0.59826830053E+01  0.14752093651E+04  0.14752610122E+04  0.10000000000E+02 0. -1.
</event>
<event>
 5    1  0.1153629E-008  0.3827941E+03  0.7957747E-01  0.3439082E+00
         13   -1    0    0    0    0  0.00000000000E+00  0.00000000000E+00  0.14999999963E+04  0.15000000000E+04  0.10566000000E+00 0.  1.
        994   -1    0    0    0    0 -0.00000000000E+00 -0.00000000000E+00  0.11368683772E-12  0.17120000000E+03  0.17120000000E+03 0.  0.
         13    1    1    2    0    0  0.65990073318E+01 -0.11548487603E+02  0.30788932386E+02  0.33539290171E+02  0.10566000000E+00 0.  1.
        994    1    1    2    0    0 -0.80421786747E+01  0.12877313414E+02  0.34931496689E+01  0.17190737021E+03  0.17120000000E+03 0.  0.
        998    1    1    2    0    0  0.14431713429E+01 -0.13288258112E+01  0.14657179142E+04  0.14657533396E+04  0.10000000000E+02 0.  1.
</event>
<event>
 5    1  0.1153629E-008  0.4067531E+03  0.7957747E-01  0.3342348E+00
         13   -1    0    0    0    0  0.00000000000E+00  0.00000000000E+00  0.14999999963E+04  0.15000000000E+04  0.10566000000E+00 0. -1.
        994   -1    0    0    0    0 -0.00000000000E+00 -0.00000000000E+00  0.11368683772E-12  0.17120000000E+03  0.17120000000E+03 0.  0.
         13    1    1    2    0    0  0.22229092293E+02 -0.28200168612E+02  0.76843913390E+01  0.36721153144E+02  0.10566000000E+00 0. -1.
        994    1    1    2    0    0 -0.23666248891E+02  0.87171336965E+01  0.34444381051E+02  0.17644244144E+03  0.17120000000E+03 0.  0.
        998    1    1    2    0    0  0.14371565985E+01  0.19483034915E+02  0.14578712239E+04  0.14580364054E+04  0.10000000000E+02 0. -1.
</event>
<event>
 5    1  0.1153629E-008  0.3853428E+03  0.7957747E-01  0.3428220E+00
         13   -1    0    0    0    0  0.00000000000E+00  0.00000000000E+00  0.14999999963E+04  0.15000000000E+04  0.10566000000E+00 0.  1.
        994   -1    0    0    0    0 -0.00000000000E+00 -0.00000000000E+00  0.11368683772E-12  0.17120000000E+03  0.17120000000E+03 0.  0.
         13    1    1    2    0    0 -0.94093811863E+01 -0.16420361774E+02  0.10866740016E+03  0.11030312669E+03  0.10566000000E+00 0.  1.
        994    1    1    2    0    0  0.11034885543E+02  0.24412846460E+02  0.38214313691E+01  0.17332570239E+03  0.17120000000E+03 0.  0.
        998    1    1    2    0    0 -0.16255043563E+01 -0.79924846861E+01  0.13875111647E+04  0.13875711709E+04  0.10000000000E+02 0.  1.
</event>
<event>
 5    1  0.1153629E-008  0.3852058E+03  0.7957747E-01  0.3428800E+00
         13   -1    0    0    0    0  0.00000000000E+00  0.00000000000E+00  0.14999999963E+04  0.15000000000E+04  0.10566000000E+00 0.  1.
        994   -1    0    0    0    0 -0.00000000000E+00 -0.00000000000E+00  0.11368683772E-12  0.17120000000E+03  0.17120000000E+03 0.  0.
         13    1    1    2    0    0 -0.11520961873E+02  0.56820044693E+01  0.52985858177E+02  0.54520914043E+02  0.10566000000E+00 0.  1.
        994    1    1    2    0    0  0.11729439320E+02 -0.34138306685E+01  0.20186126912E+01  0.17164716363E+03  0.17120000000E+03 0.  0.
        998    1    1    2    0    0 -0.20847744716E+00 -0.22681738008E+01  0.14449955254E+04  0.14450319223E+04  0.10000000000E+02 0.  1.
</event>
<event>
 5    1  0.1153629E-008  0.3858140E+03  0.7957747E-01  0.3426227E+00
         13   -1    0    0    0    0  0.00000000000E+00  0.00000000000E+00  0.14999999963E+04  0.15000000000E+04  0.10566000000E+00 0. -1.
        994   -1    0    0    0    0 -0.00000000000E+00 -0.00000000000E+00  0.11368683772E-12  0.17120000000E+03  0.17120000000E+03 0.  0.
         13    1    1    2    0    0 -0.96032531649E+00  0.10703527110E+02  0.50715411649E+02  0.51841603564E+02  0.10566000000E+00 0. -1.
        994    1    1    2    0    0 -0.80464636155E+01  0.21023508585E+01  0.14534108614E+01  0.17140804491E+03  0.17120000000E+03 0.  0.
        998    1    1    2    0    0  0.90067889320E+01 -0.12805877968E+02  0.14478311738E+04  0.14479503515E+04  0.10000000000E+02 0.  1.
</event>
<event>
 5    1  0.1153629E-008  0.3820218E+03  0.7957747E-01  0.3442402E+00
         13   -1    0    0    0    0  0.00000000000E+00  0.00000000000E+00  0.14999999963E+04  0.15000000000E+04  0.10566000000E+00 0. -1.
        994   -1    0    0    0    0 -0.00000000000E+00 -0.00000000000E+00  0.11368683772E-12  0.17120000000E+03  0.17120000000E+03 0.  0.
         13    1    1    2    0    0 -0.51647802997E+01 -0.43492267292E+02  0.24466613802E+03  0.24855539126E+03  0.10566000000E+00 0. -1.
        994    1    1    2    0    0  0.12670683254E+02  0.49013993935E+02  0.11673942026E+02  0.17890958258E+03  0.17120000000E+03 0.  0.
        998    1    1    2    0    0 -0.75059029547E+01 -0.55217266437E+01  0.12436599162E+04  0.12437350262E+04  0.10000000000E+02 0. -1.
</event>
<event>
 5    1  0.1153629E-008  0.3802492E+03  0.7957747E-01  0.3450074E+00
         13   -1    0    0    0    0  0.00000000000E+00  0.00000000000E+00  0.14999999963E+04  0.15000000000E+04  0.10566000000E+00 0.  1.
        994   -1    0    0    0    0 -0.00000000000E+00 -0.00000000000E+00  0.11368683772E-12  0.17120000000E+03  0.17120000000E+03 0.  0.
         13    1    1    2    0    0  0.12374068047E+02 -0.11689961704E+02  0.34085079177E+02  0.38099561037E+02  0.10566000000E+00 0.  1.
        994    1    1    2    0    0 -0.98489277432E+01  0.12987145070E+02  0.48952635936E+01  0.17204380524E+03  0.17120000000E+03 0.  0.
        998    1    1    2    0    0 -0.25251403038E+01 -0.12971833660E+01  0.14610196535E+04  0.14610566337E+04  0.10000000000E+02 0.  1.
</event>
<event>
 5    1  0.1153629E-008  0.3768426E+03  0.7957747E-01  0.3465023E+00
         13   -1    0    0    0    0  0.00000000000E+00  0.00000000000E+00  0.14999999963E+04  0.15000000000E+04  0.10566000000E+00 0.  1.
        994   -1    0    0    0    0 -0.00000000000E+00 -0.00000000000E+00  0.11368683772E-12  0.17120000000E+03  0.17120000000E+03 0.  0.
         13    1    1    2    0    0  0.40291164639E+02 -0.16563177562E+02  0.16407434736E+03  0.16975900395E+03  0.10566000000E+00 0.  1.
        994    1    1    2    0    0 -0.17532646441E+02  0.23319465116E+02  0.86163874474E+01  0.17388177960E+03  0.17120000000E+03 0.  0.
        998    1    1    2    0    0 -0.22758518197E+02 -0.67562875541E+01  0.13273092615E+04  0.13275592164E+04  0.10000000000E+02 0.  1.
</event>
<event>
 5    1  0.1153629E-008  0.3841718E+03  0.7957747E-01  0.3433192E+00
         13   -1    0    0    0    0  0.00000000000E+00  0.00000000000E+00  0.14999999963E+04  0.15000000000E+04  0.10566000000E+00 0. -1.
        994   -1    0    0    0    0 -0.00000000000E+00 -0.00000000000E+00  0.11368683772E-12  0.17120000000E+03  0.17120000000E+03 0.  0.
         13    1    1    2    0    0 -0.88062607309E+01  0.78712318305E+01  0.36593307121E+02  0.38452409660E+02  0.10566000000E+00 0. -1.
        994    1    1    2    0    0 -0.54798353861E+01  0.10211171967E+02  0.24848286444E+01  0.17160976371E+03  0.17120000000E+03 0.  0.
        998    1    1    2    0    0  0.14286096117E+02 -0.18082403797E+02  0.14609218605E+04  0.14611378266E+04  0.10000000000E+02 0. -1.
</event>
<event>
 5    1  0.1153629E-008  0.3850199E+03  0.7957747E-01  0.3429588E+00
         13   -1    0    0    0    0  0.00000000000E+00  0.00000000000E+00  0.14999999963E+04  0.15000000000E+04  0.10566000000E+00 0. -1.
        994   -1    0    0    0    0 -0.00000000000E+00 -0.00000000000E+00  0.11368683772E-12  0.17120000000E+03  0.17120000000E+03 0.  0.
         13    1    1    2    0    0  0.12920602163E+02 -0.26428775895E+01  0.51361026252E+02  0.53027284900E+02  0.10566000000E+00 0. -1.
        994    1    1    2    0    0 -0.16975509699E+02 -0.42534957311E+00  0.25690304101E+01  0.17205925947E+03  0.17120000000E+03 0.  0.
        998    1    1    2    0    0  0.40549075354E+01  0.30682271626E+01  0.14460699396E+04  0.14461134556E+04  0.10000000000E+02 0. -1.
</event>
<event>
 5    1  0.1153629E-008  0.3756975E+03  0.7957747E-01  0.3470109E+00
         13   -1    0    0    0    0  0.00000000000E+00  0.00000000000E+00  0.14999999963E+04  0.15000000000E+04  0.10566000000E+00 0. -1.
        994   -1    0    0    0    0 -0.00000000000E+00 -0.00000000000E+00  0.11368683772E-12  0.17120000000E+03  0.17120000000E+03 0.  0.
         13    1    1    2    0    0 -0.46943083012E+02 -0.25960850490E+01  0.81915563612E+02  0.94448734381E+02  0.10566000000E+00 0. -1.
        994    1    1    2    0    0 -0.81812565641E+00 -0.17867422754E+02  0.15125751880E+02  0.17279508817E+03  0.17120000000E+03 0.  0.
        998    1    1    2    0    0  0.47761208668E+02  0.20463507803E+02  0.14029586808E+04  0.14039561775E+04  0.10000000000E+02 0. -1.
</event>
<event>
 5    1  0.1153629E-008  0.3843860E+03  0.7957747E-01  0.3432280E+00
         13   -1    0    0    0    0  0.00000000000E+00  0.00000000000E+00  0.14999999963E+04  0.15000000000E+04  0.10566000000E+00 0. -1.
        994   -1    0    0    0    0 -0.00000000000E+00 -0.00000000000E+00  0.11368683772E-12  0.17120000000E+03  0.17120000000E+03 0.  0.
         13    1    1    2    0    0 -0.13834717543E+02  0.16743622380E+02  0.11384513819E+03  0.11589855457E+03  0.10566000000E+00 0. -1.
        994    1    1    2    0    0  0.19342795970E+02 -0.12802367710E+02  0.37102513217E+01  0.17280408080E+03  0.17120000000E+03 0.  0.
        998    1    1    2    0    0 -0.55080784265E+01 -0.39412546708E+01  0.13824446068E+04  0.13824973646E+04  0.10000000000E+02 0. -1.
</event>
<event>
 5    1  0.1153629E-008  0.3785339E+03  0.7957747E-01  0.3457567E+00
         13   -1    0    0    0    0  0.00000000000E+00  0.00000000000E+00  0.14999999963E+04  0.15000000000E+04  0.10566000000E+00 0. -1.
        994   -1    0    0    0    0 -0.00000000000E+00 -0.00000000000E+00  0.11368683772E-12  0.17120000000E+03  0.17120000000E+03 0.  0.
         13    1    1    2    0    0  0.48870179238E+02  0.49017570074E+02  0.38405536093E+03  0.39024293461E+03  0.10566000000E+00 0. -1.
        994    1    1    2    0    0 -0.56073735031E+02 -0.35606583449E+02  0.19841995084E+02  0.18470310586E+03  0.17120000000E+03 0.  0.
        998    1    1    2    0    0  0.72035557938E+01 -0.13410986625E+02  0.10961026403E+04  0.10962539595E+04  0.10000000000E+02 0. -1.
</event>
<event>
 5    1  0.1153629E-008  0.3797679E+03  0.7957747E-01  0.3452170E+00
         13   -1    0    0    0    0  0.00000000000E+00  0.00000000000E+00  0.14999999963E+04  0.15000000000E+04  0.10566000000E+00 0.  1.
        994   -1    0    0    0    0 -0.00000000000E+00 -0.00000000000E+00  0.11368683772E-12  0.17120000000E+03  0.17120000000E+03 0.  0.
         13    1    1    2    0    0 -0.36564929456E+02 -0.35991811149E+02  0.19117700198E+03  0.19794206674E+03  0.10566000000E+00 0.  1.
        994    1    1    2    0    0  0.10066288183E+03  0.44273079738E+02  0.45831009999E+02  0.20857383068E+03  0.17120000000E+03 0.  0.
        998    1    1    2    0    0 -0.64097952371E+02 -0.82812685885E+01  0.12629919843E+04  0.12646841026E+04  0.10000000000E+02 0. -1.
</event>
<event>
 5    1  0.1153629E-008  0.3839947E+03  0.7957747E-01  0.3433947E+00
         13   -1    0    0    0    0  0.00000000000E+00  0.00000000000E+00  0.14999999963E+04  0.15000000000E+04  0.10566000000E+00 0. -1.
        994   -1    0    0    0    0 -0.00000000000E+00 -0.00000000000E+00  0.11368683772E-12  0.17120000000E+03  0.17120000000E+03 0.  0.
         13    1    1    2    0    0  0.21042171052E+02 -0.87093939040E+01  0.12629394896E+03  0.12833081942E+03  0.10566000000E+00 0. -1.
        994    1    1    2    0    0 -0.69754194495E+01  0.64461658068E+01  0.24277885325E+01  0.17148044695E+03  0.17120000000E+03 0.  0.
        998    1    1    2    0    0 -0.14066751603E+02  0.22632280973E+01  0.13712782588E+04  0.13713887336E+04  0.10000000000E+02 0. -1.
</event>
<event>
 5    1  0.1153629E-008  0.3842875E+03  0.7957747E-01  0.3432700E+00
         13   -1    0    0    0    0  0.00000000000E+00  0.00000000000E+00  0.14999999963E+04  0.15000000000E+04  0.10566000000E+00 0.  1.
        994   -1    0    0    0    0 -0.00000000000E+00 -0.00000000000E+00  0.11368683772E-12  0.17120000000E+03  0.17120000000E+03 0.  0.
         13    1    1    2    0    0  0.10316058719E+02 -0.47767684983E+01  0.31522459203E+02  0.33509926634E+02  0.10566000000E+00 0.  1.
        994    1    1    2    0    0 -0.11837450910E+02  0.30783650514E+01  0.24775885119E+01  0.17165424556E+03  0.17120000000E+03 0.  0.
        998    1    1    2    0    0  0.15213921904E+01  0.16984034469E+01  0.14659999486E+04  0.14660358278E+04  0.10000000000E+02 0.  1.
</event>
<event>
 5    1  0.1153629E-008  0.3822836E+03  0.7957747E-01  0.3441275E+00
         13   -1    0    0    0    0  0.00000000000E+00  0.00000000000E+00  0.14999999963E+04  0.15000000000E+04  0.10566000000E+00 0. -1.
        994   -1    0    0    0    0 -0.00000000000E+00 -0.00000000000E+00  0.11368683772E-12  0.17120000000E+03  0.17120000000E+03 0.  0.
         13    1    1    2    0    0  0.17503377811E+01 -0.35274366866E+02  0.18175728019E+03  0.18515686514E+03  0.10566000000E+00 0. -1.
        994    1    1    2    0    0 -0.12978313895E+01  0.37537918330E+02  0.76797795424E+01  0.17544001451E+03  0.17120000000E+03 0.  0.
        998    1    1    2    0    0 -0.45250639158E+00 -0.22635514641E+01  0.13105629365E+04  0.13106031203E+04  0.10000000000E+02 0. -1.
</event>
<event>
 5    1  0.1153629E-008  0.3769558E+03  0.7957747E-01  0.3464521E+00
         13   -1    0    0    0    0  0.00000000000E+00  0.00000000000E+00  0.14999999963E+04  0.15000000000E+04  0.10566000000E+00 0. -1.
        994   -1    0    0    0    0 -0.00000000000E+00 -0.00000000000E+00  0.11368683772E-12  0.17120000000E+03  0.17120000000E+03 0.  0.
         13    1    1    2    0    0  0.38725702903E+01  0.42785101773E+02  0.15711673377E+03  0.16288413345E+03  0.10566000000E+00 0. -1.
        994    1    1    2    0    0  0.37495258250E+01 -0.29585950149E+02  0.86870182316E+01  0.17399509095E+03  0.17120000000E+03 0.  0.
        998    1    1    2    0    0 -0.76220961153E+01 -0.13199151624E+02  0.13341962443E+04  0.13343207756E+04  0.10000000000E+02 0. -1.
</event>
<event>
 5    1  0.1153629E-008  0.3854296E+03  0.7957747E-01  0.3427852E+00
         13   -1    0    0    0    0  0.00000000000E+00  0.00000000000E+00  0.14999999963E+04  0.15000000000E+04  0.10566000000E+00 0.  1.
        994   -1    0    0    0    0 -0.00000000000E+00 -0.00000000000E+00  0.11368683772E-12  0.17120000000E+03  0.17120000000E+03 0.  0.
         13    1    1    2    0    0 -0.14686184302E+02 -0.76369798801E+01  0.86430562192E+02  0.88001481327E+02  0.10566000000E+00 0.  1.
        994    1    1    2    0    0  0.28625136741E+02  0.16202255676E+01  0.41212384422E+01  0.17363308495E+03  0.17120000000E+03 0.  0.
        998    1    1    2    0    0 -0.13938952439E+02  0.60167543124E+01  0.14094481956E+04  0.14095654337E+04  0.10000000000E+02 0.  1.
</event>
<event>
 5    1  0.1153629E-008  0.3824842E+03  0.7957747E-01  0.3440413E+00
         13   -1    0    0    0    0  0.00000000000E+00  0.00000000000E+00  0.14999999963E+04  0.15000000000E+04  0.10566000000E+00 0. -1.
        994   -1    0    0    0    0 -0.00000000000E+00 -0.00000000000E+00  0.11368683772E-12  0.17120000000E+03  0.17120000000E+03 0.  0.
         13    1    1    2    0    0 -0.15307163829E+01 -0.85269078924E+02  0.49427623543E+03  0.50157967162E+03  0.10566000000E+00 0. -1.
        994    1    1    2    0    0 -0.20752484088E+02  0.12367728426E+03  0.56910143876E+02  0.21971559051E+03  0.17120000000E+03 0.  0.
        998    1    1    2    0    0  0.22283200471E+02 -0.38408205337E+02  0.94881361697E+03  0.94990473786E+03  0.10000000000E+02 0. -1.
</event>
<event>
 5    1  0.1153629E-008  0.3789975E+03  0.7957747E-01  0.3455535E+00
         13   -1    0    0    0    0  0.00000000000E+00  0.00000000000E+00  0.14999999963E+04  0.15000000000E+04  0.10566000000E+00 0. -1.
        994   -1    0    0    0    0 -0.00000000000E+00 -0.00000000000E+00  0.11368683772E-12  0.17120000000E+03  0.17120000000E+03 0.  0.
         13    1    1    2    0    0 -0.71323805230E+01  0.12445689263E+02  0.21588624459E+02  0.25919990417E+02  0.10566000000E+00 0. -1.
        994    1    1    2    0    0 -0.30169517841E+01  0.15209014699E+02  0.54468320926E+01  0.17198698819E+03  0.17120000000E+03 0.  0.
        998    1    1    2    0    0  0.10149332307E+02 -0.27654703962E+02  0.14729645397E+04  0.14732930214E+04  0.10000000000E+02 0. -1.
</event>
<event>
 5    1  0.1153629E-008  0.3848799E+03  0.7957747E-01  0.3430182E+00
         13   -1    0    0    0    0  0.00000000000E+00  0.00000000000E+00  0.14999999963E+04  0.15000000000E+04  0.10566000000E+00 0.  1.
        994   -1    0    0    0    0 -0.00000000000E+00 -0.00000000000E+00  0.11368683772E-12  0.17120000000E+03  0.17120000000E+03 0.  0.
         13    1    1    2    0    0 -0.12489996662E+02 -0.18419210652E+02  0.13376046001E+03  0.13559918570E+03  0.10566000000E+00 0.  1.
        994    1    1    2    0    0  0.15391495537E+02  0.18632940375E+02  0.36137216995E+01  0.17293520054E+03  0.17120000000E+03 0.  0.
        998    1    1    2    0    0 -0.29014988756E+01 -0.21372972273E+00  0.13626258146E+04  0.13626656138E+04  0.10000000000E+02 0.  1.
</event>
<event>
 5    1  0.1153629E-008  0.3705004E+03  0.7957747E-01  0.3493595E+00
         13   -1    0    0    0    0  0.00000000000E+00  0.00000000000E+00  0.14999999963E+04  0.15000000000E+04  0.10566000000E+00 0. -1.
        994   -1    0    0    0    0 -0.00000000000E+00 -0.00000000000E+00  0.11368683772E-12  0.17120000000E+03  0.17120000000E+03 0.  0.
         13    1    1    2    0    0 -0.64105634682E+02 -0.83187238857E+01  0.26975787158E+03  0.27739512254E+03  0.10566000000E+00 0. -1.
        994    1    1    2    0    0  0.14409376699E+02 -0.16297348494E+02  0.10642925044E+02  0.17290444054E+03  0.17120000000E+03 0.  0.
        998    1    1    2    0    0  0.49696257983E+02  0.24616072380E+02  0.12195991997E+04  0.12209004369E+04  0.10000000000E+02 0. -1.
</event>
<event>
 5    1  0.2083794E-008  0.3853403E+03  0.7957747E-01  0.3428230E+00
         13   -1    0    0    0    0  0.00000000000E+00  0.00000000000E+00  0.14999999963E+04  0.15000000000E+04  0.10566000000E+00 0. -1.
        994   -1    0    0    0    0 -0.00000000000E+00 -0.00000000000E+00  0.11368683772E-12  0.17120000000E+03  0.17120000000E+03 0.  0.
         13    1    1    2    0    0  0.33353998176E+01 -0.13606449262E+02  0.69047725322E+02  0.70454665492E+02  0.10566000000E+00 0. -1.
        994    1    1    2    0    0  0.13005695321E+00  0.59135489336E+01  0.15762206864E+01  0.17130940268E+03  0.17120000000E+03 0.  0.
        998    1    1    2    0    0 -0.34654567708E+01  0.76929003288E+01  0.14293760503E+04  0.14294359318E+04  0.10000000000E+02 0. -1.
</event>
<event>
 5    1  0.1153629E-008  0.3852471E+03  0.7957747E-01  0.3428625E+00
         13   -1    0    0    0    0  0.00000000000E+00  0.00000000000E+00  0.14999999963E+04  0.15000000000E+04  0.10566000000E+00 0.  1.
        994   -1    0    0    0    0 -0.00000000000E+00 -0.00000000000E+00  0.11368683772E-12  0.17120000000E+03  0.17120000000E+03 0.  0.
         13    1    1    2    0    0 -0.14529064510E+02  0.70800294053E+01  0.85867556982E+02  0.87375448714E+02  0.10566000000E+00 0.  1.
        994    1    1    2    0    0  0.92430013078E+01 -0.84875024962E+01  0.20251226422E+01  0.17167123199E+03  0.17120000000E+03 0.  0.
        998    1    1    2    0    0  0.52860632017E+01  0.14074730909E+01  0.14121073167E+04  0.14121533193E+04  0.10000000000E+02 0.  1.
</event>
<event>
 5    1  0.1153629E-008  0.3822832E+03  0.7957747E-01  0.3441277E+00
         13   -1    0    0    0    0  0.00000000000E+00  0.00000000000E+00  0.14999999963E+04  0.15000000000E+04  0.10566000000E+00 0. -1.
        994   -1    0    0    0    0 -0.00000000000E+00 -0.00000000000E+00  0.11368683772E-12  0.17120000000E+03  0.17120000000E+03 0.  0.
         13    1    1    2    0    0  0.10899519909E+02 -0.97227215644E+00  0.18867562458E+02  0.21811486069E+02  0.10566000000E+00 0. -1.
        994    1    1    2    0    0 -0.85092540156E+01 -0.55711553789E+01  0.33283175087E+01  0.17153414492E+03  0.17120000000E+03 0.  0.
        998    1    1    2    0    0 -0.23902658936E+01  0.65434275354E+01  0.14778041163E+04  0.14778543690E+04  0.10000000000E+02 0. -1.
</event>
<event>
 5    1  0.1153629E-008  0.3738340E+03  0.7957747E-01  0.3478454E+00
         13   -1    0    0    0    0  0.00000000000E+00  0.00000000000E+00  0.14999999963E+04  0.15000000000E+04  0.10566000000E+00 0. -1.
        994   -1    0    0    0    0 -0.00000000000E+00 -0.00000000000E+00  0.11368683772E-12  0.17120000000E+03  0.17120000000E+03 0.  0.
         13    1    1    2    0    0 -0.22491599114E+02  0.13358612297E+02  0.20630283627E+02  0.33315826866E+02  0.10566000000E+00 0. -1.
        994    1    1    2    0    0  0.18329773707E+02 -0.18378324570E+02  0.15371702249E+02  0.17383748919E+03  0.17120000000E+03 0.  0.
        998    1    1    2    0    0  0.41618254068E+01  0.50197122729E+01  0.14639980104E+04  0.14640466839E+04  0.10000000000E+02 0. -1.
</event>
<event>
 5    1  0.1153629E-008  0.3804520E+03  0.7957747E-01  0.3449193E+00
         13   -1    0    0    0    0  0.00000000000E+00  0.00000000000E+00  0.14999999963E+04  0.15000000000E+04  0.10566000000E+00 0. -1.
        994   -1    0    0    0    0 -0.00000000000E+00 -0.00000000000E+00  0.11368683772E-12  0.17120000000E+03  0.17120000000E+03 0.  0.
         13    1    1    2    0    0  0.71992866195E+01  0.30269396451E+02  0.13095540309E+03  0.13460087240E+03  0.10566000000E+00 0. -1.
        994    1    1    2    0    0 -0.59538796429E+01 -0.66114591020E+01  0.41694130532E+01  0.17148173104E+03  0.17120000000E+03 0.  0.
        998    1    1    2    0    0 -0.12454069766E+01 -0.23657937349E+02  0.13648751801E+04  0.13651173966E+04  0.10000000000E+02 0. -1.
</event>
<event>
 5    1  0.1153629E-008  0.3812314E+03  0.7957747E-01  0.3445814E+00
         13   -1    0    0    0    0  0.00000000000E+00  0.00000000000E+00  0.14999999963E+04  0.15000000000E+04  0.10566000000E+00 0.  1.
        994   -1    0    0    0    0 -0.00000000000E+00 -0.00000000000E+00  0.11368683772E-12  0.17120000000E+03  0.17120000000E+03 0.  0.
         13    1    1    2    0    0 -0.85061585165E+01 -0.12307109428E+02  0.33440929309E+02  0.36635045957E+02  0.10566000000E+00 0.  1.
        994    1    1    2    0    0 -0.27696642069E+02 -0.11947645606E+01  0.60757716233E+01  0.17353641245E+03  0.17120000000E+03 0.  0.
        998    1    1    2    0    0  0.36202800586E+02  0.13501873989E+02  0.14604832953E+04  0.14610285416E+04  0.10000000000E+02 0.  1.
</event>
<event>
 5    1  0.1153629E-008  0.3826542E+03  0.7957747E-01  0.3439682E+00
         13   -1    0    0    0    0  0.00000000000E+00  0.00000000000E+00  0.14999999963E+04  0.15000000000E+04  0.10566000000E+00 0. -1.
        994   -1    0    0    0    0 -0.00000000000E+00 -0.00000000000E+00  0.11368683772E-12  0.17120000000E+03  0.17120000000E+03 0.  0.
         13    1    1    2    0    0  0.28405053260E+01  0.16269273123E+02  0.45425331430E+02  0.48334559251E+02  0.10566000000E+00 0. -1.
        994    1    1    2    0    0  0.44168577070E+01 -0.24332927982E+02  0.48286776919E+01  0.17304437623E+03  0.17120000000E+03 0.  0.
        998    1    1    2    0    0 -0.72573630330E+01  0.80636548585E+01  0.14497459872E+04  0.14498210645E+04  0.10000000000E+02 0. -1.
</event>
<event>
 5    1  0.1153629E-008  0.3833177E+03  0.7957747E-01  0.3436838E+00
         13   -1    0    0    0    0  0.00000000000E+00  0.00000000000E+00  0.14999999963E+04  0.15000000000E+04  0.10566000000E+00 0. -1.
        994   -1    0    0    0    0 -0.00000000000E+00 -0.00000000000E+00  0.11368683772E-12  0.17120000000E+03  0.17120000000E+03 0.  0.
         13    1    1    2    0    0  0.35603878318E+01  0.14855244042E+02  0.49992749692E+02  0.52274667123E+02  0.10566000000E+00 0. -1.
        994    1    1    2    0    0  0.67922921419E+01  0.34812811584E+01  0.26603259767E+01  0.17139069953E+03  0.17120000000E+03 0.  0.
        998    1    1    2    0    0 -0.10352679974E+02 -0.18336525200E+02  0.14473469206E+04  0.14475346333E+04  0.10000000000E+02 0. -1.
</event>
<event>
 5    1  0.1153629E-008  0.3726830E+03  0.7957747E-01  0.3483650E+00
         13   -1    0    0    0    0  0.00000000000E+00  0.00000000000E+00  0.14999999963E+04  0.15000000000E+04  0.10566000000E+00 0. -1.
        994   -1    0    0    0    0 -0.00000000000E+00 -0.00000000000E+00  0.11368683772E-12  0.17120000000E+03  0.17120000000E+03 0.  0.
         13    1    1    2    0    0 -0.51756075294E+02 -0.45901504963E+02  0.30106032091E+03  0.30890608197E+03  0.10566000000E+00 0. -1.
        994    1    1    2    0    0 -0.52222573179E+02  0.11919720575E+02  0.22560606276E+02  0.18079739446E+03  0.17120000000E+03 0.  0.
        998    1    1    2    0    0  0.10397864847E+03  0.33981784388E+02  0.11763790691E+04  0.11814965236E+04  0.10000000000E+02 0. -1.
</event>
<event>
 5    1  0.1153629E-008  0.3758676E+03  0.7957747E-01  0.3469351E+00
         13   -1    0    0    0    0  0.00000000000E+00  0.00000000000E+00  0.14999999963E+04  0.15000000000E+04  0.10566000000E+00 0. -1.
        994   -1    0    0    0    0 -0.00000000000E+00 -0.00000000000E+00  0.11368683772E-12  0.17120000000E+03  0.17120000000E+03 0.  0.
         13    1    1    2    0    0  0.44976978599E+02  0.19529126123E+02  0.16279872914E+03  0.17002280067E+03  0.10566000000E+00 0. -1.
        994    1    1    2    0    0 -0.61509311367E+02 -0.44293504134E+01  0.19234159158E+02  0.18298198657E+03  0.17120000000E+03 0.  0.
        998    1    1    2    0    0  0.16532332768E+02 -0.15099775710E+02  0.13179671080E+04  0.13181952128E+04  0.10000000000E+02 0. -1.
</event>
<event>
 5    1  0.1153629E-008  0.3858441E+03  0.7957747E-01  0.3426100E+00
         13   -1    0    0    0    0  0.00000000000E+00  0.00000000000E+00  0.14999999963E+04  0.15000000000E+04  0.10566000000E+00 0. -1.
        994   -1    0    0    0    0 -0.00000000000E+00 -0.00000000000E+00  0.11368683772E-12  0.17120000000E+03  0.17120000000E+03 0.  0.
         13    1    1    2    0    0 -0.59539385446E+01 -0.93898585966E+01  0.51423697106E+02  0.52612038705E+02  0.10566000000E+00 0. -1.
        994    1    1    2    0    0  0.43343364515E+01  0.63136277413E+01  0.14040151850E+01  0.17137695185E+03  0.17120000000E+03 0.  0.
        998    1    1    2    0    0  0.16196020931E+01  0.30762308553E+01  0.14471722840E+04  0.14472110094E+04  0.10000000000E+02 0. -1.
</event>
<event>
 5    1  0.1153629E-008  0.3825169E+03  0.7957747E-01  0.3440272E+00
         13   -1    0    0    0    0  0.00000000000E+00  0.00000000000E+00  0.14999999963E+04  0.15000000000E+04  0.10566000000E+00 0. -1.
        994   -1    0    0    0    0 -0.00000000000E+00 -0.00000000000E+00  0.11368683772E-12  0.17120000000E+03  0.17120000000E+03 0.  0.
         13    1    1    2    0    0  0.80252505854E+01 -0.84538313148E+01  0.22787341452E+02  0.25595820075E+02  0.10566000000E+00 0. -1.
        994    1    1    2    0    0 -0.78336537905E+01  0.31708194468E+00  0.30718109070E+01  0.17140695054E+03  0.17120000000E+03 0.  0.
        998    1    1    2    0    0 -0.19159679488E+00  0.81367493701E+01  0.14741408439E+04  0.14741972294E+04  0.10000000000E+02 0. -1.
</event>
<event>
 5    1  0.1153629E-008  0.3812743E+03  0.7957747E-01  0.3445629E+00
         13   -1    0    0    0    0  0.00000000000E+00  0.00000000000E+00  0.14999999963E+04  0.15000000000E+04  0.10566000000E+00 0.  1.
        994   -1    0    0    0    0 -0.00000000000E+00 -0.00000000000E+00  0.11368683772E-12  0.17120000000E+03  0.17120000000E+03 0.  0.
         13    1    1    2    0    0 -0.65570284673E+01  0.99778692037E+01  0.18899851336E+02  0.22355492406E+02  0.10566000000E+00 0.  1.
        994    1    1    2    0    0  0.60657885083E+01 -0.81231633707E+01  0.38334793662E+01  0.17154275017E+03  0.17120000000E+03 0.  0.
        998    1    1    2    0    0  0.49123995900E+00 -0.18547058331E+01  0.14772666656E+04  0.14773017574E+04  0.10000000000E+02 0.  1.
</event>
<event>
 5    1  0.1153629E-008  0.3715391E+03  0.7957747E-01  0.3488847E+00
         13   -1    0    0    0    0  0.00000000000E+00  0.00000000000E+00  0.14999999963E+04  0.15000000000E+04  0.10566000000E+00 0. -1.
        994   -1    0    0    0    0 -0.00000000000E+00 -0.00000000000E+00  0.11368683772E-12  0.17120000000E+03  0.17120000000E+03 0.  0.
         13    1    1    2    0    0 -0.28547435103E+02  0.53237216634E+02  0.20163038795E+03  0.21048511063E+03  0.10566000000E+00 0. -1.
        994    1    1    2    0    0  0.18641017317E+02 -0.41379308900E+02  0.15584533100E+02  0.17779778515E+03  0.17120000000E+03 0.  0.
        998    1    1    2    0    0  0.99064177852E+01 -0.11857907734E+02  0.12827850752E+04  0.12829171042E+04  0.10000000000E+02 0. -1.
</event>
<event>
 5    1  0.1153629E-008  0.3818244E+03  0.7957747E-01  0.3443253E+00
         13   -1    0    0    0    0  0.00000000000E+00  0.00000000000E+00  0.14999999963E+04  0.15000000000E+04  0.10566000000E+00 0. -1.
        994   -1    0    0    0    0 -0.00000000000E+00 -0.00000000000E+00  0.11368683772E-12  0.17120000000E+03  0.17120000000E+03 0.  0.
         13    1    1    2    0    0  0.71875166001E+01 -0.14342672173E+02  0.39587886027E+02  0.42715155672E+02  0.10566000000E+00 0. -1.
        994    1    1    2    0    0  0.16868174181E+02  0.15209480536E+02  0.49310733834E+01  0.17277042306E+03  0.17120000000E+03 0.  0.
        998    1    1    2    0    0 -0.24055690781E+02 -0.86680836316E+00  0.14554810369E+04  0.14557144213E+04  0.10000000000E+02 0. -1.
</event>
<event>
 5    1  0.1153629E-008  0.3811815E+03  0.7957747E-01  0.3446030E+00
         13   -1    0    0    0    0  0.00000000000E+00  0.00000000000E+00  0.14999999963E+04  0.15000000000E+04  0.10566000000E+00 0.  1.
        994   -1    0    0    0    0 -0.00000000000E+00 -0.00000000000E+00  0.11368683772E-12  0.17120000000E+03  0.17120000000E+03 0.  0.
         13    1    1    2    0    0  0.19051980877E+02  0.29673655123E+02  0.19649521941E+03  0.19963438131E+03  0.10566000000E+00 0.  1.
        994    1    1    2    0    0  0.67091283259E+01 -0.11416871954E+02  0.41220389659E+01  0.17176084703E+03  0.17120000000E+03 0.  0.
        998    1    1    2    0    0 -0.25761109203E+02 -0.18256783169E+02  0.12993827379E+04  0.12998047717E+04  0.10000000000E+02 0.  1.
</event>
<event>
 5    1  0.1153629E-008  0.3846370E+03  0.7957747E-01  0.3431213E+00
         13   -1    0    0    0    0  0.00000000000E+00  0.00000000000E+00  0.14999999963E+04  0.15000000000E+04  0.10566000000E+00 0.  1.
        994   -1    0    0    0    0 -0.00000000000E+00 -0.00000000000E+00  0.11368683772E-12  0.17120000000E+03  0.17120000000E+03 0.  0.
         13    1    1    2    0    0 -0.16076942669E+02 -0.26019737426E+01  0.74111195003E+02  0.75879633247E+02  0.10566000000E+00 0.  1.
        994    1    1    2    0    0  0.60326233551E+01  0.17855855372E+02  0.29809023704E+01  0.17226012276E+03  0.17120000000E+03 0.  0.
        998    1    1    2    0    0  0.10044319314E+02 -0.15253881629E+02  0.14229078989E+04  0.14230602440E+04  0.10000000000E+02 0.  1.
</event>
<event>
 5    1  0.1153629E-008  0.3785375E+03  0.7957747E-01  0.3457551E+00
         13   -1    0    0    0    0  0.00000000000E+00  0.00000000000E+00  0.14999999963E+04  0.15000000000E+04  0.10566000000E+00 0.  1.
        994   -1    0    0    0    0 -0.00000000000E+00 -0.00000000000E+00  0.11368683772E-12  0.17120000000E+03  0.17120000000E+03 0.  0.
         13    1    1    2    0    0 -0.16660989080E+02 -0.13962273831E+02  0.46515577423E+02  0.51344364391E+02  0.10566000000E+00 0.  1.
        994    1    1    2    0    0  0.12286562333E+02  0.84477259826E+01  0.56203936953E+01  0.17193996776E+03  0.17120000000E+03 0.  0.
        998    1    1    2    0    0  0.43744267473E+01  0.55145478489E+01  0.14478640252E+04  0.14479156678E+04  0.10000000000E+02 0.  1.
</event>
<event>
 5    1  0.1153629E-008  0.3850787E+03  0.7957747E-01  0.3429339E+00
         13   -1    0    0    0    0  0.00000000000E+00  0.00000000000E+00  0.14999999963E+04  0.15000000000E+04  0.10566000000E+00 0.  1.
        994   -1    0    0    0    0 -0.00000000000E+00 -0.00000000000E+00  0.11368683772E-12  0.17120000000E+03  0.17120000000E+03 0.  0.
         13    1    1    2    0    0 -0.13581849206E+02  0.86853953482E+01  0.79413979577E+02  0.81033906709E+02  0.10566000000E+00 0.  1.
        994    1    1    2    0    0  0.12669408493E+02 -0.73707567374E+01  0.22977556074E+01  0.17184167611E+03  0.17120000000E+03 0.  0.
        998    1    1    2    0    0  0.91244071355E+00 -0.13146386109E+01  0.14182882611E+04  0.14183244172E+04  0.10000000000E+02 0.  1.
</event>
<event>
 5    1  0.1153629E-008  0.3852989E+03  0.7957747E-01  0.3428405E+00
         13   -1    0    0    0    0  0.00000000000E+00  0.00000000000E+00  0.14999999963E+04  0.15000000000E+04  0.10566000000E+00 0. -1.
        994   -1    0    0    0    0 -0.00000000000E+00 -0.00000000000E+00  0.11368683772E-12  0.17120000000E+03  0.17120000000E+03 0.  0.
         13    1    1    2    0    0 -0.87517866352E+01 -0.93719590137E+01  0.56337445153E+02  0.57778423962E+02  0.10566000000E+00 0. -1.
        994    1    1    2    0    0  0.36190958473E+01  0.55014438628E+01  0.16242752007E+01  0.17133429899E+03  0.17120000000E+03 0.  0.
        998    1    1    2    0    0  0.51326907878E+01  0.38705151509E+01  0.14420382759E+04  0.14420872771E+04  0.10000000000E+02 0. -1.
</event>
<event>
 5    1  0.1153629E-008  0.3712040E+03  0.7957747E-01  0.3490376E+00
         13   -1    0    0    0    0  0.00000000000E+00  0.00000000000E+00  0.14999999963E+04  0.15000000000E+04  0.10566000000E+00 0.  1.
        994   -1    0    0    0    0 -0.00000000000E+00 -0.00000000000E+00  0.11368683772E-12  0.17120000000E+03  0.17120000000E+03 0.  0.
         13    1    1    2    0    0 -0.65555227939E+02 -0.40271868975E+02  0.30921173575E+03  0.31863963977E+03  0.10566000000E+00 0.  1.
        994    1    1    2    0    0  0.47261564760E+02  0.34071046344E+02  0.20421698752E+02  0.18199169619E+03  0.17120000000E+03 0.  0.
        998    1    1    2    0    0  0.18293663179E+02  0.62008226309E+01  0.11703665618E+04  0.11705686640E+04  0.10000000000E+02 0.  1.
</event>
<event>
 5    1  0.1153629E-008  0.3704077E+03  0.7957747E-01  0.3494019E+00
         13   -1    0    0    0    0  0.00000000000E+00  0.00000000000E+00  0.14999999963E+04  0.15000000000E+04  0.10566000000E+00 0. -1.
        994   -1    0    0    0    0 -0.00000000000E+00 -0.00000000000E+00  0.11368683772E-12  0.17120000000E+03  0.17120000000E+03 0.  0.
         13    1    1    2    0    0  0.11324234160E+02  0.22846340459E+02  0.32912176431E+02  0.41634313651E+02  0.10566000000E+00 0. -1.
        994    1    1    2    0    0 -0.30022820257E+02  0.51306164663E+01  0.12265967936E+02  0.17432035719E+03  0.17120000000E+03 0.  0.
        998    1    1    2    0    0  0.18698586098E+02 -0.27976956926E+02  0.14548218519E+04  0.14552453292E+04  0.10000000000E+02 0. -1.
</event>
<event>
 5    1  0.1153629E-008  0.3838782E+03  0.7957747E-01  0.3434444E+00
         13   -1    0    0    0    0  0.00000000000E+00  0.00000000000E+00  0.14999999963E+04  0.15000000000E+04  0.10566000000E+00 0. -1.
        994   -1    0    0    0    0 -0.00000000000E+00 -0.00000000000E+00  0.11368683772E-12  0.17120000000E+03  0.17120000000E+03 0.  0.
         13    1    1    2    0    0  0.12963139153E+02 -0.45802541912E+01  0.44971999616E+02  0.47026733021E+02  0.10566000000E+00 0. -1.
        994    1    1    2    0    0 -0.81309347582E+00 -0.84785908245E+01  0.24275946709E+01  0.17142893816E+03  0.17120000000E+03 0.  0.
        998    1    1    2    0    0 -0.12150045678E+02  0.13058845016E+02  0.14526004020E+04  0.14527443288E+04  0.10000000000E+02 0. -1.
</event>
<event>
 5    1  0.1153629E-008  0.2589115E+03  0.7957747E-01  0.4241454E+00
         13   -1    0    0    0    0  0.00000000000E+00  0.00000000000E+00  0.14999999963E+04  0.15000000000E+04  0.10566000000E+00 0.  1.
        994   -1    0    0    0    0 -0.00000000000E+00 -0.00000000000E+00  0.11368683772E-12  0.17120000000E+03  0.17120000000E+03 0.  0.
         13    1    1    2    0    0  0.16693826045E+03 -0.41377978762E+02  0.44600194203E+03  0.47801491963E+03  0.10566000000E+00 0.  1.
        994    1    1    2    0    0 -0.11294276387E+03  0.18331483808E+02  0.85668786177E+02  0.22302621401E+03  0.17120000000E+03 0.  0.
        998    1    1    2    0    0 -0.53995496580E+02  0.23046494954E+02  0.96832926807E+03  0.97015886636E+03  0.10000000000E+02 0.  1.
</event>
<event>
 5    1  0.1153629E-008  0.3833214E+03  0.7957747E-01  0.3436823E+00
         13   -1    0    0    0    0  0.00000000000E+00  0.00000000000E+00  0.14999999963E+04  0.15000000000E+04  0.10566000000E+00 0.  1.
        994   -1    0    0    0    0 -0.00000000000E+00 -0.00000000000E+00  0.11368683772E-12  0.17120000000E+03  0.17120000000E+03 0.  0.
         13    1    1    2    0    0  0.85391737517E+01 -0.20050604496E+02  0.89776045735E+02  0.92383406415E+02  0.10566000000E+00 0.  1.
        994    1    1    2    0    0 -0.12089254412E+01  0.25756247619E+02  0.46673589606E+01  0.17319373554E+03  0.17120000000E+03 0.  0.
        998    1    1    2    0    0 -0.73302483105E+01 -0.57056431233E+01  0.14055565916E+04  0.14056228580E+04  0.10000000000E+02 0.  1.
</event>
<event>
 5    1  0.1153629E-008  0.3778344E+03  0.7957747E-01  0.3460642E+00
         13   -1    0    0    0    0  0.00000000000E+00  0.00000000000E+00  0.14999999963E+04  0.15000000000E+04  0.10566000000E+00 0.  1.
        994   -1    0    0    0    0 -0.00000000000E+00 -0.00000000000E+00  0.11368683772E-12  0.17120000000E+03  0.17120000000E+03 0.  0.
         13    1    1    2    0    0 -0.26678501855E+02 -0.39634306784E+02  0.19346981512E+03  0.19928171332E+03  0.10566000000E+00 0.  1.
        994    1    1    2    0    0  0.14265572317E+02  0.44937964757E+02  0.12751780352E+02  0.17803082635E+03  0.17120000000E+03 0.  0.
        998    1    1    2    0    0  0.12412929538E+02 -0.53036579725E+01  0.12937784008E+04  0.12938874603E+04  0.10000000000E+02 0.  1.
</event>
<event>
 5    1  0.1153629E-008  0.3851133E+03  0.7957747E-01  0.3429192E+00
         13   -1    0    0    0    0  0.00000000000E+00  0.00000000000E+00  0.14999999963E+04  0.15000000000E+04  0.10566000000E+00 0. -1.
        994   -1    0    0    0    0 -0.00000000000E+00 -0.00000000000E+00  0.11368683772E-12  0.17120000000E+03  0.17120000000E+03 0.  0.
         13    1    1    2    0    0  0.13386103913E+02 -0.61129341449E+01  0.75862231647E+02  0.77276420053E+02  0.10566000000E+00 0. -1.
        994    1    1    2    0    0 -0.15497499818E+00 -0.96115323535E+01  0.18777414936E+01  0.17147994485E+03  0.17120000000E+03 0.  0.
        998    1    1    2    0    0 -0.13231128915E+02  0.15724466498E+02  0.14222600231E+04  0.14224436351E+04  0.10000000000E+02 0. -1.
</event>
<event>
 5    1  0.1153629E-008  0.3863668E+03  0.7957747E-01  0.3423896E+00
         13   -1    0    0    0    0  0.00000000000E+00  0.00000000000E+00  0.14999999963E+04  0.15000000000E+04  0.10566000000E+00 0.  1.
        994   -1    0    0    0    0 -0.00000000000E+00 -0.00000000000E+00  0.11368683772E-12  0.17120000000E+03  0.17120000000E+03 0.  0.
         13    1    1    2    0    0 -0.38450553247E+01 -0.10128779333E+02  0.61130655804E+02  0.62083370272E+02  0.10566000000E+00 0.  1.
        994    1    1    2    0    0  0.56238660479E+01  0.91215556218E+01  0.13291366908E+01  0.17154019136E+03  0.17120000000E+03 0.  0.
        998    1    1    2    0    0 -0.17788107232E+01  0.10072237107E+01  0.14375402038E+04  0.14375764384E+04  0.10000000000E+02 0.  1.
</event>
<event>
 5    1  0.1153629E-008  0.3791195E+03  0.7957747E-01  0.3455001E+00
         13   -1    0    0    0    0  0.00000000000E+00  0.00000000000E+00  0.14999999963E+04  0.15000000000E+04  0.10566000000E+00 0.  1.
        994   -1    0    0    0    0 -0.00000000000E+00 -0.00000000000E+00  0.11368683772E-12  0.17120000000E+03  0.17120000000E+03 0.  0.
         13    1    1    2    0    0 -0.22739680888E+02  0.26070845322E+02  0.14224275316E+03  0.14638918694E+03  0.10566000000E+00 0.  1.
        994    1    1    2    0    0  0.21380517380E+01 -0.37920220392E+01  0.46418043983E+01  0.17131823325E+03  0.17120000000E+03 0.  0.
        998    1    1    2    0    0  0.20601629150E+02 -0.22278823282E+02  0.13531154387E+04  0.13534925798E+04  0.10000000000E+02 0.  0.
</event>
<event>
 5    1  0.1153629E-008  0.3799699E+03  0.7957747E-01  0.3451290E+00
         13   -1    0    0    0    0  0.00000000000E+00  0.00000000000E+00  0.14999999963E+04  0.15000000000E+04  0.10566000000E+00 0.  1.
        994   -1    0    0    0    0 -0.00000000000E+00 -0.00000000000E+00  0.11368683772E-12  0.17120000000E+03  0.17120000000E+03 0.  0.
         13    1    1    2    0    0 -0.57633518984E+01 -0.31877582769E+02  0.12529161083E+03  0.12941172829E+03  0.10566000000E+00 0.  1.
        994    1    1    2    0    0  0.31091290307E+02  0.14483266684E+02  0.80914815493E+01  0.17478943166E+03  0.17120000000E+03 0.  0.
        998    1    1    2    0    0 -0.25327938408E+02  0.17394316085E+02  0.13666169039E+04  0.13669988401E+04  0.10000000000E+02 0.  1.
</event>
<event>
 5    1  0.1153629E-008  0.3819417E+03  0.7957747E-01  0.3442747E+00
         13   -1    0    0    0    0  0.00000000000E+00  0.00000000000E+00  0.14999999963E+04  0.15000000000E+04  0.10566000000E+00 0.  1.
        994   -1    0    0    0    0 -0.00000000000E+00 -0.00000000000E+00  0.11368683772E-12  0.17120000000E+03  0.17120000000E+03 0.  0.
         13    1    1    2    0    0 -0.71470354840E+00 -0.17088946144E+02  0.45467850403E+02  0.48578590611E+02  0.10566000000E+00 0.  1.
        994    1    1    2    0    0 -0.22760997681E+01  0.10228589980E+02  0.35210222921E+01  0.17155652795E+03  0.17120000000E+03 0.  0.
        998    1    1    2    0    0  0.29908033165E+01  0.68603561645E+01  0.14510111236E+04  0.14510648814E+04  0.10000000000E+02 0.  1.
</event>
<event>
 5    1  0.1153629E-008  0.3784221E+03  0.7957747E-01  0.3458058E+00
         13   -1    0    0    0    0  0.00000000000E+00  0.00000000000E+00  0.14999999963E+04  0.15000000000E+04  0.10566000000E+00 0. -1.
        994   -1    0    0    0    0 -0.00000000000E+00 -0.00000000000E+00  0.11368683772E-12  0.17120000000E+03  0.17120000000E+03 0.  0.
         13    1    1    2    0    0 -0.47684397485E+01  0.81061117949E+02  0.49078007402E+03  0.49745224402E+03  0.10566000000E+00 0. -1.
        994    1    1    2    0    0  0.13931186478E+02 -0.73215026790E+02  0.23830199909E+02  0.18823346284E+03  0.17120000000E+03 0.  0.
        998    1    1    2    0    0 -0.91627467291E+01 -0.78460911589E+01  0.98538972235E+03  0.98551429314E+03  0.10000000000E+02 0. -1.
</event>
<event>
 5    1  0.1153629E-008  0.3854614E+03  0.7957747E-01  0.3427718E+00
         13   -1    0    0    0    0  0.00000000000E+00  0.00000000000E+00  0.14999999963E+04  0.15000000000E+04  0.10566000000E+00 0. -1.
        994   -1    0    0    0    0 -0.00000000000E+00 -0.00000000000E+00  0.11368683772E-12  0.17120000000E+03  0.17120000000E+03 0.  0.
         13    1    1    2    0    0  0.77661903491E+01  0.13125713301E+02  0.84149664756E+02  0.85520613333E+02  0.10566000000E+00 0. -1.
        994    1    1    2    0    0 -0.14965931213E+02 -0.15876732220E+01  0.21453501523E+01  0.17187362314E+03  0.17120000000E+03 0.  0.
        998    1    1    2    0    0  0.71997408643E+01 -0.11538040079E+02  0.14137049814E+04  0.14138057635E+04  0.10000000000E+02 0. -1.
</event>
<event>
 5    1  0.1153629E-008  0.3837283E+03  0.7957747E-01  0.3435084E+00
         13   -1    0    0    0    0  0.00000000000E+00  0.00000000000E+00  0.14999999963E+04  0.15000000000E+04  0.10566000000E+00 0.  1.
        994   -1    0    0    0    0 -0.00000000000E+00 -0.00000000000E+00  0.11368683772E-12  0.17120000000E+03  0.17120000000E+03 0.  0.
         13    1    1    2    0    0  0.39968777978E+00 -0.26482001770E+02  0.14698693201E+03  0.14935402745E+03  0.10566000000E+00 0.  1.
        994    1    1    2    0    0  0.19813816688E+01  0.22032213629E+02  0.38804442954E+01  0.17266685310E+03  0.17120000000E+03 0.  0.
        998    1    1    2    0    0 -0.23810694486E+01  0.44497881409E+01  0.13491326200E+04  0.13491791195E+04  0.10000000000E+02 0.  1.
</event>
<event>
 5    1  0.1153629E-008  0.3842037E+03  0.7957747E-01  0.3433056E+00
         13   -1    0    0    0    0  0.00000000000E+00  0.00000000000E+00  0.14999999963E+04  0.15000000000E+04  0.10566000000E+00 0.  1.
        994   -1    0    0    0    0 -0.00000000000E+00 -0.00000000000E+00  0.11368683772E-12  0.17120000000E+03  0.17120000000E+03 0.  0.
         13    1    1    2    0    0 -0.59678897637E+01  0.17655500602E+02  0.85848470345E+02  0.87848184013E+02  0.10566000000E+00 0.  1.
        994    1    1    2    0    0  0.12663336047E+02 -0.75283358053E+01  0.27419183642E+01  0.17185457235E+03  0.17120000000E+03 0.  0.
        998    1    1    2    0    0 -0.66954462837E+01 -0.10127164797E+02  0.14114096076E+04  0.14114972436E+04  0.10000000000E+02 0.  1.
</event>
<event>
 5    1  0.1153629E-008  0.3798575E+03  0.7957747E-01  0.3451779E+00
         13   -1    0    0    0    0  0.00000000000E+00  0.00000000000E+00  0.14999999963E+04  0.15000000000E+04  0.10566000000E+00 0.  1.
        994   -1    0    0    0    0 -0.00000000000E+00 -0.00000000000E+00  0.11368683772E-12  0.17120000000E+03  0.17120000000E+03 0.  0.
         13    1    1    2    0    0  0.46850845881E+02  0.79560146544E+01  0.22646344522E+03  0.23139577160E+03  0.10566000000E+00 0.  1.
        994    1    1    2    0    0 -0.47954690581E+02 -0.89134319208E+01  0.12203366242E+02  0.17843055726E+03  0.17120000000E+03 0.  0.
        998    1    1    2    0    0  0.11038447003E+01  0.95741726636E+00  0.12613331848E+04  0.12613736711E+04  0.10000000000E+02 0.  0.
</event>
<event>
 5    1  0.1153629E-008  0.3699311E+03  0.7957747E-01  0.3496208E+00
         13   -1    0    0    0    0  0.00000000000E+00  0.00000000000E+00  0.14999999963E+04  0.15000000000E+04  0.10566000000E+00 0.  1.
        994   -1    0    0    0    0 -0.00000000000E+00 -0.00000000000E+00  0.11368683772E-12  0.17120000000E+03  0.17120000000E+03 0.  0.
         13    1    1    2    0    0  0.13139225121E+02 -0.22809798135E+01  0.52307005840E+01  0.14325274808E+02  0.10566000000E+00 0.  1.
        994    1    1    2    0    0 -0.14433010845E+02  0.27136713389E+01  0.10051345255E+02  0.17212247197E+03  0.17120000000E+03 0.  0.
        998    1    1    2    0    0  0.12937857239E+01 -0.43269152541E+00  0.14847179504E+04  0.14847522532E+04  0.10000000000E+02 0.  1.
</event>
<event>
 5    1  0.1153629E-008  0.3827413E+03  0.7957747E-01  0.3439308E+00
         13   -1    0    0    0    0  0.00000000000E+00  0.00000000000E+00  0.14999999963E+04  0.15000000000E+04  0.10566000000E+00 0. -1.
        994   -1    0    0    0    0 -0.00000000000E+00 -0.00000000000E+00  0.11368683772E-12  0.17120000000E+03  0.17120000000E+03 0.  0.
         13    1    1    2    0    0  0.24715588934E+02  0.55902159147E+01  0.10785912714E+03  0.11079581816E+03  0.10566000000E+00 0. -1.
        994    1    1    2    0    0 -0.22573714293E+02 -0.22037305727E+02  0.60597489121E+01  0.17418776070E+03  0.17120000000E+03 0.  0.
        998    1    1    2    0    0 -0.21418746412E+01  0.16447089813E+02  0.13860811202E+04  0.13862164211E+04  0.10000000000E+02 0. -1.
</event>
<event>
 5    1  0.1153629E-008  0.3693855E+03  0.7957747E-01  0.3498720E+00
         13   -1    0    0    0    0  0.00000000000E+00  0.00000000000E+00  0.14999999963E+04  0.15000000000E+04  0.10566000000E+00 0.  1.
        994   -1    0    0    0    0 -0.00000000000E+00 -0.00000000000E+00  0.11368683772E-12  0.17120000000E+03  0.17120000000E+03 0.  0.
         13    1    1    2    0    0 -0.72036281264E+02 -0.19406705048E+02  0.22603030657E+03  0.23802427748E+03  0.10566000000E+00 0.  1.
        994    1    1    2    0    0  0.64910656741E+02  0.27357057811E+02  0.28129741105E+02  0.18724989801E+03  0.17120000000E+03 0.  0.
        998    1    1    2    0    0  0.71256245233E+01 -0.79503527632E+01  0.12458399486E+04  0.12459258245E+04  0.10000000000E+02 0.  1.
</event>
<event>
 5    1  0.1153629E-008  0.3753166E+03  0.7957747E-01  0.3471808E+00
         13   -1    0    0    0    0  0.00000000000E+00  0.00000000000E+00  0.14999999963E+04  0.15000000000E+04  0.10566000000E+00 0.  1.
        994   -1    0    0    0    0 -0.00000000000E+00 -0.00000000000E+00  0.11368683772E-12  0.17120000000E+03  0.17120000000E+03 0.  0.
         13    1    1    2    0    0  0.11492416181E+02 -0.26032449668E+02  0.59514409156E+02  0.65967720338E+02  0.10566000000E+00 0.  1.
        994    1    1    2    0    0 -0.85149456060E+01  0.17091698444E+02  0.77553146047E+01  0.17243611965E+03  0.17120000000E+03 0.  0.
        998    1    1    2    0    0 -0.29774705754E+01  0.89407512231E+01  0.14327302725E+04  0.14327961600E+04  0.10000000000E+02 0.  1.
</event>
<event>
 5    1  0.1153629E-008  0.3727419E+03  0.7957747E-01  0.3483384E+00
         13   -1    0    0    0    0  0.00000000000E+00  0.00000000000E+00  0.14999999963E+04  0.15000000000E+04  0.10566000000E+00 0. -1.
        994   -1    0    0    0    0 -0.00000000000E+00 -0.00000000000E+00  0.11368683772E-12  0.17120000000E+03  0.17120000000E+03 0.  0.
         13    1    1    2    0    0 -0.24868103082E+01 -0.43329506773E+02  0.91879227089E+02  0.10161414231E+03  0.10566000000E+00 0. -1.
        994    1    1    2    0    0 -0.40096832257E+02 -0.45944441736E+02  0.25640980086E+02  0.18353622951E+03  0.17120000000E+03 0.  0.
        998    1    1    2    0    0  0.42583642566E+02  0.89273948509E+02  0.13824797891E+04  0.13860496282E+04  0.10000000000E+02 0. -1.
</event>
<event>
 5    1  0.1153629E-008  0.3849919E+03  0.7957747E-01  0.3429707E+00
         13   -1    0    0    0    0  0.00000000000E+00  0.00000000000E+00  0.14999999963E+04  0.15000000000E+04  0.10566000000E+00 0.  1.
        994   -1    0    0    0    0 -0.00000000000E+00 -0.00000000000E+00  0.11368683772E-12  0.17120000000E+03  0.17120000000E+03 0.  0.
         13    1    1    2    0    0  0.71549724961E+00 -0.16627519329E+02  0.83393849190E+02  0.85038412392E+02  0.10566000000E+00 0.  1.
        994    1    1    2    0    0 -0.71671522147E+01  0.12878017220E+02  0.23488599272E+01  0.17184926110E+03  0.17120000000E+03 0.  0.
        998    1    1    2    0    0  0.64516549651E+01  0.37495021083E+01  0.14142572872E+04  0.14143123265E+04  0.10000000000E+02 0.  1.
</event>
<event>
 5    1  0.1153629E-008  0.3842484E+03  0.7957747E-01  0.3432866E+00
         13   -1    0    0    0    0  0.00000000000E+00  0.00000000000E+00  0.14999999963E+04  0.15000000000E+04  0.10566000000E+00 0. -1.
        994   -1    0    0    0    0 -0.00000000000E+00 -0.00000000000E+00  0.11368683772E-12  0.17120000000E+03  0.17120000000E+03 0.  0.
         13    1    1    2    0    0  0.14892895985E+02  0.13092748014E+02  0.10314935796E+03  0.10503818169E+03  0.10566000000E+00 0. -1.
        994    1    1    2    0    0 -0.91654313028E+01  0.23838537025E+01  0.22994650078E+01  0.17147715716E+03  0.17120000000E+03 0.  0.
        998    1    1    2    0    0 -0.57274646822E+01 -0.15476601717E+02  0.13945511733E+04  0.13946846611E+04  0.10000000000E+02 0. -1.
</event>
<event>
 5    1  0.1153629E-008  0.3851259E+03  0.7957747E-01  0.3429138E+00
         13   -1    0    0    0    0  0.00000000000E+00  0.00000000000E+00  0.14999999963E+04  0.15000000000E+04  0.10566000000E+00 0.  1.
        994   -1    0    0    0    0 -0.00000000000E+00 -0.00000000000E+00  0.11368683772E-12  0.17120000000E+03  0.17120000000E+03 0.  0.
         13    1    1    2    0    0 -0.97104796676E+01  0.88846709311E+01  0.54927444772E+02  0.56482441042E+02  0.10566000000E+00 0.  1.
        994    1    1    2    0    0  0.71532016039E+01 -0.68218367200E+01  0.18888985394E+01  0.17149552090E+03  0.17120000000E+03 0.  0.
        998    1    1    2    0    0  0.25572780637E+01 -0.20628342111E+01  0.14431836530E+04  0.14432220381E+04  0.10000000000E+02 0.  1.
</event>
<event>
 5    1  0.1153629E-008  0.3796645E+03  0.7957747E-01  0.3452621E+00
         13   -1    0    0    0    0  0.00000000000E+00  0.00000000000E+00  0.14999999963E+04  0.15000000000E+04  0.10566000000E+00 0. -1.
        994   -1    0    0    0    0 -0.00000000000E+00 -0.00000000000E+00  0.11368683772E-12  0.17120000000E+03  0.17120000000E+03 0.  0.
         13    1    1    2    0    0 -0.13777917262E+02  0.75599191210E+01  0.27006219761E+02  0.31246286996E+02  0.10566000000E+00 0. -1.
        994    1    1    2    0    0  0.88127401793E+01 -0.51875739569E+01  0.46526710833E+01  0.17156824491E+03  0.17120000000E+03 0.  0.
        998    1    1    2    0    0  0.49651770828E+01 -0.23723451641E+01  0.14683411054E+04  0.14683854681E+04  0.10000000000E+02 0. -1.
</event>
<event>
 5    1  0.1153629E-008  0.3815112E+03  0.7957747E-01  0.3444605E+00
         13   -1    0    0    0    0  0.00000000000E+00  0.00000000000E+00  0.14999999963E+04  0.15000000000E+04  0.10566000000E+00 0.  1.
        994   -1    0    0    0    0 -0.00000000000E+00 -0.00000000000E+00  0.11368683772E-12  0.17120000000E+03  0.17120000000E+03 0.  0.
         13    1    1    2    0    0  0.41100690151E+01 -0.11753528895E+02  0.22676703563E+02  0.25870488154E+02  0.10566000000E+00 0.  1.
        994    1    1    2    0    0  0.13968143647E+02 -0.25165269527E+01  0.40426046909E+01  0.17183487596E+03  0.17120000000E+03 0.  0.
        998    1    1    2    0    0 -0.18078212662E+02  0.14270055848E+02  0.14732806880E+04  0.14734946359E+04  0.10000000000E+02 0.  1.
</event>
<event>
 5    1  0.1153629E-008  0.3760328E+03  0.7957747E-01  0.3468617E+00
         13   -1    0    0    0    0  0.00000000000E+00  0.00000000000E+00  0.14999999963E+04  0.15000000000E+04  0.10566000000E+00 0. -1.
        994   -1    0    0    0    0 -0.00000000000E+00 -0.00000000000E+00  0.11368683772E-12  0.17120000000E+03  0.17120000000E+03 0.  0.
         13    1    1    2    0    0  0.14681917793E+02  0.37694535869E+00  0.14929125730E+02  0.20942558511E+02  0.10566000000E+00 0. -1.
        994    1    1    2    0    0 -0.82948535055E+01  0.11000627110E+02  0.67925779490E+01  0.17188774682E+03  0.17120000000E+03 0.  0.
        998    1    1    2    0    0 -0.63870642879E+01 -0.11377572468E+02  0.14782782926E+04  0.14783696947E+04  0.10000000000E+02 0. -1.
</event>
<event>
 5    1  0.1153629E-008  0.3810413E+03  0.7957747E-01  0.3446637E+00
         13   -1    0    0    0    0  0.00000000000E+00  0.00000000000E+00  0.14999999963E+04  0.15000000000E+04  0.10566000000E+00 0.  1.
        994   -1    0    0    0    0 -0.00000000000E+00 -0.00000000000E+00  0.11368683772E-12  0.17120000000E+03  0.17120000000E+03 0.  0.
         13    1    1    2    0    0  0.32772605361E+02 -0.92711394673E+01  0.19590326121E+03  0.19884188846E+03  0.10566000000E+00 0.  1.
        994    1    1    2    0    0  0.80817090041E+01  0.87644776806E+01  0.40820897849E+01  0.17166313974E+03  0.17120000000E+03 0.  0.
        998    1    1    2    0    0 -0.40854314365E+02  0.50666178670E+00  0.13000146453E+04  0.13006949718E+04  0.10000000000E+02 0.  1.
</event>
<event>
 5    1  0.1153629E-008  0.3862406E+03  0.7957747E-01  0.3424427E+00
         13   -1    0    0    0    0  0.00000000000E+00  0.00000000000E+00  0.14999999963E+04  0.15000000000E+04  0.10566000000E+00 0. -1.
        994   -1    0    0    0    0 -0.00000000000E+00 -0.00000000000E+00  0.11368683772E-12  0.17120000000E+03  0.17120000000E+03 0.  0.
         13    1    1    2    0    0  0.12625618017E+02  0.14328737372E+01  0.75693919382E+02  0.76753110379E+02  0.10566000000E+00 0. -1.
        994    1    1    2    0    0 -0.14900849218E+02 -0.12156011749E+02  0.22276450503E+01  0.17229105122E+03  0.17120000000E+03 0.  0.
        998    1    1    2    0    0  0.22752312011E+01  0.10723138012E+02  0.14220784318E+04  0.14221558384E+04  0.10000000000E+02 0. -1.
</event>
<event>
 5    1  0.1153629E-008  0.3925494E+03  0.7957747E-01  0.3398272E+00
         13   -1    0    0    0    0  0.00000000000E+00  0.00000000000E+00  0.14999999963E+04  0.15000000000E+04  0.10566000000E+00 0. -1.
        994   -1    0    0    0    0 -0.00000000000E+00 -0.00000000000E+00  0.11368683772E-12  0.17120000000E+03  0.17120000000E+03 0.  0.
         13    1    1    2    0    0 -0.70990610905E+02  0.39870391630E+02  0.12465424013E+03  0.14888923974E+03  0.10566000000E+00 0. -1.
        994    1    1    2    0    0  0.80805376593E+02 -0.16785984964E+02  0.49774259477E+02  0.19646423360E+03  0.17120000000E+03 0.  0.
        998    1    1    2    0    0 -0.98147656881E+01 -0.23084406665E+02  0.13255714967E+04  0.13258465267E+04  0.10000000000E+02 0. -1.
</event>
<event>
 5    1  0.1153629E-008  0.3814591E+03  0.7957747E-01  0.3444830E+00
         13   -1    0    0    0    0  0.00000000000E+00  0.00000000000E+00  0.14999999963E+04  0.15000000000E+04  0.10566000000E+00 0. -1.
        994   -1    0    0    0    0 -0.00000000000E+00 -0.00000000000E+00  0.11368683772E-12  0.17120000000E+03  0.17120000000E+03 0.  0.
         13    1    1    2    0    0 -0.41621563683E+01  0.95575937756E+01  0.14380631582E+02  0.17761893850E+02  0.10566000000E+00 0. -1.
        994    1    1    2    0    0  0.46570376216E+01 -0.11379252575E+02  0.39014899761E+01  0.17168528479E+03  0.17120000000E+03 0.  0.
        998    1    1    2    0    0 -0.49488125331E+00  0.18216587999E+01  0.14817178747E+04  0.14817528214E+04  0.10000000000E+02 0. -1.
</event>
<event>
 5    1  0.1153629E-008  0.3851483E+03  0.7957747E-01  0.3429043E+00
         13   -1    0    0    0    0  0.00000000000E+00  0.00000000000E+00  0.14999999963E+04  0.15000000000E+04  0.10566000000E+00 0. -1.
        994   -1    0    0    0    0 -0.00000000000E+00 -0.00000000000E+00  0.11368683772E-12  0.17120000000E+03  0.17120000000E+03 0.  0.
         13    1    1    2    0    0 -0.18151225353E+02  0.24039628515E+01  0.10480823999E+03  0.10639560307E+03  0.10566000000E+00 0. -1.
        994    1    1    2    0    0  0.14442603282E+02 -0.66834222143E+01  0.23894328547E+01  0.17195466353E+03  0.17120000000E+03 0.  0.
        998    1    1    2    0    0  0.37086220711E+01  0.42794593628E+01  0.13928023234E+04  0.13928497334E+04  0.10000000000E+02 0. -1.
</event>
<event>
 5    1  0.1153629E-008  0.3790186E+03  0.7957747E-01  0.3455443E+00
         13   -1    0    0    0    0  0.00000000000E+00  0.00000000000E+00  0.14999999963E+04  0.15000000000E+04  0.10566000000E+00 0.  1.
        994   -1    0    0    0    0 -0.00000000000E+00 -0.00000000000E+00  0.11368683772E-12  0.17120000000E+03  0.17120000000E+03 0.  0.
         13    1    1    2    0    0  0.37992053042E+02  0.43282982101E+02  0.28727867694E+03  0.29299464504E+03  0.10566000000E+00 0.  1.
        994    1    1    2    0    0 -0.49542532389E+02 -0.35031653274E+02  0.17077690638E+02  0.18243565102E+03  0.17120000000E+03 0.  0.
        998    1    1    2    0    0  0.11550479347E+02 -0.82513288271E+01  0.11956436287E+04  0.11957697039E+04  0.10000000000E+02 0.  1.
</event>
<event>
 5    1  0.1153629E-008  0.3847865E+03  0.7957747E-01  0.3430578E+00
         13   -1    0    0    0    0  0.00000000000E+00  0.00000000000E+00  0.14999999963E+04  0.15000000000E+04  0.10566000000E+00 0. -1.
        994   -1    0    0    0    0 -0.00000000000E+00 -0.00000000000E+00  0.11368683772E-12  0.17120000000E+03  0.17120000000E+03 0.  0.
         13    1    1    2    0    0 -0.95061968643E+01  0.12224460981E+02  0.82322462687E+02  0.83766367070E+02  0.10566000000E+00 0. -1.
        994    1    1    2    0    0 -0.60309894405E+01  0.13812329804E+02  0.24840747354E+01  0.17188008586E+03  0.17120000000E+03 0.  0.
        998    1    1    2    0    0  0.15537186305E+02 -0.26036790785E+02  0.14151934589E+04  0.14155535471E+04  0.10000000000E+02 0. -1.
</event>
<event>
 5    1  0.1725781E-008  0.3861914E+03  0.7957747E-01  0.3424635E+00
         13   -1    0    0    0    0  0.00000000000E+00  0.00000000000E+00  0.14999999963E+04  0.15000000000E+04  0.10566000000E+00 0. -1.
        994   -1    0    0    0    0 -0.00000000000E+00 -0.00000000000E+00  0.11368683772E-12  0.17120000000E+03  0.17120000000E+03 0.  0.
         13    1    1    2    0    0 -0.12507510191E+01  0.10634029081E+02  0.54487254009E+02  0.55529442335E+02  0.10566000000E+00 0. -1.
        994    1    1    2    0    0  0.76602523677E+01 -0.10179385024E+02  0.15716530827E+01  0.17168054473E+03  0.17120000000E+03 0.  0.
        998    1    1    2    0    0 -0.64095013485E+01 -0.45464405652E+00  0.14439410892E+04  0.14439900129E+04  0.10000000000E+02 0. -1.
</event>
<event>
 5    1  0.1153629E-008  0.3850593E+03  0.7957747E-01  0.3429421E+00
         13   -1    0    0    0    0  0.00000000000E+00  0.00000000000E+00  0.14999999963E+04  0.15000000000E+04  0.10566000000E+00 0. -1.
        994   -1    0    0    0    0 -0.00000000000E+00 -0.00000000000E+00  0.11368683772E-12  0.17120000000E+03  0.17120000000E+03 0.  0.
         13    1    1    2    0    0  0.15472362561E+02 -0.65238836535E+01  0.84355702288E+02  0.86010759407E+02  0.10566000000E+00 0. -1.
        994    1    1    2    0    0 -0.12899740010E+02  0.13329127399E+02  0.27327962935E+01  0.17222362528E+03  0.17120000000E+03 0.  0.
        998    1    1    2    0    0 -0.25726225504E+01 -0.68052437456E+01  0.14129114977E+04  0.14129656153E+04  0.10000000000E+02 0. -1.
</event>
<event>
 5    1  0.1153629E-008  0.3846908E+03  0.7957747E-01  0.3430985E+00
         13   -1    0    0    0    0  0.00000000000E+00  0.00000000000E+00  0.14999999963E+04  0.15000000000E+04  0.10566000000E+00 0. -1.
        994   -1    0    0    0    0 -0.00000000000E+00 -0.00000000000E+00  0.11368683772E-12  0.17120000000E+03  0.17120000000E+03 0.  0.
         13    1    1    2    0    0 -0.46445406696E+01  0.93002743685E+01  0.29983709353E+02  0.31734852323E+02  0.10566000000E+00 0. -1.
        994    1    1    2    0    0  0.28813482949E+01 -0.60895694840E+01  0.19331707141E+01  0.17134340423E+03  0.17120000000E+03 0.  0.
        998    1    1    2    0    0  0.17631923746E+01 -0.32107048845E+01  0.14680831162E+04  0.14681217434E+04  0.10000000000E+02 0. -1.
</event>
<event>
 5    1  0.1153629E-008  0.3813024E+03  0.7957747E-01  0.3445507E+00
         13   -1    0    0    0    0  0.00000000000E+00  0.00000000000E+00  0.14999999963E+04  0.15000000000E+04  0.10566000000E+00 0. -1.
        994   -1    0    0    0    0 -0.00000000000E+00 -0.00000000000E+00  0.11368683772E-12  0.17120000000E+03  0.17120000000E+03 0.  0.
         13    1    1    2    0    0 -0.61883465368E+01  0.11015165987E+02  0.21368528569E+02  0.24824477675E+02  0.10566000000E+00 0. -1.
        994    1    1    2    0    0  0.46927575990E+01 -0.10997010417E+02  0.39531371449E+01  0.17166252796E+03  0.17120000000E+03 0.  0.
        998    1    1    2    0    0  0.14955889378E+01 -0.18155569373E-01  0.14746783306E+04  0.14747129944E+04  0.10000000000E+02 0. -1.
</event>
<event>
 5    1  0.1153629E-008  0.3777193E+03  0.7957747E-01  0.3461150E+00
         13   -1    0    0    0    0  0.00000000000E+00  0.00000000000E+00  0.14999999963E+04  0.15000000000E+04  0.10566000000E+00 0. -1.
        994   -1    0    0    0    0 -0.00000000000E+00 -0.00000000000E+00  0.11368683772E-12  0.17120000000E+03  0.17120000000E+03 0.  0.
         13    1    1    2    0    0  0.58736457766E+02  0.10675709409E+02  0.10849272036E+03  0.12383304800E+03  0.10566000000E+00 0. -1.
        994    1    1    2    0    0 -0.50017768410E+02 -0.12964640329E+02  0.24737011977E+02  0.18053038198E+03  0.17120000000E+03 0.  0.
        998    1    1    2    0    0 -0.87186893560E+01  0.22889309198E+01  0.13667702639E+04  0.13668365700E+04  0.10000000000E+02 0. -1.
</event>
<event>
 5    1  0.1153629E-008  0.3787017E+03  0.7957747E-01  0.3456831E+00
         13   -1    0    0    0    0  0.00000000000E+00  0.00000000000E+00  0.14999999963E+04  0.15000000000E+04  0.10566000000E+00 0. -1.
        994   -1    0    0    0    0 -0.00000000000E+00 -0.00000000000E+00  0.11368683772E-12  0.17120000000E+03  0.17120000000E+03 0.  0.
         13    1    1    2    0    0  0.26438280448E+02 -0.30482085756E+01  0.73093524259E+02  0.77787844174E+02  0.10566000000E+00 0. -1.
        994    1    1    2    0    0 -0.12795225339E+02  0.91263278870E+01  0.56196781485E+01  0.17201171017E+03  0.17120000000E+03 0.  0.
        998    1    1    2    0    0 -0.13643055109E+02 -0.60781193114E+01  0.14212867939E+04  0.14214004457E+04  0.10000000000E+02 0. -1.
</event>
<event>
 5    1  0.1153629E-008  0.3827782E+03  0.7957747E-01  0.3439150E+00
         13   -1    0    0    0    0  0.00000000000E+00  0.00000000000E+00  0.14999999963E+04  0.15000000000E+04  0.10566000000E+00 0.  1.
        994   -1    0    0    0    0 -0.00000000000E+00 -0.00000000000E+00  0.11368683772E-12  0.17120000000E+03  0.17120000000E+03 0.  0.
         13    1    1    2    0    0  0.18543985084E+02  0.58283700065E+01  0.71249385435E+02  0.73853472285E+02  0.10566000000E+00 0.  1.
        994    1    1    2    0    0  0.29312843396E+01 -0.24861615629E+02  0.48159306503E+01  0.17308762390E+03  0.17120000000E+03 0.  0.
        998    1    1    2    0    0 -0.21475269423E+02  0.19033245622E+02  0.14239346802E+04  0.14242589038E+04  0.10000000000E+02 0.  1.
</event>
<event>
 5    1  0.1153629E-008  0.3700164E+03  0.7957747E-01  0.3495816E+00
         13   -1    0    0    0    0  0.00000000000E+00  0.00000000000E+00  0.14999999963E+04  0.15000000000E+04  0.10566000000E+00 0. -1.
        994   -1    0    0    0    0 -0.00000000000E+00 -0.00000000000E+00  0.11368683772E-12  0.17120000000E+03  0.17120000000E+03 0.  0.
         13    1    1    2    0    0  0.29156094120E+02  0.30917631249E+02  0.11642469884E+03  0.12393828872E+03  0.10566000000E+00 0. -1.
        994    1    1    2    0    0  0.65332863309E+02 -0.28862466246E+02  0.27111255335E+02  0.18747235837E+03  0.17120000000E+03 0.  0.
        998    1    1    2    0    0 -0.94488957429E+02 -0.20551650025E+01  0.13564640421E+04  0.13597893529E+04  0.10000000000E+02 0. -1.
</event>
<event>
 5    1  0.1153629E-008  0.3807498E+03  0.7957747E-01  0.3447900E+00
         13   -1    0    0    0    0  0.00000000000E+00  0.00000000000E+00  0.14999999963E+04  0.15000000000E+04  0.10566000000E+00 0. -1.
        994   -1    0    0    0    0 -0.00000000000E+00 -0.00000000000E+00  0.11368683772E-12  0.17120000000E+03  0.17120000000E+03 0.  0.
         13    1    1    2    0    0  0.35517890230E+02  0.17829779147E+01  0.17234850345E+03  0.17597930941E+03  0.10566000000E+00 0. -1.
        994    1    1    2    0    0 -0.16407906817E+02 -0.13890095348E+01  0.46598579020E+01  0.17205319825E+03  0.17120000000E+03 0.  0.
        998    1    1    2    0    0 -0.19109983413E+02 -0.39396837996E+00  0.13229916349E+04  0.13231674923E+04  0.10000000000E+02 0. -1.
</event>
<event>
 5    1  0.1153629E-008  0.3712504E+03  0.7957747E-01  0.3490164E+00
         13   -1    0    0    0    0  0.00000000000E+00  0.00000000000E+00  0.14999999963E+04  0.15000000000E+04  0.10566000000E+00 0. -1.
        994   -1    0    0    0    0 -0.00000000000E+00 -0.00000000000E+00  0.11368683772E-12  0.17120000000E+03  0.17120000000E+03 0.  0.
         13    1    1    2    0    0  0.31680809386E+02 -0.49487587295E+02  0.17118961449E+03  0.18099334312E+03  0.10566000000E+00 0. -1.
        994    1    1    2    0    0 -0.33644837287E+02  0.54280146241E+02  0.22791341665E+02  0.18413906323E+03  0.17120000000E+03 0.  0.
        998    1    1    2    0    0  0.19640279007E+01 -0.47925589452E+01  0.13060190401E+04  0.13060675937E+04  0.10000000000E+02 0. -1.
</event>
<event>
 5    1  0.1153629E-008  0.3796380E+03  0.7957747E-01  0.3452736E+00
         13   -1    0    0    0    0  0.00000000000E+00  0.00000000000E+00  0.14999999963E+04  0.15000000000E+04  0.10566000000E+00 0. -1.
        994   -1    0    0    0    0 -0.00000000000E+00 -0.00000000000E+00  0.11368683772E-12  0.17120000000E+03  0.17120000000E+03 0.  0.
         13    1    1    2    0    0 -0.23492986945E+02 -0.20206935611E+02  0.11158432298E+03  0.11580722336E+03  0.10566000000E+00 0. -1.
        994    1    1    2    0    0  0.27099893886E+02 -0.69328706249E+01  0.69392879070E+01  0.17360893600E+03  0.17120000000E+03 0.  0.
        998    1    1    2    0    0 -0.36069069409E+01  0.27139806236E+02  0.13814763854E+04  0.13817838406E+04  0.10000000000E+02 0. -1.
</event>
<event>
 5    1  0.1153629E-008  0.3952655E+03  0.7957747E-01  0.3387268E+00
         13   -1    0    0    0    0  0.00000000000E+00  0.00000000000E+00  0.14999999963E+04  0.15000000000E+04  0.10566000000E+00 0. -1.
        994   -1    0    0    0    0 -0.00000000000E+00 -0.00000000000E+00  0.11368683772E-12  0.17120000000E+03  0.17120000000E+03 0.  0.
         13    1    1    2    0    0  0.66055330879E+01  0.12827376139E+02 -0.71445003363E+01  0.16100611637E+02  0.10566000000E+00 0. -1.
        994    1    1    2    0    0 -0.13665368140E+02 -0.11816330730E+02  0.26234009456E+02  0.17413796602E+03  0.17120000000E+03 0.  0.
        998    1    1    2    0    0  0.70598350522E+01 -0.10110454097E+01  0.14809104872E+04  0.14809614223E+04  0.10000000000E+02 0. -1.
</event>
<event>
 5    1  0.1153629E-008  0.3814278E+03  0.7957747E-01  0.3444965E+00
         13   -1    0    0    0    0  0.00000000000E+00  0.00000000000E+00  0.14999999963E+04  0.15000000000E+04  0.10566000000E+00 0. -1.
        994   -1    0    0    0    0 -0.00000000000E+00 -0.00000000000E+00  0.11368683772E-12  0.17120000000E+03  0.17120000000E+03 0.  0.
         13    1    1    2    0    0 -0.34925641551E+01 -0.11346953080E+02  0.20002778961E+02  0.23260990494E+02  0.10566000000E+00 0. -1.
        994    1    1    2    0    0  0.36923337116E+01 -0.63952919049E+01  0.35955989379E+01  0.17139691193E+03  0.17120000000E+03 0.  0.
        998    1    1    2    0    0 -0.19976955649E+00  0.17742244985E+02  0.14764016184E+04  0.14765420976E+04  0.10000000000E+02 0. -1.
</event>
<event>
 5    1  0.1153629E-008  0.3851470E+03  0.7957747E-01  0.3429049E+00
         13   -1    0    0    0    0  0.00000000000E+00  0.00000000000E+00  0.14999999963E+04  0.15000000000E+04  0.10566000000E+00 0.  1.
        994   -1    0    0    0    0 -0.00000000000E+00 -0.00000000000E+00  0.11368683772E-12  0.17120000000E+03  0.17120000000E+03 0.  0.
         13    1    1    2    0    0 -0.66668619070E+01  0.15242941826E+02  0.97077386799E+02  0.98492763769E+02  0.10566000000E+00 0.  1.
        994    1    1    2    0    0  0.83260458951E+01  0.35172343670E+01  0.18257765062E+01  0.17144814796E+03  0.17120000000E+03 0.  0.
        998    1    1    2    0    0 -0.16591839881E+01 -0.18760176193E+02  0.14010968330E+04  0.14012590883E+04  0.10000000000E+02 0.  1.
</event>
<event>
 5    1  0.1153629E-008  0.3790247E+03  0.7957747E-01  0.3455416E+00
         13   -1    0    0    0    0  0.00000000000E+00  0.00000000000E+00  0.14999999963E+04  0.15000000000E+04  0.10566000000E+00 0.  1.
        994   -1    0    0    0    0 -0.00000000000E+00 -0.00000000000E+00  0.11368683772E-12  0.17120000000E+03  0.17120000000E+03 0.  0.
         13    1    1    2    0    0  0.17533428320E+03 -0.59991084701E+02  0.93644290508E+03  0.95460272718E+03  0.10566000000E+00 0.  1.
        994    1    1    2    0    0 -0.17883011771E+03  0.68515100599E+02  0.13947354813E+03  0.29229581016E+03  0.17120000000E+03 0.  0.
        998    1    1    2    0    0  0.34958345166E+01 -0.85240158979E+01  0.42408354307E+03  0.42430146266E+03  0.10000000000E+02 0. -1.
</event>
<event>
 5    1  0.1153629E-008  0.3780358E+03  0.7957747E-01  0.3459756E+00
         13   -1    0    0    0    0  0.00000000000E+00  0.00000000000E+00  0.14999999963E+04  0.15000000000E+04  0.10566000000E+00 0. -1.
        994   -1    0    0    0    0 -0.00000000000E+00 -0.00000000000E+00  0.11368683772E-12  0.17120000000E+03  0.17120000000E+03 0.  0.
         13    1    1    2    0    0  0.32304152965E+02 -0.16700174694E+02  0.21730380225E+03  0.22032568568E+03  0.10566000000E+00 0. -1.
        994    1    1    2    0    0  0.24970257513E+02 -0.51485440585E+02  0.16225323488E+02  0.18123731811E+03  0.17120000000E+03 0.  0.
        998    1    1    2    0    0 -0.57274410477E+02  0.68185615279E+02  0.12664708705E+04  0.12696369962E+04  0.10000000000E+02 0. -1.
</event>
<event>
 5    1  0.1153629E-008  0.3810965E+03  0.7957747E-01  0.3446398E+00
         13   -1    0    0    0    0  0.00000000000E+00  0.00000000000E+00  0.14999999963E+04  0.15000000000E+04  0.10566000000E+00 0.  1.
        994   -1    0    0    0    0 -0.00000000000E+00 -0.00000000000E+00  0.11368683772E-12  0.17120000000E+03  0.17120000000E+03 0.  0.
         13    1    1    2    0    0  0.11919854743E+02 -0.32066122890E+01  0.19676547857E+02  0.23228064901E+02  0.10566000000E+00 0.  1.
        994    1    1    2    0    0 -0.11621381561E+02 -0.19628278150E+00  0.40307682852E+01  0.17164143477E+03  0.17120000000E+03 0.  0.
        998    1    1    2    0    0 -0.29847318210E+00  0.34028950705E+01  0.14762926801E+04  0.14763305003E+04  0.10000000000E+02 0.  1.
</event>
<event>
 5    1  0.1153629E-008  0.3831700E+03  0.7957747E-01  0.3437471E+00
         13   -1    0    0    0    0  0.00000000000E+00  0.00000000000E+00  0.14999999963E+04  0.15000000000E+04  0.10566000000E+00 0.  1.
        994   -1    0    0    0    0 -0.00000000000E+00 -0.00000000000E+00  0.11368683772E-12  0.17120000000E+03  0.17120000000E+03 0.  0.
         13    1    1    2    0    0  0.16887371810E+02 -0.28489607785E+01  0.56009092711E+02  0.58569015141E+02  0.10566000000E+00 0.  1.
        994    1    1    2    0    0 -0.12776296699E+02  0.13570486474E+02  0.36915561501E+01  0.17225115224E+03  0.17120000000E+03 0.  0.
        998    1    1    2    0    0 -0.41110751110E+01 -0.10721525696E+02  0.14402993474E+04  0.14403798326E+04  0.10000000000E+02 0.  1.
</event>
<event>
 5    1  0.1153629E-008  0.3841104E+03  0.7957747E-01  0.3433454E+00
         13   -1    0    0    0    0  0.00000000000E+00  0.00000000000E+00  0.14999999963E+04  0.15000000000E+04  0.10566000000E+00 0.  1.
        994   -1    0    0    0    0 -0.00000000000E+00 -0.00000000000E+00  0.11368683772E-12  0.17120000000E+03  0.17120000000E+03 0.  0.
         13    1    1    2    0    0 -0.22249192192E+02  0.13305178556E+02  0.15000003892E+03  0.15222377334E+03  0.10566000000E+00 0.  1.
        994    1    1    2    0    0  0.24440438584E+02 -0.68767782097E+01  0.42014352864E+01  0.17312341602E+03  0.17120000000E+03 0.  0.
        998    1    1    2    0    0 -0.21912463923E+01 -0.64284003462E+01  0.13457985221E+04  0.13458528106E+04  0.10000000000E+02 0.  1.
</event>
<event>
 5    1  0.1153629E-008  0.3821499E+03  0.7957747E-01  0.3441850E+00
         13   -1    0    0    0    0  0.00000000000E+00  0.00000000000E+00  0.14999999963E+04  0.15000000000E+04  0.10566000000E+00 0. -1.
        994   -1    0    0    0    0 -0.00000000000E+00 -0.00000000000E+00  0.11368683772E-12  0.17120000000E+03  0.17120000000E+03 0.  0.
         13    1    1    2    0    0 -0.19416367153E+00 -0.18567268530E+02  0.54174976847E+02  0.57268843542E+02  0.10566000000E+00 0. -1.
        994    1    1    2    0    0 -0.14999521346E+01  0.17528742296E+02  0.40798223763E+01  0.17214991029E+03  0.17120000000E+03 0.  0.
        998    1    1    2    0    0  0.16941158061E+01  0.10385262332E+01  0.14417451971E+04  0.14417812462E+04  0.10000000000E+02 0. -1.
</event>
<event>
 5    1  0.1153629E-008  0.3841389E+03  0.7957747E-01  0.3433333E+00
         13   -1    0    0    0    0  0.00000000000E+00  0.00000000000E+00  0.14999999963E+04  0.15000000000E+04  0.10566000000E+00 0. -1.
        994   -1    0    0    0    0 -0.00000000000E+00 -0.00000000000E+00  0.11368683772E-12  0.17120000000E+03  0.17120000000E+03 0.  0.
         13    1    1    2    0    0 -0.18205559133E+02 -0.35784802338E+02  0.35320713029E+02  0.53474838893E+02  0.10566000000E+00 0. -1.
        994    1    1    2    0    0  0.77867471152E+01  0.39778766627E+02  0.24688956719E+02  0.17765688360E+03  0.17120000000E+03 0.  0.
        998    1    1    2    0    0  0.10418812017E+02 -0.39939642892E+01  0.14399903265E+04  0.14400682775E+04  0.10000000000E+02 0. -1.
</event>
<event>
 5    1  0.1153629E-008  0.3824780E+03  0.7957747E-01  0.3440439E+00
         13   -1    0    0    0    0  0.00000000000E+00  0.00000000000E+00  0.14999999963E+04  0.15000000000E+04  0.10566000000E+00 0. -1.
        994   -1    0    0    0    0 -0.00000000000E+00 -0.00000000000E+00  0.11368683772E-12  0.17120000000E+03  0.17120000000E+03 0.  0.
         13    1    1    2    0    0  0.18162953869E+03  0.13594629122E+03  0.87014522757E+03  0.89923490349E+03  0.10566000000E+00 0. -1.
        994    1    1    2    0    0 -0.19718614231E+03 -0.17627733732E+03  0.28679481297E+03  0.42604786013E+03  0.17120000000E+03 0.  0.
        998    1    1    2    0    0  0.15556603619E+02  0.40331046102E+02  0.34305995574E+03  0.34591723638E+03  0.10000000000E+02 0. -1.
</event>
<event>
 5    1  0.1153629E-008  0.3857535E+03  0.7957747E-01  0.3426483E+00
         13   -1    0    0    0    0  0.00000000000E+00  0.00000000000E+00  0.14999999963E+04  0.15000000000E+04  0.10566000000E+00 0. -1.
        994   -1    0    0    0    0 -0.00000000000E+00 -0.00000000000E+00  0.11368683772E-12  0.17120000000E+03  0.17120000000E+03 0.  0.
         13    1    1    2    0    0 -0.35215141308E+01  0.93637616524E+01  0.38120617711E+02  0.39411594142E+02  0.10566000000E+00 0. -1.
        994    1    1    2    0    0  0.25101899268E+02 -0.80056597463E+01  0.35372394232E+01  0.17325168974E+03  0.17120000000E+03 0.  0.
        998    1    1    2    0    0 -0.21580385137E+02 -0.13581019061E+01  0.14583421391E+04  0.14585367161E+04  0.10000000000E+02 0. -1.
</event>
<event>
 5    1  0.1153629E-008  0.3821764E+03  0.7957747E-01  0.3441737E+00
         13   -1    0    0    0    0  0.00000000000E+00  0.00000000000E+00  0.14999999963E+04  0.15000000000E+04  0.10566000000E+00 0. -1.
        994   -1    0    0    0    0 -0.00000000000E+00 -0.00000000000E+00  0.11368683772E-12  0.17120000000E+03  0.17120000000E+03 0.  0.
         13    1    1    2    0    0 -0.27278564631E+02 -0.64501155747E+01  0.12152317792E+03  0.12471414521E+03  0.10566000000E+00 0. -1.
        994    1    1    2    0    0  0.24808885997E+02  0.51575072860E+01  0.51725583452E+01  0.17314235780E+03  0.17120000000E+03 0.  0.
        998    1    1    2    0    0  0.24696786341E+01  0.12926082887E+01  0.13733042600E+04  0.13733434970E+04  0.10000000000E+02 0. -1.
</event>
<event>
 5    1  0.1153629E-008  0.3825788E+03  0.7957747E-01  0.3440006E+00
         13   -1    0    0    0    0  0.00000000000E+00  0.00000000000E+00  0.14999999963E+04  0.15000000000E+04  0.10566000000E+00 0. -1.
        994   -1    0    0    0    0 -0.00000000000E+00 -0.00000000000E+00  0.11368683772E-12  0.17120000000E+03  0.17120000000E+03 0.  0.
         13    1    1    2    0    0  0.13719612869E+02  0.15549289502E+02  0.82635104135E+02  0.85197299140E+02  0.10566000000E+00 0. -1.
        994    1    1    2    0    0 -0.11962253739E+01  0.68133023721E+01  0.29956314013E+01  0.17136588299E+03  0.17120000000E+03 0.  0.
        998    1    1    2    0    0 -0.12523387495E+02 -0.22362591874E+02  0.14143692607E+04  0.14146368179E+04  0.10000000000E+02 0. -1.
</event>
<event>
 5    1  0.1153629E-008  0.3753929E+03  0.7957747E-01  0.3471467E+00
         13   -1    0    0    0    0  0.00000000000E+00  0.00000000000E+00  0.14999999963E+04  0.15000000000E+04  0.10566000000E+00 0. -1.
        994   -1    0    0    0    0 -0.00000000000E+00 -0.00000000000E+00  0.11368683772E-12  0.17120000000E+03  0.17120000000E+03 0.  0.
         13    1    1    2    0    0  0.84837544779E+02  0.27659807363E+02  0.30960937878E+03  0.32221181316E+03  0.10566000000E+00 0. -1.
        994    1    1    2    0    0 -0.35736365956E+02 -0.11781298579E+02  0.18881531239E+02  0.17630042277E+03  0.17120000000E+03 0.  0.
        998    1    1    2    0    0 -0.49101178823E+02 -0.15878508783E+02  0.11715090863E+04  0.11726877641E+04  0.10000000000E+02 0. -1.
</event>
<event>
 5    1  0.1153629E-008  0.3855173E+03  0.7957747E-01  0.3427481E+00
         13   -1    0    0    0    0  0.00000000000E+00  0.00000000000E+00  0.14999999963E+04  0.15000000000E+04  0.10566000000E+00 0.  1.
        994   -1    0    0    0    0 -0.00000000000E+00 -0.00000000000E+00  0.11368683772E-12  0.17120000000E+03  0.17120000000E+03 0.  0.
         13    1    1    2    0    0 -0.39908568133E+00 -0.12566391069E+02  0.55805915919E+02  0.57204762646E+02  0.10566000000E+00 0.  1.
        994    1    1    2    0    0  0.35429957150E+01  0.13935781823E+02  0.20526424470E+01  0.17181505224E+03  0.17120000000E+03 0.  0.
        998    1    1    2    0    0 -0.31439100336E+01 -0.13693907538E+01  0.14421414379E+04  0.14421801851E+04  0.10000000000E+02 0.  1.
</event>
<event>
 5    1  0.1153629E-008  0.3761027E+03  0.7957747E-01  0.3468306E+00
         13   -1    0    0    0    0  0.00000000000E+00  0.00000000000E+00  0.14999999963E+04  0.15000000000E+04  0.10566000000E+00 0.  1.
        994   -1    0    0    0    0 -0.00000000000E+00 -0.00000000000E+00  0.11368683772E-12  0.17120000000E+03  0.17120000000E+03 0.  0.
         13    1    1    2    0    0  0.23881776509E+02  0.41647508871E+02  0.19951875334E+03  0.20521354328E+03  0.10566000000E+00 0.  1.
        994    1    1    2    0    0 -0.21604964371E+02 -0.75108464292E+01  0.78873828052E+01  0.17290123801E+03  0.17120000000E+03 0.  0.
        998    1    1    2    0    0 -0.22768121377E+01 -0.34136662442E+02  0.12925938601E+04  0.12930852187E+04  0.10000000000E+02 0.  1.
</event>
<event>
 5    1  0.1153629E-008  0.3806386E+03  0.7957747E-01  0.3448383E+00
         13   -1    0    0    0    0  0.00000000000E+00  0.00000000000E+00  0.14999999963E+04  0.15000000000E+04  0.10566000000E+00 0. -1.
        994   -1    0    0    0    0 -0.00000000000E+00 -0.00000000000E+00  0.11368683772E-12  0.17120000000E+03  0.17120000000E+03 0.  0.
         13    1    1    2    0    0 -0.12377428026E+02  0.36453868181E+02  0.17863554416E+03  0.18273684366E+03  0.10566000000E+00 0. -1.
        994    1    1    2    0    0  0.11437374280E+02 -0.31326196896E+02  0.75300053354E+01  0.17458031138E+03  0.17120000000E+03 0.  0.
        998    1    1    2    0    0  0.94005374651E+00 -0.51276712852E+01  0.13138344468E+04  0.13138828450E+04  0.10000000000E+02 0. -1.
</event>
<event>
 5    1  0.1153629E-008  0.3766680E+03  0.7957747E-01  0.3465797E+00
         13   -1    0    0    0    0  0.00000000000E+00  0.00000000000E+00  0.14999999963E+04  0.15000000000E+04  0.10566000000E+00 0.  1.
        994   -1    0    0    0    0 -0.00000000000E+00 -0.00000000000E+00  0.11368683772E-12  0.17120000000E+03  0.17120000000E+03 0.  0.
         13    1    1    2    0    0 -0.33672240180E+01  0.98708412131E+01  0.67815002823E+01  0.12440724013E+02  0.10566000000E+00 0.  1.
        994    1    1    2    0    0  0.67504367016E+01  0.18089490705E+01  0.59897948864E+01  0.17144724651E+03  0.17120000000E+03 0.  0.
        998    1    1    2    0    0 -0.33832126836E+01 -0.11679790284E+02  0.14872287011E+04  0.14873120295E+04  0.10000000000E+02 0.  1.
</event>
<event>
 5    1  0.1153629E-008  0.3781358E+03  0.7957747E-01  0.3459316E+00
         13   -1    0    0    0    0  0.00000000000E+00  0.00000000000E+00  0.14999999963E+04  0.15000000000E+04  0.10566000000E+00 0. -1.
        994   -1    0    0    0    0 -0.00000000000E+00 -0.00000000000E+00  0.11368683772E-12  0.17120000000E+03  0.17120000000E+03 0.  0.
         13    1    1    2    0    0  0.33648845421E+02  0.54204985902E+02  0.12034990590E+03  0.13621503701E+03  0.10566000000E+00 0. -1.
        994    1    1    2    0    0 -0.27827142193E+02 -0.51968355033E+02  0.27921625750E+02  0.18320512261E+03  0.17120000000E+03 0.  0.
        998    1    1    2    0    0 -0.58217032274E+01 -0.22366308692E+01  0.13517284646E+04  0.13517798404E+04  0.10000000000E+02 0. -1.
</event>
<event>
 5    1  0.1153629E-008  0.3788930E+03  0.7957747E-01  0.3455993E+00
         13   -1    0    0    0    0  0.00000000000E+00  0.00000000000E+00  0.14999999963E+04  0.15000000000E+04  0.10566000000E+00 0.  1.
        994   -1    0    0    0    0 -0.00000000000E+00 -0.00000000000E+00  0.11368683772E-12  0.17120000000E+03  0.17120000000E+03 0.  0.
         13    1    1    2    0    0  0.49504395375E+01  0.24255913715E+02  0.67748914647E+02  0.72130318186E+02  0.10566000000E+00 0.  1.
        994    1    1    2    0    0  0.23855655267E+02 -0.52563243582E+01  0.66976864206E+01  0.17306363060E+03  0.17120000000E+03 0.  0.
        998    1    1    2    0    0 -0.28806094804E+02 -0.18999589356E+02  0.14255533952E+04  0.14260060512E+04  0.10000000000E+02 0.  1.
</event>
<event>
 5    1  0.1153629E-008  0.3007667E+03  0.7957747E-01  0.3890560E+00
         13   -1    0    0    0    0  0.00000000000E+00  0.00000000000E+00  0.14999999963E+04  0.15000000000E+04  0.10566000000E+00 0. -1.
        994   -1    0    0    0    0 -0.00000000000E+00 -0.00000000000E+00  0.11368683772E-12  0.17120000000E+03  0.17120000000E+03 0.  0.
         13    1    1    2    0    0 -0.17840483822E+03 -0.17336525786E+02  0.78324943306E+03  0.80349768325E+03  0.10566000000E+00 0. -1.
        994    1    1    2    0    0  0.98057386362E+02  0.75448423196E+02  0.84269182227E+02  0.22741690935E+03  0.17120000000E+03 0.  0.
        998    1    1    2    0    0  0.80347451860E+02 -0.58111897410E+02  0.63248138099E+03  0.64028540741E+03  0.10000000000E+02 0. -1.
</event>
<event>
 5    1  0.1153629E-008  0.3834465E+03  0.7957747E-01  0.3436288E+00
         13   -1    0    0    0    0  0.00000000000E+00  0.00000000000E+00  0.14999999963E+04  0.15000000000E+04  0.10566000000E+00 0.  1.
        994   -1    0    0    0    0 -0.00000000000E+00 -0.00000000000E+00  0.11368683772E-12  0.17120000000E+03  0.17120000000E+03 0.  0.
         13    1    1    2    0    0  0.67619905200E+01 -0.25173390988E+02  0.13494756463E+03  0.13744191680E+03  0.10566000000E+00 0.  1.
        994    1    1    2    0    0 -0.85251510411E+01  0.19731000808E+02  0.39318944530E+01  0.17258878987E+03  0.17120000000E+03 0.  0.
        998    1    1    2    0    0  0.17631605211E+01  0.54423901805E+01  0.13611205372E+04  0.13611692933E+04  0.10000000000E+02 0.  1.
</event>
<event>
 5    1  0.1153629E-008  0.3848220E+03  0.7957747E-01  0.3430427E+00
         13   -1    0    0    0    0  0.00000000000E+00  0.00000000000E+00  0.14999999963E+04  0.15000000000E+04  0.10566000000E+00 0.  1.
        994   -1    0    0    0    0 -0.00000000000E+00 -0.00000000000E+00  0.11368683772E-12  0.17120000000E+03  0.17120000000E+03 0.  0.
         13    1    1    2    0    0 -0.82559528912E+01 -0.70440731709E+01  0.32589586800E+02  0.34349265739E+02  0.10566000000E+00 0.  1.
        994    1    1    2    0    0  0.13582501279E+02  0.10133699553E+02  0.26640503408E+01  0.17205729677E+03  0.17120000000E+03 0.  0.
        998    1    1    2    0    0 -0.53265483878E+01 -0.30896263818E+01  0.14647463591E+04  0.14647934375E+04  0.10000000000E+02 0.  1.
</event>
<event>
 5    1  0.1153629E-008  0.3768232E+03  0.7957747E-01  0.3465108E+00
         13   -1    0    0    0    0  0.00000000000E+00  0.00000000000E+00  0.14999999963E+04  0.15000000000E+04  0.10566000000E+00 0. -1.
        994   -1    0    0    0    0 -0.00000000000E+00 -0.00000000000E+00  0.11368683772E-12  0.17120000000E+03  0.17120000000E+03 0.  0.
         13    1    1    2    0    0  0.86500951563E+01 -0.52720838681E+02  0.20047658024E+03  0.20747332688E+03  0.10566000000E+00 0. -1.
        994    1    1    2    0    0 -0.14344532283E+02  0.62513552614E+02  0.19772003190E+02  0.18388605705E+03  0.17120000000E+03 0.  0.
        998    1    1    2    0    0  0.56944371264E+01 -0.97927139325E+01  0.12797514128E+04  0.12798406161E+04  0.10000000000E+02 0. -1.
</event>
<event>
 5    1  0.1153629E-008  0.3788833E+03  0.7957747E-01  0.3456036E+00
         13   -1    0    0    0    0  0.00000000000E+00  0.00000000000E+00  0.14999999963E+04  0.15000000000E+04  0.10566000000E+00 0.  1.
        994   -1    0    0    0    0 -0.00000000000E+00 -0.00000000000E+00  0.11368683772E-12  0.17120000000E+03  0.17120000000E+03 0.  0.
         13    1    1    2    0    0 -0.69364471549E+02 -0.20190619966E+02  0.14128925450E+03  0.15868760395E+03  0.10566000000E+00 0.  1.
        994    1    1    2    0    0  0.10437279163E+03 -0.70554362558E+02  0.75480203672E+02  0.22556218401E+03  0.17120000000E+03 0.  0.
        998    1    1    2    0    0 -0.35008320081E+02  0.90744982524E+02  0.12832305381E+04  0.12869502120E+04  0.10000000000E+02 0.  1.
</event>
<event>
 5    1  0.1153629E-008  0.3835048E+03  0.7957747E-01  0.3436038E+00
         13   -1    0    0    0    0  0.00000000000E+00  0.00000000000E+00  0.14999999963E+04  0.15000000000E+04  0.10566000000E+00 0.  1.
        994   -1    0    0    0    0 -0.00000000000E+00 -0.00000000000E+00  0.11368683772E-12  0.17120000000E+03  0.17120000000E+03 0.  0.
         13    1    1    2    0    0  0.36287295502E+01  0.21880150826E+02  0.93918729943E+02  0.96502060478E+02  0.10566000000E+00 0.  1.
        994    1    1    2    0    0 -0.97779317913E+01 -0.27299411988E+02  0.51580219600E+01  0.17371502824E+03  0.17120000000E+03 0.  0.
        998    1    1    2    0    0  0.61492022410E+01  0.54192611624E+01  0.14009232444E+04  0.14009829113E+04  0.10000000000E+02 0.  1.
</event>
<event>
 5    1  0.1153629E-008  0.3736282E+03  0.7957747E-01  0.3479381E+00
         13   -1    0    0    0    0  0.00000000000E+00  0.00000000000E+00  0.14999999963E+04  0.15000000000E+04  0.10566000000E+00 0. -1.
        994   -1    0    0    0    0 -0.00000000000E+00 -0.00000000000E+00  0.11368683772E-12  0.17120000000E+03  0.17120000000E+03 0.  0.
         13    1    1    2    0    0 -0.24251422139E+02  0.94820505289E+01  0.22733481952E+02  0.34566792210E+02  0.10566000000E+00 0. -1.
        994    1    1    2    0    0 -0.56573805618E+00  0.51293298033E+02  0.22246905973E+02  0.18009910413E+03  0.17120000000E+03 0.  0.
        998    1    1    2    0    0  0.24817160195E+02 -0.60775348562E+02  0.14550196084E+04  0.14565341037E+04  0.10000000000E+02 0. -1.
</event>
<event>
 5    1  0.1153629E-008  0.3854716E+03  0.7957747E-01  0.3427675E+00
         13   -1    0    0    0    0  0.00000000000E+00  0.00000000000E+00  0.14999999963E+04  0.15000000000E+04  0.10566000000E+00 0. -1.
        994   -1    0    0    0    0 -0.00000000000E+00 -0.00000000000E+00  0.11368683772E-12  0.17120000000E+03  0.17120000000E+03 0.  0.
         13    1    1    2    0    0  0.12766077506E+02 -0.22364412596E+01  0.59530028302E+02  0.60924624234E+02  0.10566000000E+00 0. -1.
        994    1    1    2    0    0 -0.10847344981E+02  0.14783782065E+01  0.17898353050E+01  0.17155901027E+03  0.17120000000E+03 0.  0.
        998    1    1    2    0    0 -0.19187325250E+01  0.75806305305E+00  0.14386801327E+04  0.14387163655E+04  0.10000000000E+02 0. -1.
</event>
<event>
 5    1  0.1153629E-008  0.3849607E+03  0.7957747E-01  0.3429839E+00
         13   -1    0    0    0    0  0.00000000000E+00  0.00000000000E+00  0.14999999963E+04  0.15000000000E+04  0.10566000000E+00 0. -1.
        994   -1    0    0    0    0 -0.00000000000E+00 -0.00000000000E+00  0.11368683772E-12  0.17120000000E+03  0.17120000000E+03 0.  0.
         13    1    1    2    0    0  0.69050345201E+01  0.74201375614E+01  0.34122499389E+02  0.35596264857E+02  0.10566000000E+00 0. -1.
        994    1    1    2    0    0  0.47556732632E+01  0.14823215010E+02  0.24471477123E+01  0.17192374084E+03  0.17120000000E+03 0.  0.
        998    1    1    2    0    0 -0.11660707783E+02 -0.22243352572E+02  0.14634303492E+04  0.14636799943E+04  0.10000000000E+02 0. -1.
</event>
<event>
 5    1  0.1153629E-008  0.3796796E+03  0.7957747E-01  0.3452555E+00
         13   -1    0    0    0    0  0.00000000000E+00  0.00000000000E+00  0.14999999963E+04  0.15000000000E+04  0.10566000000E+00 0.  1.
        994   -1    0    0    0    0 -0.00000000000E+00 -0.00000000000E+00  0.11368683772E-12  0.17120000000E+03  0.17120000000E+03 0.  0.
         13    1    1    2    0    0 -0.72458222133E+01 -0.12164123602E+03  0.71782175151E+03  0.72809145741E+03  0.10566000000E+00 0.  1.
        994    1    1    2    0    0  0.61483471988E+01  0.13129933302E+03  0.64466572716E+02  0.22526139488E+03  0.17120000000E+03 0.  0.
        998    1    1    2    0    0  0.10974750146E+01 -0.96580969946E+01  0.71771167205E+03  0.71784714772E+03  0.10000000000E+02 0.  1.
</event>
<event>
 5    1  0.1153629E-008  0.3845372E+03  0.7957747E-01  0.3431637E+00
         13   -1    0    0    0    0  0.00000000000E+00  0.00000000000E+00  0.14999999963E+04  0.15000000000E+04  0.10566000000E+00 0. -1.
        994   -1    0    0    0    0 -0.00000000000E+00 -0.00000000000E+00  0.11368683772E-12  0.17120000000E+03  0.17120000000E+03 0.  0.
         13    1    1    2    0    0 -0.34804640784E+01  0.12845539747E+02  0.46734604555E+02  0.48592756133E+02  0.10566000000E+00 0. -1.
        994    1    1    2    0    0  0.49136761084E+01 -0.10484363428E+02  0.23017753608E+01  0.17160653909E+03  0.17120000000E+03 0.  0.
        998    1    1    2    0    0 -0.14332120301E+01 -0.23611763191E+01  0.14509636164E+04  0.14510007048E+04  0.10000000000E+02 0. -1.
</event>
<event>
 5    1  0.1153629E-008  0.3830900E+03  0.7957747E-01  0.3437813E+00
         13   -1    0    0    0    0  0.00000000000E+00  0.00000000000E+00  0.14999999963E+04  0.15000000000E+04  0.10566000000E+00 0.  1.
        994   -1    0    0    0    0 -0.00000000000E+00 -0.00000000000E+00  0.11368683772E-12  0.17120000000E+03  0.17120000000E+03 0.  0.
         13    1    1    2    0    0  0.33718302792E+02  0.50380569439E+00  0.18992402000E+03  0.19289458857E+03  0.10566000000E+00 0.  1.
        994    1    1    2    0    0 -0.36357949461E+02 -0.78265325114E+01  0.71719527583E+01  0.17533976162E+03  0.17120000000E+03 0.  0.
        998    1    1    2    0    0  0.26396466697E+01  0.73227268170E+01  0.13029040235E+04  0.13029656498E+04  0.10000000000E+02 0.  0.
</event>
<event>
 5    1  0.1153629E-008  0.3714735E+03  0.7957747E-01  0.3489146E+00
         13   -1    0    0    0    0  0.00000000000E+00  0.00000000000E+00  0.14999999963E+04  0.15000000000E+04  0.10566000000E+00 0.  1.
        994   -1    0    0    0    0 -0.00000000000E+00 -0.00000000000E+00  0.11368683772E-12  0.17120000000E+03  0.17120000000E+03 0.  0.
         13    1    1    2    0    0 -0.79432638310E+02  0.37258311126E+02  0.30409701871E+03  0.31650076418E+03  0.10566000000E+00 0.  1.
        994    1    1    2    0    0  0.60358313462E+02 -0.17970455607E+02  0.25790786699E+02  0.18422993231E+03  0.17120000000E+03 0.  0.
        998    1    1    2    0    0  0.19074324849E+02 -0.19287855519E+02  0.11701121909E+04  0.11704693035E+04  0.10000000000E+02 0.  1.
</event>
<event>
 5    1  0.1153629E-008  0.3809808E+03  0.7957747E-01  0.3446899E+00
         13   -1    0    0    0    0  0.00000000000E+00  0.00000000000E+00  0.14999999963E+04  0.15000000000E+04  0.10566000000E+00 0. -1.
        994   -1    0    0    0    0 -0.00000000000E+00 -0.00000000000E+00  0.11368683772E-12  0.17120000000E+03  0.17120000000E+03 0.  0.
         13    1    1    2    0    0 -0.28290905512E+02 -0.10277564765E+02  0.11629945596E+03  0.12013150416E+03  0.10566000000E+00 0. -1.
        994    1    1    2    0    0  0.29248907393E+02  0.19199109060E+01  0.65070634007E+01  0.17381302171E+03  0.17120000000E+03 0.  0.
        998    1    1    2    0    0 -0.95800188173E+00  0.83576538593E+01  0.13771934769E+04  0.13772554741E+04  0.10000000000E+02 0. -1.
</event>
<event>
 5    1  0.1153629E-008  0.3777769E+03  0.7957747E-01  0.3460896E+00
         13   -1    0    0    0    0  0.00000000000E+00  0.00000000000E+00  0.14999999963E+04  0.15000000000E+04  0.10566000000E+00 0. -1.
        994   -1    0    0    0    0 -0.00000000000E+00 -0.00000000000E+00  0.11368683772E-12  0.17120000000E+03  0.17120000000E+03 0.  0.
         13    1    1    2    0    0  0.17870061936E+02 -0.83202554120E+00  0.29063940888E+02  0.34128510136E+02  0.10566000000E+00 0. -1.
        994    1    1    2    0    0 -0.25978126752E+01 -0.48439022437E+01  0.53613389255E+01  0.17137209801E+03  0.17120000000E+03 0.  0.
        998    1    1    2    0    0 -0.15272249261E+02  0.56759277849E+01  0.14655747165E+04  0.14656993919E+04  0.10000000000E+02 0. -1.
</event>
<event>
 5    1  0.1153629E-008  0.3686167E+03  0.7957747E-01  0.3502272E+00
         13   -1    0    0    0    0  0.00000000000E+00  0.00000000000E+00  0.14999999963E+04  0.15000000000E+04  0.10566000000E+00 0.  1.
        994   -1    0    0    0    0 -0.00000000000E+00 -0.00000000000E+00  0.11368683772E-12  0.17120000000E+03  0.17120000000E+03 0.  0.
         13    1    1    2    0    0  0.14346827947E+02  0.57425452250E+02  0.16516795316E+03  0.17545363477E+03  0.10566000000E+00 0.  1.
        994    1    1    2    0    0 -0.59955096219E+01 -0.44261843684E+02  0.16957335413E+02  0.17774152066E+03  0.17120000000E+03 0.  0.
        998    1    1    2    0    0 -0.83513183246E+01 -0.13163608566E+02  0.13178747077E+04  0.13180048446E+04  0.10000000000E+02 0.  1.
</event>
<event>
 5    1  0.1153629E-008  0.3844909E+03  0.7957747E-01  0.3431834E+00
         13   -1    0    0    0    0  0.00000000000E+00  0.00000000000E+00  0.14999999963E+04  0.15000000000E+04  0.10566000000E+00 0. -1.
        994   -1    0    0    0    0 -0.00000000000E+00 -0.00000000000E+00  0.11368683772E-12  0.17120000000E+03  0.17120000000E+03 0.  0.
         13    1    1    2    0    0 -0.10608827903E+02  0.34478983524E+01  0.32467173375E+02  0.34330216188E+02  0.10566000000E+00 0. -1.
        994    1    1    2    0    0  0.80359697050E+01 -0.38204563696E+01  0.21439437325E+01  0.17144447845E+03  0.17120000000E+03 0.  0.
        998    1    1    2    0    0  0.25728581982E+01  0.37255801723E+00  0.14653888792E+04  0.14654253054E+04  0.10000000000E+02 0. -1.
</event>
<event>
 5    1  0.1153629E-008  0.3828895E+03  0.7957747E-01  0.3438673E+00
         13   -1    0    0    0    0  0.00000000000E+00  0.00000000000E+00  0.14999999963E+04  0.15000000000E+04  0.10566000000E+00 0. -1.
        994   -1    0    0    0    0 -0.00000000000E+00 -0.00000000000E+00  0.11368683772E-12  0.17120000000E+03  0.17120000000E+03 0.  0.
         13    1    1    2    0    0 -0.23887718110E+01  0.21861069829E+02  0.89471832262E+02  0.92134860597E+02  0.10566000000E+00 0. -1.
        994    1    1    2    0    0  0.71372979274E+01 -0.12947502122E+02  0.34057342649E+01  0.17187093372E+03  0.17120000000E+03 0.  0.
        998    1    1    2    0    0 -0.47485261164E+01 -0.89135677074E+01  0.14071224298E+04  0.14071942057E+04  0.10000000000E+02 0. -1.
</event>
<event>
 5    1  0.1153629E-008  0.3801751E+03  0.7957747E-01  0.3450396E+00
         13   -1    0    0    0    0  0.00000000000E+00  0.00000000000E+00  0.14999999963E+04  0.15000000000E+04  0.10566000000E+00 0.  1.
        994   -1    0    0    0    0 -0.00000000000E+00 -0.00000000000E+00  0.11368683772E-12  0.17120000000E+03  0.17120000000E+03 0.  0.
         13    1    1    2    0    0  0.96341142778E+01  0.89936454116E+01  0.19944700566E+02  0.23906151100E+02  0.10566000000E+00 0.  1.
        994    1    1    2    0    0 -0.27559534586E+00 -0.90386815283E+01  0.43180307631E+01  0.17149302932E+03  0.17120000000E+03 0.  0.
        998    1    1    2    0    0 -0.93585189319E+01  0.45036116711E-01  0.14757372649E+04  0.14758008196E+04  0.10000000000E+02 0.  1.
</event>
<event>
 5    1  0.1153629E-008  0.3758068E+03  0.7957747E-01  0.3469622E+00
         13   -1    0    0    0    0  0.00000000000E+00  0.00000000000E+00  0.14999999963E+04  0.15000000000E+04  0.10566000000E+00 0.  1.
        994   -1    0    0    0    0 -0.00000000000E+00 -0.00000000000E+00  0.11368683772E-12  0.17120000000E+03  0.17120000000E+03 0.  0.
         13    1    1    2    0    0 -0.13370982957E+03 -0.45704658307E+02  0.39798158414E+03  0.42232284664E+03  0.10566000000E+00 0.  1.
        994    1    1    2    0    0  0.15322538567E+03  0.75600609173E+02  0.12706427631E+03  0.27321830326E+03  0.17120000000E+03 0.  0.
        998    1    1    2    0    0 -0.19515556098E+02 -0.29895950866E+02  0.97495413583E+03  0.97565885011E+03  0.10000000000E+02 0.  1.
</event>
<event>
 5    1  0.1153629E-008  0.3846905E+03  0.7957747E-01  0.3430986E+00
         13   -1    0    0    0    0  0.00000000000E+00  0.00000000000E+00  0.14999999963E+04  0.15000000000E+04  0.10566000000E+00 0.  1.
        994   -1    0    0    0    0 -0.00000000000E+00 -0.00000000000E+00  0.11368683772E-12  0.17120000000E+03  0.17120000000E+03 0.  0.
         13    1    1    2    0    0 -0.20481184811E+02 -0.56413485799E+01  0.12526152539E+03  0.12705024459E+03  0.10566000000E+00 0.  1.
        994    1    1    2    0    0  0.15126326856E+02 -0.11130792218E+01  0.25415613440E+01  0.17188933720E+03  0.17120000000E+03 0.  0.
        998    1    1    2    0    0  0.53548579550E+01  0.67544278017E+01  0.13721969095E+04  0.13722604182E+04  0.10000000000E+02 0.  1.
</event>
<event>
 5    1  0.1153629E-008  0.3827077E+03  0.7957747E-01  0.3439453E+00
         13   -1    0    0    0    0  0.00000000000E+00  0.00000000000E+00  0.14999999963E+04  0.15000000000E+04  0.10566000000E+00 0.  1.
        994   -1    0    0    0    0 -0.00000000000E+00 -0.00000000000E+00  0.11368683772E-12  0.17120000000E+03  0.17120000000E+03 0.  0.
         13    1    1    2    0    0 -0.62418898247E+01 -0.29480753550E+02  0.14514677726E+03  0.14824194458E+03  0.10566000000E+00 0.  1.
        994    1    1    2    0    0  0.37191438029E+01  0.33699547053E+02  0.65904733789E+01  0.17464926522E+03  0.17120000000E+03 0.  0.
        998    1    1    2    0    0  0.25227460218E+01 -0.42187935030E+01  0.13482627456E+04  0.13483087902E+04  0.10000000000E+02 0.  1.
</event>
<event>
 5    1  0.1153629E-008  0.3843666E+03  0.7957747E-01  0.3432363E+00
         13   -1    0    0    0    0  0.00000000000E+00  0.00000000000E+00  0.14999999963E+04  0.15000000000E+04  0.10566000000E+00 0.  1.
        994   -1    0    0    0    0 -0.00000000000E+00 -0.00000000000E+00  0.11368683772E-12  0.17120000000E+03  0.17120000000E+03 0.  0.
         13    1    1    2    0    0  0.29456488768E+01  0.10513412222E+02  0.29952094822E+02  0.31880210666E+02  0.10566000000E+00 0.  1.
        994    1    1    2    0    0 -0.51512731029E+01 -0.82160112862E+01  0.22548817607E+01  0.17148925024E+03  0.17120000000E+03 0.  0.
        998    1    1    2    0    0  0.22056242261E+01 -0.22974009357E+01  0.14677930197E+04  0.14678305391E+04  0.10000000000E+02 0.  1.
</event>
<event>
 5    1  0.1153629E-008  0.3758206E+03  0.7957747E-01  0.3469561E+00
         13   -1    0    0    0    0  0.00000000000E+00  0.00000000000E+00  0.14999999963E+04  0.15000000000E+04  0.10566000000E+00 0.  1.
        994   -1    0    0    0    0 -0.00000000000E+00 -0.00000000000E+00  0.11368683772E-12  0.17120000000E+03  0.17120000000E+03 0.  0.
         13    1    1    2    0    0  0.36876390614E+02 -0.13102037571E+02  0.10670000751E+03  0.11365049203E+03  0.10566000000E+00 0.  1.
        994    1    1    2    0    0 -0.52740350189E+02  0.26204018224E+01  0.15769387297E+02  0.17985139593E+03  0.17120000000E+03 0.  0.
        998    1    1    2    0    0  0.15863959575E+02  0.10481635748E+02  0.13775306015E+04  0.13776981120E+04  0.10000000000E+02 0.  1.
</event>
<event>
 5    1  0.1153629E-008  0.3787017E+03  0.7957747E-01  0.3456831E+00
         13   -1    0    0    0    0  0.00000000000E+00  0.00000000000E+00  0.14999999963E+04  0.15000000000E+04  0.10566000000E+00 0. -1.
        994   -1    0    0    0    0 -0.00000000000E+00 -0.00000000000E+00  0.11368683772E-12  0.17120000000E+03  0.17120000000E+03 0.  0.
         13    1    1    2    0    0  0.10837292862E+02 -0.69370518069E+00  0.11248961601E+02  0.15635806490E+02  0.10566000000E+00 0. -1.
        994    1    1    2    0    0  0.36380015395E+02 -0.14416173468E+02  0.99483667995E+01  0.17589696296E+03  0.17120000000E+03 0.  0.
        998    1    1    2    0    0 -0.47217308257E+02  0.15109878649E+02  0.14788026679E+04  0.14796672305E+04  0.10000000000E+02 0. -1.
</event>
<event>
 5    1  0.1153629E-008  0.3849480E+03  0.7957747E-01  0.3429893E+00
         13   -1    0    0    0    0  0.00000000000E+00  0.00000000000E+00  0.14999999963E+04  0.15000000000E+04  0.10566000000E+00 0. -1.
        994   -1    0    0    0    0 -0.00000000000E+00 -0.00000000000E+00  0.11368683772E-12  0.17120000000E+03  0.17120000000E+03 0.  0.
         13    1    1    2    0    0 -0.10762874198E+02 -0.24931882455E+01  0.37115804391E+02  0.38725308885E+02  0.10566000000E+00 0. -1.
        994    1    1    2    0    0  0.38490898181E+01  0.55107143243E+01  0.18046087558E+01  0.17134141378E+03  0.17120000000E+03 0.  0.
        998    1    1    2    0    0  0.69137843801E+01 -0.30175260788E+01  0.14610795831E+04  0.14611332773E+04  0.10000000000E+02 0. -1.
</event>
<event>
 5    1  0.1153629E-008  0.3848039E+03  0.7957747E-01  0.3430504E+00
         13   -1    0    0    0    0  0.00000000000E+00  0.00000000000E+00  0.14999999963E+04  0.15000000000E+04  0.10566000000E+00 0. -1.
        994   -1    0    0    0    0 -0.00000000000E+00 -0.00000000000E+00  0.11368683772E-12  0.17120000000E+03  0.17120000000E+03 0.  0.
         13    1    1    2    0    0  0.67671660664E+01  0.16195817114E+02  0.84587043301E+02  0.86389108613E+02  0.10566000000E+00 0. -1.
        994    1    1    2    0    0 -0.88083904441E+01 -0.16694068702E+02  0.29008415798E+01  0.17226181978E+03  0.17120000000E+03 0.  0.
        998    1    1    2    0    0  0.20412243777E+01  0.49825158810E+00  0.14125121114E+04  0.14125490716E+04  0.10000000000E+02 0. -1.
</event>
<event>
 5    1  0.1153629E-008  0.3840471E+03  0.7957747E-01  0.3433724E+00
         13   -1    0    0    0    0  0.00000000000E+00  0.00000000000E+00  0.14999999963E+04  0.15000000000E+04  0.10566000000E+00 0. -1.
        994   -1    0    0    0    0 -0.00000000000E+00 -0.00000000000E+00  0.11368683772E-12  0.17120000000E+03  0.17120000000E+03 0.  0.
         13    1    1    2    0    0  0.20751690392E+02 -0.30786643633E+01  0.10694197885E+03  0.10898031397E+03  0.10566000000E+00 0. -1.
        994    1    1    2    0    0 -0.11910582249E+02 -0.13279398634E+02  0.31544034333E+01  0.17215572793E+03  0.17120000000E+03 0.  0.
        998    1    1    2    0    0 -0.88411081425E+01  0.16358062997E+02  0.13899036140E+04  0.13900639581E+04  0.10000000000E+02 0. -1.
</event>
<event>
 5    1  0.1153629E-008  0.3756528E+03  0.7957747E-01  0.3470308E+00
         13   -1    0    0    0    0  0.00000000000E+00  0.00000000000E+00  0.14999999963E+04  0.15000000000E+04  0.10566000000E+00 0.  1.
        994   -1    0    0    0    0 -0.00000000000E+00 -0.00000000000E+00  0.11368683772E-12  0.17120000000E+03  0.17120000000E+03 0.  0.
         13    1    1    2    0    0 -0.17424735925E+02  0.12300275561E+02  0.32527091854E+02  0.38896543155E+02  0.10566000000E+00 0.  1.
        994    1    1    2    0    0  0.16975581068E+02 -0.15158281004E+02  0.81026026897E+01  0.17289602658E+03  0.17120000000E+03 0.  0.
        998    1    1    2    0    0  0.44915485712E+00  0.28580054430E+01  0.14593703017E+04  0.14594074303E+04  0.10000000000E+02 0.  1.
</event>
<event>
 5    1  0.1153629E-008  0.3842542E+03  0.7957747E-01  0.3432842E+00
         13   -1    0    0    0    0  0.00000000000E+00  0.00000000000E+00  0.14999999963E+04  0.15000000000E+04  0.10566000000E+00 0.  1.
        994   -1    0    0    0    0 -0.00000000000E+00 -0.00000000000E+00  0.11368683772E-12  0.17120000000E+03  0.17120000000E+03 0.  0.
         13    1    1    2    0    0  0.16009176884E+02 -0.54365504074E+00  0.57535738577E+02  0.59724046104E+02  0.10566000000E+00 0.  1.
        994    1    1    2    0    0 -0.29840891508E+02 -0.19228831249E+01  0.49542189157E+01  0.17386247603E+03  0.17120000000E+03 0.  0.
        998    1    1    2    0    0  0.13831714624E+02  0.24665381657E+01  0.14375100388E+04  0.14376134779E+04  0.10000000000E+02 0.  1.
</event>
<event>
 5    1  0.1153629E-008  0.3782675E+03  0.7957747E-01  0.3458737E+00
         13   -1    0    0    0    0  0.00000000000E+00  0.00000000000E+00  0.14999999963E+04  0.15000000000E+04  0.10566000000E+00 0. -1.
        994   -1    0    0    0    0 -0.00000000000E+00 -0.00000000000E+00  0.11368683772E-12  0.17120000000E+03  0.17120000000E+03 0.  0.
         13    1    1    2    0    0  0.35021951402E+01 -0.21994411343E+02  0.47949728456E+02  0.52869718405E+02  0.10566000000E+00 0. -1.
        994    1    1    2    0    0 -0.40012460567E-01  0.12438036797E+02  0.55305689079E+01  0.17174030847E+03  0.17120000000E+03 0.  0.
        998    1    1    2    0    0 -0.34621826796E+01  0.95563745467E+01  0.14465196989E+04  0.14465899731E+04  0.10000000000E+02 0. -1.
</event>
<event>
 5    1  0.1153629E-008  0.3804299E+03  0.7957747E-01  0.3449289E+00
         13   -1    0    0    0    0  0.00000000000E+00  0.00000000000E+00  0.14999999963E+04  0.15000000000E+04  0.10566000000E+00 0. -1.
        994   -1    0    0    0    0 -0.00000000000E+00 -0.00000000000E+00  0.11368683772E-12  0.17120000000E+03  0.17120000000E+03 0.  0.
         13    1    1    2    0    0 -0.42600990383E+01 -0.19727986394E+02  0.68447093069E+02  0.71360756755E+02  0.10566000000E+00 0. -1.
        994    1    1    2    0    0 -0.12143631787E+01 -0.54030364763E+02  0.13728517102E+02  0.18005184580E+03  0.17120000000E+03 0.  0.
        998    1    1    2    0    0  0.54744622170E+01  0.73758351157E+02  0.14178243861E+04  0.14197873974E+04  0.10000000000E+02 0. -1.
</event>
<event>
 5    1  0.1153629E-008  0.3815403E+03  0.7957747E-01  0.3444479E+00
         13   -1    0    0    0    0  0.00000000000E+00  0.00000000000E+00  0.14999999963E+04  0.15000000000E+04  0.10566000000E+00 0. -1.
        994   -1    0    0    0    0 -0.00000000000E+00 -0.00000000000E+00  0.11368683772E-12  0.17120000000E+03  0.17120000000E+03 0.  0.
         13    1    1    2    0    0 -0.97359144573E+01 -0.29672717475E+01  0.13495072288E+02  0.16903279920E+02  0.10566000000E+00 0. -1.
        994    1    1    2    0    0  0.23087045411E+02 -0.72242958740E+00  0.51341800473E+01  0.17282746707E+03  0.17120000000E+03 0.  0.
        998    1    1    2    0    0 -0.13351130953E+02  0.36897013349E+01  0.14813707439E+04  0.14814692530E+04  0.10000000000E+02 0. -1.
</event>
<event>
 5    1  0.1153629E-008  0.3826990E+03  0.7957747E-01  0.3439490E+00
         13   -1    0    0    0    0  0.00000000000E+00  0.00000000000E+00  0.14999999963E+04  0.15000000000E+04  0.10566000000E+00 0. -1.
        994   -1    0    0    0    0 -0.00000000000E+00 -0.00000000000E+00  0.11368683772E-12  0.17120000000E+03  0.17120000000E+03 0.  0.
         13    1    1    2    0    0  0.11155630357E+02 -0.64390161280E+01  0.28292133165E+02  0.31086411507E+02  0.10566000000E+00 0. -1.
        994    1    1    2    0    0 -0.19057877675E+02 -0.31867868949E+01  0.40149174945E+01  0.17233373980E+03  0.17120000000E+03 0.  0.
        998    1    1    2    0    0  0.79022473172E+01  0.96258030229E+01  0.14676929456E+04  0.14677798487E+04  0.10000000000E+02 0. -1.
</event>
<event>
 5    1  0.1153629E-008  0.3758411E+03  0.7957747E-01  0.3469470E+00
         13   -1    0    0    0    0  0.00000000000E+00  0.00000000000E+00  0.14999999963E+04  0.15000000000E+04  0.10566000000E+00 0.  1.
        994   -1    0    0    0    0 -0.00000000000E+00 -0.00000000000E+00  0.11368683772E-12  0.17120000000E+03  0.17120000000E+03 0.  0.
         13    1    1    2    0    0 -0.11721160910E+02 -0.38462077429E+02  0.11995953430E+03  0.12651884463E+03  0.10566000000E+00 0.  1.
        994    1    1    2    0    0  0.14192794945E+02  0.33965069265E+02  0.10854344509E+02  0.17544890468E+03  0.17120000000E+03 0.  0.
        998    1    1    2    0    0 -0.24716340355E+01  0.44970081640E+01  0.13691861175E+04  0.13692322507E+04  0.10000000000E+02 0.  1.
</event>
<event>
 5    1  0.1153629E-008  0.3848792E+03  0.7957747E-01  0.3430185E+00
         13   -1    0    0    0    0  0.00000000000E+00  0.00000000000E+00  0.14999999963E+04  0.15000000000E+04  0.10566000000E+00 0. -1.
        994   -1    0    0    0    0 -0.00000000000E+00 -0.00000000000E+00  0.11368683772E-12  0.17120000000E+03  0.17120000000E+03 0.  0.
         13    1    1    2    0    0 -0.78756207967E+01 -0.66321902231E+01  0.30338023660E+02  0.32037761996E+02  0.10566000000E+00 0. -1.
        994    1    1    2    0    0 -0.37479861618E+01  0.24430676881E+02  0.37025665041E+01  0.17301460739E+03  0.17120000000E+03 0.  0.
        998    1    1    2    0    0  0.11623606958E+02 -0.17798486658E+02  0.14659594061E+04  0.14661476306E+04  0.10000000000E+02 0. -1.
</event>
<event>
 5    1  0.1153629E-008  0.3784182E+03  0.7957747E-01  0.3458075E+00
         13   -1    0    0    0    0  0.00000000000E+00  0.00000000000E+00  0.14999999963E+04  0.15000000000E+04  0.10566000000E+00 0. -1.
        994   -1    0    0    0    0 -0.00000000000E+00 -0.00000000000E+00  0.11368683772E-12  0.17120000000E+03  0.17120000000E+03 0.  0.
         13    1    1    2    0    0 -0.44002073185E+02  0.20508044381E+02  0.21409943736E+03  0.21953437674E+03  0.10566000000E+00 0. -1.
        994    1    1    2    0    0  0.43504520238E+02 -0.77712823147E+01  0.11525113856E+02  0.17718720145E+03  0.17120000000E+03 0.  0.
        998    1    1    2    0    0  0.49755294755E+00 -0.12736762066E+02  0.12743754451E+04  0.12744784218E+04  0.10000000000E+02 0. -1.
</event>
<event>
 5    1  0.1153629E-008  0.3861744E+03  0.7957747E-01  0.3424706E+00
         13   -1    0    0    0    0  0.00000000000E+00  0.00000000000E+00  0.14999999963E+04  0.15000000000E+04  0.10566000000E+00 0.  1.
        994   -1    0    0    0    0 -0.00000000000E+00 -0.00000000000E+00  0.11368683772E-12  0.17120000000E+03  0.17120000000E+03 0.  0.
         13    1    1    2    0    0 -0.51211141637E+01 -0.90502480071E+01  0.50495567588E+02  0.51555274312E+02  0.10566000000E+00 0.  1.
        994    1    1    2    0    0  0.21633836266E+01  0.12896049806E+02  0.16085539801E+01  0.17170619026E+03  0.17120000000E+03 0.  0.
        998    1    1    2    0    0  0.29577305371E+01 -0.38458017985E+01  0.14478958747E+04  0.14479385354E+04  0.10000000000E+02 0.  1.
</event>
<event>
 5    1  0.1153629E-008  0.3687047E+03  0.7957747E-01  0.3501865E+00
         13   -1    0    0    0    0  0.00000000000E+00  0.00000000000E+00  0.14999999963E+04  0.15000000000E+04  0.10566000000E+00 0. -1.
        994   -1    0    0    0    0 -0.00000000000E+00 -0.00000000000E+00  0.11368683772E-12  0.17120000000E+03  0.17120000000E+03 0.  0.
         13    1    1    2    0    0  0.32308716011E+02  0.63154559434E+02  0.20410207552E+03  0.21607873542E+03  0.10566000000E+00 0. -1.
        994    1    1    2    0    0 -0.43361613576E+02 -0.63023990487E+02  0.30909430926E+02  0.19004495739E+03  0.17120000000E+03 0.  0.
        998    1    1    2    0    0  0.11052897565E+02 -0.13056894663E+00  0.12649884898E+04  0.12650763072E+04  0.10000000000E+02 0. -1.
</event>
<event>
 5    1  0.1153629E-008  0.2625816E+03  0.7957747E-01  0.4205624E+00
         13   -1    0    0    0    0  0.00000000000E+00  0.00000000000E+00  0.14999999963E+04  0.15000000000E+04  0.10566000000E+00 0. -1.
        994   -1    0    0    0    0 -0.00000000000E+00 -0.00000000000E+00  0.11368683772E-12  0.17120000000E+03  0.17120000000E+03 0.  0.
         13    1    1    2    0    0 -0.11330470269E+03  0.11440679047E+03  0.57934307311E+03  0.60130298260E+03  0.10566000000E+00 0. -1.
        994    1    1    2    0    0  0.59082627480E+02  0.13534294635E+00  0.47091316226E+02  0.18713045517E+03  0.17120000000E+03 0.  0.
        998    1    1    2    0    0  0.54222075206E+02 -0.11454213341E+03  0.87356560694E+03  0.88276656224E+03  0.10000000000E+02 0. -1.
</event>
<event>
 5    1  0.1153629E-008  0.3768587E+03  0.7957747E-01  0.3464952E+00
         13   -1    0    0    0    0  0.00000000000E+00  0.00000000000E+00  0.14999999963E+04  0.15000000000E+04  0.10566000000E+00 0.  1.
        994   -1    0    0    0    0 -0.00000000000E+00 -0.00000000000E+00  0.11368683772E-12  0.17120000000E+03  0.17120000000E+03 0.  0.
         13    1    1    2    0    0  0.13635566929E+03  0.64166880924E+02  0.79986826553E+03  0.81394072912E+03  0.10566000000E+00 0.  1.
        994    1    1    2    0    0 -0.13646686029E+03 -0.68567859348E+02  0.89078015730E+02  0.24610787915E+03  0.17120000000E+03 0.  0.
        998    1    1    2    0    0  0.11119100682E+00  0.44009784232E+01  0.61105371502E+03  0.61115139173E+03  0.10000000000E+02 0.  0.
</event>
<event>
 5    1  0.1153629E-008  0.3778063E+03  0.7957747E-01  0.3460766E+00
         13   -1    0    0    0    0  0.00000000000E+00  0.00000000000E+00  0.14999999963E+04  0.15000000000E+04  0.10566000000E+00 0. -1.
        994   -1    0    0    0    0 -0.00000000000E+00 -0.00000000000E+00  0.11368683772E-12  0.17120000000E+03  0.17120000000E+03 0.  0.
         13    1    1    2    0    0  0.43102494010E+02 -0.89854680128E+01  0.15596715976E+03  0.16206273388E+03  0.10566000000E+00 0. -1.
        994    1    1    2    0    0 -0.58131274397E+02 -0.12661739426E+02  0.17257645780E+02  0.18206271185E+03  0.17120000000E+03 0.  0.
        998    1    1    2    0    0  0.15028780387E+02  0.21647207439E+02  0.13267751907E+04  0.13270745543E+04  0.10000000000E+02 0. -1.
</event>
<event>
 5    1  0.1153629E-008  0.3851741E+03  0.7957747E-01  0.3428934E+00
         13   -1    0    0    0    0  0.00000000000E+00  0.00000000000E+00  0.14999999963E+04  0.15000000000E+04  0.10566000000E+00 0.  1.
        994   -1    0    0    0    0 -0.00000000000E+00 -0.00000000000E+00  0.11368683772E-12  0.17120000000E+03  0.17120000000E+03 0.  0.
         13    1    1    2    0    0 -0.18220484653E+01 -0.12492218129E+02  0.52021858415E+02  0.53531862394E+02  0.10566000000E+00 0.  1.
        994    1    1    2    0    0 -0.25335183243E+00  0.73760172808E+01  0.17227785534E+01  0.17136766843E+03  0.17120000000E+03 0.  0.
        998    1    1    2    0    0  0.20754002977E+01  0.51162008480E+01  0.14462553593E+04  0.14463004692E+04  0.10000000000E+02 0.  1.
</event>
<event>
 5    1  0.1153629E-008  0.4068191E+03  0.7957747E-01  0.3342097E+00
         13   -1    0    0    0    0  0.00000000000E+00  0.00000000000E+00  0.14999999963E+04  0.15000000000E+04  0.10566000000E+00 0. -1.
        994   -1    0    0    0    0 -0.00000000000E+00 -0.00000000000E+00  0.11368683772E-12  0.17120000000E+03  0.17120000000E+03 0.  0.
         13    1    1    2    0    0  0.42005145451E+02  0.31428843302E+02  0.30519460415E+02  0.60693105570E+02  0.10566000000E+00 0. -1.
        994    1    1    2    0    0 -0.54445680764E+02 -0.17395358422E+02  0.45193562648E+02  0.18606135750E+03  0.17120000000E+03 0.  0.
        998    1    1    2    0    0  0.12440535314E+02 -0.14033484881E+02  0.14242869732E+04  0.14244455369E+04  0.10000000000E+02 0. -1.
</event>
<event>
 5    1  0.1153629E-008  0.3847325E+03  0.7957747E-01  0.3430808E+00
         13   -1    0    0    0    0  0.00000000000E+00  0.00000000000E+00  0.14999999963E+04  0.15000000000E+04  0.10566000000E+00 0.  1.
        994   -1    0    0    0    0 -0.00000000000E+00 -0.00000000000E+00  0.11368683772E-12  0.17120000000E+03  0.17120000000E+03 0.  0.
         13    1    1    2    0    0  0.34522152430E+01  0.17222731135E+02  0.87490250959E+02  0.89236177836E+02  0.10566000000E+00 0.  1.
        994    1    1    2    0    0 -0.73965960021E+01 -0.99373423666E+01  0.22683036405E+01  0.17166259233E+03  0.17120000000E+03 0.  0.
        998    1    1    2    0    0  0.39443807591E+01 -0.72853887679E+01  0.14102414417E+04  0.14103012298E+04  0.10000000000E+02 0.  1.
</event>
<event>
 5    1  0.1153629E-008  0.3833968E+03  0.7957747E-01  0.3436500E+00
         13   -1    0    0    0    0  0.00000000000E+00  0.00000000000E+00  0.14999999963E+04  0.15000000000E+04  0.10566000000E+00 0. -1.
        994   -1    0    0    0    0 -0.00000000000E+00 -0.00000000000E+00  0.11368683772E-12  0.17120000000E+03  0.17120000000E+03 0.  0.
         13    1    1    2    0    0 -0.89335680108E+01 -0.22344399362E+02  0.12447852705E+03  0.12678326262E+03  0.10566000000E+00 0. -1.
        994    1    1    2    0    0  0.36482877230E+01  0.73132224190E+01  0.26490382689E+01  0.17141543288E+03  0.17120000000E+03 0.  0.
        998    1    1    2    0    0  0.52852802878E+01  0.15031176943E+02  0.13728724310E+04  0.13730013045E+04  0.10000000000E+02 0. -1.
</event>
<event>
 5    1  0.1153629E-008  0.3788780E+03  0.7957747E-01  0.3456058E+00
         13   -1    0    0    0    0  0.00000000000E+00  0.00000000000E+00  0.14999999963E+04  0.15000000000E+04  0.10566000000E+00 0. -1.
        994   -1    0    0    0    0 -0.00000000000E+00 -0.00000000000E+00  0.11368683772E-12  0.17120000000E+03  0.17120000000E+03 0.  0.
         13    1    1    2    0    0  0.61079804144E+02 -0.64532988048E+01  0.36686520865E+03  0.37197107417E+03  0.10566000000E+00 0. -1.
        994    1    1    2    0    0 -0.42390620145E+02  0.16747082130E+02  0.11702903205E+02  0.17754950684E+03  0.17120000000E+03 0.  0.
        998    1    1    2    0    0 -0.18689184000E+02 -0.10293783325E+02  0.11214318844E+04  0.11216794190E+04  0.10000000000E+02 0. -1.
</event>
<event>
 5    1  0.1153629E-008  0.3754502E+03  0.7957747E-01  0.3471212E+00
         13   -1    0    0    0    0  0.00000000000E+00  0.00000000000E+00  0.14999999963E+04  0.15000000000E+04  0.10566000000E+00 0.  1.
        994   -1    0    0    0    0 -0.00000000000E+00 -0.00000000000E+00  0.11368683772E-12  0.17120000000E+03  0.17120000000E+03 0.  0.
         13    1    1    2    0    0 -0.29493160258E+02 -0.61232658034E+02  0.37461787024E+03  0.38073329876E+03  0.10566000000E+00 0.  1.
        994    1    1    2    0    0  0.34085372374E+02  0.21212092726E+02  0.11937779247E+02  0.17624901719E+03  0.17120000000E+03 0.  0.
        998    1    1    2    0    0 -0.45922121158E+01  0.40020565308E+02  0.11134443468E+04  0.11142176841E+04  0.10000000000E+02 0.  1.
</event>
<event>
 5    1  0.1153629E-008  0.3722027E+03  0.7957747E-01  0.3485828E+00
         13   -1    0    0    0    0  0.00000000000E+00  0.00000000000E+00  0.14999999963E+04  0.15000000000E+04  0.10566000000E+00 0. -1.
        994   -1    0    0    0    0 -0.00000000000E+00 -0.00000000000E+00  0.11368683772E-12  0.17120000000E+03  0.17120000000E+03 0.  0.
         13    1    1    2    0    0 -0.20502551782E+02 -0.29735771208E+02  0.74270024455E+02  0.82587035396E+02  0.10566000000E+00 0. -1.
        994    1    1    2    0    0  0.21536978426E+02  0.27249924031E+02  0.12273409264E+02  0.17511846383E+03  0.17120000000E+03 0.  0.
        998    1    1    2    0    0 -0.10344266437E+01  0.24858471766E+01  0.14134565626E+04  0.14134945008E+04  0.10000000000E+02 0. -1.
</event>
<event>
 5    1  0.1153629E-008  0.3794199E+03  0.7957747E-01  0.3453688E+00
         13   -1    0    0    0    0  0.00000000000E+00  0.00000000000E+00  0.14999999963E+04  0.15000000000E+04  0.10566000000E+00 0.  1.
        994   -1    0    0    0    0 -0.00000000000E+00 -0.00000000000E+00  0.11368683772E-12  0.17120000000E+03  0.17120000000E+03 0.  0.
         13    1    1    2    0    0 -0.15474421927E+02  0.68570808324E+01  0.29973088947E+02  0.34422006283E+02  0.10566000000E+00 0.  1.
        994    1    1    2    0    0  0.17319589804E+02 -0.60104263354E+01  0.55527604808E+01  0.17226829820E+03  0.17120000000E+03 0.  0.
        998    1    1    2    0    0 -0.18451678770E+01 -0.84665449704E+00  0.14644741469E+04  0.14645096955E+04  0.10000000000E+02 0.  1.
</event>
<event>
 5    1  0.1153629E-008  0.3811061E+03  0.7957747E-01  0.3446356E+00
         13   -1    0    0    0    0  0.00000000000E+00  0.00000000000E+00  0.14999999963E+04  0.15000000000E+04  0.10566000000E+00 0. -1.
        994   -1    0    0    0    0 -0.00000000000E+00 -0.00000000000E+00  0.11368683772E-12  0.17120000000E+03  0.17120000000E+03 0.  0.
         13    1    1    2    0    0  0.36771550720E+02 -0.10462473443E+02  0.19855180452E+03  0.20219901221E+03  0.10566000000E+00 0. -1.
        994    1    1    2    0    0 -0.21121485335E+02  0.18085631668E+02  0.61554643895E+01  0.17355269216E+03  0.17120000000E+03 0.  0.
        998    1    1    2    0    0 -0.15650065385E+02 -0.76231582245E+01  0.12952927274E+04  0.12954482956E+04  0.10000000000E+02 0. -1.
</event>
<event>
 5    1  0.1153629E-008  0.3817386E+03  0.7957747E-01  0.3443623E+00
         13   -1    0    0    0    0  0.00000000000E+00  0.00000000000E+00  0.14999999963E+04  0.15000000000E+04  0.10566000000E+00 0. -1.
        994   -1    0    0    0    0 -0.00000000000E+00 -0.00000000000E+00  0.11368683772E-12  0.17120000000E+03  0.17120000000E+03 0.  0.
         13    1    1    2    0    0  0.41383152473E+01 -0.12218196646E+02  0.24377847793E+02  0.27580801464E+02  0.10566000000E+00 0. -1.
        994    1    1    2    0    0 -0.12546859995E+02  0.37286244262E+01  0.38277245763E+01  0.17174230059E+03  0.17120000000E+03 0.  0.
        998    1    1    2    0    0  0.84085447481E+01  0.84895722193E+01  0.14717944239E+04  0.14718768979E+04  0.10000000000E+02 0. -1.
</event>
<event>
 5    1  0.1153629E-008  0.3809400E+03  0.7957747E-01  0.3447076E+00
         13   -1    0    0    0    0  0.00000000000E+00  0.00000000000E+00  0.14999999963E+04  0.15000000000E+04  0.10566000000E+00 0.  1.
        994   -1    0    0    0    0 -0.00000000000E+00 -0.00000000000E+00  0.11368683772E-12  0.17120000000E+03  0.17120000000E+03 0.  0.
         13    1    1    2    0    0  0.25824425286E+02  0.21519294902E+02  0.15445861382E+03  0.15807420897E+03  0.10566000000E+00 0.  1.
        994    1    1    2    0    0 -0.11378321351E+02 -0.15340888986E+02  0.48760977202E+01  0.17233115041E+03  0.17120000000E+03 0.  0.
        998    1    1    2    0    0 -0.14446103935E+02 -0.61784059158E+01  0.13406652847E+04  0.13407946406E+04  0.10000000000E+02 0.  1.
</event>
<event>
 5    1  0.1153629E-008  0.3727655E+03  0.7957747E-01  0.3483277E+00
         13   -1    0    0    0    0  0.00000000000E+00  0.00000000000E+00  0.14999999963E+04  0.15000000000E+04  0.10566000000E+00 0. -1.
        994   -1    0    0    0    0 -0.00000000000E+00 -0.00000000000E+00  0.11368683772E-12  0.17120000000E+03  0.17120000000E+03 0.  0.
         13    1    1    2    0    0 -0.77122951742E+01  0.17630872740E+02  0.19894731101E+02  0.27679209888E+02  0.10566000000E+00 0. -1.
        994    1    1    2    0    0  0.99207380846E+01 -0.19619168123E+02  0.94878773173E+01  0.17286640107E+03  0.17120000000E+03 0.  0.
        998    1    1    2    0    0 -0.22084429104E+01  0.19882953826E+01  0.14706173879E+04  0.14706543890E+04  0.10000000000E+02 0. -1.
</event>
<event>
 5    1  0.1153629E-008  0.3842671E+03  0.7957747E-01  0.3432787E+00
         13   -1    0    0    0    0  0.00000000000E+00  0.00000000000E+00  0.14999999963E+04  0.15000000000E+04  0.10566000000E+00 0. -1.
        994   -1    0    0    0    0 -0.00000000000E+00 -0.00000000000E+00  0.11368683772E-12  0.17120000000E+03  0.17120000000E+03 0.  0.
         13    1    1    2    0    0  0.13668286687E+02 -0.16999676878E+02  0.11331550425E+03  0.11539595202E+03  0.10566000000E+00 0. -1.
        994    1    1    2    0    0 -0.24733997035E+02  0.62294205408E+01  0.41420103554E+01  0.17313917101E+03  0.17120000000E+03 0.  0.
        998    1    1    2    0    0  0.11065710348E+02  0.10770256337E+02  0.13825424817E+04  0.13826648770E+04  0.10000000000E+02 0. -1.
</event>
<event>
 5    1  0.1153629E-008  0.3817449E+03  0.7957747E-01  0.3443596E+00
         13   -1    0    0    0    0  0.00000000000E+00  0.00000000000E+00  0.14999999963E+04  0.15000000000E+04  0.10566000000E+00 0. -1.
        994   -1    0    0    0    0 -0.00000000000E+00 -0.00000000000E+00  0.11368683772E-12  0.17120000000E+03  0.17120000000E+03 0.  0.
         13    1    1    2    0    0 -0.33679561092E+02  0.17916522787E+01  0.16993729890E+03  0.17325189630E+03  0.10566000000E+00 0. -1.
        994    1    1    2    0    0  0.22355273542E+02 -0.68931267644E+01  0.50760357209E+01  0.17286549566E+03  0.17120000000E+03 0.  0.
        998    1    1    2    0    0  0.11324287550E+02  0.51014744858E+01  0.13249866617E+04  0.13250826080E+04  0.10000000000E+02 0. -1.
</event>
<event>
 5    1  0.1153629E-008  0.3708140E+03  0.7957747E-01  0.3492158E+00
         13   -1    0    0    0    0  0.00000000000E+00  0.00000000000E+00  0.14999999963E+04  0.15000000000E+04  0.10566000000E+00 0.  1.
        994   -1    0    0    0    0 -0.00000000000E+00 -0.00000000000E+00  0.11368683772E-12  0.17120000000E+03  0.17120000000E+03 0.  0.
         13    1    1    2    0    0  0.42228711913E+02 -0.43258522911E+02  0.18006903309E+03  0.18994586533E+03  0.10566000000E+00 0.  1.
        994    1    1    2    0    0 -0.53506988434E+02  0.32374680227E+02  0.22452853536E+02  0.18364282824E+03  0.17120000000E+03 0.  0.
        998    1    1    2    0    0  0.11278276520E+02  0.10883842684E+02  0.12974781097E+04  0.12976113064E+04  0.10000000000E+02 0.  1.
</event>
<event>
 5    1  0.1153629E-008  0.3833173E+03  0.7957747E-01  0.3436840E+00
         13   -1    0    0    0    0  0.00000000000E+00  0.00000000000E+00  0.14999999963E+04  0.15000000000E+04  0.10566000000E+00 0. -1.
        994   -1    0    0    0    0 -0.00000000000E+00 -0.00000000000E+00  0.11368683772E-12  0.17120000000E+03  0.17120000000E+03 0.  0.
         13    1    1    2    0    0  0.14106846355E+02 -0.74536969835E+01  0.52501499828E+02  0.54872391611E+02  0.10566000000E+00 0. -1.
        994    1    1    2    0    0 -0.53548123882E+01 -0.16559127360E+01  0.25717436700E+01  0.17131103271E+03  0.17120000000E+03 0.  0.
        998    1    1    2    0    0 -0.87520339668E+01  0.91096097195E+01  0.14449267528E+04  0.14450165757E+04  0.10000000000E+02 0. -1.
</event>
<event>
 5    1  0.1153629E-008  0.3754554E+03  0.7957747E-01  0.3471189E+00
         13   -1    0    0    0    0  0.00000000000E+00  0.00000000000E+00  0.14999999963E+04  0.15000000000E+04  0.10566000000E+00 0. -1.
        994   -1    0    0    0    0 -0.00000000000E+00 -0.00000000000E+00  0.11368683772E-12  0.17120000000E+03  0.17120000000E+03 0.  0.
         13    1    1    2    0    0 -0.16505564480E+01 -0.10233229086E+03  0.52557737196E+03  0.53544953747E+03  0.10566000000E+00 0. -1.
        994    1    1    2    0    0  0.43928679477E+00  0.10062899571E+03  0.41629086295E+02  0.20290098220E+03  0.17120000000E+03 0.  0.
        998    1    1    2    0    0  0.12112696532E+01  0.17032951444E+01  0.93279353802E+03  0.93284948034E+03  0.10000000000E+02 0.  0.
</event>
<event>
 5    1  0.1153629E-008  0.3837615E+03  0.7957747E-01  0.3434942E+00
         13   -1    0    0    0    0  0.00000000000E+00  0.00000000000E+00  0.14999999963E+04  0.15000000000E+04  0.10566000000E+00 0.  1.
        994   -1    0    0    0    0 -0.00000000000E+00 -0.00000000000E+00  0.11368683772E-12  0.17120000000E+03  0.17120000000E+03 0.  0.
         13    1    1    2    0    0  0.16371160206E+02  0.93627312102E+01  0.74882461935E+02  0.77220916154E+02  0.10566000000E+00 0.  1.
        994    1    1    2    0    0 -0.13785285270E+02 -0.17447031223E+02  0.38805656175E+01  0.17268159073E+03  0.17120000000E+03 0.  0.
        998    1    1    2    0    0 -0.25858749354E+01  0.80843000124E+01  0.14212369687E+04  0.14212974931E+04  0.10000000000E+02 0.  1.
</event>
<event>
 5    1  0.1153629E-008  0.3842034E+03  0.7957747E-01  0.3433058E+00
         13   -1    0    0    0    0  0.00000000000E+00  0.00000000000E+00  0.14999999963E+04  0.15000000000E+04  0.10566000000E+00 0. -1.
        994   -1    0    0    0    0 -0.00000000000E+00 -0.00000000000E+00  0.11368683772E-12  0.17120000000E+03  0.17120000000E+03 0.  0.
         13    1    1    2    0    0 -0.10031874248E+02 -0.12277366669E+02  0.61227924744E+02  0.63247467663E+02  0.10566000000E+00 0. -1.
        994    1    1    2    0    0  0.10945449766E+02  0.61871987666E+01  0.25475309872E+01  0.17167997616E+03  0.17120000000E+03 0.  0.
        998    1    1    2    0    0 -0.91357551795E+00  0.60901679029E+01  0.14362245405E+04  0.14362725562E+04  0.10000000000E+02 0. -1.
</event>
<event>
 5    1  0.1153629E-008  0.3788579E+03  0.7957747E-01  0.3456147E+00
         13   -1    0    0    0    0  0.00000000000E+00  0.00000000000E+00  0.14999999963E+04  0.15000000000E+04  0.10566000000E+00 0.  1.
        994   -1    0    0    0    0 -0.00000000000E+00 -0.00000000000E+00  0.11368683772E-12  0.17120000000E+03  0.17120000000E+03 0.  0.
         13    1    1    2    0    0  0.31879004206E+02 -0.48167187237E+01  0.26125396019E+02  0.41497218818E+02  0.10566000000E+00 0.  1.
        994    1    1    2    0    0 -0.33206595315E+02  0.66122668324E+01  0.19849109402E+02  0.17564118876E+03  0.17120000000E+03 0.  0.
        998    1    1    2    0    0  0.13275911095E+01 -0.17955481087E+01  0.14540254909E+04  0.14540615924E+04  0.10000000000E+02 0.  1.
</event>
<event>
 5    1  0.1153629E-008  0.3765387E+03  0.7957747E-01  0.3466369E+00
         13   -1    0    0    0    0  0.00000000000E+00  0.00000000000E+00  0.14999999963E+04  0.15000000000E+04  0.10566000000E+00 0.  1.
        994   -1    0    0    0    0 -0.00000000000E+00 -0.00000000000E+00  0.11368683772E-12  0.17120000000E+03  0.17120000000E+03 0.  0.
         13    1    1    2    0    0  0.21557561140E+01 -0.11040488369E+02  0.83690464190E+01  0.14021118709E+02  0.10566000000E+00 0.  1.
        994    1    1    2    0    0  0.13170616675E+02 -0.59149580742E+01  0.65958888932E+01  0.17193428286E+03  0.17120000000E+03 0.  0.
        998    1    1    2    0    0 -0.15326372789E+02  0.16955446443E+02  0.14850350610E+04  0.14852445984E+04  0.10000000000E+02 0.  1.
</event>
<event>
 5    1  0.1153629E-008  0.3810211E+03  0.7957747E-01  0.3446724E+00
         13   -1    0    0    0    0  0.00000000000E+00  0.00000000000E+00  0.14999999963E+04  0.15000000000E+04  0.10566000000E+00 0.  1.
        994   -1    0    0    0    0 -0.00000000000E+00 -0.00000000000E+00  0.11368683772E-12  0.17120000000E+03  0.17120000000E+03 0.  0.
         13    1    1    2    0    0 -0.14585846441E+02  0.13090219179E+02  0.53978221213E+02  0.57426128931E+02  0.10566000000E+00 0.  1.
        994    1    1    2    0    0  0.78991974008E+01  0.48529507343E+01  0.39049933383E+01  0.17149529855E+03  0.17120000000E+03 0.  0.
        998    1    1    2    0    0  0.66866490403E+01 -0.17943169913E+02  0.14421167817E+04  0.14422785725E+04  0.10000000000E+02 0.  1.
</event>
<event>
 5    1  0.1153629E-008  0.3723162E+03  0.7957747E-01  0.3485313E+00
         13   -1    0    0    0    0  0.00000000000E+00  0.00000000000E+00  0.14999999963E+04  0.15000000000E+04  0.10566000000E+00 0.  1.
        994   -1    0    0    0    0 -0.00000000000E+00 -0.00000000000E+00  0.11368683772E-12  0.17120000000E+03  0.17120000000E+03 0.  0.
         13    1    1    2    0    0 -0.21249116748E+02  0.91378734899E+01  0.16716856457E+02  0.28539273788E+02  0.10566000000E+00 0.  1.
        994    1    1    2    0    0  0.17566393047E+02 -0.64566010291E+01  0.13404278455E+02  0.17274079004E+03  0.17120000000E+03 0.  0.
        998    1    1    2    0    0  0.36827237012E+01 -0.26812724608E+01  0.14698788614E+04  0.14699199362E+04  0.10000000000E+02 0.  1.
</event>
<event>
 5    1  0.1153629E-008  0.3751428E+03  0.7957747E-01  0.3472584E+00
         13   -1    0    0    0    0  0.00000000000E+00  0.00000000000E+00  0.14999999963E+04  0.15000000000E+04  0.10566000000E+00 0. -1.
        994   -1    0    0    0    0 -0.00000000000E+00 -0.00000000000E+00  0.11368683772E-12  0.17120000000E+03  0.17120000000E+03 0.  0.
         13    1    1    2    0    0  0.12378396916E+02 -0.15493866918E+02  0.27024317754E+02  0.33520285446E+02  0.10566000000E+00 0. -1.
        994    1    1    2    0    0 -0.59316362191E+01  0.12743410668E+02  0.72769754298E+01  0.17193014045E+03  0.17120000000E+03 0.  0.
        998    1    1    2    0    0 -0.64467606969E+01  0.27504562494E+01  0.14656987031E+04  0.14657495741E+04  0.10000000000E+02 0. -1.
</event>
<event>
 5    1  0.1153629E-008  0.3794728E+03  0.7957747E-01  0.3453457E+00
         13   -1    0    0    0    0  0.00000000000E+00  0.00000000000E+00  0.14999999963E+04  0.15000000000E+04  0.10566000000E+00 0. -1.
        994   -1    0    0    0    0 -0.00000000000E+00 -0.00000000000E+00  0.11368683772E-12  0.17120000000E+03  0.17120000000E+03 0.  0.
         13    1    1    2    0    0  0.63080991164E+01 -0.14651056123E+02  0.27073362119E+02  0.31423298051E+02  0.10566000000E+00 0. -1.
        994    1    1    2    0    0 -0.71105442539E+01  0.96935128286E+01  0.48836222908E+01  0.17169104169E+03  0.17120000000E+03 0.  0.
        998    1    1    2    0    0  0.80244513750E+00  0.49575432944E+01  0.14680430119E+04  0.14680856603E+04  0.10000000000E+02 0. -1.
</event>
<event>
 5    1  0.1153629E-008  0.3782854E+03  0.7957747E-01  0.3458658E+00
         13   -1    0    0    0    0  0.00000000000E+00  0.00000000000E+00  0.14999999963E+04  0.15000000000E+04  0.10566000000E+00 0. -1.
        994   -1    0    0    0    0 -0.00000000000E+00 -0.00000000000E+00  0.11368683772E-12  0.17120000000E+03  0.17120000000E+03 0.  0.
         13    1    1    2    0    0  0.65190687104E+01 -0.18148340808E+02  0.35154973919E+02  0.40096681736E+02  0.10566000000E+00 0. -1.
        994    1    1    2    0    0 -0.98645144170E+01  0.10514882085E+02  0.57003397415E+01  0.17190056795E+03  0.17120000000E+03 0.  0.
        998    1    1    2    0    0  0.33454457065E+01  0.76334587224E+01  0.14591446826E+04  0.14592027503E+04  0.10000000000E+02 0. -1.
</event>
<event>
 5    1  0.1153629E-008  0.3717014E+03  0.7957747E-01  0.3488108E+00
         13   -1    0    0    0    0  0.00000000000E+00  0.00000000000E+00  0.14999999963E+04  0.15000000000E+04  0.10566000000E+00 0.  1.
        994   -1    0    0    0    0 -0.00000000000E+00 -0.00000000000E+00  0.11368683772E-12  0.17120000000E+03  0.17120000000E+03 0.  0.
         13    1    1    2    0    0 -0.13929985241E+02 -0.15019539170E+02  0.21472407412E+02  0.29676699442E+02  0.10566000000E+00 0.  1.
        994    1    1    2    0    0  0.69939196855E+01  0.13182393395E+02  0.91483155803E+01  0.17209248120E+03  0.17120000000E+03 0.  0.
        998    1    1    2    0    0  0.69360655556E+01  0.18371457747E+01  0.14693792733E+04  0.14694308194E+04  0.10000000000E+02 0.  1.
</event>
<event>
 5    1  0.1153629E-008  0.3848013E+03  0.7957747E-01  0.3430515E+00
         13   -1    0    0    0    0  0.00000000000E+00  0.00000000000E+00  0.14999999963E+04  0.15000000000E+04  0.10566000000E+00 0.  1.
        994   -1    0    0    0    0 -0.00000000000E+00 -0.00000000000E+00  0.11368683772E-12  0.17120000000E+03  0.17120000000E+03 0.  0.
         13    1    1    2    0    0 -0.13426446956E+02 -0.13774267066E+02  0.98206871331E+02  0.10007297663E+03  0.10566000000E+00 0.  1.
        994    1    1    2    0    0  0.18700370831E+02  0.14816264997E+02  0.36042320429E+01  0.17289203587E+03  0.17120000000E+03 0.  0.
        998    1    1    2    0    0 -0.52739238745E+01 -0.10419979315E+01  0.13981888929E+04  0.13982349875E+04  0.10000000000E+02 0.  1.
</event>
<event>
 5    1  0.1153629E-008  0.3781957E+03  0.7957747E-01  0.3459053E+00
         13   -1    0    0    0    0  0.00000000000E+00  0.00000000000E+00  0.14999999963E+04  0.15000000000E+04  0.10566000000E+00 0. -1.
        994   -1    0    0    0    0 -0.00000000000E+00 -0.00000000000E+00  0.11368683772E-12  0.17120000000E+03  0.17120000000E+03 0.  0.
         13    1    1    2    0    0  0.15102716683E+02 -0.54257246426E+02  0.33371265888E+03  0.33843181101E+03  0.10566000000E+00 0. -1.
        994    1    1    2    0    0  0.29159160278E+02  0.36986748426E+02  0.12543268665E+02  0.17800294878E+03  0.17120000000E+03 0.  0.
        998    1    1    2    0    0 -0.44261876962E+02  0.17270498000E+02  0.11537440687E+04  0.11547652402E+04  0.10000000000E+02 0. -1.
</event>
<event>
 5    1  0.1153629E-008  0.3778224E+03  0.7957747E-01  0.3460695E+00
         13   -1    0    0    0    0  0.00000000000E+00  0.00000000000E+00  0.14999999963E+04  0.15000000000E+04  0.10566000000E+00 0.  1.
        994   -1    0    0    0    0 -0.00000000000E+00 -0.00000000000E+00  0.11368683772E-12  0.17120000000E+03  0.17120000000E+03 0.  0.
         13    1    1    2    0    0  0.17035336557E+02  0.52832587816E+01  0.27976335686E+02  0.33178336869E+02  0.10566000000E+00 0.  1.
        994    1    1    2    0    0 -0.11904476813E+02 -0.13481090074E+02  0.63263058859E+01  0.17225829009E+03  0.17120000000E+03 0.  0.
        998    1    1    2    0    0 -0.51308597441E+01  0.81978312923E+01  0.14656973547E+04  0.14657633730E+04  0.10000000000E+02 0.  1.
</event>
<event>
 5    1  0.1153629E-008  0.3759752E+03  0.7957747E-01  0.3468873E+00
         13   -1    0    0    0    0  0.00000000000E+00  0.00000000000E+00  0.14999999963E+04  0.15000000000E+04  0.10566000000E+00 0.  1.
        994   -1    0    0    0    0 -0.00000000000E+00 -0.00000000000E+00  0.11368683772E-12  0.17120000000E+03  0.17120000000E+03 0.  0.
         13    1    1    2    0    0  0.14271640643E+02  0.13124910295E+02  0.25495459309E+02  0.32030807144E+02  0.10566000000E+00 0.  1.
        994    1    1    2    0    0 -0.54877458248E+02 -0.82013574032E+01  0.16682195385E+02  0.18073885396E+03  0.17120000000E+03 0.  0.
        998    1    1    2    0    0  0.40605817605E+02 -0.49235528920E+01  0.14578223416E+04  0.14584303389E+04  0.10000000000E+02 0.  1.
</event>
<event>
 5    1  0.1153629E-008  0.3712411E+03  0.7957747E-01  0.3490206E+00
         13   -1    0    0    0    0  0.00000000000E+00  0.00000000000E+00  0.14999999963E+04  0.15000000000E+04  0.10566000000E+00 0.  1.
        994   -1    0    0    0    0 -0.00000000000E+00 -0.00000000000E+00  0.11368683772E-12  0.17120000000E+03  0.17120000000E+03 0.  0.
         13    1    1    2    0    0 -0.10353630133E+03 -0.12550004478E+03  0.81179408512E+03  0.82793699925E+03  0.10566000000E+00 0.  1.
        994    1    1    2    0    0  0.82783031921E+02  0.12294893130E+03  0.88529128883E+02  0.24313847236E+03  0.17120000000E+03 0.  0.
        998    1    1    2    0    0  0.20753269405E+02  0.25511134784E+01  0.59967678228E+03  0.60012452839E+03  0.10000000000E+02 0. -1.
</event>
<event>
 5    1  0.1153629E-008  0.3841587E+03  0.7957747E-01  0.3433248E+00
         13   -1    0    0    0    0  0.00000000000E+00  0.00000000000E+00  0.14999999963E+04  0.15000000000E+04  0.10566000000E+00 0. -1.
        994   -1    0    0    0    0 -0.00000000000E+00 -0.00000000000E+00  0.11368683772E-12  0.17120000000E+03  0.17120000000E+03 0.  0.
         13    1    1    2    0    0 -0.18578267069E+02  0.12519503312E+00  0.86086032465E+02  0.88068063625E+02  0.10566000000E+00 0. -1.
        994    1    1    2    0    0  0.79654485293E+01  0.20171494851E+01  0.22710852217E+01  0.17141212061E+03  0.17120000000E+03 0.  0.
        998    1    1    2    0    0  0.10612818539E+02 -0.21423445182E+01  0.14116428786E+04  0.14117198158E+04  0.10000000000E+02 0. -1.
</event>
<event>
 5    1  0.1153629E-008  0.3777326E+03  0.7957747E-01  0.3461091E+00
         13   -1    0    0    0    0  0.00000000000E+00  0.00000000000E+00  0.14999999963E+04  0.15000000000E+04  0.10566000000E+00 0.  1.
        994   -1    0    0    0    0 -0.00000000000E+00 -0.00000000000E+00  0.11368683772E-12  0.17120000000E+03  0.17120000000E+03 0.  0.
         13    1    1    2    0    0  0.32616182886E+02  0.22131750837E+02  0.16010445004E+03  0.16488503833E+03  0.10566000000E+00 0.  1.
        994    1    1    2    0    0 -0.40688783271E+01 -0.61264174729E+01  0.54643194768E+01  0.17144499861E+03  0.17120000000E+03 0.  0.
        998    1    1    2    0    0 -0.28547304559E+02 -0.16005333364E+02  0.13344312268E+04  0.13348699631E+04  0.10000000000E+02 0.  1.
</event>
<event>
 5    1  0.1153629E-008  0.3833111E+03  0.7957747E-01  0.3436867E+00
         13   -1    0    0    0    0  0.00000000000E+00  0.00000000000E+00  0.14999999963E+04  0.15000000000E+04  0.10566000000E+00 0. -1.
        994   -1    0    0    0    0 -0.00000000000E+00 -0.00000000000E+00  0.11368683772E-12  0.17120000000E+03  0.17120000000E+03 0.  0.
         13    1    1    2    0    0  0.15919048900E+02  0.10006937516E+02  0.73409138176E+02  0.75779071306E+02  0.10566000000E+00 0. -1.
        994    1    1    2    0    0 -0.34757301821E+01 -0.53608933498E+01  0.26059798056E+01  0.17133899442E+03  0.17120000000E+03 0.  0.
        998    1    1    2    0    0 -0.12443318718E+02 -0.46460441666E+01  0.14239848783E+04  0.14240819343E+04  0.10000000000E+02 0. -1.
</event>
<event>
 5    1  0.1153629E-008  0.3798993E+03  0.7957747E-01  0.3451597E+00
         13   -1    0    0    0    0  0.00000000000E+00  0.00000000000E+00  0.14999999963E+04  0.15000000000E+04  0.10566000000E+00 0.  1.
        994   -1    0    0    0    0 -0.00000000000E+00 -0.00000000000E+00  0.11368683772E-12  0.17120000000E+03  0.17120000000E+03 0.  0.
         13    1    1    2    0    0 -0.14050442940E+02 -0.27930090128E+02  0.16656027872E+03  0.16946929661E+03  0.10566000000E+00 0.  1.
        994    1    1    2    0    0  0.31400308331E+02 -0.48894147168E+02  0.15559333838E+02  0.18146115248E+03  0.17120000000E+03 0.  0.
        998    1    1    2    0    0 -0.17349865391E+02  0.76824237296E+02  0.13178803837E+04  0.13202695509E+04  0.10000000000E+02 0.  1.
</event>
<event>
 5    1  0.1153629E-008  0.3828845E+03  0.7957747E-01  0.3438694E+00
         13   -1    0    0    0    0  0.00000000000E+00  0.00000000000E+00  0.14999999963E+04  0.15000000000E+04  0.10566000000E+00 0. -1.
        994   -1    0    0    0    0 -0.00000000000E+00 -0.00000000000E+00  0.11368683772E-12  0.17120000000E+03  0.17120000000E+03 0.  0.
         13    1    1    2    0    0 -0.96059360708E+01  0.20239193813E+02  0.84417307946E+02  0.87339521518E+02  0.10566000000E+00 0. -1.
        994    1    1    2    0    0  0.19838244228E+02 -0.24524849815E+02  0.59859935538E+01  0.17418466153E+03  0.17120000000E+03 0.  0.
        998    1    1    2    0    0 -0.10232308157E+02  0.42856560023E+01  0.14095966948E+04  0.14096758170E+04  0.10000000000E+02 0. -1.
</event>
<event>
 5    1  0.1153629E-008  0.3831094E+03  0.7957747E-01  0.3437730E+00
         13   -1    0    0    0    0  0.00000000000E+00  0.00000000000E+00  0.14999999963E+04  0.15000000000E+04  0.10566000000E+00 0.  1.
        994   -1    0    0    0    0 -0.00000000000E+00 -0.00000000000E+00  0.11368683772E-12  0.17120000000E+03  0.17120000000E+03 0.  0.
         13    1    1    2    0    0 -0.94228149654E+01  0.55440315051E+01  0.22014350377E+02  0.24579839580E+02  0.10566000000E+00 0.  1.
        994    1    1    2    0    0  0.11289228538E+02 -0.40909843395E+01  0.30489405393E+01  0.17164765909E+03  0.17120000000E+03 0.  0.
        998    1    1    2    0    0 -0.18664135727E+01 -0.14530471656E+01  0.14749367054E+04  0.14749725013E+04  0.10000000000E+02 0.  1.
</event>
<event>
 5    1  0.1153629E-008  0.3455410E+03  0.7957747E-01  0.3616450E+00
         13   -1    0    0    0    0  0.00000000000E+00  0.00000000000E+00  0.14999999963E+04  0.15000000000E+04  0.10566000000E+00 0. -1.
        994   -1    0    0    0    0 -0.00000000000E+00 -0.00000000000E+00  0.11368683772E-12  0.17120000000E+03  0.17120000000E+03 0.  0.
         13    1    1    2    0    0 -0.20044054239E+03 -0.98901020050E+02  0.95447518557E+03  0.98029623780E+03  0.10566000000E+00 0. -1.
        994    1    1    2    0    0  0.18994397299E+03  0.90230062951E+02  0.18107815562E+03  0.32606581479E+03  0.17120000000E+03 0.  0.
        998    1    1    2    0    0  0.10496569400E+02  0.86709570987E+01  0.36444665509E+03  0.36483794741E+03  0.10000000000E+02 0. -1.
</event>
<event>
 5    1  0.1153629E-008  0.3827181E+03  0.7957747E-01  0.3439408E+00
         13   -1    0    0    0    0  0.00000000000E+00  0.00000000000E+00  0.14999999963E+04  0.15000000000E+04  0.10566000000E+00 0.  1.
        994   -1    0    0    0    0 -0.00000000000E+00 -0.00000000000E+00  0.11368683772E-12  0.17120000000E+03  0.17120000000E+03 0.  0.
         13    1    1    2    0    0  0.64183242750E+01  0.23595571924E+02  0.11461263260E+03  0.11719220374E+03  0.10566000000E+00 0.  1.
        994    1    1    2    0    0  0.57238060116E+01 -0.67593266096E+01  0.30272707632E+01  0.17145569346E+03  0.17120000000E+03 0.  0.
        998    1    1    2    0    0 -0.12142130287E+02 -0.16836245314E+02  0.13823600929E+04  0.13825521028E+04  0.10000000000E+02 0.  1.
</event>
<event>
 5    1  0.1153629E-008  0.3685566E+03  0.7957747E-01  0.3502551E+00
         13   -1    0    0    0    0  0.00000000000E+00  0.00000000000E+00  0.14999999963E+04  0.15000000000E+04  0.10566000000E+00 0. -1.
        994   -1    0    0    0    0 -0.00000000000E+00 -0.00000000000E+00  0.11368683772E-12  0.17120000000E+03  0.17120000000E+03 0.  0.
         13    1    1    2    0    0  0.31485814388E+02 -0.27057944077E+02  0.75644770379E+02  0.86288071569E+02  0.10566000000E+00 0. -1.
        994    1    1    2    0    0 -0.38360772879E+02  0.28648790559E+02  0.18193965335E+02  0.17869740477E+03  0.17120000000E+03 0.  0.
        998    1    1    2    0    0  0.68749584911E+01 -0.15908464818E+01  0.14061612606E+04  0.14062145237E+04  0.10000000000E+02 0. -1.
</event>
<event>
 5    1  0.1153629E-008  0.3817867E+03  0.7957747E-01  0.3443416E+00
         13   -1    0    0    0    0  0.00000000000E+00  0.00000000000E+00  0.14999999963E+04  0.15000000000E+04  0.10566000000E+00 0.  1.
        994   -1    0    0    0    0 -0.00000000000E+00 -0.00000000000E+00  0.11368683772E-12  0.17120000000E+03  0.17120000000E+03 0.  0.
         13    1    1    2    0    0 -0.14322815438E+02  0.10793998788E+02  0.48196736372E+02  0.51425577419E+02  0.10566000000E+00 0.  1.
        994    1    1    2    0    0  0.11929341467E+02 -0.72365888346E+01  0.38811867583E+01  0.17181146940E+03  0.17120000000E+03 0.  0.
        998    1    1    2    0    0  0.23934739710E+01 -0.35574099534E+01  0.14479220731E+04  0.14479629532E+04  0.10000000000E+02 0.  1.
</event>
<event>
 5    1  0.1153629E-008  0.3691223E+03  0.7957747E-01  0.3499935E+00
         13   -1    0    0    0    0  0.00000000000E+00  0.00000000000E+00  0.14999999963E+04  0.15000000000E+04  0.10566000000E+00 0.  1.
        994   -1    0    0    0    0 -0.00000000000E+00 -0.00000000000E+00  0.11368683772E-12  0.17120000000E+03  0.17120000000E+03 0.  0.
         13    1    1    2    0    0  0.30060532975E+02 -0.49204251670E+02  0.29994999922E+03  0.30544182297E+03  0.10566000000E+00 0.  1.
        994    1    1    2    0    0  0.30922404719E+01 -0.53938078871E+02  0.19920888397E+02  0.18062436186E+03  0.17120000000E+03 0.  0.
        998    1    1    2    0    0 -0.33152773447E+02  0.10314233054E+03  0.11801291087E+04  0.11851338152E+04  0.10000000000E+02 0.  1.
</event>
<event>
 5    1  0.1153629E-008  0.2889242E+03  0.7957747E-01  0.3978407E+00
         13   -1    0    0    0    0  0.00000000000E+00  0.00000000000E+00  0.14999999963E+04  0.15000000000E+04  0.10566000000E+00 0. -1.
        994   -1    0    0    0    0 -0.00000000000E+00 -0.00000000000E+00  0.11368683772E-12  0.17120000000E+03  0.17120000000E+03 0.  0.
         13    1    1    2    0    0 -0.14084145251E+03 -0.18386291249E+03  0.67524355551E+03  0.71385975917E+03  0.10566000000E+00 0. -1.
        994    1    1    2    0    0  0.23914910288E+01  0.16431269993E+03  0.18088118825E+03  0.29838201495E+03  0.17120000000E+03 0.  0.
        998    1    1    2    0    0  0.13844996148E+03  0.19550212566E+02  0.64387525252E+03  0.65895822588E+03  0.10000000000E+02 0.  1.
</event>
<event>
 5    1  0.1153629E-008  0.4100149E+03  0.7957747E-01  0.3330048E+00
         13   -1    0    0    0    0  0.00000000000E+00  0.00000000000E+00  0.14999999963E+04  0.15000000000E+04  0.10566000000E+00 0.  1.
        994   -1    0    0    0    0 -0.00000000000E+00 -0.00000000000E+00  0.11368683772E-12  0.17120000000E+03  0.17120000000E+03 0.  0.
         13    1    1    2    0    0  0.35917734104E+02 -0.63659759890E+01  0.64176900065E+01  0.37037915472E+02  0.10566000000E+00 0.  1.
        994    1    1    2    0    0 -0.21984335379E+02 -0.17010918242E+02  0.37067503832E+02  0.17735873867E+03  0.17120000000E+03 0.  0.
        998    1    1    2    0    0 -0.13933398725E+02  0.23376894231E+02  0.14565148024E+04  0.14568033459E+04  0.10000000000E+02 0.  1.
</event>
<event>
 5    1  0.1153629E-008  0.3783925E+03  0.7957747E-01  0.3458188E+00
         13   -1    0    0    0    0  0.00000000000E+00  0.00000000000E+00  0.14999999963E+04  0.15000000000E+04  0.10566000000E+00 0.  1.
        994   -1    0    0    0    0 -0.00000000000E+00 -0.00000000000E+00  0.11368683772E-12  0.17120000000E+03  0.17120000000E+03 0.  0.
         13    1    1    2    0    0  0.12825272743E+02  0.95563564561E+01  0.24951676872E+02  0.29637964039E+02  0.10566000000E+00 0.  1.
        994    1    1    2    0    0  0.32181543714E+01  0.61808484387E+01  0.51100219939E+01  0.17141794460E+03  0.17120000000E+03 0.  0.
        998    1    1    2    0    0 -0.16043427114E+02 -0.15737204895E+02  0.14699382974E+04  0.14701440914E+04  0.10000000000E+02 0.  1.
</event>
<event>
 5    1  0.1153629E-008  0.3703370E+03  0.7957747E-01  0.3494343E+00
         13   -1    0    0    0    0  0.00000000000E+00  0.00000000000E+00  0.14999999963E+04  0.15000000000E+04  0.10566000000E+00 0.  1.
        994   -1    0    0    0    0 -0.00000000000E+00 -0.00000000000E+00  0.11368683772E-12  0.17120000000E+03  0.17120000000E+03 0.  0.
         13    1    1    2    0    0  0.96827407151E+01  0.11092549429E+02  0.78251850891E+01  0.16674675598E+02  0.10566000000E+00 0.  1.
        994    1    1    2    0    0 -0.67813778452E+01 -0.78230411363E+01  0.94632841576E+01  0.17177363245E+03  0.17120000000E+03 0.  0.
        998    1    1    2    0    0 -0.29013628699E+01 -0.32695082930E+01  0.14827115270E+04  0.14827516920E+04  0.10000000000E+02 0.  1.
</event>
<event>
 5    1  0.1153629E-008  0.3844458E+03  0.7957747E-01  0.3432026E+00
         13   -1    0    0    0    0  0.00000000000E+00  0.00000000000E+00  0.14999999963E+04  0.15000000000E+04  0.10566000000E+00 0.  1.
        994   -1    0    0    0    0 -0.00000000000E+00 -0.00000000000E+00  0.11368683772E-12  0.17120000000E+03  0.17120000000E+03 0.  0.
         13    1    1    2    0    0  0.60232873346E+01 -0.14915766154E+02  0.60938305296E+02  0.63025774780E+02  0.10566000000E+00 0.  1.
        994    1    1    2    0    0 -0.11386486019E+02  0.26795826585E+02  0.47032460536E+01  0.17372169959E+03  0.17120000000E+03 0.  0.
        998    1    1    2    0    0  0.53631986843E+01 -0.11880060430E+02  0.14343584449E+04  0.14344525256E+04  0.10000000000E+02 0.  1.
</event>
<event>
 5    1  0.1153629E-008  0.3818699E+03  0.7957747E-01  0.3443057E+00
         13   -1    0    0    0    0  0.00000000000E+00  0.00000000000E+00  0.14999999963E+04  0.15000000000E+04  0.10566000000E+00 0. -1.
        994   -1    0    0    0    0 -0.00000000000E+00 -0.00000000000E+00  0.11368683772E-12  0.17120000000E+03  0.17120000000E+03 0.  0.
         13    1    1    2    0    0  0.15909551432E+02  0.22024481695E+01  0.38684641740E+02  0.41886480818E+02  0.10566000000E+00 0. -1.
        994    1    1    2    0    0 -0.14080773591E+02 -0.60109734673E+01  0.39713567467E+01  0.17192908905E+03  0.17120000000E+03 0.  0.
        998    1    1    2    0    0 -0.18287778414E+01  0.38085252978E+01  0.14573439978E+04  0.14573844301E+04  0.10000000000E+02 0. -1.
</event>
<event>
 5    1  0.1153629E-008  0.3817742E+03  0.7957747E-01  0.3443469E+00
         13   -1    0    0    0    0  0.00000000000E+00  0.00000000000E+00  0.14999999963E+04  0.15000000000E+04  0.10566000000E+00 0.  1.
        994   -1    0    0    0    0 -0.00000000000E+00 -0.00000000000E+00  0.11368683772E-12  0.17120000000E+03  0.17120000000E+03 0.  0.
         13    1    1    2    0    0 -0.38513501453E+00  0.11716252560E+02  0.19866565878E+02  0.23067520605E+02  0.10566000000E+00 0.  1.
        994    1    1    2    0    0 -0.59234669789E+01 -0.92152436126E+01  0.36391375030E+01  0.17158872777E+03  0.17120000000E+03 0.  0.
        998    1    1    2    0    0  0.63086019934E+01 -0.25010089474E+01  0.14764942929E+04  0.14765437516E+04  0.10000000000E+02 0.  1.
</event>
<event>
 5    1  0.1153629E-008  0.3801765E+03  0.7957747E-01  0.3450390E+00
         13   -1    0    0    0    0  0.00000000000E+00  0.00000000000E+00  0.14999999963E+04  0.15000000000E+04  0.10566000000E+00 0.  1.
        994   -1    0    0    0    0 -0.00000000000E+00 -0.00000000000E+00  0.11368683772E-12  0.17120000000E+03  0.17120000000E+03 0.  0.
         13    1    1    2    0    0 -0.35033974872E+02  0.45183544061E+02  0.32934033764E+03  0.33426636267E+03  0.10566000000E+00 0.  1.
        994    1    1    2    0    0  0.32211703546E+02 -0.42502386183E+02  0.13605105291E+02  0.17982932343E+03  0.17120000000E+03 0.  0.
        998    1    1    2    0    0  0.28222713255E+01 -0.26811578777E+01  0.11570545533E+04  0.11571043139E+04  0.10000000000E+02 0.  1.
</event>
<event>
 5    1  0.1153629E-008  0.3799591E+03  0.7957747E-01  0.3451337E+00
         13   -1    0    0    0    0  0.00000000000E+00  0.00000000000E+00  0.14999999963E+04  0.15000000000E+04  0.10566000000E+00 0.  1.
        994   -1    0    0    0    0 -0.00000000000E+00 -0.00000000000E+00  0.11368683772E-12  0.17120000000E+03  0.17120000000E+03 0.  0.
         13    1    1    2    0    0  0.30798509819E+02 -0.52217775680E+02  0.25882059327E+03  0.26582579816E+03  0.10566000000E+00 0.  1.
        994    1    1    2    0    0 -0.62181776945E+02  0.82233965506E+02  0.40550499330E+02  0.20391856576E+03  0.17120000000E+03 0.  0.
        998    1    1    2    0    0  0.31383267126E+02 -0.30016189826E+02  0.12006289037E+04  0.12014556361E+04  0.10000000000E+02 0.  1.
</event>
<event>
 5    1  0.1153629E-008  0.3845020E+03  0.7957747E-01  0.3431787E+00
         13   -1    0    0    0    0  0.00000000000E+00  0.00000000000E+00  0.14999999963E+04  0.15000000000E+04  0.10566000000E+00 0.  1.
        994   -1    0    0    0    0 -0.00000000000E+00 -0.00000000000E+00  0.11368683772E-12  0.17120000000E+03  0.17120000000E+03 0.  0.
         13    1    1    2    0    0 -0.58482039261E+02 -0.39415179946E+02  0.13787792066E+03  0.15486780652E+03  0.10566000000E+00 0.  1.
        994    1    1    2    0    0 -0.20329361020E+02  0.66689513560E+02  0.36959781666E+02  0.18851058219E+03  0.17120000000E+03 0.  0.
        998    1    1    2    0    0  0.78811400281E+02 -0.27274333614E+02  0.13251622940E+04  0.13278216113E+04  0.10000000000E+02 0.  1.
</event>
<event>
 5    1  0.1153629E-008  0.3743281E+03  0.7957747E-01  0.3476233E+00
         13   -1    0    0    0    0  0.00000000000E+00  0.00000000000E+00  0.14999999963E+04  0.15000000000E+04  0.10566000000E+00 0. -1.
        994   -1    0    0    0    0 -0.00000000000E+00 -0.00000000000E+00  0.11368683772E-12  0.17120000000E+03  0.17120000000E+03 0.  0.
         13    1    1    2    0    0 -0.90941983230E+01 -0.12390067366E+02  0.14018566141E+02  0.20802633803E+02  0.10566000000E+00 0. -1.
        994    1    1    2    0    0 -0.43014341646E+01  0.52002703467E+01  0.71793377279E+01  0.17148331708E+03  0.17120000000E+03 0.  0.
        998    1    1    2    0    0  0.13395632488E+02  0.71897970189E+01  0.14788020924E+04  0.14789140491E+04  0.10000000000E+02 0. -1.
</event>
<event>
 5    1  0.1153629E-008  0.3732140E+03  0.7957747E-01  0.3481249E+00
         13   -1    0    0    0    0  0.00000000000E+00  0.00000000000E+00  0.14999999963E+04  0.15000000000E+04  0.10566000000E+00 0. -1.
        994   -1    0    0    0    0 -0.00000000000E+00 -0.00000000000E+00  0.11368683772E-12  0.17120000000E+03  0.17120000000E+03 0.  0.
         13    1    1    2    0    0 -0.77346339275E+00  0.44938590452E+02  0.14936004011E+03  0.15597598502E+03  0.10566000000E+00 0. -1.
        994    1    1    2    0    0 -0.53664195902E+01  0.64118986896E+00  0.76986639194E+01  0.17145821360E+03  0.17120000000E+03 0.  0.
        998    1    1    2    0    0  0.61398829830E+01 -0.45579780321E+02  0.13429412923E+04  0.13437658014E+04  0.10000000000E+02 0. -1.
</event>
<event>
 5    1  0.1153629E-008  0.3830543E+03  0.7957747E-01  0.3437966E+00
         13   -1    0    0    0    0  0.00000000000E+00  0.00000000000E+00  0.14999999963E+04  0.15000000000E+04  0.10566000000E+00 0.  1.
        994   -1    0    0    0    0 -0.00000000000E+00 -0.00000000000E+00  0.11368683772E-12  0.17120000000E+03  0.17120000000E+03 0.  0.
         13    1    1    2    0    0  0.10604659862E+02  0.11101850029E+02  0.44757310425E+02  0.47317416300E+02  0.10566000000E+00 0.  1.
        994    1    1    2    0    0 -0.49350982513E+01 -0.79247294435E+01  0.28877432659E+01  0.17147867387E+03  0.17120000000E+03 0.  0.
        998    1    1    2    0    0 -0.56695616109E+01 -0.31771205860E+01  0.14523549426E+04  0.14524039098E+04  0.10000000000E+02 0.  1.
</event>
<event>
 5    1  0.1153629E-008  0.3813200E+03  0.7957747E-01  0.3445431E+00
         13   -1    0    0    0    0  0.00000000000E+00  0.00000000000E+00  0.14999999963E+04  0.15000000000E+04  0.10566000000E+00 0.  1.
        994   -1    0    0    0    0 -0.00000000000E+00 -0.00000000000E+00  0.11368683772E-12  0.17120000000E+03  0.17120000000E+03 0.  0.
         13    1    1    2    0    0  0.62150432954E+01  0.28021027576E+02  0.10898739457E+03  0.11270345198E+03  0.10566000000E+00 0.  1.
        994    1    1    2    0    0 -0.25555684155E+02 -0.26064299973E+02  0.79159204557E+01  0.17522711697E+03  0.17120000000E+03 0.  0.
        998    1    1    2    0    0  0.19340640860E+02 -0.19567276031E+01  0.13830966813E+04  0.13832694310E+04  0.10000000000E+02 0.  1.
</event>
<event>
 5    1  0.1153629E-008  0.3764353E+03  0.7957747E-01  0.3466828E+00
         13   -1    0    0    0    0  0.00000000000E+00  0.00000000000E+00  0.14999999963E+04  0.15000000000E+04  0.10566000000E+00 0.  1.
        994   -1    0    0    0    0 -0.00000000000E+00 -0.00000000000E+00  0.11368683772E-12  0.17120000000E+03  0.17120000000E+03 0.  0.
         13    1    1    2    0    0 -0.49292050848E+02 -0.80077478288E+01  0.22274059160E+03  0.22827004318E+03  0.10566000000E+00 0.  1.
        994    1    1    2    0    0  0.18317607457E+02  0.24127721614E+01  0.70990794034E+01  0.17234034101E+03  0.17120000000E+03 0.  0.
        998    1    1    2    0    0  0.30974443391E+02  0.55949756674E+01  0.12701603253E+04  0.12705896158E+04  0.10000000000E+02 0.  1.
</event>
<event>
 5    1  0.1153629E-008  0.3828575E+03  0.7957747E-01  0.3438810E+00
         13   -1    0    0    0    0  0.00000000000E+00  0.00000000000E+00  0.14999999963E+04  0.15000000000E+04  0.10566000000E+00 0. -1.
        994   -1    0    0    0    0 -0.00000000000E+00 -0.00000000000E+00  0.11368683772E-12  0.17120000000E+03  0.17120000000E+03 0.  0.
         13    1    1    2    0    0  0.54441563618E+01  0.20817529936E+02  0.10415258491E+03  0.10635215324E+03  0.10566000000E+00 0. -1.
        994    1    1    2    0    0 -0.46984801796E+01  0.19084397711E+02  0.39779027456E+01  0.17237039671E+03  0.17120000000E+03 0.  0.
        998    1    1    2    0    0 -0.74567618215E+00 -0.39901927648E+02  0.13918695086E+04  0.13924774501E+04  0.10000000000E+02 0. -1.
</event>
<event>
 5    1  0.1153629E-008  0.3852644E+03  0.7957747E-01  0.3428552E+00
         13   -1    0    0    0    0  0.00000000000E+00  0.00000000000E+00  0.14999999963E+04  0.15000000000E+04  0.10566000000E+00 0.  1.
        994   -1    0    0    0    0 -0.00000000000E+00 -0.00000000000E+00  0.11368683772E-12  0.17120000000E+03  0.17120000000E+03 0.  0.
         13    1    1    2    0    0  0.15378003374E+02  0.57324162896E+01  0.89005191036E+02  0.90505683687E+02  0.10566000000E+00 0.  1.
        994    1    1    2    0    0 -0.10758980506E+02 -0.60221549895E+01  0.19986264019E+01  0.17165505096E+03  0.17120000000E+03 0.  0.
        998    1    1    2    0    0 -0.46190228680E+01  0.28973869995E+00  0.14089961788E+04  0.14090392654E+04  0.10000000000E+02 0.  1.
</event>
<event>
 5    1  0.1153629E-008  0.3754483E+03  0.7957747E-01  0.3471220E+00
         13   -1    0    0    0    0  0.00000000000E+00  0.00000000000E+00  0.14999999963E+04  0.15000000000E+04  0.10566000000E+00 0. -1.
        994   -1    0    0    0    0 -0.00000000000E+00 -0.00000000000E+00  0.11368683772E-12  0.17120000000E+03  0.17120000000E+03 0.  0.
         13    1    1    2    0    0 -0.73414659357E+02 -0.40316628664E+02  0.44022195039E+03  0.44811886762E+03  0.10566000000E+00 0. -1.
        994    1    1    2    0    0  0.74888360806E+02  0.11457009469E+02  0.26185212214E+02  0.18903606796E+03  0.17120000000E+03 0.  0.
        998    1    1    2    0    0 -0.14737014492E+01  0.28859619195E+02  0.10335928337E+04  0.10340450644E+04  0.10000000000E+02 0. -1.
</event>
<event>
 5    1  0.1153629E-008  0.3806585E+03  0.7957747E-01  0.3448296E+00
         13   -1    0    0    0    0  0.00000000000E+00  0.00000000000E+00  0.14999999963E+04  0.15000000000E+04  0.10566000000E+00 0.  1.
        994   -1    0    0    0    0 -0.00000000000E+00 -0.00000000000E+00  0.11368683772E-12  0.17120000000E+03  0.17120000000E+03 0.  0.
         13    1    1    2    0    0 -0.18197058874E+02  0.24843136426E+02  0.13332363901E+03  0.13683390757E+03  0.10566000000E+00 0.  1.
        994    1    1    2    0    0 -0.18194478809E+00 -0.76725584476E+01  0.39976115428E+01  0.17141855837E+03  0.17120000000E+03 0.  0.
        998    1    1    2    0    0  0.18379003662E+02 -0.17170577979E+02  0.13626787457E+04  0.13629475341E+04  0.10000000000E+02 0.  1.
</event>
<event>
 5    1  0.1153629E-008  0.2843956E+03  0.7957747E-01  0.4014129E+00
         13   -1    0    0    0    0  0.00000000000E+00  0.00000000000E+00  0.14999999963E+04  0.15000000000E+04  0.10566000000E+00 0. -1.
        994   -1    0    0    0    0 -0.00000000000E+00 -0.00000000000E+00  0.11368683772E-12  0.17120000000E+03  0.17120000000E+03 0.  0.
         13    1    1    2    0    0 -0.14271729049E+03 -0.92492736976E+01  0.67912203223E+03  0.69401766540E+03  0.10566000000E+00 0. -1.
        994    1    1    2    0    0  0.68656737608E+02 -0.72123391030E+01  0.35366389515E+02  0.18795208688E+03  0.17120000000E+03 0.  0.
        998    1    1    2    0    0  0.74060552877E+02  0.16461612801E+02  0.78551157453E+03  0.78923024772E+03  0.10000000000E+02 0.  1.
</event>
<event>
 5    1  0.1153629E-008  0.3805254E+03  0.7957747E-01  0.3448874E+00
         13   -1    0    0    0    0  0.00000000000E+00  0.00000000000E+00  0.14999999963E+04  0.15000000000E+04  0.10566000000E+00 0.  1.
        994   -1    0    0    0    0 -0.00000000000E+00 -0.00000000000E+00  0.11368683772E-12  0.17120000000E+03  0.17120000000E+03 0.  0.
         13    1    1    2    0    0 -0.58803266816E+02  0.21094420921E+02  0.10043129762E+03  0.11827618309E+03  0.10566000000E+00 0.  1.
        994    1    1    2    0    0  0.75623649960E+02 -0.11394254144E+02  0.38171164326E+02  0.19135109941E+03  0.17120000000E+03 0.  0.
        998    1    1    2    0    0 -0.16820383143E+02 -0.97001667768E+01  0.13613975343E+04  0.13615727175E+04  0.10000000000E+02 0.  1.
</event>
<event>
 5    1  0.1153629E-008  0.3715935E+03  0.7957747E-01  0.3488599E+00
         13   -1    0    0    0    0  0.00000000000E+00  0.00000000000E+00  0.14999999963E+04  0.15000000000E+04  0.10566000000E+00 0. -1.
        994   -1    0    0    0    0 -0.00000000000E+00 -0.00000000000E+00  0.11368683772E-12  0.17120000000E+03  0.17120000000E+03 0.  0.
         13    1    1    2    0    0  0.64320065767E+02 -0.42607457958E+02  0.28821294401E+03  0.29836081947E+03  0.10566000000E+00 0. -1.
        994    1    1    2    0    0 -0.55705574245E+02  0.50470238124E+02  0.28126670794E+02  0.18907909865E+03  0.17120000000E+03 0.  0.
        998    1    1    2    0    0 -0.86144915225E+01 -0.78627801660E+01  0.11836603815E+04  0.11837600819E+04  0.10000000000E+02 0. -1.
</event>
<event>
 5    1  0.1153629E-008  0.3764663E+03  0.7957747E-01  0.3466691E+00
         13   -1    0    0    0    0  0.00000000000E+00  0.00000000000E+00  0.14999999963E+04  0.15000000000E+04  0.10566000000E+00 0.  1.
        994   -1    0    0    0    0 -0.00000000000E+00 -0.00000000000E+00  0.11368683772E-12  0.17120000000E+03  0.17120000000E+03 0.  0.
         13    1    1    2    0    0  0.85877739521E+01  0.58864414147E+01  0.64537429890E+01  0.12249980269E+02  0.10566000000E+00 0.  1.
        994    1    1    2    0    0 -0.33003188586E+01 -0.54869007331E+01  0.60663639894E+01  0.17142706600E+03  0.17120000000E+03 0.  0.
        998    1    1    2    0    0 -0.52874550936E+01 -0.39954068163E+00  0.14874798893E+04  0.14875229537E+04  0.10000000000E+02 0.  1.
</event>
<event>
 5    1  0.1153629E-008  0.3803026E+03  0.7957747E-01  0.3449842E+00
         13   -1    0    0    0    0  0.00000000000E+00  0.00000000000E+00  0.14999999963E+04  0.15000000000E+04  0.10566000000E+00 0.  1.
        994   -1    0    0    0    0 -0.00000000000E+00 -0.00000000000E+00  0.11368683772E-12  0.17120000000E+03  0.17120000000E+03 0.  0.
         13    1    1    2    0    0 -0.17666319351E+02 -0.13265220024E+02  0.53604844943E+02  0.57978922610E+02  0.10566000000E+00 0.  1.
        994    1    1    2    0    0  0.23253860972E+02  0.39860481909E+02  0.11125426654E+02  0.17765926710E+03  0.17120000000E+03 0.  0.
        998    1    1    2    0    0 -0.55875416214E+01 -0.26595261884E+02  0.14352697247E+04  0.14355618103E+04  0.10000000000E+02 0.  1.
</event>
<event>
 5    1  0.1153629E-008  0.3848351E+03  0.7957747E-01  0.3430372E+00
         13   -1    0    0    0    0  0.00000000000E+00  0.00000000000E+00  0.14999999963E+04  0.15000000000E+04  0.10566000000E+00 0. -1.
        994   -1    0    0    0    0 -0.00000000000E+00 -0.00000000000E+00  0.11368683772E-12  0.17120000000E+03  0.17120000000E+03 0.  0.
         13    1    1    2    0    0 -0.18590760677E+01  0.19197179011E+02  0.93805041617E+02  0.95767347476E+02  0.10566000000E+00 0. -1.
        994    1    1    2    0    0  0.80461201048E+01 -0.31908594011E+02  0.52833462176E+01  0.17441402515E+03  0.17120000000E+03 0.  0.
        998    1    1    2    0    0 -0.61870440372E+01  0.12711415000E+02  0.14009116084E+04  0.14010186274E+04  0.10000000000E+02 0. -1.
</event>
<event>
 5    1  0.1153629E-008  0.3808260E+03  0.7957747E-01  0.3447570E+00
         13   -1    0    0    0    0  0.00000000000E+00  0.00000000000E+00  0.14999999963E+04  0.15000000000E+04  0.10566000000E+00 0.  1.
        994   -1    0    0    0    0 -0.00000000000E+00 -0.00000000000E+00  0.11368683772E-12  0.17120000000E+03  0.17120000000E+03 0.  0.
         13    1    1    2    0    0 -0.10010503011E+02  0.19333865665E+00  0.11720740923E+02  0.15415397568E+02  0.10566000000E+00 0.  1.
        994    1    1    2    0    0  0.12448019243E+02 -0.62750900899E+01  0.43648768524E+01  0.17182206520E+03  0.17120000000E+03 0.  0.
        998    1    1    2    0    0 -0.24375162323E+01  0.60817514333E+01  0.14839143785E+04  0.14839625372E+04  0.10000000000E+02 0.  1.
</event>
<event>
 5    1  0.1153629E-008  0.3837978E+03  0.7957747E-01  0.3434787E+00
         13   -1    0    0    0    0  0.00000000000E+00  0.00000000000E+00  0.14999999963E+04  0.15000000000E+04  0.10566000000E+00 0. -1.
        994   -1    0    0    0    0 -0.00000000000E+00 -0.00000000000E+00  0.11368683772E-12  0.17120000000E+03  0.17120000000E+03 0.  0.
         13    1    1    2    0    0 -0.10658953402E+02  0.62192811512E+01  0.37615716704E+02  0.39588458582E+02  0.10566000000E+00 0. -1.
        994    1    1    2    0    0 -0.84508332559E+01  0.21232106232E+02  0.39542081408E+01  0.17276369607E+03  0.17120000000E+03 0.  0.
        998    1    1    2    0    0  0.19109786658E+02 -0.27451387383E+02  0.14584300714E+04  0.14588478453E+04  0.10000000000E+02 0. -1.
</event>
<event>
 5    1  0.1153629E-008  0.3740949E+03  0.7957747E-01  0.3477280E+00
         13   -1    0    0    0    0  0.00000000000E+00  0.00000000000E+00  0.14999999963E+04  0.15000000000E+04  0.10566000000E+00 0. -1.
        994   -1    0    0    0    0 -0.00000000000E+00 -0.00000000000E+00  0.11368683772E-12  0.17120000000E+03  0.17120000000E+03 0.  0.
         13    1    1    2    0    0 -0.86110615821E+02 -0.11600133972E+03  0.69589181682E+03  0.71072975234E+03  0.10566000000E+00 0. -1.
        994    1    1    2    0    0  0.84588410682E+02  0.11987355650E+03  0.84497694617E+02  0.24077825725E+03  0.17120000000E+03 0.  0.
        998    1    1    2    0    0  0.15222051391E+01 -0.38722167809E+01  0.71961048484E+03  0.71969199041E+03  0.10000000000E+02 0.  0.
</event>
<event>
 5    1  0.1153629E-008  0.3860277E+03  0.7957747E-01  0.3425325E+00
         13   -1    0    0    0    0  0.00000000000E+00  0.00000000000E+00  0.14999999963E+04  0.15000000000E+04  0.10566000000E+00 0.  1.
        994   -1    0    0    0    0 -0.00000000000E+00 -0.00000000000E+00  0.11368683772E-12  0.17120000000E+03  0.17120000000E+03 0.  0.
         13    1    1    2    0    0 -0.89702459054E+01  0.59792820756E+01  0.53274435377E+02  0.54354335196E+02  0.10566000000E+00 0.  1.
        994    1    1    2    0    0  0.16619439896E+00 -0.90377588987E+01  0.13886318996E+01  0.17144409294E+03  0.17120000000E+03 0.  0.
        998    1    1    2    0    0  0.88040515064E+01  0.30584768231E+01  0.14453369290E+04  0.14454015719E+04  0.10000000000E+02 0.  1.
</event>
<event>
 5    1  0.1153629E-008  0.3825096E+03  0.7957747E-01  0.3440303E+00
         13   -1    0    0    0    0  0.00000000000E+00  0.00000000000E+00  0.14999999963E+04  0.15000000000E+04  0.10566000000E+00 0. -1.
        994   -1    0    0    0    0 -0.00000000000E+00 -0.00000000000E+00  0.11368683772E-12  0.17120000000E+03  0.17120000000E+03 0.  0.
         13    1    1    2    0    0 -0.12245385646E+02 -0.16345338491E+02  0.70654029057E+02  0.73546737154E+02  0.10566000000E+00 0. -1.
        994    1    1    2    0    0  0.13570425145E+02  0.98573834814E+01  0.38048957485E+01  0.17206173799E+03  0.17120000000E+03 0.  0.
        998    1    1    2    0    0 -0.13250394990E+01  0.64879550101E+01  0.14255410715E+04  0.14255915249E+04  0.10000000000E+02 0. -1.
</event>
<event>
 5    1  0.1153629E-008  0.3787404E+03  0.7957747E-01  0.3456662E+00
         13   -1    0    0    0    0  0.00000000000E+00  0.00000000000E+00  0.14999999963E+04  0.15000000000E+04  0.10566000000E+00 0. -1.
        994   -1    0    0    0    0 -0.00000000000E+00 -0.00000000000E+00  0.11368683772E-12  0.17120000000E+03  0.17120000000E+03 0.  0.
         13    1    1    2    0    0  0.52939310436E+01 -0.14827551508E+02  0.23500594751E+02  0.28287295864E+02  0.10566000000E+00 0. -1.
        994    1    1    2    0    0  0.44548343411E+01  0.21335324719E+02  0.63666385166E+01  0.17269920589E+03  0.17120000000E+03 0.  0.
        998    1    1    2    0    0 -0.97487653847E+01 -0.65077732105E+01  0.14701327630E+04  0.14702134982E+04  0.10000000000E+02 0. -1.
</event>
<event>
 5    1  0.1153629E-008  0.3797004E+03  0.7957747E-01  0.3452464E+00
         13   -1    0    0    0    0  0.00000000000E+00  0.00000000000E+00  0.14999999963E+04  0.15000000000E+04  0.10566000000E+00 0. -1.
        994   -1    0    0    0    0 -0.00000000000E+00 -0.00000000000E+00  0.11368683772E-12  0.17120000000E+03  0.17120000000E+03 0.  0.
         13    1    1    2    0    0  0.10961251102E+02  0.11705801375E+02  0.27760636696E+02  0.32059927095E+02  0.10566000000E+00 0. -1.
        994    1    1    2    0    0 -0.14977599387E+02 -0.97224321900E+01  0.53521134230E+01  0.17221190229E+03  0.17120000000E+03 0.  0.
        998    1    1    2    0    0  0.40163482847E+01 -0.19833691852E+01  0.14668872462E+04  0.14669281706E+04  0.10000000000E+02 0. -1.
</event>
<event>
 5    1  0.1153629E-008  0.3756509E+03  0.7957747E-01  0.3470317E+00
         13   -1    0    0    0    0  0.00000000000E+00  0.00000000000E+00  0.14999999963E+04  0.15000000000E+04  0.10566000000E+00 0.  1.
        994   -1    0    0    0    0 -0.00000000000E+00 -0.00000000000E+00  0.11368683772E-12  0.17120000000E+03  0.17120000000E+03 0.  0.
         13    1    1    2    0    0 -0.13454674033E+02 -0.16697417569E+02  0.32793026190E+02  0.39181956786E+02  0.10566000000E+00 0.  1.
        994    1    1    2    0    0  0.15018194256E+02  0.18525886488E+02  0.82763067631E+01  0.17305112505E+03  0.17120000000E+03 0.  0.
        998    1    1    2    0    0 -0.15635202229E+01 -0.18284689190E+01  0.14589306633E+04  0.14589669182E+04  0.10000000000E+02 0.  1.
</event>
<event>
 5    1  0.1153629E-008  0.3879347E+03  0.7957747E-01  0.3417320E+00
         13   -1    0    0    0    0  0.00000000000E+00  0.00000000000E+00  0.14999999963E+04  0.15000000000E+04  0.10566000000E+00 0.  1.
        994   -1    0    0    0    0 -0.00000000000E+00 -0.00000000000E+00  0.11368683772E-12  0.17120000000E+03  0.17120000000E+03 0.  0.
         13    1    1    2    0    0 -0.24196084393E+01  0.35140618340E+02  0.21235553467E+02  0.41130006776E+02  0.10566000000E+00 0.  1.
        994    1    1    2    0    0  0.28727456527E+01 -0.33265836681E+02  0.24928069228E+02  0.17619794889E+03  0.17120000000E+03 0.  0.
        998    1    1    2    0    0 -0.45313721336E+00 -0.18747816581E+01  0.14538363736E+04  0.14538720443E+04  0.10000000000E+02 0.  1.
</event>
<event>
 5    1  0.1153629E-008  0.3713445E+03  0.7957747E-01  0.3489734E+00
         13   -1    0    0    0    0  0.00000000000E+00  0.00000000000E+00  0.14999999963E+04  0.15000000000E+04  0.10566000000E+00 0.  1.
        994   -1    0    0    0    0 -0.00000000000E+00 -0.00000000000E+00  0.11368683772E-12  0.17120000000E+03  0.17120000000E+03 0.  0.
         13    1    1    2    0    0  0.49679003907E+02 -0.64583756535E+00  0.13851608548E+03  0.14715684706E+03  0.10566000000E+00 0.  1.
        994    1    1    2    0    0 -0.34118542887E+02  0.22157606318E+02  0.14285630054E+02  0.17654618011E+03  0.17120000000E+03 0.  0.
        998    1    1    2    0    0 -0.15560461020E+02 -0.21511768753E+02  0.13471982807E+04  0.13474969728E+04  0.10000000000E+02 0.  1.
</event>
<event>
 5    1  0.2540505E-008  0.3865583E+03  0.7957747E-01  0.3423090E+00
         13   -1    0    0    0    0  0.00000000000E+00  0.00000000000E+00  0.14999999963E+04  0.15000000000E+04  0.10566000000E+00 0. -1.
        994   -1    0    0    0    0 -0.00000000000E+00 -0.00000000000E+00  0.11368683772E-12  0.17120000000E+03  0.17120000000E+03 0.  0.
         13    1    1    2    0    0  0.34211829734E+01 -0.94329686560E+01  0.60337001525E+02  0.61165760910E+02  0.10566000000E+00 0. -1.
        994    1    1    2    0    0  0.18601121648E+01  0.72168387369E+01  0.10402077287E+01  0.17136529640E+03  0.17120000000E+03 0.  0.
        998    1    1    2    0    0 -0.52812951382E+01  0.22161299192E+01  0.14386227870E+04  0.14386689427E+04  0.10000000000E+02 0. -1.
</event>
<event>
 5    1  0.1153629E-008  0.3693898E+03  0.7957747E-01  0.3498700E+00
         13   -1    0    0    0    0  0.00000000000E+00  0.00000000000E+00  0.14999999963E+04  0.15000000000E+04  0.10566000000E+00 0.  1.
        994   -1    0    0    0    0 -0.00000000000E+00 -0.00000000000E+00  0.11368683772E-12  0.17120000000E+03  0.17120000000E+03 0.  0.
         13    1    1    2    0    0 -0.14951616404E+02 -0.61290599615E+01  0.74915944468E+01  0.17811551322E+02  0.10566000000E+00 0.  1.
        994    1    1    2    0    0  0.11749633580E+02  0.76463626245E+01  0.11302376067E+02  0.17214442906E+03  0.17120000000E+03 0.  0.
        998    1    1    2    0    0  0.32019828239E+01 -0.15173026630E+01  0.14812060258E+04  0.14812440196E+04  0.10000000000E+02 0.  1.
</event>
<event>
 5    1  0.1153629E-008  0.3975888E+03  0.7957747E-01  0.3377976E+00
         13   -1    0    0    0    0  0.00000000000E+00  0.00000000000E+00  0.14999999963E+04  0.15000000000E+04  0.10566000000E+00 0. -1.
        994   -1    0    0    0    0 -0.00000000000E+00 -0.00000000000E+00  0.11368683772E-12  0.17120000000E+03  0.17120000000E+03 0.  0.
         13    1    1    2    0    0  0.29322564895E+02  0.10603682555E+03  0.18314306084E+03  0.21364693558E+03  0.10566000000E+00 0. -1.
        994    1    1    2    0    0 -0.12844281841E+02 -0.12380877721E+03  0.89328475530E+02  0.22974465267E+03  0.17120000000E+03 0.  0.
        998    1    1    2    0    0 -0.16478283054E+02  0.17771951655E+02  0.12275284599E+04  0.12278084118E+04  0.10000000000E+02 0.  0.
</event>
<event>
 5    1  0.1153629E-008  0.3806227E+03  0.7957747E-01  0.3448451E+00
         13   -1    0    0    0    0  0.00000000000E+00  0.00000000000E+00  0.14999999963E+04  0.15000000000E+04  0.10566000000E+00 0.  1.
        994   -1    0    0    0    0 -0.00000000000E+00 -0.00000000000E+00  0.11368683772E-12  0.17120000000E+03  0.17120000000E+03 0.  0.
         13    1    1    2    0    0 -0.55499734728E+01  0.23544634730E+02  0.70161044114E+02  0.74214117965E+02  0.10566000000E+00 0.  1.
        994    1    1    2    0    0  0.93876238069E+01 -0.29569699553E+02  0.70366972839E+01  0.17413055367E+03  0.17120000000E+03 0.  0.
        998    1    1    2    0    0 -0.38376503341E+01  0.60250648238E+01  0.14228022549E+04  0.14228553284E+04  0.10000000000E+02 0.  1.
</event>
<event>
 5    1  0.1153629E-008  0.3901233E+03  0.7957747E-01  0.3408230E+00
         13   -1    0    0    0    0  0.00000000000E+00  0.00000000000E+00  0.14999999963E+04  0.15000000000E+04  0.10566000000E+00 0.  1.
        994   -1    0    0    0    0 -0.00000000000E+00 -0.00000000000E+00  0.11368683772E-12  0.17120000000E+03  0.17120000000E+03 0.  0.
         13    1    1    2    0    0  0.34254858145E+02 -0.49362352965E+02  0.76497025321E+02  0.97272006475E+02  0.10566000000E+00 0.  1.
        994    1    1    2    0    0  0.11896595683E+02  0.48835036655E+02  0.31573959342E+02  0.18119808140E+03  0.17120000000E+03 0.  0.
        998    1    1    2    0    0 -0.46151453828E+02  0.52731630988E+00  0.13919290116E+04  0.13927299121E+04  0.10000000000E+02 0.  1.
</event>
<event>
 5    1  0.1153629E-008  0.3848471E+03  0.7957747E-01  0.3430321E+00
         13   -1    0    0    0    0  0.00000000000E+00  0.00000000000E+00  0.14999999963E+04  0.15000000000E+04  0.10566000000E+00 0.  1.
        994   -1    0    0    0    0 -0.00000000000E+00 -0.00000000000E+00  0.11368683772E-12  0.17120000000E+03  0.17120000000E+03 0.  0.
         13    1    1    2    0    0 -0.23249392342E+02  0.67792135670E+01  0.13613072921E+03  0.13826814015E+03  0.10566000000E+00 0.  1.
        994    1    1    2    0    0  0.41882227081E+02 -0.58354498692E+01  0.76119473715E+01  0.17650936282E+03  0.17120000000E+03 0.  0.
        998    1    1    2    0    0 -0.18632834739E+02 -0.94376369781E+00  0.13562573197E+04  0.13564224970E+04  0.10000000000E+02 0.  1.
</event>
<event>
 5    1  0.1153629E-008  0.3859066E+03  0.7957747E-01  0.3425836E+00
         13   -1    0    0    0    0  0.00000000000E+00  0.00000000000E+00  0.14999999963E+04  0.15000000000E+04  0.10566000000E+00 0.  1.
        994   -1    0    0    0    0 -0.00000000000E+00 -0.00000000000E+00  0.11368683772E-12  0.17120000000E+03  0.17120000000E+03 0.  0.
         13    1    1    2    0    0  0.13218080972E+02 -0.46047255412E+01  0.75477478635E+02  0.76764458618E+02  0.10566000000E+00 0.  1.
        994    1    1    2    0    0 -0.21647580585E+02  0.64931308653E+01  0.28573440652E+01  0.17270895434E+03  0.17120000000E+03 0.  0.
        998    1    1    2    0    0  0.84294996129E+01 -0.18884053240E+01  0.14216651736E+04  0.14217265870E+04  0.10000000000E+02 0.  1.
</event>
<event>
 5    1  0.1153629E-008  0.3862154E+03  0.7957747E-01  0.3424534E+00
         13   -1    0    0    0    0  0.00000000000E+00  0.00000000000E+00  0.14999999963E+04  0.15000000000E+04  0.10566000000E+00 0.  1.
        994   -1    0    0    0    0 -0.00000000000E+00 -0.00000000000E+00  0.11368683772E-12  0.17120000000E+03  0.17120000000E+03 0.  0.
         13    1    1    2    0    0  0.10918685286E+02  0.40459132888E+00  0.58988380897E+02  0.59991846341E+02  0.10566000000E+00 0.  1.
        994    1    1    2    0    0 -0.71507762449E+01 -0.56064218788E+01  0.12984027475E+01  0.17144588481E+03  0.17120000000E+03 0.  0.
        998    1    1    2    0    0 -0.37679090412E+01  0.52018305499E+01  0.14397132126E+04  0.14397622689E+04  0.10000000000E+02 0.  1.
</event>
<event>
 5    1  0.1153629E-008  0.3779103E+03  0.7957747E-01  0.3460308E+00
         13   -1    0    0    0    0  0.00000000000E+00  0.00000000000E+00  0.14999999963E+04  0.15000000000E+04  0.10566000000E+00 0. -1.
        994   -1    0    0    0    0 -0.00000000000E+00 -0.00000000000E+00  0.11368683772E-12  0.17120000000E+03  0.17120000000E+03 0.  0.
         13    1    1    2    0    0  0.92965271451E+01 -0.11086480376E+02  0.17861492368E+02  0.22986507732E+02  0.10566000000E+00 0. -1.
        994    1    1    2    0    0 -0.63140517282E+01  0.10129346363E+02  0.56714775497E+01  0.17170927920E+03  0.17120000000E+03 0.  0.
        998    1    1    2    0    0 -0.29824754169E+01  0.95713401220E+00  0.14764670264E+04  0.14765042131E+04  0.10000000000E+02 0. -1.
</event>
<event>
 5    1  0.1153629E-008  0.3825195E+03  0.7957747E-01  0.3440261E+00
         13   -1    0    0    0    0  0.00000000000E+00  0.00000000000E+00  0.14999999963E+04  0.15000000000E+04  0.10566000000E+00 0.  1.
        994   -1    0    0    0    0 -0.00000000000E+00 -0.00000000000E+00  0.11368683772E-12  0.17120000000E+03  0.17120000000E+03 0.  0.
         13    1    1    2    0    0 -0.15386024811E+02  0.92799066095E+01  0.58358703212E+02  0.61062229167E+02  0.10566000000E+00 0.  1.
        994    1    1    2    0    0 -0.40210192243E+01 -0.79713786714E+01  0.31310106689E+01  0.17146123381E+03  0.17120000000E+03 0.  0.
        998    1    1    2    0    0  0.19407044035E+02 -0.13085279381E+01  0.14385102824E+04  0.14386765370E+04  0.10000000000E+02 0.  1.
</event>
<event>
 5    1  0.1153629E-008  0.3816251E+03  0.7957747E-01  0.3444113E+00
         13   -1    0    0    0    0  0.00000000000E+00  0.00000000000E+00  0.14999999963E+04  0.15000000000E+04  0.10566000000E+00 0. -1.
        994   -1    0    0    0    0 -0.00000000000E+00 -0.00000000000E+00  0.11368683772E-12  0.17120000000E+03  0.17120000000E+03 0.  0.
         13    1    1    2    0    0 -0.10955019711E+02 -0.29865095585E+02  0.15228637168E+03  0.15557341210E+03  0.10566000000E+00 0. -1.
        994    1    1    2    0    0  0.47540545031E+01  0.17520323730E+02  0.44116224986E+01  0.17221633253E+03  0.17120000000E+03 0.  0.
        998    1    1    2    0    0  0.62009652077E+01  0.12344771855E+02  0.13433020021E+04  0.13434102554E+04  0.10000000000E+02 0. -1.
</event>
<event>
 5    1  0.1153629E-008  0.3796061E+03  0.7957747E-01  0.3452876E+00
         13   -1    0    0    0    0  0.00000000000E+00  0.00000000000E+00  0.14999999963E+04  0.15000000000E+04  0.10566000000E+00 0.  1.
        994   -1    0    0    0    0 -0.00000000000E+00 -0.00000000000E+00  0.11368683772E-12  0.17120000000E+03  0.17120000000E+03 0.  0.
         13    1    1    2    0    0 -0.13463548086E+02 -0.18023645414E+02  0.56558954640E+02  0.60869084395E+02  0.10566000000E+00 0.  1.
        994    1    1    2    0    0  0.15273744440E+02  0.81307024755E+01  0.53349224570E+01  0.17215486339E+03  0.17120000000E+03 0.  0.
        998    1    1    2    0    0 -0.18101963544E+01  0.98929429386E+01  0.14381061192E+04  0.14381760522E+04  0.10000000000E+02 0.  1.
</event>
<event>
 5    1  0.1153629E-008  0.3736414E+03  0.7957747E-01  0.3479321E+00
         13   -1    0    0    0    0  0.00000000000E+00  0.00000000000E+00  0.14999999963E+04  0.15000000000E+04  0.10566000000E+00 0. -1.
        994   -1    0    0    0    0 -0.00000000000E+00 -0.00000000000E+00  0.11368683772E-12  0.17120000000E+03  0.17120000000E+03 0.  0.
         13    1    1    2    0    0  0.17026572660E+02  0.20007979636E+02  0.46878071508E+02  0.53738144534E+02  0.10566000000E+00 0. -1.
        994    1    1    2    0    0 -0.54038335845E+01  0.10833731997E+02  0.78787064391E+01  0.17180828031E+03  0.17120000000E+03 0.  0.
        998    1    1    2    0    0 -0.11622739075E+02 -0.30841711633E+02  0.14452432183E+04  0.14456535752E+04  0.10000000000E+02 0. -1.
</event>
<event>
 5    1  0.1153629E-008  0.3701318E+03  0.7957747E-01  0.3495285E+00
         13   -1    0    0    0    0  0.00000000000E+00  0.00000000000E+00  0.14999999963E+04  0.15000000000E+04  0.10566000000E+00 0.  1.
        994   -1    0    0    0    0 -0.00000000000E+00 -0.00000000000E+00  0.11368683772E-12  0.17120000000E+03  0.17120000000E+03 0.  0.
         13    1    1    2    0    0 -0.28475011881E+02  0.32214560351E+02  0.91754241030E+02  0.10132845657E+03  0.10566000000E+00 0.  1.
        994    1    1    2    0    0 -0.21065556228E+02 -0.20096572269E+01  0.12576259527E+02  0.17296068537E+03  0.17120000000E+03 0.  0.
        998    1    1    2    0    0  0.49540568109E+02 -0.30204903124E+02  0.13956694957E+04  0.13969108581E+04  0.10000000000E+02 0.  1.
</event>
<event>
 5    1  0.1153629E-008  0.3695932E+03  0.7957747E-01  0.3497763E+00
         13   -1    0    0    0    0  0.00000000000E+00  0.00000000000E+00  0.14999999963E+04  0.15000000000E+04  0.10566000000E+00 0. -1.
        994   -1    0    0    0    0 -0.00000000000E+00 -0.00000000000E+00  0.11368683772E-12  0.17120000000E+03  0.17120000000E+03 0.  0.
         13    1    1    2    0    0 -0.21479723314E+02  0.84503383479E+02  0.29402319308E+03  0.30667874000E+03  0.10566000000E+00 0. -1.
        994    1    1    2    0    0  0.32071657972E+02 -0.93726598786E+02  0.44272248767E+02  0.20268877269E+03  0.17120000000E+03 0.  0.
        998    1    1    2    0    0 -0.10591934658E+02  0.92232153068E+01  0.11617045544E+04  0.11618324873E+04  0.10000000000E+02 0. -1.
</event>
<event>
 5    1  0.1153629E-008  0.3843884E+03  0.7957747E-01  0.3432270E+00
         13   -1    0    0    0    0  0.00000000000E+00  0.00000000000E+00  0.14999999963E+04  0.15000000000E+04  0.10566000000E+00 0.  1.
        994   -1    0    0    0    0 -0.00000000000E+00 -0.00000000000E+00  0.11368683772E-12  0.17120000000E+03  0.17120000000E+03 0.  0.
         13    1    1    2    0    0  0.21951492841E+02 -0.95714478699E-01  0.11699268773E+03  0.11903435363E+03  0.10566000000E+00 0.  1.
        994    1    1    2    0    0 -0.21439836073E+02 -0.33120301877E+01  0.34864729202E+01  0.17260426301E+03  0.17120000000E+03 0.  0.
        998    1    1    2    0    0 -0.51165676768E+00  0.34077446664E+01  0.13795208356E+04  0.13795613834E+04  0.10000000000E+02 0.  1.
</event>
<event>
 5    1  0.1153629E-008  0.3764682E+03  0.7957747E-01  0.3466682E+00
         13   -1    0    0    0    0  0.00000000000E+00  0.00000000000E+00  0.14999999963E+04  0.15000000000E+04  0.10566000000E+00 0. -1.
        994   -1    0    0    0    0 -0.00000000000E+00 -0.00000000000E+00  0.11368683772E-12  0.17120000000E+03  0.17120000000E+03 0.  0.
         13    1    1    2    0    0 -0.16435320067E+02  0.43407209258E+02  0.80350034489E+02  0.92792482280E+02  0.10566000000E+00 0. -1.
        994    1    1    2    0    0 -0.46347164660E+02  0.85384807132E+00  0.22127301573E+02  0.17873960446E+03  0.17120000000E+03 0.  0.
        998    1    1    2    0    0  0.62782484727E+02 -0.44261057329E+02  0.13975226602E+04  0.13996679133E+04  0.10000000000E+02 0. -1.
</event>
<event>
 5    1  0.1153629E-008  0.3742398E+03  0.7957747E-01  0.3476629E+00
         13   -1    0    0    0    0  0.00000000000E+00  0.00000000000E+00  0.14999999963E+04  0.15000000000E+04  0.10566000000E+00 0.  1.
        994   -1    0    0    0    0 -0.00000000000E+00 -0.00000000000E+00  0.11368683772E-12  0.17120000000E+03  0.17120000000E+03 0.  0.
         13    1    1    2    0    0 -0.19442888263E+02 -0.22270434846E+02  0.59136866458E+02  0.66114887210E+02  0.10566000000E+00 0.  1.
        994    1    1    2    0    0  0.11559199421E+02  0.15260917099E+02  0.83196324200E+01  0.17246787227E+03  0.17120000000E+03 0.  0.
        998    1    1    2    0    0  0.78836888419E+01  0.70095177474E+01  0.14325434974E+04  0.14326172405E+04  0.10000000000E+02 0.  1.
</event>
<event>
 5    1  0.1153629E-008  0.3766016E+03  0.7957747E-01  0.3466091E+00
         13   -1    0    0    0    0  0.00000000000E+00  0.00000000000E+00  0.14999999963E+04  0.15000000000E+04  0.10566000000E+00 0. -1.
        994   -1    0    0    0    0 -0.00000000000E+00 -0.00000000000E+00  0.11368683772E-12  0.17120000000E+03  0.17120000000E+03 0.  0.
         13    1    1    2    0    0 -0.47059050774E+02 -0.64378282510E+02  0.41388871473E+03  0.42150088596E+03  0.10566000000E+00 0. -1.
        994    1    1    2    0    0  0.42265118753E+02  0.60694578758E+02  0.24582616665E+02  0.18810613280E+03  0.17120000000E+03 0.  0.
        998    1    1    2    0    0  0.47939320216E+01  0.36837037520E+01  0.10615286649E+04  0.10615929812E+04  0.10000000000E+02 0.  0.
</event>
<event>
 5    1  0.1153629E-008  0.3674695E+03  0.7957747E-01  0.3507602E+00
         13   -1    0    0    0    0  0.00000000000E+00  0.00000000000E+00  0.14999999963E+04  0.15000000000E+04  0.10566000000E+00 0. -1.
        994   -1    0    0    0    0 -0.00000000000E+00 -0.00000000000E+00  0.11368683772E-12  0.17120000000E+03  0.17120000000E+03 0.  0.
         13    1    1    2    0    0  0.19180031009E+02 -0.20748963485E+03  0.11804195119E+04  0.11986701203E+04  0.10566000000E+00 0. -1.
        994    1    1    2    0    0 -0.36941976207E+02  0.19488836756E+03  0.15133311491E+03  0.30258442968E+03  0.17120000000E+03 0.  0.
        998    1    1    2    0    0  0.17761945198E+02  0.12601267293E+02  0.16824736948E+03  0.16994544999E+03  0.10000000000E+02 0. -1.
</event>
<event>
 5    1  0.1153629E-008  0.3808957E+03  0.7957747E-01  0.3447268E+00
         13   -1    0    0    0    0  0.00000000000E+00  0.00000000000E+00  0.14999999963E+04  0.15000000000E+04  0.10566000000E+00 0.  1.
        994   -1    0    0    0    0 -0.00000000000E+00 -0.00000000000E+00  0.11368683772E-12  0.17120000000E+03  0.17120000000E+03 0.  0.
         13    1    1    2    0    0  0.35875129404E+02  0.31457222112E+02  0.26402080350E+03  0.26829755418E+03  0.10566000000E+00 0.  1.
        994    1    1    2    0    0 -0.18309208936E+02 -0.48362070578E+02  0.12646566257E+02  0.17928606371E+03  0.17120000000E+03 0.  0.
        998    1    1    2    0    0 -0.17565920468E+02  0.16904848466E+02  0.12233326265E+04  0.12236163821E+04  0.10000000000E+02 0.  1.
</event>
<event>
 5    1  0.1153629E-008  0.3781326E+03  0.7957747E-01  0.3459330E+00
         13   -1    0    0    0    0  0.00000000000E+00  0.00000000000E+00  0.14999999963E+04  0.15000000000E+04  0.10566000000E+00 0. -1.
        994   -1    0    0    0    0 -0.00000000000E+00 -0.00000000000E+00  0.11368683772E-12  0.17120000000E+03  0.17120000000E+03 0.  0.
         13    1    1    2    0    0 -0.14547142426E+02  0.22109187306E+01  0.18892044384E+02  0.23946357123E+02  0.10566000000E+00 0. -1.
        994    1    1    2    0    0  0.15666889589E+02 -0.14622484964E+01  0.59120180006E+01  0.17202320064E+03  0.17120000000E+03 0.  0.
        998    1    1    2    0    0 -0.11197471635E+01 -0.74867023421E+00  0.14751959339E+04  0.14752304422E+04  0.10000000000E+02 0. -1.
</event>
<event>
 5    1  0.1153629E-008  0.3840181E+03  0.7957747E-01  0.3433847E+00
         13   -1    0    0    0    0  0.00000000000E+00  0.00000000000E+00  0.14999999963E+04  0.15000000000E+04  0.10566000000E+00 0. -1.
        994   -1    0    0    0    0 -0.00000000000E+00 -0.00000000000E+00  0.11368683772E-12  0.17120000000E+03  0.17120000000E+03 0.  0.
         13    1    1    2    0    0 -0.22974778933E+02  0.18288704809E+01  0.11199790104E+03  0.11434476916E+03  0.10566000000E+00 0. -1.
        994    1    1    2    0    0  0.30312189042E+02  0.84503443721E+01  0.53922292798E+01  0.17415152386E+03  0.17120000000E+03 0.  0.
        998    1    1    2    0    0 -0.73374101096E+01 -0.10279214853E+02  0.13826098660E+04  0.13827037070E+04  0.10000000000E+02 0. -1.
</event>
<event>
 5    1  0.1153629E-008  0.3716515E+03  0.7957747E-01  0.3488335E+00
         13   -1    0    0    0    0  0.00000000000E+00  0.00000000000E+00  0.14999999963E+04  0.15000000000E+04  0.10566000000E+00 0.  1.
        994   -1    0    0    0    0 -0.00000000000E+00 -0.00000000000E+00  0.11368683772E-12  0.17120000000E+03  0.17120000000E+03 0.  0.
         13    1    1    2    0    0 -0.15907645097E+01 -0.19125758131E+02  0.18030619124E+02  0.26333240322E+02  0.10566000000E+00 0.  1.
        994    1    1    2    0    0  0.62060947651E+01  0.19068739506E+02  0.97921849410E+01  0.17264836902E+03  0.17120000000E+03 0.  0.
        998    1    1    2    0    0 -0.46153302553E+01  0.57018625117E-01  0.14721771922E+04  0.14722183907E+04  0.10000000000E+02 0.  1.
</event>
<event>
 5    1  0.1153629E-008  0.3820411E+03  0.7957747E-01  0.3442319E+00
         13   -1    0    0    0    0  0.00000000000E+00  0.00000000000E+00  0.14999999963E+04  0.15000000000E+04  0.10566000000E+00 0. -1.
        994   -1    0    0    0    0 -0.00000000000E+00 -0.00000000000E+00  0.11368683772E-12  0.17120000000E+03  0.17120000000E+03 0.  0.
         13    1    1    2    0    0  0.32799659560E+02  0.41457011570E+02  0.30938413195E+03  0.31386789218E+03  0.10566000000E+00 0. -1.
        994    1    1    2    0    0 -0.27490114764E+02 -0.64374401236E+02  0.19550409676E+02  0.18598771052E+03  0.17120000000E+03 0.  0.
        998    1    1    2    0    0 -0.53095447960E+01  0.22917389666E+02  0.11710654547E+04  0.11713443973E+04  0.10000000000E+02 0. -1.
</event>
<event>
 5    1  0.1153629E-008  0.3779063E+03  0.7957747E-01  0.3460326E+00
         13   -1    0    0    0    0  0.00000000000E+00  0.00000000000E+00  0.14999999963E+04  0.15000000000E+04  0.10566000000E+00 0. -1.
        994   -1    0    0    0    0 -0.00000000000E+00 -0.00000000000E+00  0.11368683772E-12  0.17120000000E+03  0.17120000000E+03 0.  0.
         13    1    1    2    0    0 -0.20668710176E+02 -0.46592178933E+01  0.41187358229E+02  0.46317529442E+02  0.10566000000E+00 0. -1.
        994    1    1    2    0    0  0.14069495050E+02  0.11551871409E+01  0.58649200304E+01  0.17188112879E+03  0.17120000000E+03 0.  0.
        998    1    1    2    0    0  0.65992151265E+01  0.35040307524E+01  0.14529477180E+04  0.14530013418E+04  0.10000000000E+02 0. -1.
</event>
<event>
 5    1  0.1153629E-008  0.3750441E+03  0.7957747E-01  0.3473025E+00
         13   -1    0    0    0    0  0.00000000000E+00  0.00000000000E+00  0.14999999963E+04  0.15000000000E+04  0.10566000000E+00 0.  1.
        994   -1    0    0    0    0 -0.00000000000E+00 -0.00000000000E+00  0.11368683772E-12  0.17120000000E+03  0.17120000000E+03 0.  0.
         13    1    1    2    0    0  0.95433150734E+01  0.16136909025E+02  0.23277159213E+02  0.29888325489E+02  0.10566000000E+00 0.  1.
        994    1    1    2    0    0  0.69385178642E+01 -0.25268400528E+02  0.89932522038E+01  0.17342708462E+03  0.17120000000E+03 0.  0.
        998    1    1    2    0    0 -0.16481832938E+02  0.91314915036E+01  0.14677295849E+04  0.14678845899E+04  0.10000000000E+02 0.  1.
</event>
<event>
 5    1  0.1153629E-008  0.3789157E+03  0.7957747E-01  0.3455894E+00
         13   -1    0    0    0    0  0.00000000000E+00  0.00000000000E+00  0.14999999963E+04  0.15000000000E+04  0.10566000000E+00 0. -1.
        994   -1    0    0    0    0 -0.00000000000E+00 -0.00000000000E+00  0.11368683772E-12  0.17120000000E+03  0.17120000000E+03 0.  0.
         13    1    1    2    0    0  0.17191074381E+03  0.66888253665E+02  0.10282243175E+04  0.10446399383E+04  0.10566000000E+00 0. -1.
        994    1    1    2    0    0 -0.16590836249E+03 -0.68674162042E+02  0.12179170185E+03  0.27637724928E+03  0.17120000000E+03 0.  0.
        998    1    1    2    0    0 -0.60023813191E+01  0.17859083765E+01  0.34998397692E+03  0.35018281247E+03  0.10000000000E+02 0.  0.
</event>
<event>
 5    1  0.1153629E-008  0.3827512E+03  0.7957747E-01  0.3439266E+00
         13   -1    0    0    0    0  0.00000000000E+00  0.00000000000E+00  0.14999999963E+04  0.15000000000E+04  0.10566000000E+00 0. -1.
        994   -1    0    0    0    0 -0.00000000000E+00 -0.00000000000E+00  0.11368683772E-12  0.17120000000E+03  0.17120000000E+03 0.  0.
         13    1    1    2    0    0 -0.18150409953E+02 -0.89964087487E+00  0.59715932436E+02  0.62419952626E+02  0.10566000000E+00 0. -1.
        994    1    1    2    0    0  0.99958026907E+01 -0.53186376204E+00  0.30827453420E+01  0.17152009290E+03  0.17120000000E+03 0.  0.
        998    1    1    2    0    0  0.81546072627E+01  0.14315046369E+01  0.14372013185E+04  0.14372599545E+04  0.10000000000E+02 0. -1.
</event>
<event>
 5    1  0.1153629E-008  0.3684339E+03  0.7957747E-01  0.3503120E+00
         13   -1    0    0    0    0  0.00000000000E+00  0.00000000000E+00  0.14999999963E+04  0.15000000000E+04  0.10566000000E+00 0.  1.
        994   -1    0    0    0    0 -0.00000000000E+00 -0.00000000000E+00  0.11368683772E-12  0.17120000000E+03  0.17120000000E+03 0.  0.
         13    1    1    2    0    0  0.42083510348E+02 -0.16519039624E+01  0.92377324849E+02  0.10152503110E+03  0.10566000000E+00 0.  1.
        994    1    1    2    0    0 -0.11132295501E+01 -0.70786799473E+01  0.10268526047E+02  0.17165730284E+03  0.17120000000E+03 0.  0.
        998    1    1    2    0    0 -0.40970280798E+02  0.87305839097E+01  0.13973541454E+04  0.13980176661E+04  0.10000000000E+02 0.  1.
</event>
<event>
 5    1  0.1153629E-008  0.3757164E+03  0.7957747E-01  0.3470025E+00
         13   -1    0    0    0    0  0.00000000000E+00  0.00000000000E+00  0.14999999963E+04  0.15000000000E+04  0.10566000000E+00 0. -1.
        994   -1    0    0    0    0 -0.00000000000E+00 -0.00000000000E+00  0.11368683772E-12  0.17120000000E+03  0.17120000000E+03 0.  0.
         13    1    1    2    0    0  0.80550114843E+01  0.95192360939E+01  0.94223598540E+01  0.15629814301E+02  0.10566000000E+00 0. -1.
        994    1    1    2    0    0 -0.55466335403E+01 -0.10436134049E+02  0.67850880276E+01  0.17174153678E+03  0.17120000000E+03 0.  0.
        998    1    1    2    0    0 -0.25083779440E+01  0.91689795543E+00  0.14837925484E+04  0.14838286489E+04  0.10000000000E+02 0. -1.
</event>
<event>
 5    1  0.1153629E-008  0.3856796E+03  0.7957747E-01  0.3426795E+00
         13   -1    0    0    0    0  0.00000000000E+00  0.00000000000E+00  0.14999999963E+04  0.15000000000E+04  0.10566000000E+00 0. -1.
        994   -1    0    0    0    0 -0.00000000000E+00 -0.00000000000E+00  0.11368683772E-12  0.17120000000E+03  0.17120000000E+03 0.  0.
         13    1    1    2    0    0  0.10736056902E+02 -0.59596297512E+01  0.58293201149E+02  0.59572548785E+02  0.10566000000E+00 0. -1.
        994    1    1    2    0    0 -0.81500358113E+01  0.44418849400E+01  0.15758576944E+01  0.17145867360E+03  0.17120000000E+03 0.  0.
        998    1    1    2    0    0 -0.25860210905E+01  0.15177448112E+01  0.14401309374E+04  0.14401687776E+04  0.10000000000E+02 0. -1.
</event>
<event>
 5    1  0.1153629E-008  0.3800290E+03  0.7957747E-01  0.3451032E+00
         13   -1    0    0    0    0  0.00000000000E+00  0.00000000000E+00  0.14999999963E+04  0.15000000000E+04  0.10566000000E+00 0. -1.
        994   -1    0    0    0    0 -0.00000000000E+00 -0.00000000000E+00  0.11368683772E-12  0.17120000000E+03  0.17120000000E+03 0.  0.
         13    1    1    2    0    0  0.27715258859E+02 -0.12018351254E+02  0.11882102891E+03  0.12260107836E+03  0.10566000000E+00 0. -1.
        994    1    1    2    0    0 -0.49555040124E+01 -0.23395551216E+01  0.42189124534E+01  0.17133963278E+03  0.17120000000E+03 0.  0.
        998    1    1    2    0    0 -0.22759754847E+02  0.14357906375E+02  0.13769600549E+04  0.13772592889E+04  0.10000000000E+02 0. -1.
</event>
<event>
 5    1  0.1153629E-008  0.3827998E+03  0.7957747E-01  0.3439058E+00
         13   -1    0    0    0    0  0.00000000000E+00  0.00000000000E+00  0.14999999963E+04  0.15000000000E+04  0.10566000000E+00 0.  1.
        994   -1    0    0    0    0 -0.00000000000E+00 -0.00000000000E+00  0.11368683772E-12  0.17120000000E+03  0.17120000000E+03 0.  0.
         13    1    1    2    0    0  0.16597158807E+02  0.95539524407E+01  0.68576486225E+02  0.71200346311E+02  0.10566000000E+00 0.  1.
        994    1    1    2    0    0 -0.68096112510E+01 -0.57356234634E+00  0.28811684931E+01  0.17136055821E+03  0.17120000000E+03 0.  0.
        998    1    1    2    0    0 -0.97875475561E+01 -0.89803900944E+01  0.14285423416E+04  0.14286390955E+04  0.10000000000E+02 0.  1.
</event>
<event>
 5    1  0.1153629E-008  0.3829629E+03  0.7957747E-01  0.3438358E+00
         13   -1    0    0    0    0  0.00000000000E+00  0.00000000000E+00  0.14999999963E+04  0.15000000000E+04  0.10566000000E+00 0. -1.
        994   -1    0    0    0    0 -0.00000000000E+00 -0.00000000000E+00  0.11368683772E-12  0.17120000000E+03  0.17120000000E+03 0.  0.
         13    1    1    2    0    0 -0.28031052549E+02  0.49255162458E+01  0.15693843149E+03  0.15949822275E+03  0.10566000000E+00 0. -1.
        994    1    1    2    0    0  0.12430362740E+02 -0.57757118646E+01  0.32670869840E+01  0.17177888876E+03  0.17120000000E+03 0.  0.
        998    1    1    2    0    0  0.15600689809E+02  0.85019561876E+00  0.13397944778E+04  0.13399228885E+04  0.10000000000E+02 0. -1.
</event>
<event>
 5    1  0.1153629E-008  0.3862217E+03  0.7957747E-01  0.3424507E+00
         13   -1    0    0    0    0  0.00000000000E+00  0.00000000000E+00  0.14999999963E+04  0.15000000000E+04  0.10566000000E+00 0. -1.
        994   -1    0    0    0    0 -0.00000000000E+00 -0.00000000000E+00  0.11368683772E-12  0.17120000000E+03  0.17120000000E+03 0.  0.
         13    1    1    2    0    0  0.33475558433E+01  0.10519656546E+02  0.60862712104E+02  0.61855882442E+02  0.10566000000E+00 0. -1.
        994    1    1    2    0    0 -0.75542532897E+01 -0.43625586012E+01  0.12741174520E+01  0.17142684164E+03  0.17120000000E+03 0.  0.
        998    1    1    2    0    0  0.42066974463E+01 -0.61570979446E+01  0.14378631667E+04  0.14379172759E+04  0.10000000000E+02 0. -1.
</event>
<event>
 5    1  0.1153629E-008  0.3846123E+03  0.7957747E-01  0.3431318E+00
         13   -1    0    0    0    0  0.00000000000E+00  0.00000000000E+00  0.14999999963E+04  0.15000000000E+04  0.10566000000E+00 0. -1.
        994   -1    0    0    0    0 -0.00000000000E+00 -0.00000000000E+00  0.11368683772E-12  0.17120000000E+03  0.17120000000E+03 0.  0.
         13    1    1    2    0    0  0.68850606919E+01  0.15623229045E+02  0.81602481190E+02  0.83369451521E+02  0.10566000000E+00 0. -1.
        994    1    1    2    0    0 -0.11787415568E+02 -0.33691305638E+01  0.23178097388E+01  0.17165403126E+03  0.17120000000E+03 0.  0.
        998    1    1    2    0    0  0.49023548765E+01 -0.12254098481E+02  0.14160797053E+04  0.14161765172E+04  0.10000000000E+02 0. -1.
</event>
<event>
 5    1  0.1153629E-008  0.3822863E+03  0.7957747E-01  0.3441264E+00
         13   -1    0    0    0    0  0.00000000000E+00  0.00000000000E+00  0.14999999963E+04  0.15000000000E+04  0.10566000000E+00 0. -1.
        994   -1    0    0    0    0 -0.00000000000E+00 -0.00000000000E+00  0.11368683772E-12  0.17120000000E+03  0.17120000000E+03 0.  0.
         13    1    1    2    0    0 -0.16943020314E+02 -0.14359087692E+02  0.93174509875E+02  0.95784914215E+02  0.10566000000E+00 0. -1.
        994    1    1    2    0    0 -0.11955247464E+02  0.10668260350E+01  0.34616072112E+01  0.17165514494E+03  0.17120000000E+03 0.  0.
        998    1    1    2    0    0  0.28898267778E+02  0.13292261657E+02  0.14033638792E+04  0.14037599408E+04  0.10000000000E+02 0. -1.
</event>
<event>
 5    1  0.1153629E-008  0.3756752E+03  0.7957747E-01  0.3470208E+00
         13   -1    0    0    0    0  0.00000000000E+00  0.00000000000E+00  0.14999999963E+04  0.15000000000E+04  0.10566000000E+00 0.  1.
        994   -1    0    0    0    0 -0.00000000000E+00 -0.00000000000E+00  0.11368683772E-12  0.17120000000E+03  0.17120000000E+03 0.  0.
         13    1    1    2    0    0  0.85492449349E+02 -0.40207015065E+02  0.50263363151E+03  0.51143537387E+03  0.10566000000E+00 0.  1.
        994    1    1    2    0    0 -0.79909449976E+02  0.34278381877E+02  0.32421352890E+02  0.19473343776E+03  0.17120000000E+03 0.  0.
        998    1    1    2    0    0 -0.55829993723E+01  0.59286331887E+01  0.96494501188E+03  0.96503118837E+03  0.10000000000E+02 0.  0.
</event>
<event>
 5    1  0.1153629E-008  0.3848073E+03  0.7957747E-01  0.3430490E+00
         13   -1    0    0    0    0  0.00000000000E+00  0.00000000000E+00  0.14999999963E+04  0.15000000000E+04  0.10566000000E+00 0. -1.
        994   -1    0    0    0    0 -0.00000000000E+00 -0.00000000000E+00  0.11368683772E-12  0.17120000000E+03  0.17120000000E+03 0.  0.
         13    1    1    2    0    0 -0.90824032702E+01 -0.11803293693E+02  0.61363793301E+02  0.63145340948E+02  0.10566000000E+00 0. -1.
        994    1    1    2    0    0  0.10038786958E+02  0.14139142536E+02  0.27159652098E+01  0.17209738250E+03  0.17120000000E+03 0.  0.
        998    1    1    2    0    0 -0.95638368737E+00 -0.23358488435E+01  0.14359202378E+04  0.14359572766E+04  0.10000000000E+02 0. -1.
</event>
<event>
 5    1  0.1153629E-008  0.3853627E+03  0.7957747E-01  0.3428135E+00
         13   -1    0    0    0    0  0.00000000000E+00  0.00000000000E+00  0.14999999963E+04  0.15000000000E+04  0.10566000000E+00 0.  1.
        994   -1    0    0    0    0 -0.00000000000E+00 -0.00000000000E+00  0.11368683772E-12  0.17120000000E+03  0.17120000000E+03 0.  0.
         13    1    1    2    0    0  0.10153888078E+02  0.11210776496E+02  0.81170803498E+02  0.82568114047E+02  0.10566000000E+00 0.  1.
        994    1    1    2    0    0  0.12766980704E+02 -0.21625902458E+02  0.35245503392E+01  0.17306801527E+03  0.17120000000E+03 0.  0.
        998    1    1    2    0    0 -0.22920868782E+02  0.10415125962E+02  0.14153046424E+04  0.14155638707E+04  0.10000000000E+02 0.  1.
</event>
<event>
 5    1  0.1153629E-008  0.3851197E+03  0.7957747E-01  0.3429165E+00
         13   -1    0    0    0    0  0.00000000000E+00  0.00000000000E+00  0.14999999963E+04  0.15000000000E+04  0.10566000000E+00 0. -1.
        994   -1    0    0    0    0 -0.00000000000E+00 -0.00000000000E+00  0.11368683772E-12  0.17120000000E+03  0.17120000000E+03 0.  0.
         13    1    1    2    0    0 -0.33756104081E+01  0.94302484117E+01  0.32096622200E+02  0.33623334924E+02  0.10566000000E+00 0. -1.
        994    1    1    2    0    0  0.50007841136E+01 -0.31334242866E+01  0.16852021973E+01  0.17130997080E+03  0.17120000000E+03 0.  0.
        998    1    1    2    0    0 -0.16251737055E+01 -0.62968241251E+01  0.14662181719E+04  0.14662666943E+04  0.10000000000E+02 0. -1.
</event>
<event>
 5    1  0.1153629E-008  0.3792143E+03  0.7957747E-01  0.3454587E+00
         13   -1    0    0    0    0  0.00000000000E+00  0.00000000000E+00  0.14999999963E+04  0.15000000000E+04  0.10566000000E+00 0.  1.
        994   -1    0    0    0    0 -0.00000000000E+00 -0.00000000000E+00  0.11368683772E-12  0.17120000000E+03  0.17120000000E+03 0.  0.
         13    1    1    2    0    0 -0.14176170061E+02  0.12067538849E+02  0.37763281377E+02  0.42103038796E+02  0.10566000000E+00 0.  1.
        994    1    1    2    0    0  0.51573103127E+01  0.33296930637E+01  0.46565785811E+01  0.17137330139E+03  0.17120000000E+03 0.  0.
        998    1    1    2    0    0  0.90188597484E+01 -0.15397231913E+02  0.14575801363E+04  0.14577236598E+04  0.10000000000E+02 0.  1.
</event>
<event>
 5    1  0.1153629E-008  0.2018915E+03  0.7957747E-01  0.5004729E+00
         13   -1    0    0    0    0  0.00000000000E+00  0.00000000000E+00  0.14999999963E+04  0.15000000000E+04  0.10566000000E+00 0. -1.
        994   -1    0    0    0    0 -0.00000000000E+00 -0.00000000000E+00  0.11368683772E-12  0.17120000000E+03  0.17120000000E+03 0.  0.
         13    1    1    2    0    0 -0.18445035312E+02  0.11911161192E+03  0.81755449396E+02  0.14564257650E+03  0.10566000000E+00 0. -1.
        994    1    1    2    0    0  0.22326473863E+02 -0.11645489611E+03  0.14852926509E+03  0.25579405163E+03  0.17120000000E+03 0.  0.
        998    1    1    2    0    0 -0.38814385514E+01 -0.26567158059E+01  0.12697152818E+04  0.12697633719E+04  0.10000000000E+02 0. -1.
</event>
<event>
 5    1  0.1153629E-008  0.3824097E+03  0.7957747E-01  0.3440733E+00
         13   -1    0    0    0    0  0.00000000000E+00  0.00000000000E+00  0.14999999963E+04  0.15000000000E+04  0.10566000000E+00 0. -1.
        994   -1    0    0    0    0 -0.00000000000E+00 -0.00000000000E+00  0.11368683772E-12  0.17120000000E+03  0.17120000000E+03 0.  0.
         13    1    1    2    0    0  0.10649256360E+01 -0.20273080560E+02  0.70421200586E+02  0.73289075025E+02  0.10566000000E+00 0. -1.
        994    1    1    2    0    0  0.19482708974E+01  0.10792490152E+02  0.33206605447E+01  0.17158304226E+03  0.17120000000E+03 0.  0.
        998    1    1    2    0    0 -0.30131965334E+01  0.94805904080E+01  0.14262581351E+04  0.14263278827E+04  0.10000000000E+02 0. -1.
</event>
<event>
 5    1  0.1153629E-008  0.3817711E+03  0.7957747E-01  0.3443483E+00
         13   -1    0    0    0    0  0.00000000000E+00  0.00000000000E+00  0.14999999963E+04  0.15000000000E+04  0.10566000000E+00 0.  1.
        994   -1    0    0    0    0 -0.00000000000E+00 -0.00000000000E+00  0.11368683772E-12  0.17120000000E+03  0.17120000000E+03 0.  0.
         13    1    1    2    0    0 -0.12698395379E+02  0.16925211559E+02  0.69544796336E+02  0.72692516073E+02  0.10566000000E+00 0.  1.
        994    1    1    2    0    0  0.54181630920E+01 -0.68376701541E+01  0.34947398873E+01  0.17145775990E+03  0.17120000000E+03 0.  0.
        998    1    1    2    0    0  0.72802322875E+01 -0.10087541405E+02  0.14269604601E+04  0.14270497240E+04  0.10000000000E+02 0.  1.
</event>
<event>
 5    1  0.1153629E-008  0.3748224E+03  0.7957747E-01  0.3474018E+00
         13   -1    0    0    0    0  0.00000000000E+00  0.00000000000E+00  0.14999999963E+04  0.15000000000E+04  0.10566000000E+00 0.  1.
        994   -1    0    0    0    0 -0.00000000000E+00 -0.00000000000E+00  0.11368683772E-12  0.17120000000E+03  0.17120000000E+03 0.  0.
         13    1    1    2    0    0  0.97968402190E+01  0.56606999911E+01  0.63019032905E+01  0.12951708450E+02  0.10566000000E+00 0.  1.
        994    1    1    2    0    0 -0.11312608314E+02 -0.36891819938E+01  0.72516733624E+01  0.17176615481E+03  0.17120000000E+03 0.  0.
        998    1    1    2    0    0  0.15157680953E+01 -0.19715179973E+01  0.14864464196E+04  0.14864821367E+04  0.10000000000E+02 0.  1.
</event>
<event>
 5    1  0.1153629E-008  0.3741518E+03  0.7957747E-01  0.3477025E+00
         13   -1    0    0    0    0  0.00000000000E+00  0.00000000000E+00  0.14999999963E+04  0.15000000000E+04  0.10566000000E+00 0.  1.
        994   -1    0    0    0    0 -0.00000000000E+00 -0.00000000000E+00  0.11368683772E-12  0.17120000000E+03  0.17120000000E+03 0.  0.
         13    1    1    2    0    0 -0.12233944672E+03  0.37871023355E+02  0.76696909187E+03  0.77758777876E+03  0.10566000000E+00 0.  1.
        994    1    1    2    0    0  0.10129281022E+03 -0.32808250997E+02  0.46802784925E+02  0.20696993843E+03  0.17120000000E+03 0.  0.
        998    1    1    2    0    0  0.21046636502E+02 -0.50627723579E+01  0.68622811949E+03  0.68664228281E+03  0.10000000000E+02 0. -1.
</event>
<event>
 5    1  0.1153629E-008  0.3684770E+03  0.7957747E-01  0.3502920E+00
         13   -1    0    0    0    0  0.00000000000E+00  0.00000000000E+00  0.14999999963E+04  0.15000000000E+04  0.10566000000E+00 0.  1.
        994   -1    0    0    0    0 -0.00000000000E+00 -0.00000000000E+00  0.11368683772E-12  0.17120000000E+03  0.17120000000E+03 0.  0.
         13    1    1    2    0    0  0.46640074399E+02  0.20977997390E+01  0.11125619257E+03  0.12065508217E+03  0.10566000000E+00 0.  1.
        994    1    1    2    0    0 -0.13197162397E+02 -0.59967670448E+01  0.10798018353E+02  0.17215157133E+03  0.17120000000E+03 0.  0.
        998    1    1    2    0    0 -0.33442912002E+02  0.38989673058E+01  0.13779457854E+04  0.13783933465E+04  0.10000000000E+02 0.  1.
</event>
<event>
 5    1  0.1153629E-008  0.3738120E+03  0.7957747E-01  0.3478553E+00
         13   -1    0    0    0    0  0.00000000000E+00  0.00000000000E+00  0.14999999963E+04  0.15000000000E+04  0.10566000000E+00 0.  1.
        994   -1    0    0    0    0 -0.00000000000E+00 -0.00000000000E+00  0.11368683772E-12  0.17120000000E+03  0.17120000000E+03 0.  0.
         13    1    1    2    0    0  0.72365676530E+02 -0.23220868421E+02  0.26490338926E+03  0.27558994299E+03  0.10566000000E+00 0.  1.
        994    1    1    2    0    0 -0.97575901489E+02  0.39230598732E+02  0.46030580937E+02  0.20612702591E+03  0.17120000000E+03 0.  0.
        998    1    1    2    0    0  0.25210224959E+02 -0.16009730311E+02  0.11890660261E+04  0.11894830311E+04  0.10000000000E+02 0.  1.
</event>
<event>
 5    1  0.1153629E-008  0.3766317E+03  0.7957747E-01  0.3465957E+00
         13   -1    0    0    0    0  0.00000000000E+00  0.00000000000E+00  0.14999999963E+04  0.15000000000E+04  0.10566000000E+00 0.  1.
        994   -1    0    0    0    0 -0.00000000000E+00 -0.00000000000E+00  0.11368683772E-12  0.17120000000E+03  0.17120000000E+03 0.  0.
         13    1    1    2    0    0  0.19401248223E+02 -0.22321020127E+01  0.29861998629E+02  0.35681099172E+02  0.10566000000E+00 0.  1.
        994    1    1    2    0    0 -0.17846214446E+02  0.12334612705E+01  0.69257766041E+01  0.17227134172E+03  0.17120000000E+03 0.  0.
        998    1    1    2    0    0 -0.15550337772E+01  0.99864074217E+00  0.14632122210E+04  0.14632475591E+04  0.10000000000E+02 0.  1.
</event>
<event>
 5    1  0.1153629E-008  0.3816645E+03  0.7957747E-01  0.3443943E+00
         13   -1    0    0    0    0  0.00000000000E+00  0.00000000000E+00  0.14999999963E+04  0.15000000000E+04  0.10566000000E+00 0.  1.
        994   -1    0    0    0    0 -0.00000000000E+00 -0.00000000000E+00  0.11368683772E-12  0.17120000000E+03  0.17120000000E+03 0.  0.
         13    1    1    2    0    0 -0.91311597686E+01 -0.14015183006E+02  0.40807964503E+02  0.44103339605E+02  0.10566000000E+00 0.  1.
        994    1    1    2    0    0  0.71643188810E+01  0.12245177929E+02  0.39647013069E+01  0.17183256590E+03  0.17120000000E+03 0.  0.
        998    1    1    2    0    0  0.19668408876E+01  0.17700050775E+01  0.14552273305E+04  0.14552640945E+04  0.10000000000E+02 0.  1.
</event>
<event>
 5    1  0.1153629E-008  0.3776593E+03  0.7957747E-01  0.3461414E+00
         13   -1    0    0    0    0  0.00000000000E+00  0.00000000000E+00  0.14999999963E+04  0.15000000000E+04  0.10566000000E+00 0. -1.
        994   -1    0    0    0    0 -0.00000000000E+00 -0.00000000000E+00  0.11368683772E-12  0.17120000000E+03  0.17120000000E+03 0.  0.
         13    1    1    2    0    0 -0.48337368773E+01 -0.14670435094E+02  0.23688083013E+02  0.28279376212E+02  0.10566000000E+00 0. -1.
        994    1    1    2    0    0 -0.45161077807E+02 -0.39737725251E+02  0.17609023669E+02  0.18231326740E+03  0.17120000000E+03 0.  0.
        998    1    1    2    0    0  0.49994814685E+02  0.54408160346E+02  0.14587028896E+04  0.14606073564E+04  0.10000000000E+02 0. -1.
</event>
<event>
 5    1  0.1153629E-008  0.3751457E+03  0.7957747E-01  0.3472571E+00
         13   -1    0    0    0    0  0.00000000000E+00  0.00000000000E+00  0.14999999963E+04  0.15000000000E+04  0.10566000000E+00 0. -1.
        994   -1    0    0    0    0 -0.00000000000E+00 -0.00000000000E+00  0.11368683772E-12  0.17120000000E+03  0.17120000000E+03 0.  0.
         13    1    1    2    0    0 -0.16435392748E+02  0.33333581562E+02  0.10038767575E+03  0.10704646842E+03  0.10566000000E+00 0. -1.
        994    1    1    2    0    0  0.10946881774E+02 -0.24756370911E+02  0.90973310375E+01  0.17356530054E+03  0.17120000000E+03 0.  0.
        998    1    1    2    0    0  0.54885109736E+01 -0.85772106511E+01  0.13905149895E+04  0.13905882310E+04  0.10000000000E+02 0. -1.
</event>
<event>
 5    1  0.1153629E-008  0.3751181E+03  0.7957747E-01  0.3472695E+00
         13   -1    0    0    0    0  0.00000000000E+00  0.00000000000E+00  0.14999999963E+04  0.15000000000E+04  0.10566000000E+00 0.  1.
        994   -1    0    0    0    0 -0.00000000000E+00 -0.00000000000E+00  0.11368683772E-12  0.17120000000E+03  0.17120000000E+03 0.  0.
         13    1    1    2    0    0 -0.92734809452E+01  0.73882081913E+01  0.76873735385E+01  0.14131169275E+02  0.10566000000E+00 0.  1.
        994    1    1    2    0    0  0.47326522067E-01 -0.67758125598E+01  0.67741307609E+01  0.17146790581E+03  0.17120000000E+03 0.  0.
        998    1    1    2    0    0  0.92261544231E+01 -0.61239563148E+00  0.14855384920E+04  0.14856009249E+04  0.10000000000E+02 0.  1.
</event>
<event>
 5    1  0.1153629E-008  0.3974048E+03  0.7957747E-01  0.3378707E+00
         13   -1    0    0    0    0  0.00000000000E+00  0.00000000000E+00  0.14999999963E+04  0.15000000000E+04  0.10566000000E+00 0. -1.
        994   -1    0    0    0    0 -0.00000000000E+00 -0.00000000000E+00  0.11368683772E-12  0.17120000000E+03  0.17120000000E+03 0.  0.
         13    1    1    2    0    0 -0.33679912741E+02  0.11133761703E+03  0.52399575257E+03  0.53675130309E+03  0.10566000000E+00 0. -1.
        994    1    1    2    0    0 -0.12334822862E+02  0.31892794074E+02  0.30778834874E+02  0.17727401063E+03  0.17120000000E+03 0.  0.
        998    1    1    2    0    0  0.46014735602E+02 -0.14323041110E+03  0.94522540883E+03  0.95717468628E+03  0.10000000000E+02 0. -1.
</event>
<event>
 5    1  0.1153629E-008  0.3759533E+03  0.7957747E-01  0.3468970E+00
         13   -1    0    0    0    0  0.00000000000E+00  0.00000000000E+00  0.14999999963E+04  0.15000000000E+04  0.10566000000E+00 0. -1.
        994   -1    0    0    0    0 -0.00000000000E+00 -0.00000000000E+00  0.11368683772E-12  0.17120000000E+03  0.17120000000E+03 0.  0.
         13    1    1    2    0    0 -0.10918088528E+03  0.40851110105E+02  0.60208271131E+03  0.61326412037E+03  0.10566000000E+00 0. -1.
        994    1    1    2    0    0  0.10726997339E+03 -0.57776744969E+02  0.58274000960E+02  0.21806030963E+03  0.17120000000E+03 0.  0.
        998    1    1    2    0    0  0.19109118949E+01  0.16925634864E+02  0.83964328401E+03  0.83987557000E+03  0.10000000000E+02 0.  1.
</event>
<event>
 5    1  0.1153629E-008  0.3844144E+03  0.7957747E-01  0.3432160E+00
         13   -1    0    0    0    0  0.00000000000E+00  0.00000000000E+00  0.14999999963E+04  0.15000000000E+04  0.10566000000E+00 0. -1.
        994   -1    0    0    0    0 -0.00000000000E+00 -0.00000000000E+00  0.11368683772E-12  0.17120000000E+03  0.17120000000E+03 0.  0.
         13    1    1    2    0    0 -0.81552642601E+01 -0.77832070433E+01  0.32867286684E+02  0.34747033615E+02  0.10566000000E+00 0. -1.
        994    1    1    2    0    0  0.11021593338E+02 -0.26368641323E+01  0.23444331975E+01  0.17159069013E+03  0.17120000000E+03 0.  0.
        998    1    1    2    0    0 -0.28663290779E+01  0.10420071176E+02  0.14647882764E+04  0.14648622763E+04  0.10000000000E+02 0. -1.
</event>
<event>
 5    1  0.1294653E-008  0.3859979E+03  0.7957747E-01  0.3425451E+00
         13   -1    0    0    0    0  0.00000000000E+00  0.00000000000E+00  0.14999999963E+04  0.15000000000E+04  0.10566000000E+00 0.  1.
        994   -1    0    0    0    0 -0.00000000000E+00 -0.00000000000E+00  0.11368683772E-12  0.17120000000E+03  0.17120000000E+03 0.  0.
         13    1    1    2    0    0 -0.11040622562E+02 -0.13034837008E+01  0.58411463973E+02  0.59460110190E+02  0.10566000000E+00 0.  1.
        994    1    1    2    0    0  0.72151273563E-01 -0.61766295049E+01  0.12605792988E+01  0.17131603841E+03  0.17120000000E+03 0.  0.
        998    1    1    2    0    0  0.10968471288E+02  0.74801132057E+01  0.14403279530E+04  0.14404238514E+04  0.10000000000E+02 0.  1.
</event>
<event>
 5    1  0.1153629E-008  0.3804838E+03  0.7957747E-01  0.3449054E+00
         13   -1    0    0    0    0  0.00000000000E+00  0.00000000000E+00  0.14999999963E+04  0.15000000000E+04  0.10566000000E+00 0.  1.
        994   -1    0    0    0    0 -0.00000000000E+00 -0.00000000000E+00  0.11368683772E-12  0.17120000000E+03  0.17120000000E+03 0.  0.
         13    1    1    2    0    0  0.35413193124E+02 -0.11947168130E+02  0.35650197574E+02  0.51650525889E+02  0.10566000000E+00 0.  1.
        994    1    1    2    0    0 -0.24432605524E+02  0.13051451522E+02  0.19383365568E+02  0.17450629633E+03  0.17120000000E+03 0.  0.
        998    1    1    2    0    0 -0.10980587599E+02 -0.11042833921E+01  0.14449664331E+04  0.14450431778E+04  0.10000000000E+02 0.  1.
</event>
<event>
 5    1  0.1153629E-008  0.3823914E+03  0.7957747E-01  0.3440811E+00
         13   -1    0    0    0    0  0.00000000000E+00  0.00000000000E+00  0.14999999963E+04  0.15000000000E+04  0.10566000000E+00 0.  1.
        994   -1    0    0    0    0 -0.00000000000E+00 -0.00000000000E+00  0.11368683772E-12  0.17120000000E+03  0.17120000000E+03 0.  0.
         13    1    1    2    0    0 -0.10182235622E+02  0.96385016392E+01  0.31826963594E+02  0.34778519401E+02  0.10566000000E+00 0.  1.
        994    1    1    2    0    0  0.13190214187E+02 -0.84661851286E+01  0.37460230697E+01  0.17195676994E+03  0.17120000000E+03 0.  0.
        998    1    1    2    0    0 -0.30079785656E+01 -0.11723165106E+01  0.14644270096E+04  0.14644647107E+04  0.10000000000E+02 0.  1.
</event>
<event>
 5    1  0.1153629E-008  0.3798055E+03  0.7957747E-01  0.3452006E+00
         13   -1    0    0    0    0  0.00000000000E+00  0.00000000000E+00  0.14999999963E+04  0.15000000000E+04  0.10566000000E+00 0. -1.
        994   -1    0    0    0    0 -0.00000000000E+00 -0.00000000000E+00  0.11368683772E-12  0.17120000000E+03  0.17120000000E+03 0.  0.
         13    1    1    2    0    0 -0.12705634918E+03  0.43314826445E+02  0.45755583665E+03  0.47684048158E+03  0.10566000000E+00 0. -1.
        994    1    1    2    0    0  0.10411686513E+03 -0.23332187771E+02  0.58700807016E+02  0.21009506738E+03  0.17120000000E+03 0.  0.
        998    1    1    2    0    0  0.22939484047E+02 -0.19982638674E+02  0.98374335261E+03  0.98426445104E+03  0.10000000000E+02 0. -1.
</event>
<event>
 5    1  0.1153629E-008  0.3814226E+03  0.7957747E-01  0.3444988E+00
         13   -1    0    0    0    0  0.00000000000E+00  0.00000000000E+00  0.14999999963E+04  0.15000000000E+04  0.10566000000E+00 0. -1.
        994   -1    0    0    0    0 -0.00000000000E+00 -0.00000000000E+00  0.11368683772E-12  0.17120000000E+03  0.17120000000E+03 0.  0.
         13    1    1    2    0    0  0.21957696246E+01 -0.17882535495E+02  0.47406412418E+02  0.50714747188E+02  0.10566000000E+00 0. -1.
        994    1    1    2    0    0  0.71022067016E+01  0.67536600787E+01  0.37364147552E+01  0.17152100180E+03  0.17120000000E+03 0.  0.
        998    1    1    2    0    0 -0.92979763262E+01  0.11128875416E+02  0.14488571691E+04  0.14489642510E+04  0.10000000000E+02 0. -1.
</event>
<event>
 5    1  0.1153629E-008  0.3823809E+03  0.7957747E-01  0.3440857E+00
         13   -1    0    0    0    0  0.00000000000E+00  0.00000000000E+00  0.14999999963E+04  0.15000000000E+04  0.10566000000E+00 0. -1.
        994   -1    0    0    0    0 -0.00000000000E+00 -0.00000000000E+00  0.11368683772E-12  0.17120000000E+03  0.17120000000E+03 0.  0.
         13    1    1    2    0    0  0.28125192895E+02  0.50763983314E+01  0.12890809688E+03  0.13203827059E+03  0.10566000000E+00 0. -1.
        994    1    1    2    0    0 -0.27485293673E+02 -0.22852059993E+01  0.54631554341E+01  0.17349337048E+03  0.17120000000E+03 0.  0.
        998    1    1    2    0    0 -0.63989922222E+00 -0.27911923321E+01  0.13656287440E+04  0.13656683589E+04  0.10000000000E+02 0. -1.
</event>
<event>
 5    1  0.1153629E-008  0.3786499E+03  0.7957747E-01  0.3457058E+00
         13   -1    0    0    0    0  0.00000000000E+00  0.00000000000E+00  0.14999999963E+04  0.15000000000E+04  0.10566000000E+00 0. -1.
        994   -1    0    0    0    0 -0.00000000000E+00 -0.00000000000E+00  0.11368683772E-12  0.17120000000E+03  0.17120000000E+03 0.  0.
         13    1    1    2    0    0 -0.10739787044E+01 -0.65468269591E+02  0.12587587681E+03  0.14188726257E+03  0.10566000000E+00 0. -1.
        994    1    1    2    0    0 -0.31266327558E+02  0.57144731053E+02  0.31050303405E+02  0.18578661111E+03  0.17120000000E+03 0.  0.
        998    1    1    2    0    0  0.32340306262E+02  0.83235385380E+01  0.13430738161E+04  0.13435261263E+04  0.10000000000E+02 0. -1.
</event>
<event>
 5    1  0.1153629E-008  0.3829144E+03  0.7957747E-01  0.3438566E+00
         13   -1    0    0    0    0  0.00000000000E+00  0.00000000000E+00  0.14999999963E+04  0.15000000000E+04  0.10566000000E+00 0. -1.
        994   -1    0    0    0    0 -0.00000000000E+00 -0.00000000000E+00  0.11368683772E-12  0.17120000000E+03  0.17120000000E+03 0.  0.
         13    1    1    2    0    0  0.20040472501E+02 -0.11118997677E+02  0.12531767066E+03  0.12739616317E+03  0.10566000000E+00 0. -1.
        994    1    1    2    0    0  0.25460140576E+02  0.59063096773E+01  0.49342316024E+01  0.17325383082E+03  0.17120000000E+03 0.  0.
        998    1    1    2    0    0 -0.45500613077E+02  0.52126880001E+01  0.13697480940E+04  0.13705500060E+04  0.10000000000E+02 0. -1.
</event>
<event>
 5    1  0.1153629E-008  0.3795202E+03  0.7957747E-01  0.3453250E+00
         13   -1    0    0    0    0  0.00000000000E+00  0.00000000000E+00  0.14999999963E+04  0.15000000000E+04  0.10566000000E+00 0.  1.
        994   -1    0    0    0    0 -0.00000000000E+00 -0.00000000000E+00  0.11368683772E-12  0.17120000000E+03  0.17120000000E+03 0.  0.
         13    1    1    2    0    0  0.13656269115E+02 -0.17446577210E+03  0.10137893966E+04  0.10287826550E+04  0.10566000000E+00 0.  1.
        994    1    1    2    0    0 -0.13797830653E+02  0.17087037202E+03  0.11003320193E+03  0.26608985267E+03  0.17120000000E+03 0.  0.
        998    1    1    2    0    0  0.14156153859E+00  0.35954000849E+01  0.37617739772E+03  0.37632749235E+03  0.10000000000E+02 0.  0.
</event>
<event>
 5    1  0.1153629E-008  0.3776236E+03  0.7957747E-01  0.3461571E+00
         13   -1    0    0    0    0  0.00000000000E+00  0.00000000000E+00  0.14999999963E+04  0.15000000000E+04  0.10566000000E+00 0.  1.
        994   -1    0    0    0    0 -0.00000000000E+00 -0.00000000000E+00  0.11368683772E-12  0.17120000000E+03  0.17120000000E+03 0.  0.
         13    1    1    2    0    0 -0.91081964995E+02  0.94195546550E+02  0.66801603405E+03  0.68074529617E+03  0.10566000000E+00 0.  1.
        994    1    1    2    0    0  0.10434227697E+03 -0.10152800445E+03  0.80445222189E+02  0.23869671180E+03  0.17120000000E+03 0.  0.
        998    1    1    2    0    0 -0.13260311972E+02  0.73324579014E+01  0.75153874004E+03  0.75175799203E+03  0.10000000000E+02 0.  1.
</event>
<event>
 5    1  0.1153629E-008  0.3828308E+03  0.7957747E-01  0.3438924E+00
         13   -1    0    0    0    0  0.00000000000E+00  0.00000000000E+00  0.14999999963E+04  0.15000000000E+04  0.10566000000E+00 0.  1.
        994   -1    0    0    0    0 -0.00000000000E+00 -0.00000000000E+00  0.11368683772E-12  0.17120000000E+03  0.17120000000E+03 0.  0.
         13    1    1    2    0    0  0.10187346482E+02  0.34110370380E+01  0.20321861197E+02  0.22987092216E+02  0.10566000000E+00 0.  1.
        994    1    1    2    0    0 -0.44834678677E+01 -0.76667589805E+01  0.29722185694E+01  0.17145598491E+03  0.17120000000E+03 0.  0.
        998    1    1    2    0    0 -0.57038786140E+01  0.42557219425E+01  0.14767059165E+04  0.14767569229E+04  0.10000000000E+02 0.  1.
</event>
<event>
 5    1  0.1153629E-008  0.3809161E+03  0.7957747E-01  0.3447179E+00
         13   -1    0    0    0    0  0.00000000000E+00  0.00000000000E+00  0.14999999963E+04  0.15000000000E+04  0.10566000000E+00 0. -1.
        994   -1    0    0    0    0 -0.00000000000E+00 -0.00000000000E+00  0.11368683772E-12  0.17120000000E+03  0.17120000000E+03 0.  0.
         13    1    1    2    0    0  0.26810701418E+02 -0.46443195666E+01  0.93979411721E+02  0.97839278443E+02  0.10566000000E+00 0. -1.
        994    1    1    2    0    0 -0.27631422386E+02  0.31739633935E+01  0.62538489135E+01  0.17355725330E+03  0.17120000000E+03 0.  0.
        998    1    1    2    0    0  0.82072096793E+00  0.14703561730E+01  0.13997667356E+04  0.13998034683E+04  0.10000000000E+02 0. -1.
</event>
<event>
 5    1  0.1153629E-008  0.3831451E+03  0.7957747E-01  0.3437577E+00
         13   -1    0    0    0    0  0.00000000000E+00  0.00000000000E+00  0.14999999963E+04  0.15000000000E+04  0.10566000000E+00 0.  1.
        994   -1    0    0    0    0 -0.00000000000E+00 -0.00000000000E+00  0.11368683772E-12  0.17120000000E+03  0.17120000000E+03 0.  0.
         13    1    1    2    0    0  0.10510659512E+02 -0.80179899020E+01  0.33044146038E+02  0.35590572865E+02  0.10566000000E+00 0.  1.
        994    1    1    2    0    0 -0.12408094077E+02  0.30583221390E+01  0.30944019838E+01  0.17170419173E+03  0.17120000000E+03 0.  0.
        998    1    1    2    0    0  0.18974345643E+01  0.49596677630E+01  0.14638614483E+04  0.14639052354E+04  0.10000000000E+02 0.  1.
</event>
<event>
 5    1  0.1153629E-008  0.3730323E+03  0.7957747E-01  0.3482070E+00
         13   -1    0    0    0    0  0.00000000000E+00  0.00000000000E+00  0.14999999963E+04  0.15000000000E+04  0.10566000000E+00 0.  1.
        994   -1    0    0    0    0 -0.00000000000E+00 -0.00000000000E+00  0.11368683772E-12  0.17120000000E+03  0.17120000000E+03 0.  0.
         13    1    1    2    0    0  0.62311873931E+01 -0.10730247223E+02  0.27552515707E+00  0.12411808085E+02  0.10566000000E+00 0.  1.
        994    1    1    2    0    0 -0.60912012773E+01  0.13654452680E+02  0.13341543591E+02  0.17236874310E+03  0.17120000000E+03 0.  0.
        998    1    1    2    0    0 -0.13998611577E+00 -0.29242054566E+01  0.14863829275E+04  0.14864194488E+04  0.10000000000E+02 0.  1.
</event>
<event>
 5    1  0.1153629E-008  0.3858042E+03  0.7957747E-01  0.3426269E+00
         13   -1    0    0    0    0  0.00000000000E+00  0.00000000000E+00  0.14999999963E+04  0.15000000000E+04  0.10566000000E+00 0.  1.
        994   -1    0    0    0    0 -0.00000000000E+00 -0.00000000000E+00  0.11368683772E-12  0.17120000000E+03  0.17120000000E+03 0.  0.
         13    1    1    2    0    0 -0.49470953513E+01 -0.10249555558E+02  0.55608860211E+02  0.56761638802E+02  0.10566000000E+00 0.  1.
        994    1    1    2    0    0  0.58918551708E+01 -0.20367792443E+01  0.13588870695E+01  0.17131885186E+03  0.17120000000E+03 0.  0.
        998    1    1    2    0    0 -0.94475981949E+00  0.12286334803E+02  0.14430322490E+04  0.14431195093E+04  0.10000000000E+02 0.  1.
</event>
<event>
 5    1  0.1153629E-008  0.3856551E+03  0.7957747E-01  0.3426899E+00
         13   -1    0    0    0    0  0.00000000000E+00  0.00000000000E+00  0.14999999963E+04  0.15000000000E+04  0.10566000000E+00 0.  1.
        994   -1    0    0    0    0 -0.00000000000E+00 -0.00000000000E+00  0.11368683772E-12  0.17120000000E+03  0.17120000000E+03 0.  0.
         13    1    1    2    0    0 -0.37950302752E+01 -0.17592520689E+02  0.10059381019E+03  0.10219111924E+03  0.10566000000E+00 0.  1.
        994    1    1    2    0    0  0.14800932914E+02  0.34834845476E+02  0.60205530321E+01  0.17543722847E+03  0.17120000000E+03 0.  0.
        998    1    1    2    0    0 -0.11005902639E+02 -0.17242324787E+02  0.13933856331E+04  0.13935716523E+04  0.10000000000E+02 0.  1.
</event>
<event>
 5    1  0.1153629E-008  0.3887965E+03  0.7957747E-01  0.3413729E+00
         13   -1    0    0    0    0  0.00000000000E+00  0.00000000000E+00  0.14999999963E+04  0.15000000000E+04  0.10566000000E+00 0.  1.
        994   -1    0    0    0    0 -0.00000000000E+00 -0.00000000000E+00  0.11368683772E-12  0.17120000000E+03  0.17120000000E+03 0.  0.
         13    1    1    2    0    0 -0.22740508256E+01  0.27659498110E+02  0.10206318071E+02  0.29570242397E+02  0.10566000000E+00 0.  1.
        994    1    1    2    0    0 -0.78727975212E+01  0.14436167039E+02  0.22258935817E+02  0.17342227101E+03  0.17120000000E+03 0.  0.
        998    1    1    2    0    0  0.10146848347E+02 -0.42095665149E+02  0.14675347424E+04  0.14682074866E+04  0.10000000000E+02 0.  1.
</event>
<event>
 5    1  0.1153629E-008  0.3721742E+03  0.7957747E-01  0.3485958E+00
         13   -1    0    0    0    0  0.00000000000E+00  0.00000000000E+00  0.14999999963E+04  0.15000000000E+04  0.10566000000E+00 0.  1.
        994   -1    0    0    0    0 -0.00000000000E+00 -0.00000000000E+00  0.11368683772E-12  0.17120000000E+03  0.17120000000E+03 0.  0.
         13    1    1    2    0    0 -0.64968404250E+02  0.36714287605E+02  0.30567587711E+03  0.31465311929E+03  0.10566000000E+00 0.  1.
        994    1    1    2    0    0  0.68163386002E+01  0.20514257641E+02  0.13741013754E+02  0.17310561140E+03  0.17120000000E+03 0.  0.
        998    1    1    2    0    0  0.58152065650E+02 -0.57228545246E+02  0.11805831054E+04  0.11834412693E+04  0.10000000000E+02 0.  1.
</event>
<event>
 5    1  0.1153629E-008  0.3686042E+03  0.7957747E-01  0.3502330E+00
         13   -1    0    0    0    0  0.00000000000E+00  0.00000000000E+00  0.14999999963E+04  0.15000000000E+04  0.10566000000E+00 0.  1.
        994   -1    0    0    0    0 -0.00000000000E+00 -0.00000000000E+00  0.11368683772E-12  0.17120000000E+03  0.17120000000E+03 0.  0.
         13    1    1    2    0    0 -0.34647320384E+02 -0.54566856151E+02  0.17707778260E+03  0.18850604991E+03  0.10566000000E+00 0.  1.
        994    1    1    2    0    0  0.18889573347E+02  0.66397765667E+02  0.26970445911E+02  0.18655381052E+03  0.17120000000E+03 0.  0.
        998    1    1    2    0    0  0.15757747037E+02 -0.11830909516E+02  0.12959517678E+04  0.12961401396E+04  0.10000000000E+02 0.  1.
</event>
<event>
 5    1  0.1153629E-008  0.3705084E+03  0.7957747E-01  0.3493558E+00
         13   -1    0    0    0    0  0.00000000000E+00  0.00000000000E+00  0.14999999963E+04  0.15000000000E+04  0.10566000000E+00 0. -1.
        994   -1    0    0    0    0 -0.00000000000E+00 -0.00000000000E+00  0.11368683772E-12  0.17120000000E+03  0.17120000000E+03 0.  0.
         13    1    1    2    0    0 -0.96929769457E+02  0.10903056805E+03  0.66987766466E+03  0.68557942046E+03  0.10566000000E+00 0. -1.
        994    1    1    2    0    0  0.85233985773E+02 -0.10891647688E+03  0.78235438852E+02  0.23357622987E+03  0.17120000000E+03 0.  0.
        998    1    1    2    0    0  0.11695783684E+02 -0.11409117083E+00  0.75188689276E+03  0.75204434968E+03  0.10000000000E+02 0. -1.
</event>
<event>
 5    1  0.1153629E-008  0.3843503E+03  0.7957747E-01  0.3432432E+00
         13   -1    0    0    0    0  0.00000000000E+00  0.00000000000E+00  0.14999999963E+04  0.15000000000E+04  0.10566000000E+00 0.  1.
        994   -1    0    0    0    0 -0.00000000000E+00 -0.00000000000E+00  0.11368683772E-12  0.17120000000E+03  0.17120000000E+03 0.  0.
         13    1    1    2    0    0  0.10255484401E+02 -0.78798528218E+01  0.43044552181E+02  0.44945652485E+02  0.10566000000E+00 0.  1.
        994    1    1    2    0    0 -0.40769976591E+01  0.41573773305E+01  0.20647824163E+01  0.17131143868E+03  0.17120000000E+03 0.  0.
        998    1    1    2    0    0 -0.61784867420E+01  0.37224754913E+01  0.14548906617E+04  0.14549429088E+04  0.10000000000E+02 0.  1.
</event>
<event>
 5    1  0.1153629E-008  0.3856373E+03  0.7957747E-01  0.3426974E+00
         13   -1    0    0    0    0  0.00000000000E+00  0.00000000000E+00  0.14999999963E+04  0.15000000000E+04  0.10566000000E+00 0. -1.
        994   -1    0    0    0    0 -0.00000000000E+00 -0.00000000000E+00  0.11368683772E-12  0.17120000000E+03  0.17120000000E+03 0.  0.
         13    1    1    2    0    0  0.37732855632E+00  0.14817371806E+02  0.79482008031E+02  0.80852319996E+02  0.10566000000E+00 0. -1.
        994    1    1    2    0    0  0.34689575211E+01 -0.17220168886E+02  0.23273832894E+01  0.17211456823E+03  0.17120000000E+03 0.  0.
        998    1    1    2    0    0 -0.38462860775E+01  0.24027970802E+01  0.14181906050E+04  0.14182331118E+04  0.10000000000E+02 0. -1.
</event>
<event>
 5    1  0.1200024E-008  0.3857130E+03  0.7957747E-01  0.3426654E+00
         13   -1    0    0    0    0  0.00000000000E+00  0.00000000000E+00  0.14999999963E+04  0.15000000000E+04  0.10566000000E+00 0. -1.
        994   -1    0    0    0    0 -0.00000000000E+00 -0.00000000000E+00  0.11368683772E-12  0.17120000000E+03  0.17120000000E+03 0.  0.
         13    1    1    2    0    0 -0.32892065280E+01  0.13425786391E+02  0.80148106248E+02  0.81331425162E+02  0.10566000000E+00 0. -1.
        994    1    1    2    0    0 -0.61063900778E+01 -0.30657422929E+01  0.14297772407E+01  0.17134226285E+03  0.17120000000E+03 0.  0.
        998    1    1    2    0    0  0.93955966059E+01 -0.10360044098E+02  0.14184221128E+04  0.14185263120E+04  0.10000000000E+02 0. -1.
</event>
<event>
 5    1  0.1153629E-008  0.3832887E+03  0.7957747E-01  0.3436963E+00
         13   -1    0    0    0    0  0.00000000000E+00  0.00000000000E+00  0.14999999963E+04  0.15000000000E+04  0.10566000000E+00 0. -1.
        994   -1    0    0    0    0 -0.00000000000E+00 -0.00000000000E+00  0.11368683772E-12  0.17120000000E+03  0.17120000000E+03 0.  0.
         13    1    1    2    0    0  0.20168325390E+02  0.16000693412E+02  0.12117538876E+03  0.12388006112E+03  0.10566000000E+00 0. -1.
        994    1    1    2    0    0 -0.22299074917E+02 -0.18119594898E+02  0.52171130683E+01  0.17367275759E+03  0.17120000000E+03 0.  0.
        998    1    1    2    0    0  0.21307495269E+01  0.21189014861E+01  0.13736074944E+04  0.13736471813E+04  0.10000000000E+02 0.  0.
</event>
<event>
 5    1  0.1153629E-008  0.3856181E+03  0.7957747E-01  0.3427055E+00
         13   -1    0    0    0    0  0.00000000000E+00  0.00000000000E+00  0.14999999963E+04  0.15000000000E+04  0.10566000000E+00 0. -1.
        994   -1    0    0    0    0 -0.00000000000E+00 -0.00000000000E+00  0.11368683772E-12  0.17120000000E+03  0.17120000000E+03 0.  0.
         13    1    1    2    0    0 -0.16171049543E+02  0.25134596831E+02  0.17105241302E+03  0.17364385956E+03  0.10566000000E+00 0. -1.
        994    1    1    2    0    0  0.58145949385E+02 -0.64860578749E+02  0.26636175376E+02  0.19392465533E+03  0.17120000000E+03 0.  0.
        998    1    1    2    0    0 -0.41974899843E+02  0.39725981918E+02  0.13023114079E+04  0.13036314851E+04  0.10000000000E+02 0. -1.
</event>
<event>
 5    1  0.1153629E-008  0.3737742E+03  0.7957747E-01  0.3478723E+00
         13   -1    0    0    0    0  0.00000000000E+00  0.00000000000E+00  0.14999999963E+04  0.15000000000E+04  0.10566000000E+00 0. -1.
        994   -1    0    0    0    0 -0.00000000000E+00 -0.00000000000E+00  0.11368683772E-12  0.17120000000E+03  0.17120000000E+03 0.  0.
         13    1    1    2    0    0  0.26608775835E+01  0.91902915644E+02  0.26262216330E+03  0.27825103413E+03  0.10566000000E+00 0. -1.
        994    1    1    2    0    0 -0.22284093030E+02 -0.92671236299E+02  0.45875037457E+02  0.20124238595E+03  0.17120000000E+03 0.  0.
        998    1    1    2    0    0  0.19623215447E+02  0.76832065543E+00  0.11915027955E+04  0.11917065799E+04  0.10000000000E+02 0. -1.
</event>
<event>
 5    1  0.1153629E-008  0.3719657E+03  0.7957747E-01  0.3486906E+00
         13   -1    0    0    0    0  0.00000000000E+00  0.00000000000E+00  0.14999999963E+04  0.15000000000E+04  0.10566000000E+00 0.  1.
        994   -1    0    0    0    0 -0.00000000000E+00 -0.00000000000E+00  0.11368683772E-12  0.17120000000E+03  0.17120000000E+03 0.  0.
         13    1    1    2    0    0 -0.39294692496E+02  0.93353100067E+02  0.53587301536E+03  0.54536114081E+03  0.10566000000E+00 0.  1.
        994    1    1    2    0    0 -0.26341858118E+02 -0.51232380737E+02  0.23757710938E+02  0.18218814219E+03  0.17120000000E+03 0.  0.
        998    1    1    2    0    0  0.65636550614E+02 -0.42120719330E+02  0.94036926998E+03  0.94365071700E+03  0.10000000000E+02 0.  1.
</event>
<event>
 5    1  0.1153629E-008  0.3723609E+03  0.7957747E-01  0.3485111E+00
         13   -1    0    0    0    0  0.00000000000E+00  0.00000000000E+00  0.14999999963E+04  0.15000000000E+04  0.10566000000E+00 0.  1.
        994   -1    0    0    0    0 -0.00000000000E+00 -0.00000000000E+00  0.11368683772E-12  0.17120000000E+03  0.17120000000E+03 0.  0.
         13    1    1    2    0    0  0.63111863222E+00 -0.36635279471E+02  0.78894045967E+02  0.86987491433E+02  0.10566000000E+00 0.  1.
        994    1    1    2    0    0 -0.97355236181E+01  0.28920486923E+02  0.11240608981E+02  0.17426120129E+03  0.17120000000E+03 0.  0.
        998    1    1    2    0    0  0.91044049859E+01  0.77147925482E+01  0.14098653413E+04  0.14099513073E+04  0.10000000000E+02 0.  1.
</event>
<event>
 5    1  0.1153629E-008  0.3832939E+03  0.7957747E-01  0.3436940E+00
         13   -1    0    0    0    0  0.00000000000E+00  0.00000000000E+00  0.14999999963E+04  0.15000000000E+04  0.10566000000E+00 0.  1.
        994   -1    0    0    0    0 -0.00000000000E+00 -0.00000000000E+00  0.11368683772E-12  0.17120000000E+03  0.17120000000E+03 0.  0.
         13    1    1    2    0    0 -0.12279249667E+02  0.19942182349E+01  0.31392821176E+02  0.33767991711E+02  0.10566000000E+00 0.  1.
        994    1    1    2    0    0 -0.10892434806E+01 -0.71338185078E+01  0.26517826161E+01  0.17137254672E+03  0.17120000000E+03 0.  0.
        998    1    1    2    0    0  0.13368493147E+02  0.51396002728E+01  0.14659553925E+04  0.14660594616E+04  0.10000000000E+02 0.  1.
</event>
<event>
 5    1  0.1153629E-008  0.3835458E+03  0.7957747E-01  0.3435863E+00
         13   -1    0    0    0    0  0.00000000000E+00  0.00000000000E+00  0.14999999963E+04  0.15000000000E+04  0.10566000000E+00 0. -1.
        994   -1    0    0    0    0 -0.00000000000E+00 -0.00000000000E+00  0.11368683772E-12  0.17120000000E+03  0.17120000000E+03 0.  0.
         13    1    1    2    0    0  0.27674182896E+02  0.16360031985E+02  0.18986098176E+03  0.19256353394E+03  0.10566000000E+00 0. -1.
        994    1    1    2    0    0 -0.22500085833E+02 -0.30752329302E+02  0.71663004269E+01  0.17553562454E+03  0.17120000000E+03 0.  0.
        998    1    1    2    0    0 -0.51740970629E+01  0.14392297316E+02  0.13029727141E+04  0.13031008415E+04  0.10000000000E+02 0. -1.
</event>
<event>
 5    1  0.1153629E-008  0.3849597E+03  0.7957747E-01  0.3429843E+00
         13   -1    0    0    0    0  0.00000000000E+00  0.00000000000E+00  0.14999999963E+04  0.15000000000E+04  0.10566000000E+00 0. -1.
        994   -1    0    0    0    0 -0.00000000000E+00 -0.00000000000E+00  0.11368683772E-12  0.17120000000E+03  0.17120000000E+03 0.  0.
         13    1    1    2    0    0  0.44993761324E+01  0.14404841275E+02  0.66036744493E+02  0.67739254683E+02  0.10566000000E+00 0. -1.
        994    1    1    2    0    0 -0.97950372929E+01 -0.14687575759E+02  0.26759022695E+01  0.17212863820E+03  0.17120000000E+03 0.  0.
        998    1    1    2    0    0  0.52956611606E+01  0.28273448390E+00  0.14312873495E+04  0.14313321071E+04  0.10000000000E+02 0. -1.
</event>
<event>
 5    1  0.1153629E-008  0.3849584E+03  0.7957747E-01  0.3429849E+00
         13   -1    0    0    0    0  0.00000000000E+00  0.00000000000E+00  0.14999999963E+04  0.15000000000E+04  0.10566000000E+00 0. -1.
        994   -1    0    0    0    0 -0.00000000000E+00 -0.00000000000E+00  0.11368683772E-12  0.17120000000E+03  0.17120000000E+03 0.  0.
         13    1    1    2    0    0 -0.11109720719E+02  0.38646557479E+01  0.40648515254E+02  0.42316361078E+02  0.10566000000E+00 0. -1.
        994    1    1    2    0    0  0.85284517271E+01 -0.16536977428E+02  0.27903318786E+01  0.17223075237E+03  0.17120000000E+03 0.  0.
        998    1    1    2    0    0  0.25812689923E+01  0.12672321680E+02  0.14565611491E+04  0.14566528865E+04  0.10000000000E+02 0. -1.
</event>
<event>
 5    1  0.1153629E-008  0.3819738E+03  0.7957747E-01  0.3442609E+00
         13   -1    0    0    0    0  0.00000000000E+00  0.00000000000E+00  0.14999999963E+04  0.15000000000E+04  0.10566000000E+00 0. -1.
        994   -1    0    0    0    0 -0.00000000000E+00 -0.00000000000E+00  0.11368683772E-12  0.17120000000E+03  0.17120000000E+03 0.  0.
         13    1    1    2    0    0 -0.18720693716E+02  0.44503530024E+01  0.56280444769E+02  0.59479153007E+02  0.10566000000E+00 0. -1.
        994    1    1    2    0    0  0.28277482554E+02  0.33631823182E+02  0.95791499584E+01  0.17700823615E+03  0.17120000000E+03 0.  0.
        998    1    1    2    0    0 -0.95567888385E+01 -0.38082176184E+02  0.14341404016E+04  0.14347126108E+04  0.10000000000E+02 0. -1.
</event>
<event>
 5    1  0.1153629E-008  0.3848395E+03  0.7957747E-01  0.3430353E+00
         13   -1    0    0    0    0  0.00000000000E+00  0.00000000000E+00  0.14999999963E+04  0.15000000000E+04  0.10566000000E+00 0. -1.
        994   -1    0    0    0    0 -0.00000000000E+00 -0.00000000000E+00  0.11368683772E-12  0.17120000000E+03  0.17120000000E+03 0.  0.
         13    1    1    2    0    0 -0.14731471271E+02  0.10132817584E+02  0.10231693072E+03  0.10386749114E+03  0.10566000000E+00 0. -1.
        994    1    1    2    0    0  0.92928283443E+01  0.12827122684E+02  0.25357838893E+01  0.17194988204E+03  0.17120000000E+03 0.  0.
        998    1    1    2    0    0  0.54386429271E+01 -0.22959940268E+02  0.13951472817E+04  0.13953826268E+04  0.10000000000E+02 0. -1.
</event>
<event>
 5    1  0.1153629E-008  0.3694536E+03  0.7957747E-01  0.3498406E+00
         13   -1    0    0    0    0  0.00000000000E+00  0.00000000000E+00  0.14999999963E+04  0.15000000000E+04  0.10566000000E+00 0.  1.
        994   -1    0    0    0    0 -0.00000000000E+00 -0.00000000000E+00  0.11368683772E-12  0.17120000000E+03  0.17120000000E+03 0.  0.
         13    1    1    2    0    0  0.58777978070E+01 -0.69543678097E+02  0.30148841557E+03  0.30946105984E+03  0.10566000000E+00 0.  1.
        994    1    1    2    0    0  0.90832142679E+00  0.13523115390E+02  0.10191579715E+02  0.17203780978E+03  0.17120000000E+03 0.  0.
        998    1    1    2    0    0 -0.67861192338E+01  0.56020562708E+02  0.11883200010E+04  0.11897011304E+04  0.10000000000E+02 0.  1.
</event>
<event>
 5    1  0.1153629E-008  0.3830925E+03  0.7957747E-01  0.3437803E+00
         13   -1    0    0    0    0  0.00000000000E+00  0.00000000000E+00  0.14999999963E+04  0.15000000000E+04  0.10566000000E+00 0. -1.
        994   -1    0    0    0    0 -0.00000000000E+00 -0.00000000000E+00  0.11368683772E-12  0.17120000000E+03  0.17120000000E+03 0.  0.
         13    1    1    2    0    0 -0.46284524076E+00 -0.17025105521E+02  0.57194652819E+02  0.59676694939E+02  0.10566000000E+00 0. -1.
        994    1    1    2    0    0 -0.66797740029E+01  0.50308391012E+01  0.28115914316E+01  0.17142716754E+03  0.17120000000E+03 0.  0.
        998    1    1    2    0    0  0.71426192436E+01  0.11994266420E+02  0.14399937520E+04  0.14400961375E+04  0.10000000000E+02 0. -1.
</event>
<event>
 5    1  0.1153629E-008  0.3796972E+03  0.7957747E-01  0.3452478E+00
         13   -1    0    0    0    0  0.00000000000E+00  0.00000000000E+00  0.14999999963E+04  0.15000000000E+04  0.10566000000E+00 0.  1.
        994   -1    0    0    0    0 -0.00000000000E+00 -0.00000000000E+00  0.11368683772E-12  0.17120000000E+03  0.17120000000E+03 0.  0.
         13    1    1    2    0    0  0.18790307513E+02 -0.44307635732E+01  0.44110937419E+02  0.48150735055E+02  0.10566000000E+00 0.  1.
        994    1    1    2    0    0  0.61088613002E+00 -0.71537719124E+01  0.44586109072E+01  0.17140848534E+03  0.17120000000E+03 0.  0.
        998    1    1    2    0    0 -0.19401193643E+02  0.11584535486E+02  0.14514304480E+04  0.14516407796E+04  0.10000000000E+02 0.  1.
</event>
<event>
 5    1  0.1153629E-008  0.3824091E+03  0.7957747E-01  0.3440735E+00
         13   -1    0    0    0    0  0.00000000000E+00  0.00000000000E+00  0.14999999963E+04  0.15000000000E+04  0.10566000000E+00 0.  1.
        994   -1    0    0    0    0 -0.00000000000E+00 -0.00000000000E+00  0.11368683772E-12  0.17120000000E+03  0.17120000000E+03 0.  0.
         13    1    1    2    0    0 -0.41157499739E+01  0.11784050606E+02  0.25386848929E+02  0.28289689095E+02  0.10566000000E+00 0.  1.
        994    1    1    2    0    0  0.38239274344E+00 -0.11446350695E+02  0.33570824073E+01  0.17161548640E+03  0.17120000000E+03 0.  0.
        998    1    1    2    0    0  0.37333572305E+01 -0.33769991089E+00  0.14712560649E+04  0.14712948245E+04  0.10000000000E+02 0.  1.
</event>
<event>
 5    1  0.1153629E-008  0.3824359E+03  0.7957747E-01  0.3440620E+00
         13   -1    0    0    0    0  0.00000000000E+00  0.00000000000E+00  0.14999999963E+04  0.15000000000E+04  0.10566000000E+00 0.  1.
        994   -1    0    0    0    0 -0.00000000000E+00 -0.00000000000E+00  0.11368683772E-12  0.17120000000E+03  0.17120000000E+03 0.  0.
         13    1    1    2    0    0 -0.14302917002E+02  0.27473107714E+02  0.16791673971E+03  0.17074948820E+03  0.10566000000E+00 0.  1.
        994    1    1    2    0    0 -0.96422981102E-01 -0.17392487945E+02  0.39123863840E+01  0.17212569448E+03  0.17120000000E+03 0.  0.
        998    1    1    2    0    0  0.14399339983E+02 -0.10080619769E+02  0.13281708702E+04  0.13283248173E+04  0.10000000000E+02 0.  1.
</event>
<event>
 5    1  0.1153629E-008  0.3832084E+03  0.7957747E-01  0.3437306E+00
         13   -1    0    0    0    0  0.00000000000E+00  0.00000000000E+00  0.14999999963E+04  0.15000000000E+04  0.10566000000E+00 0. -1.
        994   -1    0    0    0    0 -0.00000000000E+00 -0.00000000000E+00  0.11368683772E-12  0.17120000000E+03  0.17120000000E+03 0.  0.
         13    1    1    2    0    0  0.92965658278E+00 -0.14186051685E+02  0.50504842625E+02  0.52467691167E+02  0.10566000000E+00 0. -1.
        994    1    1    2    0    0 -0.22700736939E+02 -0.44051760140E+02  0.10688792621E+02  0.17854851250E+03  0.17120000000E+03 0.  0.
        998    1    1    2    0    0  0.21771080357E+02  0.58237811826E+02  0.14388063610E+04  0.14401837963E+04  0.10000000000E+02 0. -1.
</event>
<event>
 5    1  0.1153629E-008  0.3838229E+03  0.7957747E-01  0.3434680E+00
         13   -1    0    0    0    0  0.00000000000E+00  0.00000000000E+00  0.14999999963E+04  0.15000000000E+04  0.10566000000E+00 0. -1.
        994   -1    0    0    0    0 -0.00000000000E+00 -0.00000000000E+00  0.11368683772E-12  0.17120000000E+03  0.17120000000E+03 0.  0.
         13    1    1    2    0    0 -0.88373546732E+01  0.60467368332E+01  0.25300119831E+02  0.27473061196E+02  0.10566000000E+00 0. -1.
        994    1    1    2    0    0  0.85804015271E+01  0.16748562508E+01  0.24680040498E+01  0.17144083375E+03  0.17120000000E+03 0.  0.
        998    1    1    2    0    0  0.25695314609E+00 -0.77215930840E+01  0.14722318724E+04  0.14722861051E+04  0.10000000000E+02 0. -1.
</event>
<event>
 5    1  0.1153629E-008  0.3717901E+03  0.7957747E-01  0.3487704E+00
         13   -1    0    0    0    0  0.00000000000E+00  0.00000000000E+00  0.14999999963E+04  0.15000000000E+04  0.10566000000E+00 0. -1.
        994   -1    0    0    0    0 -0.00000000000E+00 -0.00000000000E+00  0.11368683772E-12  0.17120000000E+03  0.17120000000E+03 0.  0.
         13    1    1    2    0    0  0.57978966878E+02 -0.31331099002E+02  0.15047803556E+03  0.16427674429E+03  0.10566000000E+00 0. -1.
        994    1    1    2    0    0 -0.67246035293E+02  0.47890418167E+02  0.36269109837E+02  0.19349524476E+03  0.17120000000E+03 0.  0.
        998    1    1    2    0    0  0.92670684149E+01 -0.16559319165E+02  0.13132528509E+04  0.13134280110E+04  0.10000000000E+02 0. -1.
</event>
<event>
 5    1  0.1153629E-008  0.3811514E+03  0.7957747E-01  0.3446160E+00
         13   -1    0    0    0    0  0.00000000000E+00  0.00000000000E+00  0.14999999963E+04  0.15000000000E+04  0.10566000000E+00 0.  1.
        994   -1    0    0    0    0 -0.00000000000E+00 -0.00000000000E+00  0.11368683772E-12  0.17120000000E+03  0.17120000000E+03 0.  0.
         13    1    1    2    0    0  0.28615834694E+02 -0.10157970891E+02  0.12731510325E+03  0.13088619885E+03  0.10566000000E+00 0.  1.
        994    1    1    2    0    0 -0.19168542445E+02  0.49748367353E+01  0.48601921838E+01  0.17241010263E+03  0.17120000000E+03 0.  0.
        998    1    1    2    0    0 -0.94472922489E+01  0.51831341555E+01  0.13678247008E+04  0.13679036985E+04  0.10000000000E+02 0.  1.
</event>
<event>
 5    1  0.1153629E-008  0.3688019E+03  0.7957747E-01  0.3501415E+00
         13   -1    0    0    0    0  0.00000000000E+00  0.00000000000E+00  0.14999999963E+04  0.15000000000E+04  0.10566000000E+00 0. -1.
        994   -1    0    0    0    0 -0.00000000000E+00 -0.00000000000E+00  0.11368683772E-12  0.17120000000E+03  0.17120000000E+03 0.  0.
         13    1    1    2    0    0  0.10047427554E+02  0.17322059370E+02  0.19002469573E+02  0.27606331795E+02  0.10566000000E+00 0. -1.
        994    1    1    2    0    0  0.92721455795E+02  0.65516594410E+02  0.56628727488E+02  0.21308670837E+03  0.17120000000E+03 0.  0.
        998    1    1    2    0    0 -0.10276888335E+03 -0.82838653780E+02  0.14243687992E+04  0.14305069598E+04  0.10000000000E+02 0. -1.
</event>
<event>
 5    1  0.1153629E-008  0.3742780E+03  0.7957747E-01  0.3476458E+00
         13   -1    0    0    0    0  0.00000000000E+00  0.00000000000E+00  0.14999999963E+04  0.15000000000E+04  0.10566000000E+00 0. -1.
        994   -1    0    0    0    0 -0.00000000000E+00 -0.00000000000E+00  0.11368683772E-12  0.17120000000E+03  0.17120000000E+03 0.  0.
         13    1    1    2    0    0 -0.51820443543E+02 -0.40959740279E+01  0.91464849724E+02  0.10520439758E+03  0.10566000000E+00 0. -1.
        994    1    1    2    0    0  0.54154807869E+02  0.10092207935E+00  0.23702074045E+02  0.18111869510E+03  0.17120000000E+03 0.  0.
        998    1    1    2    0    0 -0.23343643264E+01  0.39950519485E+01  0.13848330725E+04  0.13848769073E+04  0.10000000000E+02 0. -1.
</event>
<event>
 5    1  0.1153629E-008  0.3854170E+03  0.7957747E-01  0.3427905E+00
         13   -1    0    0    0    0  0.00000000000E+00  0.00000000000E+00  0.14999999963E+04  0.15000000000E+04  0.10566000000E+00 0. -1.
        994   -1    0    0    0    0 -0.00000000000E+00 -0.00000000000E+00  0.11368683772E-12  0.17120000000E+03  0.17120000000E+03 0.  0.
         13    1    1    2    0    0  0.55536389075E+01  0.13031361090E+02  0.67334685785E+02  0.68808650261E+02  0.10566000000E+00 0. -1.
        994    1    1    2    0    0 -0.25918664132E+01 -0.17072149202E+02  0.24031110714E+01  0.17208541772E+03  0.17120000000E+03 0.  0.
        998    1    1    2    0    0 -0.29617724943E+01  0.40407881116E+01  0.14302621994E+04  0.14303059320E+04  0.10000000000E+02 0. -1.
</event>
<event>
 5    1  0.1153629E-008  0.3795648E+03  0.7957747E-01  0.3453056E+00
         13   -1    0    0    0    0  0.00000000000E+00  0.00000000000E+00  0.14999999963E+04  0.15000000000E+04  0.10566000000E+00 0. -1.
        994   -1    0    0    0    0 -0.00000000000E+00 -0.00000000000E+00  0.11368683772E-12  0.17120000000E+03  0.17120000000E+03 0.  0.
         13    1    1    2    0    0 -0.99306460081E+01 -0.11349825912E+02  0.23669462568E+02  0.28065831551E+02  0.10566000000E+00 0. -1.
        994    1    1    2    0    0  0.13985733049E+02  0.14800210363E+02  0.57423556977E+01  0.17250235246E+03  0.17120000000E+03 0.  0.
        998    1    1    2    0    0 -0.40550870405E+01 -0.34503844510E+01  0.14705881780E+04  0.14706318160E+04  0.10000000000E+02 0. -1.
</event>
<event>
 5    1  0.1153629E-008  0.3716145E+03  0.7957747E-01  0.3488504E+00
         13   -1    0    0    0    0  0.00000000000E+00  0.00000000000E+00  0.14999999963E+04  0.15000000000E+04  0.10566000000E+00 0.  1.
        994   -1    0    0    0    0 -0.00000000000E+00 -0.00000000000E+00  0.11368683772E-12  0.17120000000E+03  0.17120000000E+03 0.  0.
         13    1    1    2    0    0  0.75477948339E+02 -0.19847266648E+02  0.29935852328E+03  0.30936446354E+03  0.10566000000E+00 0.  1.
        994    1    1    2    0    0 -0.22667345100E+02 -0.10731523623E+02  0.14009576464E+02  0.17359343987E+03  0.17120000000E+03 0.  0.
        998    1    1    2    0    0 -0.52810603238E+02  0.30578790270E+02  0.11866318965E+04  0.11882420966E+04  0.10000000000E+02 0.  1.
</event>
<event>
 5    1  0.1153629E-008  0.3851284E+03  0.7957747E-01  0.3429128E+00
         13   -1    0    0    0    0  0.00000000000E+00  0.00000000000E+00  0.14999999963E+04  0.15000000000E+04  0.10566000000E+00 0.  1.
        994   -1    0    0    0    0 -0.00000000000E+00 -0.00000000000E+00  0.11368683772E-12  0.17120000000E+03  0.17120000000E+03 0.  0.
         13    1    1    2    0    0  0.10385929564E+02  0.12136513367E+02  0.86341846497E+02  0.87807107401E+02  0.10566000000E+00 0.  1.
        994    1    1    2    0    0  0.16141071321E+02 -0.18759988865E+02  0.35823617646E+01  0.17301660233E+03  0.17120000000E+03 0.  0.
        998    1    1    2    0    0 -0.26527000885E+02  0.66234754974E+01  0.14100757880E+04  0.14103762903E+04  0.10000000000E+02 0.  1.
</event>
<event>
 5    1  0.1153629E-008  0.3751919E+03  0.7957747E-01  0.3472365E+00
         13   -1    0    0    0    0  0.00000000000E+00  0.00000000000E+00  0.14999999963E+04  0.15000000000E+04  0.10566000000E+00 0. -1.
        994   -1    0    0    0    0 -0.00000000000E+00 -0.00000000000E+00  0.11368683772E-12  0.17120000000E+03  0.17120000000E+03 0.  0.
         13    1    1    2    0    0  0.10843653593E+03 -0.10118504299E+03  0.79556962058E+03  0.80927617511E+03  0.10566000000E+00 0. -1.
        994    1    1    2    0    0 -0.80854193388E+02  0.12986464426E+03  0.90752270737E+02  0.24687576038E+03  0.17120000000E+03 0.  0.
        998    1    1    2    0    0 -0.27582342543E+02 -0.28679601277E+02  0.61367810496E+03  0.61504806451E+03  0.10000000000E+02 0. -1.
</event>
<event>
 5    1  0.1153629E-008  0.3854654E+03  0.7957747E-01  0.3427701E+00
         13   -1    0    0    0    0  0.00000000000E+00  0.00000000000E+00  0.14999999963E+04  0.15000000000E+04  0.10566000000E+00 0.  1.
        994   -1    0    0    0    0 -0.00000000000E+00 -0.00000000000E+00  0.11368683772E-12  0.17120000000E+03  0.17120000000E+03 0.  0.
         13    1    1    2    0    0  0.13137649007E+02 -0.66358399290E+01  0.76957717506E+02  0.78352623701E+02  0.10566000000E+00 0.  1.
        994    1    1    2    0    0 -0.96804205923E+01  0.53935058285E+01  0.18025712525E+01  0.17156774088E+03  0.17120000000E+03 0.  0.
        998    1    1    2    0    0 -0.34572284150E+01  0.12423341004E+01  0.14212397075E+04  0.14212796354E+04  0.10000000000E+02 0.  1.
</event>
<event>
 5    1  0.1153629E-008  0.3815886E+03  0.7957747E-01  0.3444270E+00
         13   -1    0    0    0    0  0.00000000000E+00  0.00000000000E+00  0.14999999963E+04  0.15000000000E+04  0.10566000000E+00 0. -1.
        994   -1    0    0    0    0 -0.00000000000E+00 -0.00000000000E+00  0.11368683772E-12  0.17120000000E+03  0.17120000000E+03 0.  0.
         13    1    1    2    0    0  0.11998246823E+02 -0.90237610574E+01  0.32243381077E+02  0.35567302087E+02  0.10566000000E+00 0. -1.
        994    1    1    2    0    0 -0.10333255807E+02  0.80399240613E+01  0.39036223749E+01  0.17174427158E+03  0.17120000000E+03 0.  0.
        998    1    1    2    0    0 -0.16649910158E+01  0.98383699612E+00  0.14638529928E+04  0.14638884263E+04  0.10000000000E+02 0. -1.
</event>
<event>
 5    1  0.1153629E-008  0.3839111E+03  0.7957747E-01  0.3434304E+00
         13   -1    0    0    0    0  0.00000000000E+00  0.00000000000E+00  0.14999999963E+04  0.15000000000E+04  0.10566000000E+00 0. -1.
        994   -1    0    0    0    0 -0.00000000000E+00 -0.00000000000E+00  0.11368683772E-12  0.17120000000E+03  0.17120000000E+03 0.  0.
         13    1    1    2    0    0 -0.64598060287E+01  0.14180799541E+02  0.56105393275E+02  0.58229292355E+02  0.10566000000E+00 0. -1.
        994    1    1    2    0    0  0.50099219447E+01 -0.64021127098E+01  0.23898587146E+01  0.17140956155E+03  0.17120000000E+03 0.  0.
        998    1    1    2    0    0  0.14498840840E+01 -0.77786868313E+01  0.14415047443E+04  0.14415611461E+04  0.10000000000E+02 0. -1.
</event>
<event>
 5    1  0.1153629E-008  0.3837647E+03  0.7957747E-01  0.3434928E+00
         13   -1    0    0    0    0  0.00000000000E+00  0.00000000000E+00  0.14999999963E+04  0.15000000000E+04  0.10566000000E+00 0.  1.
        994   -1    0    0    0    0 -0.00000000000E+00 -0.00000000000E+00  0.11368683772E-12  0.17120000000E+03  0.17120000000E+03 0.  0.
         13    1    1    2    0    0  0.54584723507E+00  0.12952661050E+02  0.34272900530E+02  0.36643038251E+02  0.10566000000E+00 0.  1.
        994    1    1    2    0    0  0.40132624042E+00 -0.26445849231E+02  0.45579238354E+01  0.17329096536E+03  0.17120000000E+03 0.  0.
        998    1    1    2    0    0 -0.94717347548E+00  0.13493188181E+02  0.14611691719E+04  0.14612659964E+04  0.10000000000E+02 0.  1.
</event>
<event>
 5    1  0.1153629E-008  0.3813193E+03  0.7957747E-01  0.3445434E+00
         13   -1    0    0    0    0  0.00000000000E+00  0.00000000000E+00  0.14999999963E+04  0.15000000000E+04  0.10566000000E+00 0.  1.
        994   -1    0    0    0    0 -0.00000000000E+00 -0.00000000000E+00  0.11368683772E-12  0.17120000000E+03  0.17120000000E+03 0.  0.
         13    1    1    2    0    0  0.21160959159E+03 -0.14909249899E+03  0.10633159634E+04  0.10943710713E+04  0.10566000000E+00 0.  1.
        994    1    1    2    0    0 -0.23118719664E+03  0.13440612306E+03  0.29737430248E+03  0.43503269025E+03  0.17120000000E+03 0.  0.
        998    1    1    2    0    0  0.19577605046E+02  0.14686375933E+02  0.13930973041E+03  0.14179623847E+03  0.10000000000E+02 0.  1.
</event>
<event>
 5    1  0.1153629E-008  0.3799400E+03  0.7957747E-01  0.3451420E+00
         13   -1    0    0    0    0  0.00000000000E+00  0.00000000000E+00  0.14999999963E+04  0.15000000000E+04  0.10566000000E+00 0.  1.
        994   -1    0    0    0    0 -0.00000000000E+00 -0.00000000000E+00  0.11368683772E-12  0.17120000000E+03  0.17120000000E+03 0.  0.
         13    1    1    2    0    0  0.31727513734E+01 -0.12027520313E+02  0.16709559301E+02  0.20831421753E+02  0.10566000000E+00 0.  1.
        994    1    1    2    0    0  0.84620122292E+00  0.11846818786E+02  0.46352217093E+01  0.17167407624E+03  0.17120000000E+03 0.  0.
        998    1    1    2    0    0 -0.40189525963E+01  0.18070152759E+00  0.14786552153E+04  0.14786945020E+04  0.10000000000E+02 0.  1.
</event>
<event>
 5    1  0.1153629E-008  0.3702244E+03  0.7957747E-01  0.3494860E+00
         13   -1    0    0    0    0  0.00000000000E+00  0.00000000000E+00  0.14999999963E+04  0.15000000000E+04  0.10566000000E+00 0.  1.
        994   -1    0    0    0    0 -0.00000000000E+00 -0.00000000000E+00  0.11368683772E-12  0.17120000000E+03  0.17120000000E+03 0.  0.
         13    1    1    2    0    0 -0.60554639381E+02  0.67964110374E+02  0.42588320326E+03  0.43550258166E+03  0.10566000000E+00 0.  1.
        994    1    1    2    0    0  0.15743992022E+02 -0.33179881918E+02  0.15791280577E+02  0.17580552435E+03  0.17120000000E+03 0.  0.
        998    1    1    2    0    0  0.44810647360E+02 -0.34784228456E+02  0.10583255124E+04  0.10598918940E+04  0.10000000000E+02 0. -1.
</event>
<event>
 5    1  0.1153629E-008  0.3696137E+03  0.7957747E-01  0.3497668E+00
         13   -1    0    0    0    0  0.00000000000E+00  0.00000000000E+00  0.14999999963E+04  0.15000000000E+04  0.10566000000E+00 0.  1.
        994   -1    0    0    0    0 -0.00000000000E+00 -0.00000000000E+00  0.11368683772E-12  0.17120000000E+03  0.17120000000E+03 0.  0.
         13    1    1    2    0    0  0.25251387022E+02 -0.36764270724E+02  0.84712748377E+02  0.95736644239E+02  0.10566000000E+00 0.  1.
        994    1    1    2    0    0 -0.19686149572E+02  0.38562925512E+02  0.17308243681E+02  0.17743635199E+03  0.17120000000E+03 0.  0.
        998    1    1    2    0    0 -0.55652374498E+01 -0.17986547880E+01  0.13979790042E+04  0.13980270038E+04  0.10000000000E+02 0.  1.
</event>
<event>
 5    1  0.1153629E-008  0.3853220E+03  0.7957747E-01  0.3428308E+00
         13   -1    0    0    0    0  0.00000000000E+00  0.00000000000E+00  0.14999999963E+04  0.15000000000E+04  0.10566000000E+00 0. -1.
        994   -1    0    0    0    0 -0.00000000000E+00 -0.00000000000E+00  0.11368683772E-12  0.17120000000E+03  0.17120000000E+03 0.  0.
         13    1    1    2    0    0 -0.61121467805E+01 -0.90564557624E+01  0.43913717111E+02  0.45252662284E+02  0.10566000000E+00 0. -1.
        994    1    1    2    0    0 -0.16644404769E+01 -0.68024196864E+01  0.16315025258E+01  0.17135094128E+03  0.17120000000E+03 0.  0.
        998    1    1    2    0    0  0.77765872575E+01  0.15858875449E+02  0.14544547766E+04  0.14545963964E+04  0.10000000000E+02 0. -1.
</event>
<event>
 5    1  0.1153629E-008  0.3810228E+03  0.7957747E-01  0.3446717E+00
         13   -1    0    0    0    0  0.00000000000E+00  0.00000000000E+00  0.14999999963E+04  0.15000000000E+04  0.10566000000E+00 0. -1.
        994   -1    0    0    0    0 -0.00000000000E+00 -0.00000000000E+00  0.11368683772E-12  0.17120000000E+03  0.17120000000E+03 0.  0.
         13    1    1    2    0    0  0.14251866716E+02  0.43429257414E+00  0.28446397619E+02  0.31820009687E+02  0.10566000000E+00 0. -1.
        994    1    1    2    0    0  0.10516577547E+02  0.18041149645E+01  0.39971363334E+01  0.17157875840E+03  0.17120000000E+03 0.  0.
        998    1    1    2    0    0 -0.24768444263E+02 -0.22384075386E+01  0.14675564623E+04  0.14678012319E+04  0.10000000000E+02 0. -1.
</event>
<event>
 5    1  0.1153629E-008  0.3779685E+03  0.7957747E-01  0.3460052E+00
         13   -1    0    0    0    0  0.00000000000E+00  0.00000000000E+00  0.14999999963E+04  0.15000000000E+04  0.10566000000E+00 0.  1.
        994   -1    0    0    0    0 -0.00000000000E+00 -0.00000000000E+00  0.11368683772E-12  0.17120000000E+03  0.17120000000E+03 0.  0.
         13    1    1    2    0    0  0.82260644919E+01 -0.15822643430E+02  0.27793270984E+02  0.33022738502E+02  0.10566000000E+00 0.  1.
        994    1    1    2    0    0 -0.12299061203E+02  0.20049126645E+02  0.70263321339E+01  0.17295098649E+03  0.17120000000E+03 0.  0.
        998    1    1    2    0    0  0.40729967110E+01 -0.42264832146E+01  0.14651803932E+04  0.14652262750E+04  0.10000000000E+02 0.  1.
</event>
<event>
 5    1  0.1153629E-008  0.3800063E+03  0.7957747E-01  0.3451131E+00
         13   -1    0    0    0    0  0.00000000000E+00  0.00000000000E+00  0.14999999963E+04  0.15000000000E+04  0.10566000000E+00 0.  1.
        994   -1    0    0    0    0 -0.00000000000E+00 -0.00000000000E+00  0.11368683772E-12  0.17120000000E+03  0.17120000000E+03 0.  0.
         13    1    1    2    0    0 -0.42741905224E+02  0.10596219070E+02  0.20850822541E+03  0.21310758210E+03  0.10566000000E+00 0.  1.
        994    1    1    2    0    0  0.38954696716E+02 -0.11105808138E+02  0.96344930707E+01  0.17619043909E+03  0.17120000000E+03 0.  0.
        998    1    1    2    0    0  0.37872085088E+01  0.50958906817E+00  0.12818572778E+04  0.12819019788E+04  0.10000000000E+02 0.  0.
</event>
<event>
 5    1  0.1153629E-008  0.3835286E+03  0.7957747E-01  0.3435937E+00
         13   -1    0    0    0    0  0.00000000000E+00  0.00000000000E+00  0.14999999963E+04  0.15000000000E+04  0.10566000000E+00 0. -1.
        994   -1    0    0    0    0 -0.00000000000E+00 -0.00000000000E+00  0.11368683772E-12  0.17120000000E+03  0.17120000000E+03 0.  0.
         13    1    1    2    0    0 -0.44545423627E+01 -0.35843275817E+02  0.17929717423E+03  0.18289907387E+03  0.10566000000E+00 0. -1.
        994    1    1    2    0    0  0.35955376564E+02  0.70060527521E+02  0.23130824944E+02  0.18985716126E+03  0.17120000000E+03 0.  0.
        998    1    1    2    0    0 -0.31500834201E+02 -0.34217251704E+02  0.12975719971E+04  0.12984437649E+04  0.10000000000E+02 0. -1.
</event>
<event>
 5    1  0.1153629E-008  0.3781534E+03  0.7957747E-01  0.3459239E+00
         13   -1    0    0    0    0  0.00000000000E+00  0.00000000000E+00  0.14999999963E+04  0.15000000000E+04  0.10566000000E+00 0. -1.
        994   -1    0    0    0    0 -0.00000000000E+00 -0.00000000000E+00  0.11368683772E-12  0.17120000000E+03  0.17120000000E+03 0.  0.
         13    1    1    2    0    0  0.16749148788E+02  0.19953846442E+02  0.14064399272E+02  0.29605885629E+02  0.10566000000E+00 0. -1.
        994    1    1    2    0    0 -0.41374907041E+02 -0.43511418547E+02  0.28408592468E+02  0.18363445919E+03  0.17120000000E+03 0.  0.
        998    1    1    2    0    0  0.24625758252E+02  0.23557572106E+02  0.14575270045E+04  0.14579596552E+04  0.10000000000E+02 0. -1.
</event>
<event>
 5    1  0.1153629E-008  0.3805919E+03  0.7957747E-01  0.3448585E+00
         13   -1    0    0    0    0  0.00000000000E+00  0.00000000000E+00  0.14999999963E+04  0.15000000000E+04  0.10566000000E+00 0.  1.
        994   -1    0    0    0    0 -0.00000000000E+00 -0.00000000000E+00  0.11368683772E-12  0.17120000000E+03  0.17120000000E+03 0.  0.
         13    1    1    2    0    0 -0.24140882383E+01 -0.18344215575E+02  0.42230713986E+02  0.46106208204E+02  0.10566000000E+00 0.  1.
        994    1    1    2    0    0  0.10120651804E+02  0.17427517212E+02  0.51908741567E+01  0.17246023056E+03  0.17120000000E+03 0.  0.
        998    1    1    2    0    0 -0.77065635659E+01  0.91669836387E+00  0.14525784081E+04  0.14526335612E+04  0.10000000000E+02 0.  1.
</event>
<event>
 5    1  0.1153629E-008  0.3804617E+03  0.7957747E-01  0.3449151E+00
         13   -1    0    0    0    0  0.00000000000E+00  0.00000000000E+00  0.14999999963E+04  0.15000000000E+04  0.10566000000E+00 0.  1.
        994   -1    0    0    0    0 -0.00000000000E+00 -0.00000000000E+00  0.11368683772E-12  0.17120000000E+03  0.17120000000E+03 0.  0.
         13    1    1    2    0    0  0.16708805512E+02  0.27289047689E+02  0.11507248437E+03  0.11943853703E+03  0.10566000000E+00 0.  1.
        994    1    1    2    0    0 -0.27386650723E+02 -0.31309384440E+02  0.96974207785E+01  0.17644768676E+03  0.17120000000E+03 0.  0.
        998    1    1    2    0    0  0.10677845212E+02  0.40203367513E+01  0.13752300911E+04  0.13753137762E+04  0.10000000000E+02 0.  1.
</event>
<event>
 5    1  0.1153629E-008  0.3815418E+03  0.7957747E-01  0.3444473E+00
         13   -1    0    0    0    0  0.00000000000E+00  0.00000000000E+00  0.14999999963E+04  0.15000000000E+04  0.10566000000E+00 0.  1.
        994   -1    0    0    0    0 -0.00000000000E+00 -0.00000000000E+00  0.11368683772E-12  0.17120000000E+03  0.17120000000E+03 0.  0.
         13    1    1    2    0    0  0.35248745432E+02  0.20834856199E+02  0.17898714379E+03  0.18361093130E+03  0.10566000000E+00 0.  1.
        994    1    1    2    0    0 -0.46214088959E+02 -0.59673170826E+02  0.22541327550E+02  0.18845206495E+03  0.17120000000E+03 0.  0.
        998    1    1    2    0    0  0.10965343527E+02  0.38838314627E+02  0.12984715249E+04  0.12991370038E+04  0.10000000000E+02 0.  1.
</event>
<event>
 5    1  0.1153629E-008  0.3782297E+03  0.7957747E-01  0.3458903E+00
         13   -1    0    0    0    0  0.00000000000E+00  0.00000000000E+00  0.14999999963E+04  0.15000000000E+04  0.10566000000E+00 0. -1.
        994   -1    0    0    0    0 -0.00000000000E+00 -0.00000000000E+00  0.11368683772E-12  0.17120000000E+03  0.17120000000E+03 0.  0.
         13    1    1    2    0    0  0.13719061772E+01 -0.19755992625E+02  0.36375015891E+02  0.41416594697E+02  0.10566000000E+00 0. -1.
        994    1    1    2    0    0 -0.46926626921E+01  0.18428692693E+02  0.62464382303E+01  0.17236616776E+03  0.17120000000E+03 0.  0.
        998    1    1    2    0    0  0.33207565148E+01  0.13272999324E+01  0.14573785422E+04  0.14574172375E+04  0.10000000000E+02 0. -1.
</event>
<event>
 5    1  0.1153629E-008  0.3837233E+03  0.7957747E-01  0.3435105E+00
         13   -1    0    0    0    0  0.00000000000E+00  0.00000000000E+00  0.14999999963E+04  0.15000000000E+04  0.10566000000E+00 0. -1.
        994   -1    0    0    0    0 -0.00000000000E+00 -0.00000000000E+00  0.11368683772E-12  0.17120000000E+03  0.17120000000E+03 0.  0.
         13    1    1    2    0    0 -0.13185185117E+02  0.52457552456E+01  0.43616743385E+02  0.45867183500E+02  0.10566000000E+00 0. -1.
        994    1    1    2    0    0  0.11173342427E+02 -0.85555769257E+00  0.26801439214E+01  0.17158729187E+03  0.17120000000E+03 0.  0.
        998    1    1    2    0    0  0.20118426900E+01 -0.43901975530E+01  0.14537031090E+04  0.14537455246E+04  0.10000000000E+02 0. -1.
</event>
<event>
 5    1  0.1153629E-008  0.3836381E+03  0.7957747E-01  0.3435469E+00
         13   -1    0    0    0    0  0.00000000000E+00  0.00000000000E+00  0.14999999963E+04  0.15000000000E+04  0.10566000000E+00 0.  1.
        994   -1    0    0    0    0 -0.00000000000E+00 -0.00000000000E+00  0.11368683772E-12  0.17120000000E+03  0.17120000000E+03 0.  0.
         13    1    1    2    0    0  0.34570655009E+01 -0.12377806858E+02  0.34313075117E+02  0.36640956491E+02  0.10566000000E+00 0.  1.
        994    1    1    2    0    0 -0.45871434084E+01  0.13720597694E+02  0.29994705667E+01  0.17183635677E+03  0.17120000000E+03 0.  0.
        998    1    1    2    0    0  0.11300779075E+01 -0.13427908365E+01  0.14626874506E+04  0.14627226867E+04  0.10000000000E+02 0.  1.
</event>
<event>
 5    1  0.1153629E-008  0.3820444E+03  0.7957747E-01  0.3442305E+00
         13   -1    0    0    0    0  0.00000000000E+00  0.00000000000E+00  0.14999999963E+04  0.15000000000E+04  0.10566000000E+00 0.  1.
        994   -1    0    0    0    0 -0.00000000000E+00 -0.00000000000E+00  0.11368683772E-12  0.17120000000E+03  0.17120000000E+03 0.  0.
         13    1    1    2    0    0  0.12297976051E+02  0.24422043029E+02  0.13186683103E+03  0.13467200411E+03  0.10566000000E+00 0.  1.
        994    1    1    2    0    0 -0.99228242059E+01  0.26549273447E+01  0.34551354515E+01  0.17154267411E+03  0.17120000000E+03 0.  0.
        998    1    1    2    0    0 -0.23751518455E+01 -0.27076970374E+02  0.13646780298E+04  0.13649853218E+04  0.10000000000E+02 0.  1.
</event>
<event>
 5    1  0.1153629E-008  0.3764465E+03  0.7957747E-01  0.3466778E+00
         13   -1    0    0    0    0  0.00000000000E+00  0.00000000000E+00  0.14999999963E+04  0.15000000000E+04  0.10566000000E+00 0. -1.
        994   -1    0    0    0    0 -0.00000000000E+00 -0.00000000000E+00  0.11368683772E-12  0.17120000000E+03  0.17120000000E+03 0.  0.
         13    1    1    2    0    0 -0.74606132620E+02  0.41772637844E+00  0.24004823954E+03  0.25137505443E+03  0.10566000000E+00 0. -1.
        994    1    1    2    0    0 -0.29389121812E+01 -0.20149569241E+02  0.15873405998E+02  0.17313592164E+03  0.17120000000E+03 0.  0.
        998    1    1    2    0    0  0.77545044801E+02  0.19731842863E+02  0.12440783507E+04  0.12466890239E+04  0.10000000000E+02 0. -1.
</event>
<event>
 5    1  0.1153629E-008  0.3824046E+03  0.7957747E-01  0.3440755E+00
         13   -1    0    0    0    0  0.00000000000E+00  0.00000000000E+00  0.14999999963E+04  0.15000000000E+04  0.10566000000E+00 0. -1.
        994   -1    0    0    0    0 -0.00000000000E+00 -0.00000000000E+00  0.11368683772E-12  0.17120000000E+03  0.17120000000E+03 0.  0.
         13    1    1    2    0    0 -0.32717220239E+02 -0.11594534584E+02  0.19864044353E+03  0.20165040714E+03  0.10566000000E+00 0. -1.
        994    1    1    2    0    0  0.26843814078E+02 -0.33773511969E+01  0.53557046511E+01  0.17340738285E+03  0.17120000000E+03 0.  0.
        998    1    1    2    0    0  0.58734061609E+01  0.14971885781E+02  0.12960038481E+04  0.12961422100E+04  0.10000000000E+02 0. -1.
</event>
<event>
 5    1  0.1153629E-008  0.3842840E+03  0.7957747E-01  0.3432715E+00
         13   -1    0    0    0    0  0.00000000000E+00  0.00000000000E+00  0.14999999963E+04  0.15000000000E+04  0.10566000000E+00 0. -1.
        994   -1    0    0    0    0 -0.00000000000E+00 -0.00000000000E+00  0.11368683772E-12  0.17120000000E+03  0.17120000000E+03 0.  0.
         13    1    1    2    0    0  0.86804884247E+01 -0.16413657720E+02  0.94613466787E+02  0.96418246720E+02  0.10566000000E+00 0. -1.
        994    1    1    2    0    0 -0.49949652268E+01 -0.35470337983E+01  0.21097667018E+01  0.17132256781E+03  0.17120000000E+03 0.  0.
        998    1    1    2    0    0 -0.36855231979E+01  0.19960691518E+02  0.14032767628E+04  0.14034591855E+04  0.10000000000E+02 0. -1.
</event>
<event>
 5    1  0.1153629E-008  0.3823151E+03  0.7957747E-01  0.3441139E+00
         13   -1    0    0    0    0  0.00000000000E+00  0.00000000000E+00  0.14999999963E+04  0.15000000000E+04  0.10566000000E+00 0. -1.
        994   -1    0    0    0    0 -0.00000000000E+00 -0.00000000000E+00  0.11368683772E-12  0.17120000000E+03  0.17120000000E+03 0.  0.
         13    1    1    2    0    0  0.26891473644E+02 -0.11385307628E+02  0.13830316275E+03  0.14135258249E+03  0.10566000000E+00 0. -1.
        994    1    1    2    0    0 -0.18231120348E+02  0.13130989559E+02  0.46454915757E+01  0.17273047568E+03  0.17120000000E+03 0.  0.
        998    1    1    2    0    0 -0.86603532954E+01 -0.17456819311E+01  0.13570513420E+04  0.13571169418E+04  0.10000000000E+02 0. -1.
</event>
<event>
 5    1  0.1153629E-008  0.3770689E+03  0.7957747E-01  0.3464021E+00
         13   -1    0    0    0    0  0.00000000000E+00  0.00000000000E+00  0.14999999963E+04  0.15000000000E+04  0.10566000000E+00 0. -1.
        994   -1    0    0    0    0 -0.00000000000E+00 -0.00000000000E+00  0.11368683772E-12  0.17120000000E+03  0.17120000000E+03 0.  0.
         13    1    1    2    0    0  0.45448017649E+01  0.12816804571E+02  0.14209799843E+02  0.19668636915E+02  0.10566000000E+00 0. -1.
        994    1    1    2    0    0 -0.11084235178E+02  0.90141551546E+00  0.60376783410E+01  0.17166702182E+03  0.17120000000E+03 0.  0.
        998    1    1    2    0    0  0.65394334131E+01 -0.13718220086E+02  0.14797525181E+04  0.14798643413E+04  0.10000000000E+02 0. -1.
</event>
<event>
 5    1  0.1153629E-008  0.3765503E+03  0.7957747E-01  0.3466318E+00
         13   -1    0    0    0    0  0.00000000000E+00  0.00000000000E+00  0.14999999963E+04  0.15000000000E+04  0.10566000000E+00 0. -1.
        994   -1    0    0    0    0 -0.00000000000E+00 -0.00000000000E+00  0.11368683772E-12  0.17120000000E+03  0.17120000000E+03 0.  0.
         13    1    1    2    0    0 -0.50133578460E+02 -0.14100135022E+02  0.26270044093E+03  0.26781284944E+03  0.10566000000E+00 0. -1.
        994    1    1    2    0    0  0.19138540383E+02 -0.22325750986E+02  0.88143680021E+01  0.17393060676E+03  0.17120000000E+03 0.  0.
        998    1    1    2    0    0  0.30995038077E+02  0.36425886007E+02  0.12284851874E+04  0.12294565438E+04  0.10000000000E+02 0. -1.
</event>
<event>
 5    1  0.1153629E-008  0.3764484E+03  0.7957747E-01  0.3466770E+00
         13   -1    0    0    0    0  0.00000000000E+00  0.00000000000E+00  0.14999999963E+04  0.15000000000E+04  0.10566000000E+00 0. -1.
        994   -1    0    0    0    0 -0.00000000000E+00 -0.00000000000E+00  0.11368683772E-12  0.17120000000E+03  0.17120000000E+03 0.  0.
         13    1    1    2    0    0  0.11275012797E+02 -0.88407677482E+02  0.48175314004E+03  0.48992769105E+03  0.10566000000E+00 0. -1.
        994    1    1    2    0    0 -0.13176408092E+02  0.81782696642E+02  0.29513448251E+02  0.19246431053E+03  0.17120000000E+03 0.  0.
        998    1    1    2    0    0  0.19013952950E+01  0.66249808393E+01  0.98873340798E+03  0.98880799842E+03  0.10000000000E+02 0. -1.
</event>
<event>
 5    1  0.1153629E-008  0.3839431E+03  0.7957747E-01  0.3434167E+00
         13   -1    0    0    0    0  0.00000000000E+00  0.00000000000E+00  0.14999999963E+04  0.15000000000E+04  0.10566000000E+00 0. -1.
        994   -1    0    0    0    0 -0.00000000000E+00 -0.00000000000E+00  0.11368683772E-12  0.17120000000E+03  0.17120000000E+03 0.  0.
         13    1    1    2    0    0  0.58099323963E+02 -0.15236630099E+02  0.82675299859E+02  0.10219052164E+03  0.10566000000E+00 0. -1.
        994    1    1    2    0    0 -0.70533408271E+02  0.24110036098E+02  0.39237910717E+02  0.19080175356E+03  0.17120000000E+03 0.  0.
        998    1    1    2    0    0  0.12434084308E+02 -0.88734059982E+01  0.13780867857E+04  0.13782077248E+04  0.10000000000E+02 0. -1.
</event>
<event>
 5    1  0.1153629E-008  0.3800328E+03  0.7957747E-01  0.3451016E+00
         13   -1    0    0    0    0  0.00000000000E+00  0.00000000000E+00  0.14999999963E+04  0.15000000000E+04  0.10566000000E+00 0. -1.
        994   -1    0    0    0    0 -0.00000000000E+00 -0.00000000000E+00  0.11368683772E-12  0.17120000000E+03  0.17120000000E+03 0.  0.
         13    1    1    2    0    0  0.62698270774E+02 -0.21615043379E+02  0.36030802786E+03  0.36636070936E+03  0.10566000000E+00 0. -1.
        994    1    1    2    0    0 -0.63451921114E+02  0.65396302462E+02  0.32387844047E+02  0.19662460454E+03  0.17120000000E+03 0.  0.
        998    1    1    2    0    0  0.75365034026E+00 -0.43781259083E+02  0.11073041244E+04  0.11082146861E+04  0.10000000000E+02 0. -1.
</event>
<event>
 5    1  0.1153629E-008  0.3822960E+03  0.7957747E-01  0.3441222E+00
         13   -1    0    0    0    0  0.00000000000E+00  0.00000000000E+00  0.14999999963E+04  0.15000000000E+04  0.10566000000E+00 0.  1.
        994   -1    0    0    0    0 -0.00000000000E+00 -0.00000000000E+00  0.11368683772E-12  0.17120000000E+03  0.17120000000E+03 0.  0.
         13    1    1    2    0    0  0.34306257888E+02  0.15742532008E+02  0.20995081648E+03  0.21331690779E+03  0.10566000000E+00 0.  1.
        994    1    1    2    0    0 -0.31268934547E+02 -0.19361490059E+02  0.74792659144E+01  0.17526549285E+03  0.17120000000E+03 0.  0.
        998    1    1    2    0    0 -0.30373233411E+01  0.36189580512E+01  0.12825699139E+04  0.12826175994E+04  0.10000000000E+02 0.  1.
</event>
<event>
 5    1  0.1153629E-008  0.3833790E+03  0.7957747E-01  0.3436576E+00
         13   -1    0    0    0    0  0.00000000000E+00  0.00000000000E+00  0.14999999963E+04  0.15000000000E+04  0.10566000000E+00 0.  1.
        994   -1    0    0    0    0 -0.00000000000E+00 -0.00000000000E+00  0.11368683772E-12  0.17120000000E+03  0.17120000000E+03 0.  0.
         13    1    1    2    0    0  0.10133109047E+02 -0.14774686037E+02  0.63864938454E+02  0.66330330726E+02  0.10566000000E+00 0.  1.
        994    1    1    2    0    0 -0.57215372886E+01  0.15001966121E+02  0.32898184775E+01  0.17198272553E+03  0.17120000000E+03 0.  0.
        998    1    1    2    0    0 -0.44115717582E+01 -0.22728008404E+00  0.14328452393E+04  0.14328869437E+04  0.10000000000E+02 0.  1.
</event>
<event>
 5    1  0.1153629E-008  0.3858727E+03  0.7957747E-01  0.3425979E+00
         13   -1    0    0    0    0  0.00000000000E+00  0.00000000000E+00  0.14999999963E+04  0.15000000000E+04  0.10566000000E+00 0. -1.
        994   -1    0    0    0    0 -0.00000000000E+00 -0.00000000000E+00  0.11368683772E-12  0.17120000000E+03  0.17120000000E+03 0.  0.
         13    1    1    2    0    0 -0.13382671333E+02 -0.33426608952E+01  0.74858770018E+02  0.76119090159E+02  0.10566000000E+00 0. -1.
        994    1    1    2    0    0  0.20589910914E+02 -0.73885274971E+01  0.27683383827E+01  0.17261413171E+03  0.17120000000E+03 0.  0.
        998    1    1    2    0    0 -0.72072395811E+01  0.10731188392E+02  0.14223728879E+04  0.14224667781E+04  0.10000000000E+02 0. -1.
</event>
<event>
 5    1  0.1153629E-008  0.3693756E+03  0.7957747E-01  0.3498766E+00
         13   -1    0    0    0    0  0.00000000000E+00  0.00000000000E+00  0.14999999963E+04  0.15000000000E+04  0.10566000000E+00 0.  1.
        994   -1    0    0    0    0 -0.00000000000E+00 -0.00000000000E+00  0.11368683772E-12  0.17120000000E+03  0.17120000000E+03 0.  0.
         13    1    1    2    0    0 -0.14001006200E+01 -0.44184005700E+02  0.87357818593E+02  0.97906007348E+02  0.10566000000E+00 0.  1.
        994    1    1    2    0    0 -0.13006277805E+00  0.31697524034E+02  0.14121996687E+02  0.17468148367E+03  0.17120000000E+03 0.  0.
        998    1    1    2    0    0  0.15301633980E+01  0.12486481667E+02  0.13985201810E+04  0.13986125090E+04  0.10000000000E+02 0.  1.
</event>
<event>
 5    1  0.1153629E-008  0.3777496E+03  0.7957747E-01  0.3461016E+00
         13   -1    0    0    0    0  0.00000000000E+00  0.00000000000E+00  0.14999999963E+04  0.15000000000E+04  0.10566000000E+00 0. -1.
        994   -1    0    0    0    0 -0.00000000000E+00 -0.00000000000E+00  0.11368683772E-12  0.17120000000E+03  0.17120000000E+03 0.  0.
         13    1    1    2    0    0 -0.23069996797E+02 -0.29849472667E+02  0.12829538438E+03  0.13372708248E+03  0.10566000000E+00 0. -1.
        994    1    1    2    0    0  0.21749817687E+02  0.20498822637E+02  0.82878039839E+01  0.17398673511E+03  0.17120000000E+03 0.  0.
        998    1    1    2    0    0  0.13201791103E+01  0.93506500300E+01  0.13634168079E+04  0.13634861824E+04  0.10000000000E+02 0. -1.
</event>
<event>
 5    1  0.1153629E-008  0.3842731E+03  0.7957747E-01  0.3432761E+00
         13   -1    0    0    0    0  0.00000000000E+00  0.00000000000E+00  0.14999999963E+04  0.15000000000E+04  0.10566000000E+00 0.  1.
        994   -1    0    0    0    0 -0.00000000000E+00 -0.00000000000E+00  0.11368683772E-12  0.17120000000E+03  0.17120000000E+03 0.  0.
         13    1    1    2    0    0  0.15244935124E+02 -0.88628850647E+01  0.89075510569E+02  0.90804275922E+02  0.10566000000E+00 0.  1.
        994    1    1    2    0    0  0.19702196114E+02  0.19293823569E+02  0.45021807569E+01  0.17346509099E+03  0.17120000000E+03 0.  0.
        998    1    1    2    0    0 -0.34947131238E+02 -0.10430938505E+02  0.14064223050E+04  0.14069306331E+04  0.10000000000E+02 0.  1.
</event>
<event>
 5    1  0.1153629E-008  0.3766023E+03  0.7957747E-01  0.3466087E+00
         13   -1    0    0    0    0  0.00000000000E+00  0.00000000000E+00  0.14999999963E+04  0.15000000000E+04  0.10566000000E+00 0.  1.
        994   -1    0    0    0    0 -0.00000000000E+00 -0.00000000000E+00  0.11368683772E-12  0.17120000000E+03  0.17120000000E+03 0.  0.
         13    1    1    2    0    0 -0.11485730590E+02  0.84538822341E+01  0.14777847359E+02  0.20537430916E+02  0.10566000000E+00 0.  1.
        994    1    1    2    0    0  0.96661087047E+00 -0.16506696988E+02  0.67830946400E+01  0.17213034525E+03  0.17120000000E+03 0.  0.
        998    1    1    2    0    0  0.10519119720E+02  0.80528147542E+01  0.14784390543E+04  0.14785322238E+04  0.10000000000E+02 0.  1.
</event>
<event>
 5    1  0.1153629E-008  0.3821679E+03  0.7957747E-01  0.3441773E+00
         13   -1    0    0    0    0  0.00000000000E+00  0.00000000000E+00  0.14999999963E+04  0.15000000000E+04  0.10566000000E+00 0.  1.
        994   -1    0    0    0    0 -0.00000000000E+00 -0.00000000000E+00  0.11368683772E-12  0.17120000000E+03  0.17120000000E+03 0.  0.
         13    1    1    2    0    0 -0.11896459356E+02  0.22460653834E+01  0.24209003940E+02  0.27067648415E+02  0.10566000000E+00 0.  1.
        994    1    1    2    0    0 -0.86562195509E+01  0.22901342569E+01  0.33089346256E+01  0.17146592635E+03  0.17120000000E+03 0.  0.
        998    1    1    2    0    0  0.20552678907E+02 -0.45361996403E+01  0.14724820577E+04  0.14726664252E+04  0.10000000000E+02 0.  1.
</event>
<event>
 5    1  0.1281768E-008  0.3847234E+03  0.7957747E-01  0.3430846E+00
         13   -1    0    0    0    0  0.00000000000E+00  0.00000000000E+00  0.14999999963E+04  0.15000000000E+04  0.10566000000E+00 0.  1.
        994   -1    0    0    0    0 -0.00000000000E+00 -0.00000000000E+00  0.11368683772E-12  0.17120000000E+03  0.17120000000E+03 0.  0.
         13    1    1    2    0    0 -0.98595278717E+01 -0.46247844219E+01  0.34286126554E+02  0.35974276350E+02  0.10566000000E+00 0.  1.
        994    1    1    2    0    0  0.28528666831E+01 -0.46468646352E+01  0.18654011062E+01  0.17129696997E+03  0.17120000000E+03 0.  0.
        998    1    1    2    0    0  0.70066611886E+01  0.92716490570E+01  0.14638484686E+04  0.14639287537E+04  0.10000000000E+02 0.  1.
</event>
<event>
 5    1  0.1153629E-008  0.3785953E+03  0.7957747E-01  0.3457298E+00
         13   -1    0    0    0    0  0.00000000000E+00  0.00000000000E+00  0.14999999963E+04  0.15000000000E+04  0.10566000000E+00 0. -1.
        994   -1    0    0    0    0 -0.00000000000E+00 -0.00000000000E+00  0.11368683772E-12  0.17120000000E+03  0.17120000000E+03 0.  0.
         13    1    1    2    0    0 -0.15739835269E+02 -0.32137121887E+01  0.26270766742E+02  0.30793419907E+02  0.10566000000E+00 0. -1.
        994    1    1    2    0    0 -0.11973902645E+02 -0.13949178947E+01  0.53321309851E+01  0.17170670273E+03  0.17120000000E+03 0.  0.
        998    1    1    2    0    0  0.27713737914E+02  0.46086300835E+01  0.14683970986E+04  0.14686998774E+04  0.10000000000E+02 0. -1.
</event>
<event>
 5    1  0.1167084E-008  0.3855941E+03  0.7957747E-01  0.3427156E+00
         13   -1    0    0    0    0  0.00000000000E+00  0.00000000000E+00  0.14999999963E+04  0.15000000000E+04  0.10566000000E+00 0.  1.
        994   -1    0    0    0    0 -0.00000000000E+00 -0.00000000000E+00  0.11368683772E-12  0.17120000000E+03  0.17120000000E+03 0.  0.
         13    1    1    2    0    0  0.10137016382E+02  0.91065178914E+01  0.64990694547E+02  0.66403985656E+02  0.10566000000E+00 0.  1.
        994    1    1    2    0    0 -0.19459589818E+02 -0.79570863617E+01  0.27875533351E+01  0.17250855432E+03  0.17120000000E+03 0.  0.
        998    1    1    2    0    0  0.93225734364E+01 -0.11494315298E+01  0.14322217484E+04  0.14322874600E+04  0.10000000000E+02 0.  1.
</event>
<event>
 5    1  0.1153629E-008  0.3760298E+03  0.7957747E-01  0.3468630E+00
         13   -1    0    0    0    0  0.00000000000E+00  0.00000000000E+00  0.14999999963E+04  0.15000000000E+04  0.10566000000E+00 0.  1.
        994   -1    0    0    0    0 -0.00000000000E+00 -0.00000000000E+00  0.11368683772E-12  0.17120000000E+03  0.17120000000E+03 0.  0.
         13    1    1    2    0    0 -0.19488344126E+02  0.14563739703E+02  0.47100097368E+02  0.53012530661E+02  0.10566000000E+00 0.  1.
        994    1    1    2    0    0  0.11787097041E+02  0.47514375447E+01  0.66981609219E+01  0.17180167978E+03  0.17120000000E+03 0.  0.
        998    1    1    2    0    0  0.77012470848E+01 -0.19315177248E+02  0.14462017380E+04  0.14463857896E+04  0.10000000000E+02 0.  1.
</event>
<event>
 5    1  0.1153629E-008  0.3774615E+03  0.7957747E-01  0.3462287E+00
         13   -1    0    0    0    0  0.00000000000E+00  0.00000000000E+00  0.14999999963E+04  0.15000000000E+04  0.10566000000E+00 0.  1.
        994   -1    0    0    0    0 -0.00000000000E+00 -0.00000000000E+00  0.11368683772E-12  0.17120000000E+03  0.17120000000E+03 0.  0.
         13    1    1    2    0    0 -0.13350402899E+02 -0.53535875195E+02  0.25109882190E+03  0.25708938662E+03  0.10566000000E+00 0.  1.
        994    1    1    2    0    0  0.11443694831E+02  0.44464815911E+02  0.12560074108E+02  0.17769432593E+03  0.17120000000E+03 0.  0.
        998    1    1    2    0    0  0.19067080683E+01  0.90710592842E+01  0.12363411003E+04  0.12364162875E+04  0.10000000000E+02 0.  1.
</event>
<event>
 5    1  0.1153629E-008  0.3850764E+03  0.7957747E-01  0.3429348E+00
         13   -1    0    0    0    0  0.00000000000E+00  0.00000000000E+00  0.14999999963E+04  0.15000000000E+04  0.10566000000E+00 0. -1.
        994   -1    0    0    0    0 -0.00000000000E+00 -0.00000000000E+00  0.11368683772E-12  0.17120000000E+03  0.17120000000E+03 0.  0.
         13    1    1    2    0    0 -0.32651966497E+01  0.17733879471E+02  0.94950567652E+02  0.96647676908E+02  0.10566000000E+00 0. -1.
        994    1    1    2    0    0  0.77814497078E+01 -0.20151661310E+02  0.31279472072E+01  0.17258581769E+03  0.17120000000E+03 0.  0.
        998    1    1    2    0    0 -0.45162530581E+01  0.24177818396E+01  0.14019214814E+04  0.14019665054E+04  0.10000000000E+02 0. -1.
</event>
<event>
 5    1  0.1153629E-008  0.3774057E+03  0.7957747E-01  0.3462533E+00
         13   -1    0    0    0    0  0.00000000000E+00  0.00000000000E+00  0.14999999963E+04  0.15000000000E+04  0.10566000000E+00 0.  1.
        994   -1    0    0    0    0 -0.00000000000E+00 -0.00000000000E+00  0.11368683772E-12  0.17120000000E+03  0.17120000000E+03 0.  0.
         13    1    1    2    0    0 -0.51165921490E+02  0.77642093393E+01  0.20003283545E+03  0.20661892674E+03  0.10566000000E+00 0.  1.
        994    1    1    2    0    0  0.56321216874E+02 -0.45183570384E+02  0.23234865286E+02  0.18725099057E+03  0.17120000000E+03 0.  0.
        998    1    1    2    0    0 -0.51552953839E+01  0.37419361045E+02  0.12767322955E+04  0.12773300827E+04  0.10000000000E+02 0.  1.
</event>
<event>
 5    1  0.1153629E-008  0.3845956E+03  0.7957747E-01  0.3431389E+00
         13   -1    0    0    0    0  0.00000000000E+00  0.00000000000E+00  0.14999999963E+04  0.15000000000E+04  0.10566000000E+00 0. -1.
        994   -1    0    0    0    0 -0.00000000000E+00 -0.00000000000E+00  0.11368683772E-12  0.17120000000E+03  0.17120000000E+03 0.  0.
         13    1    1    2    0    0 -0.72163834775E+01 -0.16708497138E+02  0.98950116187E+02  0.10061007268E+03  0.10566000000E+00 0. -1.
        994    1    1    2    0    0  0.12308172879E+02 -0.56070303454E+01  0.24336498748E+01  0.17175066975E+03  0.17120000000E+03 0.  0.
        998    1    1    2    0    0 -0.50917894011E+01  0.22315527484E+02  0.13986162302E+04  0.13988392576E+04  0.10000000000E+02 0. -1.
</event>
<event>
 5    1  0.1153629E-008  0.3847724E+03  0.7957747E-01  0.3430638E+00
         13   -1    0    0    0    0  0.00000000000E+00  0.00000000000E+00  0.14999999963E+04  0.15000000000E+04  0.10566000000E+00 0.  1.
        994   -1    0    0    0    0 -0.00000000000E+00 -0.00000000000E+00  0.11368683772E-12  0.17120000000E+03  0.17120000000E+03 0.  0.
         13    1    1    2    0    0  0.65839723193E+01 -0.11517631955E+02  0.50105694294E+02  0.51832386614E+02  0.10566000000E+00 0.  1.
        994    1    1    2    0    0 -0.68654131029E+01  0.72033784861E+01  0.20691174312E+01  0.17150143966E+03  0.17120000000E+03 0.  0.
        998    1    1    2    0    0  0.28144078359E+00  0.43142534694E+01  0.14478251846E+04  0.14478661737E+04  0.10000000000E+02 0.  1.
</event>
<event>
 5    1  0.1153629E-008  0.3770760E+03  0.7957747E-01  0.3463990E+00
         13   -1    0    0    0    0  0.00000000000E+00  0.00000000000E+00  0.14999999963E+04  0.15000000000E+04  0.10566000000E+00 0.  1.
        994   -1    0    0    0    0 -0.00000000000E+00 -0.00000000000E+00  0.11368683772E-12  0.17120000000E+03  0.17120000000E+03 0.  0.
         13    1    1    2    0    0  0.12129583494E+02  0.12975034256E+02  0.25629530646E+02  0.31182724622E+02  0.10566000000E+00 0.  1.
        994    1    1    2    0    0 -0.15686261748E+02 -0.44426697826E+01  0.65142129069E+01  0.17209785325E+03  0.17120000000E+03 0.  0.
        998    1    1    2    0    0  0.35566782545E+01 -0.85323644736E+01  0.14678562527E+04  0.14679194221E+04  0.10000000000E+02 0.  1.
</event>
<event>
 5    1  0.1153629E-008  0.3930761E+03  0.7957747E-01  0.3396126E+00
         13   -1    0    0    0    0  0.00000000000E+00  0.00000000000E+00  0.14999999963E+04  0.15000000000E+04  0.10566000000E+00 0.  1.
        994   -1    0    0    0    0 -0.00000000000E+00 -0.00000000000E+00  0.11368683772E-12  0.17120000000E+03  0.17120000000E+03 0.  0.
         13    1    1    2    0    0 -0.81431085548E+02 -0.58942956511E+02  0.28102318982E+03  0.29846161930E+03  0.10566000000E+00 0.  1.
        994    1    1    2    0    0  0.88852068141E+01 -0.19454713597E+02  0.25447580293E+02  0.17439739713E+03  0.17120000000E+03 0.  0.
        998    1    1    2    0    0  0.72545878734E+02  0.78397670108E+02  0.11935292262E+04  0.11983409836E+04  0.10000000000E+02 0.  1.
</event>
<event>
 5    1  0.1167615E-008  0.3858993E+03  0.7957747E-01  0.3425867E+00
         13   -1    0    0    0    0  0.00000000000E+00  0.00000000000E+00  0.14999999963E+04  0.15000000000E+04  0.10566000000E+00 0.  1.
        994   -1    0    0    0    0 -0.00000000000E+00 -0.00000000000E+00  0.11368683772E-12  0.17120000000E+03  0.17120000000E+03 0.  0.
         13    1    1    2    0    0 -0.97165400316E+01 -0.62108432176E+01  0.54468283181E+02  0.55675764570E+02  0.10566000000E+00 0.  1.
        994    1    1    2    0    0  0.11841935158E+02  0.70172199366E+01  0.18058683906E+01  0.17176196891E+03  0.17120000000E+03 0.  0.
        998    1    1    2    0    0 -0.21253951259E+01 -0.80637671896E+00  0.14437258447E+04  0.14437622665E+04  0.10000000000E+02 0.  1.
</event>
<event>
 5    1  0.1153629E-008  0.2832872E+03  0.7957747E-01  0.4023065E+00
         13   -1    0    0    0    0  0.00000000000E+00  0.00000000000E+00  0.14999999963E+04  0.15000000000E+04  0.10566000000E+00 0.  1.
        994   -1    0    0    0    0 -0.00000000000E+00 -0.00000000000E+00  0.11368683772E-12  0.17120000000E+03  0.17120000000E+03 0.  0.
         13    1    1    2    0    0  0.11275594404E+03 -0.43941256323E+02  0.70447803287E+03  0.71479650732E+03  0.10566000000E+00 0.  1.
        994    1    1    2    0    0 -0.25356762806E+02  0.16432896098E+02  0.19510437629E+02  0.17493742501E+03  0.17120000000E+03 0.  0.
        998    1    1    2    0    0 -0.87399181233E+02  0.27508360225E+02  0.77601152578E+03  0.78146606766E+03  0.10000000000E+02 0.  1.
</event>
<event>
 5    1  0.1153629E-008  0.3754941E+03  0.7957747E-01  0.3471016E+00
         13   -1    0    0    0    0  0.00000000000E+00  0.00000000000E+00  0.14999999963E+04  0.15000000000E+04  0.10566000000E+00 0.  1.
        994   -1    0    0    0    0 -0.00000000000E+00 -0.00000000000E+00  0.11368683772E-12  0.17120000000E+03  0.17120000000E+03 0.  0.
         13    1    1    2    0    0  0.81369263446E+02  0.38589317957E+02  0.43898496753E+03  0.44812710850E+03  0.10566000000E+00 0.  1.
        994    1    1    2    0    0 -0.76236155646E+02 -0.50690868687E+02  0.35421641268E+02  0.19734651825E+03  0.17120000000E+03 0.  0.
        998    1    1    2    0    0 -0.51331078002E+01  0.12101550730E+02  0.10255933875E+04  0.10257263732E+04  0.10000000000E+02 0.  1.
</event>
<event>
 5    1  0.1153629E-008  0.3815332E+03  0.7957747E-01  0.3444509E+00
         13   -1    0    0    0    0  0.00000000000E+00  0.00000000000E+00  0.14999999963E+04  0.15000000000E+04  0.10566000000E+00 0. -1.
        994   -1    0    0    0    0 -0.00000000000E+00 -0.00000000000E+00  0.11368683772E-12  0.17120000000E+03  0.17120000000E+03 0.  0.
         13    1    1    2    0    0  0.81260561675E+01  0.31567140397E+02  0.15186128871E+03  0.15532024759E+03  0.10566000000E+00 0. -1.
        994    1    1    2    0    0  0.43711975477E+01 -0.26024242845E+02  0.56807820437E+01  0.17331497301E+03  0.17120000000E+03 0.  0.
        998    1    1    2    0    0 -0.12497253715E+02 -0.55428975525E+01  0.13424579255E+04  0.13425647794E+04  0.10000000000E+02 0. -1.
</event>
<event>
 5    1  0.1153629E-008  0.3855240E+03  0.7957747E-01  0.3427453E+00
         13   -1    0    0    0    0  0.00000000000E+00  0.00000000000E+00  0.14999999963E+04  0.15000000000E+04  0.10566000000E+00 0. -1.
        994   -1    0    0    0    0 -0.00000000000E+00 -0.00000000000E+00  0.11368683772E-12  0.17120000000E+03  0.17120000000E+03 0.  0.
         13    1    1    2    0    0 -0.22309092915E+00  0.15496438643E+02  0.93598296174E+02  0.94872765275E+02  0.10566000000E+00 0. -1.
        994    1    1    2    0    0  0.60025507082E+01 -0.27840489999E+01  0.15139625299E+01  0.17133450798E+03  0.17120000000E+03 0.  0.
        998    1    1    2    0    0 -0.57794597790E+01 -0.12712389643E+02  0.14048877376E+04  0.14049927267E+04  0.10000000000E+02 0. -1.
</event>
<event>
 5    1  0.1153629E-008  0.3473192E+03  0.7957747E-01  0.3607096E+00
         13   -1    0    0    0    0  0.00000000000E+00  0.00000000000E+00  0.14999999963E+04  0.15000000000E+04  0.10566000000E+00 0. -1.
        994   -1    0    0    0    0 -0.00000000000E+00 -0.00000000000E+00  0.11368683772E-12  0.17120000000E+03  0.17120000000E+03 0.  0.
         13    1    1    2    0    0 -0.18783384326E+03  0.49786297856E+02  0.11428086719E+04  0.11592117580E+04  0.10566000000E+00 0. -1.
        994    1    1    2    0    0  0.12014851664E+03 -0.60035420622E+02  0.89134430821E+02  0.23514741023E+03  0.17120000000E+03 0.  0.
        998    1    1    2    0    0  0.67685326620E+02  0.10249122766E+02  0.26805689356E+03  0.27684083179E+03  0.10000000000E+02 0. -1.
</event>
<event>
 5    1  0.1153629E-008  0.3757864E+03  0.7957747E-01  0.3469713E+00
         13   -1    0    0    0    0  0.00000000000E+00  0.00000000000E+00  0.14999999963E+04  0.15000000000E+04  0.10566000000E+00 0.  1.
        994   -1    0    0    0    0 -0.00000000000E+00 -0.00000000000E+00  0.11368683772E-12  0.17120000000E+03  0.17120000000E+03 0.  0.
         13    1    1    2    0    0  0.43153983938E+02  0.11562168090E+02  0.14415752734E+03  0.15092168139E+03  0.10566000000E+00 0.  1.
        994    1    1    2    0    0 -0.47972096538E+02  0.11713289301E+02  0.14587756904E+02  0.17877574177E+03  0.17120000000E+03 0.  0.
        998    1    1    2    0    0  0.48181125997E+01 -0.23275457391E+02  0.13412547120E+04  0.13415025768E+04  0.10000000000E+02 0.  1.
</event>
<event>
 5    1  0.1153629E-008  0.3840273E+03  0.7957747E-01  0.3433808E+00
         13   -1    0    0    0    0  0.00000000000E+00  0.00000000000E+00  0.14999999963E+04  0.15000000000E+04  0.10566000000E+00 0. -1.
        994   -1    0    0    0    0 -0.00000000000E+00 -0.00000000000E+00  0.11368683772E-12  0.17120000000E+03  0.17120000000E+03 0.  0.
         13    1    1    2    0    0 -0.13425038917E+02 -0.38289008961E+01  0.45296777364E+02  0.47399381384E+02  0.10566000000E+00 0. -1.
        994    1    1    2    0    0  0.90204402860E+01  0.79135764376E+01  0.25890096739E+01  0.17163955257E+03  0.17120000000E+03 0.  0.
        998    1    1    2    0    0  0.44045986312E+01 -0.40846755415E+01  0.14521142092E+04  0.14521610660E+04  0.10000000000E+02 0. -1.
</event>
<event>
 5    1  0.1153629E-008  0.3711383E+03  0.7957747E-01  0.3490676E+00
         13   -1    0    0    0    0  0.00000000000E+00  0.00000000000E+00  0.14999999963E+04  0.15000000000E+04  0.10566000000E+00 0. -1.
        994   -1    0    0    0    0 -0.00000000000E+00 -0.00000000000E+00  0.11368683772E-12  0.17120000000E+03  0.17120000000E+03 0.  0.
         13    1    1    2    0    0  0.11424858938E+02  0.72075645467E+02  0.27088579873E+03  0.28054331784E+03  0.10566000000E+00 0. -1.
        994    1    1    2    0    0 -0.34441788112E+02 -0.80582518145E+01  0.15946295700E+02  0.17554172307E+03  0.17120000000E+03 0.  0.
        998    1    1    2    0    0  0.23016929174E+02 -0.64017393653E+02  0.12131679019E+04  0.12151149591E+04  0.10000000000E+02 0. -1.
</event>
<event>
 5    1  0.1153629E-008  0.3803050E+03  0.7957747E-01  0.3449831E+00
         13   -1    0    0    0    0  0.00000000000E+00  0.00000000000E+00  0.14999999963E+04  0.15000000000E+04  0.10566000000E+00 0. -1.
        994   -1    0    0    0    0 -0.00000000000E+00 -0.00000000000E+00  0.11368683772E-12  0.17120000000E+03  0.17120000000E+03 0.  0.
         13    1    1    2    0    0 -0.40780233318E+02 -0.81693241009E+00  0.18979458512E+03  0.19412802608E+03  0.10566000000E+00 0. -1.
        994    1    1    2    0    0  0.38492983044E+02 -0.33857850270E+02  0.12806180249E+02  0.17916892035E+03  0.17120000000E+03 0.  0.
        998    1    1    2    0    0  0.22872502743E+01  0.34674782680E+02  0.12973992309E+04  0.12979030536E+04  0.10000000000E+02 0. -1.
</event>
<event>
 5    1  0.1153629E-008  0.3770569E+03  0.7957747E-01  0.3464074E+00
         13   -1    0    0    0    0  0.00000000000E+00  0.00000000000E+00  0.14999999963E+04  0.15000000000E+04  0.10566000000E+00 0. -1.
        994   -1    0    0    0    0 -0.00000000000E+00 -0.00000000000E+00  0.11368683772E-12  0.17120000000E+03  0.17120000000E+03 0.  0.
         13    1    1    2    0    0 -0.58642436405E+02  0.57245777612E+02  0.44449344884E+03  0.45198501261E+03  0.10566000000E+00 0. -1.
        994    1    1    2    0    0  0.68412011605E+02 -0.39879024480E+02  0.27095965507E+02  0.19056277515E+03  0.17120000000E+03 0.  0.
        998    1    1    2    0    0 -0.97695751995E+01 -0.17366753132E+02  0.10284105819E+04  0.10286522122E+04  0.10000000000E+02 0.  0.
</event>
<event>
 5    1  0.1546257E-008  0.3859169E+03  0.7957747E-01  0.3425793E+00
         13   -1    0    0    0    0  0.00000000000E+00  0.00000000000E+00  0.14999999963E+04  0.15000000000E+04  0.10566000000E+00 0. -1.
        994   -1    0    0    0    0 -0.00000000000E+00 -0.00000000000E+00  0.11368683772E-12  0.17120000000E+03  0.17120000000E+03 0.  0.
         13    1    1    2    0    0 -0.10552147716E+02 -0.65174551232E+01  0.67462432502E+02  0.68593119231E+02  0.10566000000E+00 0. -1.
        994    1    1    2    0    0  0.35503310181E+01  0.48518004030E+01  0.12941315948E+01  0.17131041881E+03  0.17120000000E+03 0.  0.
        998    1    1    2    0    0  0.70018166982E+01  0.16656547202E+01  0.14312434322E+04  0.14312964620E+04  0.10000000000E+02 0. -1.
</event>
<event>
 5    1  0.1153629E-008  0.3794227E+03  0.7957747E-01  0.3453676E+00
         13   -1    0    0    0    0  0.00000000000E+00  0.00000000000E+00  0.14999999963E+04  0.15000000000E+04  0.10566000000E+00 0.  1.
        994   -1    0    0    0    0 -0.00000000000E+00 -0.00000000000E+00  0.11368683772E-12  0.17120000000E+03  0.17120000000E+03 0.  0.
         13    1    1    2    0    0 -0.18751406405E+02 -0.36959553348E+02  0.18246990451E+03  0.18711734565E+03  0.10566000000E+00 0.  1.
        994    1    1    2    0    0  0.26506554249E+02  0.22685454806E+02  0.85124940475E+01  0.17492606962E+03  0.17120000000E+03 0.  0.
        998    1    1    2    0    0 -0.77551478431E+01  0.14274098542E+02  0.13090175977E+04  0.13091565847E+04  0.10000000000E+02 0.  1.
</event>
<event>
 5    1  0.1153629E-008  0.3769140E+03  0.7957747E-01  0.3464706E+00
         13   -1    0    0    0    0  0.00000000000E+00  0.00000000000E+00  0.14999999963E+04  0.15000000000E+04  0.10566000000E+00 0. -1.
        994   -1    0    0    0    0 -0.00000000000E+00 -0.00000000000E+00  0.11368683772E-12  0.17120000000E+03  0.17120000000E+03 0.  0.
         13    1    1    2    0    0  0.23505785146E+02 -0.22964735378E+02  0.93587858215E+02  0.99189714062E+02  0.10566000000E+00 0. -1.
        994    1    1    2    0    0 -0.28404457331E+02 -0.29836463999E+01  0.84590014557E+01  0.17377200594E+03  0.17120000000E+03 0.  0.
        998    1    1    2    0    0  0.48986721842E+01  0.25948381778E+02  0.13979531366E+04  0.13982382800E+04  0.10000000000E+02 0. -1.
</event>
<event>
 5    1  0.1153629E-008  0.3827139E+03  0.7957747E-01  0.3439426E+00
         13   -1    0    0    0    0  0.00000000000E+00  0.00000000000E+00  0.14999999963E+04  0.15000000000E+04  0.10566000000E+00 0. -1.
        994   -1    0    0    0    0 -0.00000000000E+00 -0.00000000000E+00  0.11368683772E-12  0.17120000000E+03  0.17120000000E+03 0.  0.
         13    1    1    2    0    0  0.20578685330E+02 -0.31983886038E+02  0.21678963325E+03  0.22010044867E+03  0.10566000000E+00 0. -1.
        994    1    1    2    0    0 -0.10359469041E+02  0.44201666527E+02  0.96285105786E+01  0.17737884355E+03  0.17120000000E+03 0.  0.
        998    1    1    2    0    0 -0.10219216289E+02 -0.12217780489E+02  0.12735818524E+04  0.12737207078E+04  0.10000000000E+02 0. -1.
</event>
<event>
 5    1  0.1153629E-008  0.3781525E+03  0.7957747E-01  0.3459243E+00
         13   -1    0    0    0    0  0.00000000000E+00  0.00000000000E+00  0.14999999963E+04  0.15000000000E+04  0.10566000000E+00 0.  1.
        994   -1    0    0    0    0 -0.00000000000E+00 -0.00000000000E+00  0.11368683772E-12  0.17120000000E+03  0.17120000000E+03 0.  0.
         13    1    1    2    0    0  0.11250401288E+00  0.44761485806E+02  0.17165064545E+03  0.17739097642E+03  0.10566000000E+00 0.  1.
        994    1    1    2    0    0 -0.37879275673E+01 -0.47705958342E+02  0.12810667453E+02  0.17822390428E+03  0.17120000000E+03 0.  0.
        998    1    1    2    0    0  0.36754235544E+01  0.29444725360E+01  0.13155386834E+04  0.13155851193E+04  0.10000000000E+02 0.  1.
</event>
<event>
 5    1  0.1153629E-008  0.3783221E+03  0.7957747E-01  0.3458497E+00
         13   -1    0    0    0    0  0.00000000000E+00  0.00000000000E+00  0.14999999963E+04  0.15000000000E+04  0.10566000000E+00 0.  1.
        994   -1    0    0    0    0 -0.00000000000E+00 -0.00000000000E+00  0.11368683772E-12  0.17120000000E+03  0.17120000000E+03 0.  0.
         13    1    1    2    0    0 -0.21374362789E+02  0.27342969826E+02  0.11491550802E+03  0.12004201985E+03  0.10566000000E+00 0.  1.
        994    1    1    2    0    0  0.72032941684E+01 -0.29986940449E+02  0.81863804926E+01  0.17414810039E+03  0.17120000000E+03 0.  0.
        998    1    1    2    0    0  0.14171068621E+02  0.26439706235E+01  0.13768981078E+04  0.13770098798E+04  0.10000000000E+02 0.  1.
</event>
<event>
 5    1  0.1153629E-008  0.3805782E+03  0.7957747E-01  0.3448645E+00
         13   -1    0    0    0    0  0.00000000000E+00  0.00000000000E+00  0.14999999963E+04  0.15000000000E+04  0.10566000000E+00 0. -1.
        994   -1    0    0    0    0 -0.00000000000E+00 -0.00000000000E+00  0.11368683772E-12  0.17120000000E+03  0.17120000000E+03 0.  0.
         13    1    1    2    0    0 -0.72280151882E+02  0.10710995599E+03  0.39018091745E+03  0.41102082980E+03  0.10566000000E+00 0. -1.
        994    1    1    2    0    0  0.86020464088E+02 -0.81849782687E+02  0.69819653896E+02  0.21973422864E+03  0.17120000000E+03 0.  0.
        998    1    1    2    0    0 -0.13740312206E+02 -0.25260173305E+02  0.10399994249E+04  0.10404449416E+04  0.10000000000E+02 0.  0.
</event>
<event>
 5    1  0.1153629E-008  0.3856027E+03  0.7957747E-01  0.3427120E+00
         13   -1    0    0    0    0  0.00000000000E+00  0.00000000000E+00  0.14999999963E+04  0.15000000000E+04  0.10566000000E+00 0.  1.
        994   -1    0    0    0    0 -0.00000000000E+00 -0.00000000000E+00  0.11368683772E-12  0.17120000000E+03  0.17120000000E+03 0.  0.
         13    1    1    2    0    0  0.53397093068E+01  0.96933828658E+01  0.45646482647E+02  0.46968997317E+02  0.10566000000E+00 0.  1.
        994    1    1    2    0    0 -0.68899885494E+01 -0.72713608597E+01  0.16606278232E+01  0.17150085223E+03  0.17120000000E+03 0.  0.
        998    1    1    2    0    0  0.15502792426E+01 -0.24220220061E+01  0.14526928858E+04  0.14527301505E+04  0.10000000000E+02 0.  0.
</event>
<event>
 5    1  0.1153629E-008  0.3841710E+03  0.7957747E-01  0.3433196E+00
         13   -1    0    0    0    0  0.00000000000E+00  0.00000000000E+00  0.14999999963E+04  0.15000000000E+04  0.10566000000E+00 0.  1.
        994   -1    0    0    0    0 -0.00000000000E+00 -0.00000000000E+00  0.11368683772E-12  0.17120000000E+03  0.17120000000E+03 0.  0.
         13    1    1    2    0    0 -0.12889581444E+02 -0.69790450312E+01  0.56640257886E+02  0.58506224940E+02  0.10566000000E+00 0.  1.
        994    1    1    2    0    0  0.87894533124E+01 -0.26094804298E+02  0.45464304342E+01  0.17345980321E+03  0.17120000000E+03 0.  0.
        998    1    1    2    0    0  0.41001281312E+01  0.33073849329E+02  0.14388133080E+04  0.14392339718E+04  0.10000000000E+02 0.  1.
</event>
<event>
 5    1  0.1153629E-008  0.3855260E+03  0.7957747E-01  0.3427444E+00
         13   -1    0    0    0    0  0.00000000000E+00  0.00000000000E+00  0.14999999963E+04  0.15000000000E+04  0.10566000000E+00 0.  1.
        994   -1    0    0    0    0 -0.00000000000E+00 -0.00000000000E+00  0.11368683772E-12  0.17120000000E+03  0.17120000000E+03 0.  0.
         13    1    1    2    0    0  0.13193080941E+02  0.33904646877E+01  0.68652650694E+02  0.69991072622E+02  0.10566000000E+00 0.  1.
        994    1    1    2    0    0 -0.11439305863E+02  0.11576981232E+02  0.22393048689E+01  0.17198644917E+03  0.17120000000E+03 0.  0.
        998    1    1    2    0    0 -0.17537750775E+01 -0.14967445920E+02  0.14291080407E+04  0.14292224782E+04  0.10000000000E+02 0.  1.
</event>
<event>
 5    1  0.1153629E-008  0.3801537E+03  0.7957747E-01  0.3450490E+00
         13   -1    0    0    0    0  0.00000000000E+00  0.00000000000E+00  0.14999999963E+04  0.15000000000E+04  0.10566000000E+00 0. -1.
        994   -1    0    0    0    0 -0.00000000000E+00 -0.00000000000E+00  0.11368683772E-12  0.17120000000E+03  0.17120000000E+03 0.  0.
         13    1    1    2    0    0 -0.95852783138E+02  0.19887011956E+03  0.11466243997E+04  0.11676834356E+04  0.10566000000E+00 0. -1.
        994    1    1    2    0    0  0.91941449340E+02 -0.19232501515E+03  0.17482413664E+03  0.32452281940E+03  0.17120000000E+03 0.  0.
        998    1    1    2    0    0  0.39113337973E+01 -0.65451044061E+01  0.17855145992E+03  0.17899374504E+03  0.10000000000E+02 0.  0.
</event>
<event>
 5    1  0.1153629E-008  0.3829528E+03  0.7957747E-01  0.3438401E+00
         13   -1    0    0    0    0  0.00000000000E+00  0.00000000000E+00  0.14999999963E+04  0.15000000000E+04  0.10566000000E+00 0. -1.
        994   -1    0    0    0    0 -0.00000000000E+00 -0.00000000000E+00  0.11368683772E-12  0.17120000000E+03  0.17120000000E+03 0.  0.
         13    1    1    2    0    0  0.99806788484E+01 -0.20648981396E+02  0.74007418835E+02  0.77479697919E+02  0.10566000000E+00 0. -1.
        994    1    1    2    0    0  0.42900493824E+01  0.79967182446E+02  0.24179558929E+02  0.19054460334E+03  0.17120000000E+03 0.  0.
        998    1    1    2    0    0 -0.14270728231E+02 -0.59318201050E+02  0.14018130185E+04  0.14031756987E+04  0.10000000000E+02 0. -1.
</event>
<event>
 5    1  0.1153629E-008  0.3739477E+03  0.7957747E-01  0.3477943E+00
         13   -1    0    0    0    0  0.00000000000E+00  0.00000000000E+00  0.14999999963E+04  0.15000000000E+04  0.10566000000E+00 0.  1.
        994   -1    0    0    0    0 -0.00000000000E+00 -0.00000000000E+00  0.11368683772E-12  0.17120000000E+03  0.17120000000E+03 0.  0.
         13    1    1    2    0    0  0.48694637062E+01  0.28746425819E+02  0.27954300693E+02  0.40392112664E+02  0.10566000000E+00 0.  1.
        994    1    1    2    0    0  0.69500149716E+02 -0.17499320128E+02  0.31482044301E+02  0.18824732702E+03  0.17120000000E+03 0.  0.
        998    1    1    2    0    0 -0.74369613423E+02 -0.11247105692E+02  0.14405636513E+04  0.14425605603E+04  0.10000000000E+02 0.  1.
</event>
<event>
 5    1  0.1153629E-008  0.3811132E+03  0.7957747E-01  0.3446326E+00
         13   -1    0    0    0    0  0.00000000000E+00  0.00000000000E+00  0.14999999963E+04  0.15000000000E+04  0.10566000000E+00 0. -1.
        994   -1    0    0    0    0 -0.00000000000E+00 -0.00000000000E+00  0.11368683772E-12  0.17120000000E+03  0.17120000000E+03 0.  0.
         13    1    1    2    0    0  0.12188039253E+02 -0.21151617149E+02  0.80343583815E+02  0.83970481916E+02  0.10566000000E+00 0. -1.
        994    1    1    2    0    0 -0.10791333517E+02  0.16694000195E+02  0.48894627761E+01  0.17241951562E+03  0.17120000000E+03 0.  0.
        998    1    1    2    0    0 -0.13967057367E+01  0.44576169539E+01  0.14147669497E+04  0.14148100025E+04  0.10000000000E+02 0. -1.
</event>
<event>
 5    1  0.1153629E-008  0.3728920E+03  0.7957747E-01  0.3482705E+00
         13   -1    0    0    0    0  0.00000000000E+00  0.00000000000E+00  0.14999999963E+04  0.15000000000E+04  0.10566000000E+00 0. -1.
        994   -1    0    0    0    0 -0.00000000000E+00 -0.00000000000E+00  0.11368683772E-12  0.17120000000E+03  0.17120000000E+03 0.  0.
         13    1    1    2    0    0  0.34711887068E+02 -0.42668538467E+01  0.77571062546E+02  0.85090552085E+02  0.10566000000E+00 0. -1.
        994    1    1    2    0    0 -0.14172331039E+02  0.17099331502E+02  0.94557066181E+01  0.17289329800E+03  0.17120000000E+03 0.  0.
        998    1    1    2    0    0 -0.20539556028E+02 -0.12832477656E+02  0.14129732271E+04  0.14132161499E+04  0.10000000000E+02 0. -1.
</event>
<event>
 5    1  0.1153629E-008  0.3841269E+03  0.7957747E-01  0.3433384E+00
         13   -1    0    0    0    0  0.00000000000E+00  0.00000000000E+00  0.14999999963E+04  0.15000000000E+04  0.10566000000E+00 0. -1.
        994   -1    0    0    0    0 -0.00000000000E+00 -0.00000000000E+00  0.11368683772E-12  0.17120000000E+03  0.17120000000E+03 0.  0.
         13    1    1    2    0    0  0.41708001489E+01 -0.14392639072E+02  0.54624053874E+02  0.56642228584E+02  0.10566000000E+00 0. -1.
        994    1    1    2    0    0  0.15746840889E+02  0.12824264891E+02  0.34255834132E+01  0.17243433356E+03  0.17120000000E+03 0.  0.
        998    1    1    2    0    0 -0.19917641038E+02  0.15683741804E+01  0.14419503590E+04  0.14421234379E+04  0.10000000000E+02 0. -1.
</event>
<event>
 5    1  0.1153629E-008  0.4067381E+03  0.7957747E-01  0.3342405E+00
         13   -1    0    0    0    0  0.00000000000E+00  0.00000000000E+00  0.14999999963E+04  0.15000000000E+04  0.10566000000E+00 0. -1.
        994   -1    0    0    0    0 -0.00000000000E+00 -0.00000000000E+00  0.11368683772E-12  0.17120000000E+03  0.17120000000E+03 0.  0.
         13    1    1    2    0    0  0.57722389316E+02 -0.14113953187E+02  0.42826818891E+02  0.73247699509E+02  0.10566000000E+00 0. -1.
        994    1    1    2    0    0 -0.58802432350E+02  0.14255249618E+02  0.46757890238E+02  0.18750114264E+03  0.17120000000E+03 0.  0.
        998    1    1    2    0    0  0.10800430341E+01 -0.14129643183E+00  0.14104152871E+04  0.14104511579E+04  0.10000000000E+02 0. -1.
</event>
<event>
 5    1  0.1153629E-008  0.3801407E+03  0.7957747E-01  0.3450546E+00
         13   -1    0    0    0    0  0.00000000000E+00  0.00000000000E+00  0.14999999963E+04  0.15000000000E+04  0.10566000000E+00 0.  1.
        994   -1    0    0    0    0 -0.00000000000E+00 -0.00000000000E+00  0.11368683772E-12  0.17120000000E+03  0.17120000000E+03 0.  0.
         13    1    1    2    0    0  0.33998128003E+02  0.25483659489E+01  0.13389787481E+03  0.13817025338E+03  0.10566000000E+00 0.  1.
        994    1    1    2    0    0 -0.29447769655E+02 -0.44167020384E+01  0.70305345483E+01  0.17391246882E+03  0.17120000000E+03 0.  0.
        998    1    1    2    0    0 -0.45503583480E+01  0.18683360895E+01  0.13590715869E+04  0.13591172778E+04  0.10000000000E+02 0.  1.
</event>
<event>
 5    1  0.1153629E-008  0.3834979E+03  0.7957747E-01  0.3436068E+00
         13   -1    0    0    0    0  0.00000000000E+00  0.00000000000E+00  0.14999999963E+04  0.15000000000E+04  0.10566000000E+00 0.  1.
        994   -1    0    0    0    0 -0.00000000000E+00 -0.00000000000E+00  0.11368683772E-12  0.17120000000E+03  0.17120000000E+03 0.  0.
         13    1    1    2    0    0  0.10934247430E+02  0.54711624987E+01  0.30531161180E+02  0.32888513998E+02  0.10566000000E+00 0.  1.
        994    1    1    2    0    0 -0.91677553807E+01 -0.34994126377E+01  0.26960189324E+01  0.17150219283E+03  0.17120000000E+03 0.  0.
        998    1    1    2    0    0 -0.17664920489E+01 -0.19717498611E+01  0.14667728162E+04  0.14668092932E+04  0.10000000000E+02 0.  1.
</event>
<event>
 5    1  0.1153629E-008  0.3815513E+03  0.7957747E-01  0.3444431E+00
         13   -1    0    0    0    0  0.00000000000E+00  0.00000000000E+00  0.14999999963E+04  0.15000000000E+04  0.10566000000E+00 0. -1.
        994   -1    0    0    0    0 -0.00000000000E+00 -0.00000000000E+00  0.11368683772E-12  0.17120000000E+03  0.17120000000E+03 0.  0.
         13    1    1    2    0    0 -0.91935998598E+01  0.13214671936E+02  0.36645390279E+02  0.40025562151E+02  0.10566000000E+00 0. -1.
        994    1    1    2    0    0  0.54755693297E+01 -0.16562152804E+02  0.43647530781E+01  0.17214173763E+03  0.17120000000E+03 0.  0.
        998    1    1    2    0    0  0.37180305301E+01  0.33474808672E+01  0.14589898529E+04  0.14590327002E+04  0.10000000000E+02 0. -1.
</event>
<event>
 5    1  0.1153629E-008  0.3839942E+03  0.7957747E-01  0.3433949E+00
         13   -1    0    0    0    0  0.00000000000E+00  0.00000000000E+00  0.14999999963E+04  0.15000000000E+04  0.10566000000E+00 0. -1.
        994   -1    0    0    0    0 -0.00000000000E+00 -0.00000000000E+00  0.11368683772E-12  0.17120000000E+03  0.17120000000E+03 0.  0.
         13    1    1    2    0    0 -0.15908675808E+02 -0.45019741025E+01  0.63849989184E+02  0.65955939987E+02  0.10566000000E+00 0. -1.
        994    1    1    2    0    0  0.11897623963E+02 -0.35987425771E+01  0.26402762750E+01  0.17167095113E+03  0.17120000000E+03 0.  0.
        998    1    1    2    0    0  0.40110518450E+01  0.81007166796E+01  0.14335097308E+04  0.14335731089E+04  0.10000000000E+02 0. -1.
</event>
<event>
 5    1  0.1153629E-008  0.3051319E+03  0.7957747E-01  0.3860050E+00
         13   -1    0    0    0    0  0.00000000000E+00  0.00000000000E+00  0.14999999963E+04  0.15000000000E+04  0.10566000000E+00 0. -1.
        994   -1    0    0    0    0 -0.00000000000E+00 -0.00000000000E+00  0.11368683772E-12  0.17120000000E+03  0.17120000000E+03 0.  0.
         13    1    1    2    0    0 -0.12571780058E+01  0.15544192580E+03  0.78723303125E+03  0.80243356700E+03  0.10566000000E+00 0. -1.
        994    1    1    2    0    0  0.40360434235E+02 -0.10929197848E+03  0.63483529486E+02  0.21659478232E+03  0.17120000000E+03 0.  0.
        998    1    1    2    0    0 -0.39103256229E+02 -0.46149947324E+02  0.64928343554E+03  0.65217165069E+03  0.10000000000E+02 0. -1.
</event>
<event>
 5    1  0.1153629E-008  0.3794631E+03  0.7957747E-01  0.3453500E+00
         13   -1    0    0    0    0  0.00000000000E+00  0.00000000000E+00  0.14999999963E+04  0.15000000000E+04  0.10566000000E+00 0. -1.
        994   -1    0    0    0    0 -0.00000000000E+00 -0.00000000000E+00  0.11368683772E-12  0.17120000000E+03  0.17120000000E+03 0.  0.
         13    1    1    2    0    0  0.60022283221E+01 -0.13010996511E+02  0.21977300674E+02  0.26235961656E+02  0.10566000000E+00 0. -1.
        994    1    1    2    0    0 -0.72457741168E+01 -0.17283242775E+01  0.45902835526E+01  0.17142344953E+03  0.17120000000E+03 0.  0.
        998    1    1    2    0    0  0.12435457947E+01  0.14739320789E+02  0.14734324121E+04  0.14735405888E+04  0.10000000000E+02 0. -1.
</event>
<event>
 5    1  0.1153629E-008  0.3822091E+03  0.7957747E-01  0.3441596E+00
         13   -1    0    0    0    0  0.00000000000E+00  0.00000000000E+00  0.14999999963E+04  0.15000000000E+04  0.10566000000E+00 0.  1.
        994   -1    0    0    0    0 -0.00000000000E+00 -0.00000000000E+00  0.11368683772E-12  0.17120000000E+03  0.17120000000E+03 0.  0.
         13    1    1    2    0    0  0.14885899920E+02  0.21045023546E+01  0.34548242024E+02  0.37677727340E+02  0.10566000000E+00 0.  1.
        994    1    1    2    0    0 -0.22286386666E+02 -0.13715834676E+02  0.52981360921E+01  0.17326949356E+03  0.17120000000E+03 0.  0.
        998    1    1    2    0    0  0.74004867467E+01  0.11611332322E+02  0.14601536182E+04  0.14602527791E+04  0.10000000000E+02 0.  1.
</event>
<event>
 5    1  0.1153629E-008  0.3802881E+03  0.7957747E-01  0.3449905E+00
         13   -1    0    0    0    0  0.00000000000E+00  0.00000000000E+00  0.14999999963E+04  0.15000000000E+04  0.10566000000E+00 0. -1.
        994   -1    0    0    0    0 -0.00000000000E+00 -0.00000000000E+00  0.11368683772E-12  0.17120000000E+03  0.17120000000E+03 0.  0.
         13    1    1    2    0    0 -0.15724245359E+02 -0.18317634551E+02  0.77217232065E+02  0.80903026640E+02  0.10566000000E+00 0. -1.
        994    1    1    2    0    0  0.63697126323E+01 -0.65567697140E+01  0.42669189005E+01  0.17149697101E+03  0.17120000000E+03 0.  0.
        998    1    1    2    0    0  0.93545327265E+01  0.24874404265E+02  0.14185158453E+04  0.14188000024E+04  0.10000000000E+02 0. -1.
</event>
<event>
 5    1  0.1153629E-008  0.3694648E+03  0.7957747E-01  0.3498354E+00
         13   -1    0    0    0    0  0.00000000000E+00  0.00000000000E+00  0.14999999963E+04  0.15000000000E+04  0.10566000000E+00 0. -1.
        994   -1    0    0    0    0 -0.00000000000E+00 -0.00000000000E+00  0.11368683772E-12  0.17120000000E+03  0.17120000000E+03 0.  0.
         13    1    1    2    0    0 -0.18017148185E+03 -0.35365251422E+02  0.79196329243E+03  0.81296883803E+03  0.10566000000E+00 0. -1.
        994    1    1    2    0    0  0.17378430490E+03  0.26912086082E+02  0.12575980614E+03  0.27577203239E+03  0.17120000000E+03 0.  0.
        998    1    1    2    0    0  0.63871769488E+01  0.84531653404E+01  0.58227689771E+03  0.58245912959E+03  0.10000000000E+02 0. -1.
</event>
<event>
 5    1  0.1153629E-008  0.3851235E+03  0.7957747E-01  0.3429148E+00
         13   -1    0    0    0    0  0.00000000000E+00  0.00000000000E+00  0.14999999963E+04  0.15000000000E+04  0.10566000000E+00 0.  1.
        994   -1    0    0    0    0 -0.00000000000E+00 -0.00000000000E+00  0.11368683772E-12  0.17120000000E+03  0.17120000000E+03 0.  0.
         13    1    1    2    0    0 -0.13220927749E+02 -0.36388314642E+01  0.60579252088E+02  0.62111922950E+02  0.10566000000E+00 0.  1.
        994    1    1    2    0    0  0.75224478815E+01  0.10546960793E+01  0.17585157255E+01  0.17137745471E+03  0.17120000000E+03 0.  0.
        998    1    1    2    0    0  0.56984798679E+01  0.25841353849E+01  0.14376622285E+04  0.14377106223E+04  0.10000000000E+02 0.  0.
</event>
<event>
 5    1  0.1153629E-008  0.3788877E+03  0.7957747E-01  0.3456016E+00
         13   -1    0    0    0    0  0.00000000000E+00  0.00000000000E+00  0.14999999963E+04  0.15000000000E+04  0.10566000000E+00 0.  1.
        994   -1    0    0    0    0 -0.00000000000E+00 -0.00000000000E+00  0.11368683772E-12  0.17120000000E+03  0.17120000000E+03 0.  0.
         13    1    1    2    0    0  0.13769381749E+01 -0.18054170248E+02  0.32775896170E+02  0.37444886912E+02  0.10566000000E+00 0.  1.
        994    1    1    2    0    0 -0.36890163694E+01  0.14585028163E+02  0.54554474781E+01  0.17194631079E+03  0.17120000000E+03 0.  0.
        998    1    1    2    0    0  0.23120781945E+01  0.34691420848E+01  0.14617686526E+04  0.14618088023E+04  0.10000000000E+02 0.  1.
</event>
<event>
 5    1  0.1153629E-008  0.3779438E+03  0.7957747E-01  0.3460161E+00
         13   -1    0    0    0    0  0.00000000000E+00  0.00000000000E+00  0.14999999963E+04  0.15000000000E+04  0.10566000000E+00 0. -1.
        994   -1    0    0    0    0 -0.00000000000E+00 -0.00000000000E+00  0.11368683772E-12  0.17120000000E+03  0.17120000000E+03 0.  0.
         13    1    1    2    0    0  0.24795075126E+02 -0.41449415459E+02  0.21727120298E+03  0.22257501342E+03  0.10566000000E+00 0. -1.
        994    1    1    2    0    0 -0.31736373315E+02  0.18683096530E+02  0.97531913661E+01  0.17538762849E+03  0.17120000000E+03 0.  0.
        998    1    1    2    0    0  0.69412981892E+01  0.22766318929E+02  0.12729756019E+04  0.12732373581E+04  0.10000000000E+02 0. -1.
</event>
<event>
 5    1  0.1153629E-008  0.3816224E+03  0.7957747E-01  0.3444124E+00
         13   -1    0    0    0    0  0.00000000000E+00  0.00000000000E+00  0.14999999963E+04  0.15000000000E+04  0.10566000000E+00 0.  1.
        994   -1    0    0    0    0 -0.00000000000E+00 -0.00000000000E+00  0.11368683772E-12  0.17120000000E+03  0.17120000000E+03 0.  0.
         13    1    1    2    0    0  0.17748086647E+00 -0.22205451998E+02  0.69988383891E+02  0.73426825082E+02  0.10566000000E+00 0.  1.
        994    1    1    2    0    0  0.18722023818E+00  0.23602578105E+02  0.51710399211E+01  0.17289677961E+03  0.17120000000E+03 0.  0.
        998    1    1    2    0    0 -0.36470110464E+00 -0.13971261065E+01  0.14248405725E+04  0.14248763953E+04  0.10000000000E+02 0.  1.
</event>
<event>
 5    1  0.1153629E-008  0.3816030E+03  0.7957747E-01  0.3444208E+00
         13   -1    0    0    0    0  0.00000000000E+00  0.00000000000E+00  0.14999999963E+04  0.15000000000E+04  0.10566000000E+00 0. -1.
        994   -1    0    0    0    0 -0.00000000000E+00 -0.00000000000E+00  0.11368683772E-12  0.17120000000E+03  0.17120000000E+03 0.  0.
         13    1    1    2    0    0  0.12067009790E+02 -0.84967086231E+01  0.30896350428E+02  0.34240362388E+02  0.10566000000E+00 0. -1.
        994    1    1    2    0    0 -0.11978944601E+02  0.10356195874E+02  0.41604104716E+01  0.17198108885E+03  0.17120000000E+03 0.  0.
        998    1    1    2    0    0 -0.88065188304E-01 -0.18594872511E+01  0.14649432354E+04  0.14649785488E+04  0.10000000000E+02 0. -1.
</event>
<event>
 5    1  0.1153629E-008  0.3778439E+03  0.7957747E-01  0.3460601E+00
         13   -1    0    0    0    0  0.00000000000E+00  0.00000000000E+00  0.14999999963E+04  0.15000000000E+04  0.10566000000E+00 0.  1.
        994   -1    0    0    0    0 -0.00000000000E+00 -0.00000000000E+00  0.11368683772E-12  0.17120000000E+03  0.17120000000E+03 0.  0.
         13    1    1    2    0    0  0.64130833574E+02 -0.10458371986E+02  0.15598181114E+03  0.16897478489E+03  0.10566000000E+00 0.  1.
        994    1    1    2    0    0 -0.12869729336E+02 -0.56255458373E+02  0.27219600700E+02  0.18270373065E+03  0.17120000000E+03 0.  0.
        998    1    1    2    0    0 -0.51261104238E+02  0.66713830359E+02  0.13167985844E+04  0.13195214845E+04  0.10000000000E+02 0.  1.
</event>
<event>
 5    1  0.1153629E-008  0.3846079E+03  0.7957747E-01  0.3431337E+00
         13   -1    0    0    0    0  0.00000000000E+00  0.00000000000E+00  0.14999999963E+04  0.15000000000E+04  0.10566000000E+00 0. -1.
        994   -1    0    0    0    0 -0.00000000000E+00 -0.00000000000E+00  0.11368683772E-12  0.17120000000E+03  0.17120000000E+03 0.  0.
         13    1    1    2    0    0  0.12994320798E+02 -0.31568494333E+01  0.49602778496E+02  0.51373776092E+02  0.10566000000E+00 0. -1.
        994    1    1    2    0    0 -0.43643736774E+01  0.61011577417E+01  0.20102737540E+01  0.17137605750E+03  0.17120000000E+03 0.  0.
        998    1    1    2    0    0 -0.86299471203E+01 -0.29443083084E+01  0.14483869440E+04  0.14484501664E+04  0.10000000000E+02 0. -1.
</event>
<event>
 5    1  0.1153629E-008  0.3852800E+03  0.7957747E-01  0.3428486E+00
         13   -1    0    0    0    0  0.00000000000E+00  0.00000000000E+00  0.14999999963E+04  0.15000000000E+04  0.10566000000E+00 0.  1.
        994   -1    0    0    0    0 -0.00000000000E+00 -0.00000000000E+00  0.11368683772E-12  0.17120000000E+03  0.17120000000E+03 0.  0.
         13    1    1    2    0    0  0.50486189721E+01  0.90761071539E+01  0.38104258182E+02  0.39494429104E+02  0.10566000000E+00 0.  1.
        994    1    1    2    0    0  0.65643531142E+01  0.66039316629E-01  0.16327942507E+01  0.17133359598E+03  0.17120000000E+03 0.  0.
        998    1    1    2    0    0 -0.11612972086E+02 -0.91421464705E+01  0.14602629438E+04  0.14603719749E+04  0.10000000000E+02 0.  1.
</event>
<event>
 5    1  0.1153629E-008  0.3723633E+03  0.7957747E-01  0.3485100E+00
         13   -1    0    0    0    0  0.00000000000E+00  0.00000000000E+00  0.14999999963E+04  0.15000000000E+04  0.10566000000E+00 0.  1.
        994   -1    0    0    0    0 -0.00000000000E+00 -0.00000000000E+00  0.11368683772E-12  0.17120000000E+03  0.17120000000E+03 0.  0.
         13    1    1    2    0    0 -0.92280638569E+01 -0.44799947869E+02  0.12097413939E+03  0.12933269523E+03  0.10566000000E+00 0.  1.
        994    1    1    2    0    0  0.97819245409E+01  0.38595231147E+02  0.13495650102E+02  0.17628627424E+03  0.17120000000E+03 0.  0.
        998    1    1    2    0    0 -0.55386068399E+00  0.62047167223E+01  0.13655302068E+04  0.13655810305E+04  0.10000000000E+02 0.  1.
</event>
<event>
 5    1  0.1153629E-008  0.3767455E+03  0.7957747E-01  0.3465453E+00
         13   -1    0    0    0    0  0.00000000000E+00  0.00000000000E+00  0.14999999963E+04  0.15000000000E+04  0.10566000000E+00 0. -1.
        994   -1    0    0    0    0 -0.00000000000E+00 -0.00000000000E+00  0.11368683772E-12  0.17120000000E+03  0.17120000000E+03 0.  0.
         13    1    1    2    0    0  0.16111270551E+02  0.20559449061E+02  0.56655666983E+02  0.62387015875E+02  0.10566000000E+00 0. -1.
        994    1    1    2    0    0 -0.14192783230E+02 -0.11010694019E+02  0.68762524087E+01  0.17227708300E+03  0.17120000000E+03 0.  0.
        998    1    1    2    0    0 -0.19184873204E+01 -0.95487550419E+01  0.14364680769E+04  0.14365359011E+04  0.10000000000E+02 0. -1.
</event>
<event>
 5    1  0.1153629E-008  0.3753642E+03  0.7957747E-01  0.3471596E+00
         13   -1    0    0    0    0  0.00000000000E+00  0.00000000000E+00  0.14999999963E+04  0.15000000000E+04  0.10566000000E+00 0. -1.
        994   -1    0    0    0    0 -0.00000000000E+00 -0.00000000000E+00  0.11368683772E-12  0.17120000000E+03  0.17120000000E+03 0.  0.
         13    1    1    2    0    0  0.17341914448E+02 -0.67217282206E+01  0.24817437984E+02  0.31013545736E+02  0.10566000000E+00 0. -1.
        994    1    1    2    0    0  0.11484400931E+01 -0.16118419245E+01  0.65051519085E+01  0.17133497585E+03  0.17120000000E+03 0.  0.
        998    1    1    2    0    0 -0.18490354541E+02  0.83335701451E+01  0.14686774064E+04  0.14688514784E+04  0.10000000000E+02 0. -1.
</event>
<event>
 5    1  0.1153629E-008  0.3698571E+03  0.7957747E-01  0.3496548E+00
         13   -1    0    0    0    0  0.00000000000E+00  0.00000000000E+00  0.14999999963E+04  0.15000000000E+04  0.10566000000E+00 0. -1.
        994   -1    0    0    0    0 -0.00000000000E+00 -0.00000000000E+00  0.11368683772E-12  0.17120000000E+03  0.17120000000E+03 0.  0.
         13    1    1    2    0    0  0.81278284666E+02 -0.36792609519E+02  0.37378949009E+03  0.38428953894E+03  0.10566000000E+00 0. -1.
        994    1    1    2    0    0 -0.39308453055E+02  0.28642235981E+02  0.19175074508E+02  0.17900462465E+03  0.17120000000E+03 0.  0.
        998    1    1    2    0    0 -0.41969831611E+02  0.81503735387E+01  0.11070354317E+04  0.11079058364E+04  0.10000000000E+02 0.  1.
</event>
<event>
 5    1  0.1153629E-008  0.3816875E+03  0.7957747E-01  0.3443844E+00
         13   -1    0    0    0    0  0.00000000000E+00  0.00000000000E+00  0.14999999963E+04  0.15000000000E+04  0.10566000000E+00 0. -1.
        994   -1    0    0    0    0 -0.00000000000E+00 -0.00000000000E+00  0.11368683772E-12  0.17120000000E+03  0.17120000000E+03 0.  0.
         13    1    1    2    0    0 -0.17790356130E+02  0.12150682655E+02  0.65299370148E+02  0.68761579141E+02  0.10566000000E+00 0. -1.
        994    1    1    2    0    0  0.29246015680E+02 -0.60019934876E+01  0.62525727769E+01  0.17389619900E+03  0.17120000000E+03 0.  0.
        998    1    1    2    0    0 -0.11455659550E+02 -0.61486891676E+01  0.14284480534E+04  0.14285422219E+04  0.10000000000E+02 0. -1.
</event>
<event>
 5    1  0.1153629E-008  0.3687696E+03  0.7957747E-01  0.3501565E+00
         13   -1    0    0    0    0  0.00000000000E+00  0.00000000000E+00  0.14999999963E+04  0.15000000000E+04  0.10566000000E+00 0. -1.
        994   -1    0    0    0    0 -0.00000000000E+00 -0.00000000000E+00  0.11368683772E-12  0.17120000000E+03  0.17120000000E+03 0.  0.
         13    1    1    2    0    0 -0.17183944016E+03  0.67641104729E+02  0.78161877274E+03  0.80313886054E+03  0.10566000000E+00 0. -1.
        994    1    1    2    0    0  0.17522255854E+03 -0.36673137903E+02  0.13183386823E+03  0.28060198303E+03  0.17120000000E+03 0.  0.
        998    1    1    2    0    0 -0.33831183880E+01 -0.30967966825E+02  0.58654735531E+03  0.58745915643E+03  0.10000000000E+02 0. -1.
</event>
<event>
 5    1  0.1153629E-008  0.3837783E+03  0.7957747E-01  0.3434870E+00
         13   -1    0    0    0    0  0.00000000000E+00  0.00000000000E+00  0.14999999963E+04  0.15000000000E+04  0.10566000000E+00 0. -1.
        994   -1    0    0    0    0 -0.00000000000E+00 -0.00000000000E+00  0.11368683772E-12  0.17120000000E+03  0.17120000000E+03 0.  0.
         13    1    1    2    0    0 -0.29975319536E+01 -0.17456083727E+02  0.67630573811E+02  0.69911413481E+02  0.10566000000E+00 0. -1.
        994    1    1    2    0    0  0.47819490657E+01  0.15999353009E+02  0.31591436211E+01  0.17204146745E+03  0.17120000000E+03 0.  0.
        998    1    1    2    0    0 -0.17844171121E+01  0.14567307173E+01  0.14292102788E+04  0.14292471191E+04  0.10000000000E+02 0. -1.
</event>
<event>
 5    1  0.1153629E-008  0.3819025E+03  0.7957747E-01  0.3442916E+00
         13   -1    0    0    0    0  0.00000000000E+00  0.00000000000E+00  0.14999999963E+04  0.15000000000E+04  0.10566000000E+00 0.  1.
        994   -1    0    0    0    0 -0.00000000000E+00 -0.00000000000E+00  0.11368683772E-12  0.17120000000E+03  0.17120000000E+03 0.  0.
         13    1    1    2    0    0 -0.51683731383E+01 -0.12812913569E+02  0.28390322708E+02  0.31573793286E+02  0.10566000000E+00 0.  1.
        994    1    1    2    0    0  0.85790638625E+01  0.12139905309E+02  0.39103007912E+01  0.17188865027E+03  0.17120000000E+03 0.  0.
        998    1    1    2    0    0 -0.34106907242E+01  0.67300826012E+00  0.14676993728E+04  0.14677375564E+04  0.10000000000E+02 0.  1.
</event>
<event>
 5    1  0.1153629E-008  0.3813480E+03  0.7957747E-01  0.3445310E+00
         13   -1    0    0    0    0  0.00000000000E+00  0.00000000000E+00  0.14999999963E+04  0.15000000000E+04  0.10566000000E+00 0. -1.
        994   -1    0    0    0    0 -0.00000000000E+00 -0.00000000000E+00  0.11368683772E-12  0.17120000000E+03  0.17120000000E+03 0.  0.
         13    1    1    2    0    0  0.31753848641E+02 -0.39519293251E+01  0.15434105169E+03  0.15762327255E+03  0.10566000000E+00 0. -1.
        994    1    1    2    0    0 -0.11639801412E+02  0.36980642241E+01  0.39508075138E+01  0.17168054501E+03  0.17120000000E+03 0.  0.
        998    1    1    2    0    0 -0.20114047229E+02  0.25386510098E+00  0.13417081371E+04  0.13418961824E+04  0.10000000000E+02 0. -1.
</event>
<event>
 5    1  0.1153629E-008  0.3697495E+03  0.7957747E-01  0.3497043E+00
         13   -1    0    0    0    0  0.00000000000E+00  0.00000000000E+00  0.14999999963E+04  0.15000000000E+04  0.10566000000E+00 0. -1.
        994   -1    0    0    0    0 -0.00000000000E+00 -0.00000000000E+00  0.11368683772E-12  0.17120000000E+03  0.17120000000E+03 0.  0.
         13    1    1    2    0    0  0.20710362985E+02  0.24190404083E+02  0.51626974470E+02  0.60658473782E+02  0.10566000000E+00 0. -1.
        994    1    1    2    0    0 -0.11636989518E+02 -0.64073537742E+01  0.10010997147E+02  0.17200620271E+03  0.17120000000E+03 0.  0.
        998    1    1    2    0    0 -0.90733734673E+01 -0.17783050308E+02  0.14383620247E+04  0.14385353235E+04  0.10000000000E+02 0. -1.
</event>
<event>
 5    1  0.1153629E-008  0.3814017E+03  0.7957747E-01  0.3445078E+00
         13   -1    0    0    0    0  0.00000000000E+00  0.00000000000E+00  0.14999999963E+04  0.15000000000E+04  0.10566000000E+00 0.  1.
        994   -1    0    0    0    0 -0.00000000000E+00 -0.00000000000E+00  0.11368683772E-12  0.17120000000E+03  0.17120000000E+03 0.  0.
         13    1    1    2    0    0 -0.75240988793E+01 -0.16505457561E+02  0.45853043680E+02  0.49310799750E+02  0.10566000000E+00 0.  1.
        994    1    1    2    0    0  0.58954221133E+01  0.16101389531E+02  0.44061544034E+01  0.17211294241E+03  0.17120000000E+03 0.  0.
        998    1    1    2    0    0  0.16286767660E+01  0.40406802993E+00  0.14497407982E+04  0.14497762578E+04  0.10000000000E+02 0.  1.
</event>
<event>
 5    1  0.1153629E-008  0.3847216E+03  0.7957747E-01  0.3430854E+00
         13   -1    0    0    0    0  0.00000000000E+00  0.00000000000E+00  0.14999999963E+04  0.15000000000E+04  0.10566000000E+00 0. -1.
        994   -1    0    0    0    0 -0.00000000000E+00 -0.00000000000E+00  0.11368683772E-12  0.17120000000E+03  0.17120000000E+03 0.  0.
         13    1    1    2    0    0 -0.11848992314E+02 -0.15206556263E+02  0.10890106468E+03  0.11059426308E+03  0.10566000000E+00 0. -1.
        994    1    1    2    0    0  0.57627148659E+00  0.91964608188E+01  0.20479585041E+01  0.17146002775E+03  0.17120000000E+03 0.  0.
        998    1    1    2    0    0  0.11272720827E+02  0.60100954446E+01  0.13890509731E+04  0.13891457092E+04  0.10000000000E+02 0. -1.
</event>
<event>
 5    1  0.1153629E-008  0.3865046E+03  0.7957747E-01  0.3423316E+00
         13   -1    0    0    0    0  0.00000000000E+00  0.00000000000E+00  0.14999999963E+04  0.15000000000E+04  0.10566000000E+00 0. -1.
        994   -1    0    0    0    0 -0.00000000000E+00 -0.00000000000E+00  0.11368683772E-12  0.17120000000E+03  0.17120000000E+03 0.  0.
         13    1    1    2    0    0  0.27963106404E-01  0.11021994930E+03  0.48233435815E+03  0.49476750319E+03  0.10566000000E+00 0. -1.
        994    1    1    2    0    0 -0.19103879031E+02  0.16876283895E+01  0.21313664603E+02  0.17358432701E+03  0.17120000000E+03 0.  0.
        998    1    1    2    0    0  0.19075915924E+02 -0.11190757769E+03  0.99635197353E+03  0.10028481698E+04  0.10000000000E+02 0. -1.
</event>
<event>
 5    1  0.1153629E-008  0.3751806E+03  0.7957747E-01  0.3472415E+00
         13   -1    0    0    0    0  0.00000000000E+00  0.00000000000E+00  0.14999999963E+04  0.15000000000E+04  0.10566000000E+00 0.  1.
        994   -1    0    0    0    0 -0.00000000000E+00 -0.00000000000E+00  0.11368683772E-12  0.17120000000E+03  0.17120000000E+03 0.  0.
         13    1    1    2    0    0  0.46154545843E+02 -0.57829065703E+02  0.39803182988E+03  0.40485033247E+03  0.10566000000E+00 0.  1.
        994    1    1    2    0    0 -0.49567306599E+02  0.21411959212E+02  0.16555172598E+02  0.18027452294E+03  0.17120000000E+03 0.  0.
        998    1    1    2    0    0  0.34127607559E+01  0.36417106492E+02  0.10854129938E+04  0.10860751446E+04  0.10000000000E+02 0.  1.
</event>
<event>
 5    1  0.1153629E-008  0.3855271E+03  0.7957747E-01  0.3427440E+00
         13   -1    0    0    0    0  0.00000000000E+00  0.00000000000E+00  0.14999999963E+04  0.15000000000E+04  0.10566000000E+00 0. -1.
        994   -1    0    0    0    0 -0.00000000000E+00 -0.00000000000E+00  0.11368683772E-12  0.17120000000E+03  0.17120000000E+03 0.  0.
         13    1    1    2    0    0  0.13852429743E+02  0.59614876462E+01  0.83990805051E+02  0.85334023941E+02  0.10566000000E+00 0. -1.
        994    1    1    2    0    0 -0.10238574271E+02  0.64131250387E+00  0.17142478780E+01  0.17151565040E+03  0.17120000000E+03 0.  0.
        998    1    1    2    0    0 -0.36138554724E+01 -0.66028001500E+01  0.14142949433E+04  0.14143503257E+04  0.10000000000E+02 0. -1.
</event>
<event>
 5    1  0.1153629E-008  0.3704284E+03  0.7957747E-01  0.3493924E+00
         13   -1    0    0    0    0  0.00000000000E+00  0.00000000000E+00  0.14999999963E+04  0.15000000000E+04  0.10566000000E+00 0. -1.
        994   -1    0    0    0    0 -0.00000000000E+00 -0.00000000000E+00  0.11368683772E-12  0.17120000000E+03  0.17120000000E+03 0.  0.
         13    1    1    2    0    0 -0.31226873638E+02  0.30305979072E+02  0.86188510188E+02  0.96550714432E+02  0.10566000000E+00 0. -1.
        994    1    1    2    0    0 -0.35201514448E+01 -0.16151382457E+02  0.12122831054E+02  0.17242291511E+03  0.17120000000E+03 0.  0.
        998    1    1    2    0    0  0.34747025083E+02 -0.14154596615E+02  0.14016886550E+04  0.14022263705E+04  0.10000000000E+02 0. -1.
</event>
<event>
 5    1  0.1153629E-008  0.3851302E+03  0.7957747E-01  0.3429120E+00
         13   -1    0    0    0    0  0.00000000000E+00  0.00000000000E+00  0.14999999963E+04  0.15000000000E+04  0.10566000000E+00 0.  1.
        994   -1    0    0    0    0 -0.00000000000E+00 -0.00000000000E+00  0.11368683772E-12  0.17120000000E+03  0.17120000000E+03 0.  0.
         13    1    1    2    0    0 -0.29786214163E+01  0.12783516858E+02  0.51644938777E+02  0.53286971711E+02  0.10566000000E+00 0.  1.
        994    1    1    2    0    0  0.95678598842E+01 -0.18309101398E+02  0.29696660257E+01  0.17246746375E+03  0.17120000000E+03 0.  0.
        998    1    1    2    0    0 -0.65892384679E+01  0.55255845406E+01  0.14453853915E+04  0.14454455645E+04  0.10000000000E+02 0.  1.
</event>
<event>
 5    1  0.1153629E-008  0.3850134E+03  0.7957747E-01  0.3429615E+00
         13   -1    0    0    0    0  0.00000000000E+00  0.00000000000E+00  0.14999999963E+04  0.15000000000E+04  0.10566000000E+00 0.  1.
        994   -1    0    0    0    0 -0.00000000000E+00 -0.00000000000E+00  0.11368683772E-12  0.17120000000E+03  0.17120000000E+03 0.  0.
         13    1    1    2    0    0 -0.56703483656E+01 -0.96872801308E+01  0.37722665270E+02  0.39357424789E+02  0.10566000000E+00 0.  1.
        994    1    1    2    0    0  0.90633775086E+01  0.93588583280E+01  0.21818415351E+01  0.17170886254E+03  0.17120000000E+03 0.  0.
        998    1    1    2    0    0 -0.33930291430E+01  0.32842180287E+00  0.14600954895E+04  0.14601337127E+04  0.10000000000E+02 0.  1.
</event>
<event>
 5    1  0.1153629E-008  0.3826558E+03  0.7957747E-01  0.3439676E+00
         13   -1    0    0    0    0  0.00000000000E+00  0.00000000000E+00  0.14999999963E+04  0.15000000000E+04  0.10566000000E+00 0.  1.
        994   -1    0    0    0    0 -0.00000000000E+00 -0.00000000000E+00  0.11368683772E-12  0.17120000000E+03  0.17120000000E+03 0.  0.
         13    1    1    2    0    0  0.84239064663E+00  0.24640479447E+02  0.10732132541E+03  0.11011694193E+03  0.10566000000E+00 0.  1.
        994    1    1    2    0    0 -0.28199811751E+01 -0.15684681953E+02  0.36405332847E+01  0.17197864700E+03  0.17120000000E+03 0.  0.
        998    1    1    2    0    0  0.19775905285E+01 -0.89557974940E+01  0.13890381376E+04  0.13891044111E+04  0.10000000000E+02 0.  1.
</event>
<event>
 5    1  0.1932698E-008  0.3862024E+03  0.7957747E-01  0.3424589E+00
         13   -1    0    0    0    0  0.00000000000E+00  0.00000000000E+00  0.14999999963E+04  0.15000000000E+04  0.10566000000E+00 0. -1.
        994   -1    0    0    0    0 -0.00000000000E+00 -0.00000000000E+00  0.11368683772E-12  0.17120000000E+03  0.17120000000E+03 0.  0.
         13    1    1    2    0    0  0.11073962132E+02 -0.27096942458E+01  0.61712435344E+02  0.62756759957E+02  0.10566000000E+00 0. -1.
        994    1    1    2    0    0 -0.11760601091E+02  0.22649159870E+01  0.15043652063E+01  0.17162501186E+03  0.17120000000E+03 0.  0.
        998    1    1    2    0    0  0.68663895806E+00  0.44477825883E+00  0.14367831957E+04  0.14368182282E+04  0.10000000000E+02 0.  0.
</event>
<event>
 5    1  0.1153629E-008  0.3811939E+03  0.7957747E-01  0.3445976E+00
         13   -1    0    0    0    0  0.00000000000E+00  0.00000000000E+00  0.14999999963E+04  0.15000000000E+04  0.10566000000E+00 0. -1.
        994   -1    0    0    0    0 -0.00000000000E+00 -0.00000000000E+00  0.11368683772E-12  0.17120000000E+03  0.17120000000E+03 0.  0.
         13    1    1    2    0    0  0.52719941284E+02 -0.18007460390E+02  0.33100722246E+03  0.33566270767E+03  0.10566000000E+00 0. -1.
        994    1    1    2    0    0 -0.57613668974E+02  0.14963313944E+02  0.15421127938E+02  0.18190790748E+03  0.17120000000E+03 0.  0.
        998    1    1    2    0    0  0.48937276903E+01  0.30441464466E+01  0.11535716459E+04  0.11536293848E+04  0.10000000000E+02 0.  0.
</event>
<event>
 5    1  0.1153629E-008  0.3775504E+03  0.7957747E-01  0.3461894E+00
         13   -1    0    0    0    0  0.00000000000E+00  0.00000000000E+00  0.14999999963E+04  0.15000000000E+04  0.10566000000E+00 0. -1.
        994   -1    0    0    0    0 -0.00000000000E+00 -0.00000000000E+00  0.11368683772E-12  0.17120000000E+03  0.17120000000E+03 0.  0.
         13    1    1    2    0    0 -0.55316703583E+01 -0.89006353534E+01  0.76698200845E+01  0.12986839139E+02  0.10566000000E+00 0. -1.
        994    1    1    2    0    0  0.55627294743E+01  0.12479253566E+02  0.60042180426E+01  0.17184925476E+03  0.17120000000E+03 0.  0.
        998    1    1    2    0    0 -0.31059115904E-01 -0.35786182125E+01  0.14863259582E+04  0.14863639061E+04  0.10000000000E+02 0. -1.
</event>
<event>
 5    1  0.1153629E-008  0.3764210E+03  0.7957747E-01  0.3466892E+00
         13   -1    0    0    0    0  0.00000000000E+00  0.00000000000E+00  0.14999999963E+04  0.15000000000E+04  0.10566000000E+00 0. -1.
        994   -1    0    0    0    0 -0.00000000000E+00 -0.00000000000E+00  0.11368683772E-12  0.17120000000E+03  0.17120000000E+03 0.  0.
         13    1    1    2    0    0 -0.53341091100E+01  0.70475068142E+02  0.24802167060E+03  0.25789522718E+03  0.10566000000E+00 0. -1.
        994    1    1    2    0    0 -0.37048444359E+02  0.27816772031E+02  0.22091641571E+02  0.17872839915E+03  0.17120000000E+03 0.  0.
        998    1    1    2    0    0  0.42382553469E+02 -0.98291840173E+02  0.12298866841E+04  0.12345763737E+04  0.10000000000E+02 0. -1.
</event>
<event>
 5    1  0.1153629E-008  0.3824360E+03  0.7957747E-01  0.3440620E+00
         13   -1    0    0    0    0  0.00000000000E+00  0.00000000000E+00  0.14999999963E+04  0.15000000000E+04  0.10566000000E+00 0.  1.
        994   -1    0    0    0    0 -0.00000000000E+00 -0.00000000000E+00  0.11368683772E-12  0.17120000000E+03  0.17120000000E+03 0.  0.
         13    1    1    2    0    0 -0.21201202704E+02  0.17579462475E+02  0.12158702755E+03  0.12466733706E+03  0.10566000000E+00 0.  1.
        994    1    1    2    0    0  0.15890371543E+02 -0.21977694812E+02  0.53514532753E+01  0.17341741847E+03  0.17120000000E+03 0.  0.
        998    1    1    2    0    0  0.53108311614E+01  0.43982323369E+01  0.13730615155E+04  0.13731152445E+04  0.10000000000E+02 0.  0.
</event>
<event>
 5    1  0.1153629E-008  0.3732403E+03  0.7957747E-01  0.3481130E+00
         13   -1    0    0    0    0  0.00000000000E+00  0.00000000000E+00  0.14999999963E+04  0.15000000000E+04  0.10566000000E+00 0. -1.
        994   -1    0    0    0    0 -0.00000000000E+00 -0.00000000000E+00  0.11368683772E-12  0.17120000000E+03  0.17120000000E+03 0.  0.
         13    1    1    2    0    0  0.54516413353E+02 -0.10624624318E+02  0.20615657054E+03  0.21350752846E+03  0.10566000000E+00 0. -1.
        994    1    1    2    0    0 -0.19190593157E+02  0.65236557981E+02  0.23566163312E+02  0.18571185050E+03  0.17120000000E+03 0.  0.
        998    1    1    2    0    0 -0.35325820196E+02 -0.54611933664E+02  0.12702772624E+04  0.12719806210E+04  0.10000000000E+02 0. -1.
</event>
<event>
 5    1  0.1153629E-008  0.2752124E+03  0.7957747E-01  0.4090587E+00
         13   -1    0    0    0    0  0.00000000000E+00  0.00000000000E+00  0.14999999963E+04  0.15000000000E+04  0.10566000000E+00 0.  1.
        994   -1    0    0    0    0 -0.00000000000E+00 -0.00000000000E+00  0.11368683772E-12  0.17120000000E+03  0.17120000000E+03 0.  0.
         13    1    1    2    0    0 -0.59542286275E+02 -0.11170505539E+03  0.64153428735E+03  0.65390332333E+03  0.10566000000E+00 0.  1.
        994    1    1    2    0    0  0.49593246685E+02  0.18491286024E+02  0.27848015434E+02  0.18134599455E+03  0.17120000000E+03 0.  0.
        998    1    1    2    0    0  0.99490395902E+01  0.93213769367E+02  0.83061769350E+03  0.83595068212E+03  0.10000000000E+02 0.  1.
</event>
<event>
 5    1  0.1153629E-008  0.3809762E+03  0.7957747E-01  0.3446919E+00
         13   -1    0    0    0    0  0.00000000000E+00  0.00000000000E+00  0.14999999963E+04  0.15000000000E+04  0.10566000000E+00 0. -1.
        994   -1    0    0    0    0 -0.00000000000E+00 -0.00000000000E+00  0.11368683772E-12  0.17120000000E+03  0.17120000000E+03 0.  0.
         13    1    1    2    0    0 -0.11989941226E+02 -0.16748055458E+02  0.46825146588E+02  0.51155269223E+02  0.10566000000E+00 0. -1.
        994    1    1    2    0    0  0.27473878548E+02  0.59734408962E+02  0.18182865448E+02  0.18429072199E+03  0.17120000000E+03 0.  0.
        998    1    1    2    0    0 -0.15483937322E+02 -0.42986353504E+02  0.14349919842E+04  0.14357540088E+04  0.10000000000E+02 0. -1.
</event>
<event>
 5    1  0.1153629E-008  0.2289566E+03  0.7957747E-01  0.4584819E+00
         13   -1    0    0    0    0  0.00000000000E+00  0.00000000000E+00  0.14999999963E+04  0.15000000000E+04  0.10566000000E+00 0.  1.
        994   -1    0    0    0    0 -0.00000000000E+00 -0.00000000000E+00  0.11368683772E-12  0.17120000000E+03  0.17120000000E+03 0.  0.
         13    1    1    2    0    0 -0.13262816015E+03 -0.88983515018E+02  0.17333260395E+03  0.23569577333E+03  0.10566000000E+00 0.  1.
        994    1    1    2    0    0  0.78496954407E+02  0.12258144249E+03  0.18241264351E+03  0.28943357512E+03  0.17120000000E+03 0.  0.
        998    1    1    2    0    0  0.54131205739E+02 -0.33597927467E+02  0.11442547488E+04  0.11460706515E+04  0.10000000000E+02 0.  1.
</event>
<event>
 5    1  0.1153629E-008  0.3834414E+03  0.7957747E-01  0.3436309E+00
         13   -1    0    0    0    0  0.00000000000E+00  0.00000000000E+00  0.14999999963E+04  0.15000000000E+04  0.10566000000E+00 0. -1.
        994   -1    0    0    0    0 -0.00000000000E+00 -0.00000000000E+00  0.11368683772E-12  0.17120000000E+03  0.17120000000E+03 0.  0.
         13    1    1    2    0    0 -0.13066551911E+02  0.69472792623E+01  0.44389186292E+02  0.46791136892E+02  0.10566000000E+00 0. -1.
        994    1    1    2    0    0  0.16554396861E+02  0.51309293508E+01  0.33993912532E+01  0.17210860046E+03  0.17120000000E+03 0.  0.
        998    1    1    2    0    0 -0.34878449493E+01 -0.12078208613E+02  0.14522114187E+04  0.14523002626E+04  0.10000000000E+02 0. -1.
</event>
<event>
 5    1  0.1153629E-008  0.3751494E+03  0.7957747E-01  0.3472555E+00
         13   -1    0    0    0    0  0.00000000000E+00  0.00000000000E+00  0.14999999963E+04  0.15000000000E+04  0.10566000000E+00 0.  1.
        994   -1    0    0    0    0 -0.00000000000E+00 -0.00000000000E+00  0.11368683772E-12  0.17120000000E+03  0.17120000000E+03 0.  0.
         13    1    1    2    0    0 -0.81008963825E+01 -0.81487900377E+01  0.69775544670E+01  0.13443389887E+02  0.10566000000E+00 0.  1.
        994    1    1    2    0    0  0.43063023974E+01  0.81458076789E+01  0.68905007770E+01  0.17158618075E+03  0.17120000000E+03 0.  0.
        998    1    1    2    0    0  0.37945939851E+01  0.29823588672E-02  0.14861319410E+04  0.14861704294E+04  0.10000000000E+02 0.  1.
</event>
<event>
 5    1  0.1153629E-008  0.3851777E+03  0.7957747E-01  0.3428919E+00
         13   -1    0    0    0    0  0.00000000000E+00  0.00000000000E+00  0.14999999963E+04  0.15000000000E+04  0.10566000000E+00 0. -1.
        994   -1    0    0    0    0 -0.00000000000E+00 -0.00000000000E+00  0.11368683772E-12  0.17120000000E+03  0.17120000000E+03 0.  0.
         13    1    1    2    0    0 -0.14332931619E+02  0.96725460636E+01  0.10120984230E+03  0.10267635764E+03  0.10566000000E+00 0. -1.
        994    1    1    2    0    0  0.55973198220E+01 -0.25533500797E+01  0.16663559614E+01  0.17131861057E+03  0.17120000000E+03 0.  0.
        998    1    1    2    0    0  0.87356117972E+01 -0.71191959839E+01  0.13971237980E+04  0.13972050318E+04  0.10000000000E+02 0. -1.
</event>
<event>
 5    1  0.1153629E-008  0.3767287E+03  0.7957747E-01  0.3465527E+00
         13   -1    0    0    0    0  0.00000000000E+00  0.00000000000E+00  0.14999999963E+04  0.15000000000E+04  0.10566000000E+00 0.  1.
        994   -1    0    0    0    0 -0.00000000000E+00 -0.00000000000E+00  0.11368683772E-12  0.17120000000E+03  0.17120000000E+03 0.  0.
         13    1    1    2    0    0 -0.22693149763E+02 -0.19090631063E+02  0.82264513944E+02  0.87446513133E+02  0.10566000000E+00 0.  1.
        994    1    1    2    0    0 -0.10242448059E+02 -0.99428518882E-01  0.61482964169E+01  0.17161631384E+03  0.17120000000E+03 0.  0.
        998    1    1    2    0    0  0.32935597822E+02  0.19190059582E+02  0.14115871859E+04  0.14121371730E+04  0.10000000000E+02 0.  1.
</event>
<event>
 5    1  0.1153629E-008  0.3826614E+03  0.7957747E-01  0.3439652E+00
         13   -1    0    0    0    0  0.00000000000E+00  0.00000000000E+00  0.14999999963E+04  0.15000000000E+04  0.10566000000E+00 0. -1.
        994   -1    0    0    0    0 -0.00000000000E+00 -0.00000000000E+00  0.11368683772E-12  0.17120000000E+03  0.17120000000E+03 0.  0.
         13    1    1    2    0    0  0.73372523194E+01  0.33350342996E+02  0.18154328661E+03  0.18472697888E+03  0.10566000000E+00 0. -1.
        994    1    1    2    0    0  0.47630498304E+01 -0.38608008550E+02  0.78265657659E+01  0.17573832849E+03  0.17120000000E+03 0.  0.
        998    1    1    2    0    0 -0.12100302150E+02  0.52576655537E+01  0.13106301439E+04  0.13107346926E+04  0.10000000000E+02 0. -1.
</event>
<event>
 5    1  0.1153629E-008  0.3846227E+03  0.7957747E-01  0.3431274E+00
         13   -1    0    0    0    0  0.00000000000E+00  0.00000000000E+00  0.14999999963E+04  0.15000000000E+04  0.10566000000E+00 0.  1.
        994   -1    0    0    0    0 -0.00000000000E+00 -0.00000000000E+00  0.11368683772E-12  0.17120000000E+03  0.17120000000E+03 0.  0.
         13    1    1    2    0    0 -0.18677141740E+02 -0.77064696942E+01  0.10442547394E+03  0.10636219286E+03  0.10566000000E+00 0.  1.
        994    1    1    2    0    0  0.19779065087E+02  0.10227852902E+02  0.34518564262E+01  0.17267650594E+03  0.17120000000E+03 0.  0.
        998    1    1    2    0    0 -0.11019233470E+01 -0.25213832082E+01  0.13921226659E+04  0.13921613012E+04  0.10000000000E+02 0.  1.
</event>
<event>
 5    1  0.1153629E-008  0.3846212E+03  0.7957747E-01  0.3431281E+00
         13   -1    0    0    0    0  0.00000000000E+00  0.00000000000E+00  0.14999999963E+04  0.15000000000E+04  0.10566000000E+00 0. -1.
        994   -1    0    0    0    0 -0.00000000000E+00 -0.00000000000E+00  0.11368683772E-12  0.17120000000E+03  0.17120000000E+03 0.  0.
         13    1    1    2    0    0 -0.92538680783E+01  0.99519114104E+01  0.51690478428E+02  0.53447089156E+02  0.10566000000E+00 0. -1.
        994    1    1    2    0    0 -0.49118558076E+00 -0.72539280772E+01  0.19924190814E+01  0.17136589646E+03  0.17120000000E+03 0.  0.
        998    1    1    2    0    0  0.97450536591E+01 -0.26979833331E+01  0.14463170988E+04  0.14463870144E+04  0.10000000000E+02 0. -1.
</event>
<event>
 5    1  0.1153629E-008  0.3762797E+03  0.7957747E-01  0.3467519E+00
         13   -1    0    0    0    0  0.00000000000E+00  0.00000000000E+00  0.14999999963E+04  0.15000000000E+04  0.10566000000E+00 0. -1.
        994   -1    0    0    0    0 -0.00000000000E+00 -0.00000000000E+00  0.11368683772E-12  0.17120000000E+03  0.17120000000E+03 0.  0.
         13    1    1    2    0    0 -0.20810871018E+02 -0.11096347687E+03  0.61597302220E+03  0.62623379085E+03  0.10566000000E+00 0. -1.
        994    1    1    2    0    0  0.13293233145E+02  0.11071277248E+03  0.49339943729E+02  0.21018538980E+03  0.17120000000E+03 0.  0.
        998    1    1    2    0    0  0.75176378732E+01  0.25070439170E+00  0.83468703035E+03  0.83478081936E+03  0.10000000000E+02 0.  0.
</event>
<event>
 5    1  0.1153629E-008  0.3812499E+03  0.7957747E-01  0.3445734E+00
         13   -1    0    0    0    0  0.00000000000E+00  0.00000000000E+00  0.14999999963E+04  0.15000000000E+04  0.10566000000E+00 0. -1.
        994   -1    0    0    0    0 -0.00000000000E+00 -0.00000000000E+00  0.11368683772E-12  0.17120000000E+03  0.17120000000E+03 0.  0.
         13    1    1    2    0    0  0.12174095958E+02 -0.59711408374E+01  0.26084149298E+02  0.29398250695E+02  0.10566000000E+00 0. -1.
        994    1    1    2    0    0  0.27827340054E+01 -0.83905456429E+01  0.37637143303E+01  0.17146938622E+03  0.17120000000E+03 0.  0.
        998    1    1    2    0    0 -0.14956829964E+02  0.14361686480E+02  0.14701521327E+04  0.14703323631E+04  0.10000000000E+02 0. -1.
</event>
<event>
 5    1  0.1153629E-008  0.3853127E+03  0.7957747E-01  0.3428347E+00
         13   -1    0    0    0    0  0.00000000000E+00  0.00000000000E+00  0.14999999963E+04  0.15000000000E+04  0.10566000000E+00 0.  1.
        994   -1    0    0    0    0 -0.00000000000E+00 -0.00000000000E+00  0.11368683772E-12  0.17120000000E+03  0.17120000000E+03 0.  0.
         13    1    1    2    0    0 -0.17417683957E+02 -0.65933118438E+02  0.10502829471E+03  0.12522581872E+03  0.10566000000E+00 0.  1.
        994    1    1    2    0    0  0.25169899418E+02  0.68871308191E+02  0.39430384251E+02  0.19037062833E+03  0.17120000000E+03 0.  0.
        998    1    1    2    0    0 -0.77522154608E+01 -0.29381897529E+01  0.13555413173E+04  0.13556035529E+04  0.10000000000E+02 0.  1.
</event>
<event>
 5    1  0.1153629E-008  0.3850379E+03  0.7957747E-01  0.3429511E+00
         13   -1    0    0    0    0  0.00000000000E+00  0.00000000000E+00  0.14999999963E+04  0.15000000000E+04  0.10566000000E+00 0.  1.
        994   -1    0    0    0    0 -0.00000000000E+00 -0.00000000000E+00  0.11368683772E-12  0.17120000000E+03  0.17120000000E+03 0.  0.
         13    1    1    2    0    0 -0.33312589120E+01 -0.13200215463E+02  0.55300166046E+02  0.56951404749E+02  0.10566000000E+00 0.  1.
        994    1    1    2    0    0  0.49362916390E+01  0.15015064853E+02  0.24332182117E+01  0.17194528112E+03  0.17120000000E+03 0.  0.
        998    1    1    2    0    0 -0.16050327271E+01 -0.18148493906E+01  0.14422666120E+04  0.14423033141E+04  0.10000000000E+02 0.  0.
</event>
<event>
 5    1  0.1153629E-008  0.3820203E+03  0.7957747E-01  0.3442408E+00
         13   -1    0    0    0    0  0.00000000000E+00  0.00000000000E+00  0.14999999963E+04  0.15000000000E+04  0.10566000000E+00 0. -1.
        994   -1    0    0    0    0 -0.00000000000E+00 -0.00000000000E+00  0.11368683772E-12  0.17120000000E+03  0.17120000000E+03 0.  0.
         13    1    1    2    0    0  0.77976684011E+02  0.53377277786E+02  0.47186086202E+03  0.48122986327E+03  0.10566000000E+00 0. -1.
        994    1    1    2    0    0 -0.12062384925E+03 -0.85924689632E+02  0.79740014723E+02  0.24000224008E+03  0.17120000000E+03 0.  0.
        998    1    1    2    0    0  0.42647165244E+02  0.32547411846E+02  0.94839911953E+03  0.94996789664E+03  0.10000000000E+02 0. -1.
</event>
<event>
 5    1  0.1153629E-008  0.3841223E+03  0.7957747E-01  0.3433403E+00
         13   -1    0    0    0    0  0.00000000000E+00  0.00000000000E+00  0.14999999963E+04  0.15000000000E+04  0.10566000000E+00 0.  1.
        994   -1    0    0    0    0 -0.00000000000E+00 -0.00000000000E+00  0.11368683772E-12  0.17120000000E+03  0.17120000000E+03 0.  0.
         13    1    1    2    0    0 -0.13864032938E+02  0.11671418921E+02  0.75561655130E+02  0.77704622250E+02  0.10566000000E+00 0.  1.
        994    1    1    2    0    0  0.10742889876E+02 -0.17097299075E+02  0.34123851428E+01  0.17242045033E+03  0.17120000000E+03 0.  0.
        998    1    1    2    0    0  0.31211430620E+01  0.54258801547E+01  0.14210259560E+04  0.14210749274E+04  0.10000000000E+02 0.  1.
</event>
<event>
 5    1  0.1153629E-008  0.3844972E+03  0.7957747E-01  0.3431807E+00
         13   -1    0    0    0    0  0.00000000000E+00  0.00000000000E+00  0.14999999963E+04  0.15000000000E+04  0.10566000000E+00 0.  1.
        994   -1    0    0    0    0 -0.00000000000E+00 -0.00000000000E+00  0.11368683772E-12  0.17120000000E+03  0.17120000000E+03 0.  0.
         13    1    1    2    0    0  0.96239143971E+01 -0.74147067238E+01  0.39360027313E+02  0.41192481331E+02  0.10566000000E+00 0.  1.
        994    1    1    2    0    0 -0.60584613719E+01  0.15584954004E+01  0.20088743420E+01  0.17132603258E+03  0.17120000000E+03 0.  0.
        998    1    1    2    0    0 -0.35654530252E+01  0.58562113233E+01  0.14586310946E+04  0.14586814861E+04  0.10000000000E+02 0.  1.
</event>
<event>
 5    1  0.1153629E-008  0.2552037E+03  0.7957747E-01  0.4278858E+00
         13   -1    0    0    0    0  0.00000000000E+00  0.00000000000E+00  0.14999999963E+04  0.15000000000E+04  0.10566000000E+00 0.  1.
        994   -1    0    0    0    0 -0.00000000000E+00 -0.00000000000E+00  0.11368683772E-12  0.17120000000E+03  0.17120000000E+03 0.  0.
         13    1    1    2    0    0  0.13811408371E+03  0.13143274494E+03  0.19410333710E+03  0.27207753159E+03  0.10566000000E+00 0.  1.
        994    1    1    2    0    0 -0.13690379468E+03 -0.12676904306E+03  0.29755265387E+03  0.39071736729E+03  0.17120000000E+03 0.  0.
        998    1    1    2    0    0 -0.12102890298E+01 -0.46637018822E+01  0.10083440053E+04  0.10084051011E+04  0.10000000000E+02 0.  1.
</event>
<event>
 5    1  0.1153629E-008  0.3774850E+03  0.7957747E-01  0.3462183E+00
         13   -1    0    0    0    0  0.00000000000E+00  0.00000000000E+00  0.14999999963E+04  0.15000000000E+04  0.10566000000E+00 0. -1.
        994   -1    0    0    0    0 -0.00000000000E+00 -0.00000000000E+00  0.11368683772E-12  0.17120000000E+03  0.17120000000E+03 0.  0.
         13    1    1    2    0    0  0.12342526438E+03 -0.20387300222E+02  0.55936553442E+03  0.57318343500E+03  0.10566000000E+00 0. -1.
        994    1    1    2    0    0 -0.18228697594E+03 -0.44067498677E+02  0.13496014831E+03  0.28756593621E+03  0.17120000000E+03 0.  0.
        998    1    1    2    0    0  0.58861711558E+02  0.64454798899E+02  0.80567431355E+03  0.81045062879E+03  0.10000000000E+02 0. -1.
</event>
<event>
 5    1  0.1153629E-008  0.3796033E+03  0.7957747E-01  0.3452887E+00
         13   -1    0    0    0    0  0.00000000000E+00  0.00000000000E+00  0.14999999963E+04  0.15000000000E+04  0.10566000000E+00 0. -1.
        994   -1    0    0    0    0 -0.00000000000E+00 -0.00000000000E+00  0.11368683772E-12  0.17120000000E+03  0.17120000000E+03 0.  0.
         13    1    1    2    0    0 -0.24007803325E+02  0.16708939904E+01  0.69320148872E+02  0.73378884639E+02  0.10566000000E+00 0. -1.
        994    1    1    2    0    0  0.50859074700E+00 -0.86808163582E+01  0.45866582949E+01  0.17148204767E+03  0.17120000000E+03 0.  0.
        998    1    1    2    0    0  0.23499212578E+02  0.70099223678E+01  0.14260931891E+04  0.14263390677E+04  0.10000000000E+02 0. -1.
</event>
<event>
 5    1  0.1153629E-008  0.3705469E+03  0.7957747E-01  0.3493381E+00
         13   -1    0    0    0    0  0.00000000000E+00  0.00000000000E+00  0.14999999963E+04  0.15000000000E+04  0.10566000000E+00 0. -1.
        994   -1    0    0    0    0 -0.00000000000E+00 -0.00000000000E+00  0.11368683772E-12  0.17120000000E+03  0.17120000000E+03 0.  0.
         13    1    1    2    0    0 -0.86879668290E+01 -0.10676419106E+02  0.32667842209E+01  0.14147428590E+02  0.10566000000E+00 0. -1.
        994    1    1    2    0    0 -0.88388210291E+01  0.21831445662E+02  0.13173748859E+02  0.17331394761E+03  0.17120000000E+03 0.  0.
        998    1    1    2    0    0  0.17526787858E+02 -0.11155026557E+02  0.14835594632E+04  0.14837386238E+04  0.10000000000E+02 0. -1.
</event>
<event>
 5    1  0.1153629E-008  0.3717452E+03  0.7957747E-01  0.3487908E+00
         13   -1    0    0    0    0  0.00000000000E+00  0.00000000000E+00  0.14999999963E+04  0.15000000000E+04  0.10566000000E+00 0.  1.
        994   -1    0    0    0    0 -0.00000000000E+00 -0.00000000000E+00  0.11368683772E-12  0.17120000000E+03  0.17120000000E+03 0.  0.
         13    1    1    2    0    0 -0.52003921926E+02 -0.41653879273E+02  0.18009825615E+03  0.19202824424E+03  0.10566000000E+00 0.  1.
        994    1    1    2    0    0  0.22488118166E+02  0.16380322208E+03  0.10909007361E+03  0.26181538378E+03  0.17120000000E+03 0.  0.
        998    1    1    2    0    0  0.29515803759E+02 -0.12214934281E+03  0.12108116665E+04  0.12173563720E+04  0.10000000000E+02 0.  1.
</event>
<event>
 5    1  0.1153629E-008  0.3699582E+03  0.7957747E-01  0.3496083E+00
         13   -1    0    0    0    0  0.00000000000E+00  0.00000000000E+00  0.14999999963E+04  0.15000000000E+04  0.10566000000E+00 0. -1.
        994   -1    0    0    0    0 -0.00000000000E+00 -0.00000000000E+00  0.11368683772E-12  0.17120000000E+03  0.17120000000E+03 0.  0.
         13    1    1    2    0    0 -0.11591170194E+02  0.10949729446E+01  0.29382331906E+01  0.12008270922E+02  0.10566000000E+00 0. -1.
        994    1    1    2    0    0  0.13619837339E+02 -0.93498257894E+00  0.99356599062E+01  0.17203061210E+03  0.17120000000E+03 0.  0.
        998    1    1    2    0    0 -0.20286671445E+01 -0.15999036571E+00  0.14871261032E+04  0.14871611170E+04  0.10000000000E+02 0. -1.
</event>
<event>
 5    1  0.1153629E-008  0.3823628E+03  0.7957747E-01  0.3440934E+00
         13   -1    0    0    0    0  0.00000000000E+00  0.00000000000E+00  0.14999999963E+04  0.15000000000E+04  0.10566000000E+00 0. -1.
        994   -1    0    0    0    0 -0.00000000000E+00 -0.00000000000E+00  0.11368683772E-12  0.17120000000E+03  0.17120000000E+03 0.  0.
         13    1    1    2    0    0  0.20795070520E+02  0.31845641934E+02  0.20232546297E+03  0.20586933719E+03  0.10566000000E+00 0. -1.
        994    1    1    2    0    0 -0.36471402025E+02 -0.29919229007E+02  0.10361953765E+02  0.17788235864E+03  0.17120000000E+03 0.  0.
        998    1    1    2    0    0  0.15676331505E+02 -0.19264129269E+01  0.12873125795E+04  0.12874483042E+04  0.10000000000E+02 0. -1.
</event>
<event>
 5    1  0.1153629E-008  0.3695471E+03  0.7957747E-01  0.3497975E+00
         13   -1    0    0    0    0  0.00000000000E+00  0.00000000000E+00  0.14999999963E+04  0.15000000000E+04  0.10566000000E+00 0. -1.
        994   -1    0    0    0    0 -0.00000000000E+00 -0.00000000000E+00  0.11368683772E-12  0.17120000000E+03  0.17120000000E+03 0.  0.
         13    1    1    2    0    0  0.37614920768E+02  0.13716379374E+02  0.77983393529E+02  0.87660950017E+02  0.10566000000E+00 0. -1.
        994    1    1    2    0    0 -0.32565490880E+02 -0.17348702092E+02  0.14235606953E+02  0.17570879650E+03  0.17120000000E+03 0.  0.
        998    1    1    2    0    0 -0.50494298884E+01  0.36323227177E+01  0.14077809958E+04  0.14078302535E+04  0.10000000000E+02 0. -1.
</event>
<event>
 5    1  0.1153629E-008  0.3810030E+03  0.7957747E-01  0.3446803E+00
         13   -1    0    0    0    0  0.00000000000E+00  0.00000000000E+00  0.14999999963E+04  0.15000000000E+04  0.10566000000E+00 0.  1.
        994   -1    0    0    0    0 -0.00000000000E+00 -0.00000000000E+00  0.11368683772E-12  0.17120000000E+03  0.17120000000E+03 0.  0.
         13    1    1    2    0    0 -0.20246512778E+00  0.41558843085E+02  0.20400088324E+03  0.20819113803E+03  0.10566000000E+00 0.  1.
        994    1    1    2    0    0  0.55442233483E+01 -0.43266315387E+02  0.99933858811E+01  0.17695202802E+03  0.17120000000E+03 0.  0.
        998    1    1    2    0    0 -0.53417582205E+01  0.17074723017E+01  0.12860057272E+04  0.12860568339E+04  0.10000000000E+02 0.  0.
</event>
<event>
 5    1  0.1153629E-008  0.4235697E+03  0.7957747E-01  0.3280936E+00
         13   -1    0    0    0    0  0.00000000000E+00  0.00000000000E+00  0.14999999963E+04  0.15000000000E+04  0.10566000000E+00 0. -1.
        994   -1    0    0    0    0 -0.00000000000E+00 -0.00000000000E+00  0.11368683772E-12  0.17120000000E+03  0.17120000000E+03 0.  0.
         13    1    1    2    0    0 -0.15160690727E+03  0.44840755062E+01  0.36981313905E+03  0.39970805626E+03  0.10566000000E+00 0. -1.
        994    1    1    2    0    0  0.33085903596E+02  0.14086793671E+03  0.14141311955E+03  0.26503879525E+03  0.17120000000E+03 0.  0.
        998    1    1    2    0    0  0.11852100367E+03 -0.14535201221E+03  0.98877373768E+03  0.10064531485E+04  0.10000000000E+02 0. -1.
</event>
<event>
 5    1  0.1153629E-008  0.3687737E+03  0.7957747E-01  0.3501546E+00
         13   -1    0    0    0    0  0.00000000000E+00  0.00000000000E+00  0.14999999963E+04  0.15000000000E+04  0.10566000000E+00 0.  1.
        994   -1    0    0    0    0 -0.00000000000E+00 -0.00000000000E+00  0.11368683772E-12  0.17120000000E+03  0.17120000000E+03 0.  0.
         13    1    1    2    0    0 -0.36703191101E+02 -0.44507384148E+02  0.19530122524E+03  0.20364334319E+03  0.10566000000E+00 0.  1.
        994    1    1    2    0    0 -0.74134343285E+02  0.61148356697E+02  0.43167859661E+02  0.20101722933E+03  0.17120000000E+03 0.  0.
        998    1    1    2    0    0  0.11083753439E+03 -0.16640972550E+02  0.12615309114E+04  0.12665394275E+04  0.10000000000E+02 0.  1.
</event>
<event>
 5    1  0.1153629E-008  0.3780753E+03  0.7957747E-01  0.3459582E+00
         13   -1    0    0    0    0  0.00000000000E+00  0.00000000000E+00  0.14999999963E+04  0.15000000000E+04  0.10566000000E+00 0. -1.
        994   -1    0    0    0    0 -0.00000000000E+00 -0.00000000000E+00  0.11368683772E-12  0.17120000000E+03  0.17120000000E+03 0.  0.
         13    1    1    2    0    0 -0.26170015557E+02  0.66142793665E+02  0.38577852512E+03  0.39228155765E+03  0.10566000000E+00 0. -1.
        994    1    1    2    0    0  0.30114170267E+02 -0.59423746242E+02  0.20187207175E+02  0.18481073616E+03  0.17120000000E+03 0.  0.
        998    1    1    2    0    0 -0.39441547092E+01 -0.67190474230E+01  0.10940342640E+04  0.10941077062E+04  0.10000000000E+02 0. -1.
</event>
<event>
 5    1  0.1153629E-008  0.3723691E+03  0.7957747E-01  0.3485073E+00
         13   -1    0    0    0    0  0.00000000000E+00  0.00000000000E+00  0.14999999963E+04  0.15000000000E+04  0.10566000000E+00 0.  1.
        994   -1    0    0    0    0 -0.00000000000E+00 -0.00000000000E+00  0.11368683772E-12  0.17120000000E+03  0.17120000000E+03 0.  0.
         13    1    1    2    0    0 -0.82768630272E+02  0.17646756659E+03  0.10316216957E+04  0.10498736984E+04  0.10566000000E+00 0.  1.
        994    1    1    2    0    0  0.55576000155E+02 -0.16675174841E+03  0.12276354873E+03  0.27436320141E+03  0.17120000000E+03 0.  0.
        998    1    1    2    0    0  0.27192630117E+02 -0.97158181824E+01  0.34561475182E+03  0.34696310024E+03  0.10000000000E+02 0.  1.
</event>
<event>
 5    1  0.1153629E-008  0.3756969E+03  0.7957747E-01  0.3470112E+00
         13   -1    0    0    0    0  0.00000000000E+00  0.00000000000E+00  0.14999999963E+04  0.15000000000E+04  0.10566000000E+00 0.  1.
        994   -1    0    0    0    0 -0.00000000000E+00 -0.00000000000E+00  0.11368683772E-12  0.17120000000E+03  0.17120000000E+03 0.  0.
         13    1    1    2    0    0  0.47164261068E+01 -0.90787209291E+01 -0.28249898328E+01  0.10614121750E+02  0.10566000000E+00 0.  1.
        994    1    1    2    0    0 -0.72129303270E+01  0.10917007520E+02  0.14594368542E+02  0.17231843491E+03  0.17120000000E+03 0.  0.
        998    1    1    2    0    0  0.24965042202E+01 -0.18382865911E+01  0.14882306176E+04  0.14882674433E+04  0.10000000000E+02 0.  1.
</event>
<event>
 5    1  0.1153629E-008  0.3802953E+03  0.7957747E-01  0.3449874E+00
         13   -1    0    0    0    0  0.00000000000E+00  0.00000000000E+00  0.14999999963E+04  0.15000000000E+04  0.10566000000E+00 0. -1.
        994   -1    0    0    0    0 -0.00000000000E+00 -0.00000000000E+00  0.11368683772E-12  0.17120000000E+03  0.17120000000E+03 0.  0.
         13    1    1    2    0    0 -0.27055330836E+02  0.12726875153E+01  0.96851830957E+02  0.10056788247E+03  0.10566000000E+00 0. -1.
        994    1    1    2    0    0  0.40269849892E+01  0.15808867029E+01  0.40466478515E+01  0.17130245524E+03  0.17120000000E+03 0.  0.
        998    1    1    2    0    0  0.23028345847E+02 -0.28535742182E+01  0.13991015175E+04  0.13993296623E+04  0.10000000000E+02 0. -1.
</event>
<event>
 5    1  0.1153629E-008  0.3828470E+03  0.7957747E-01  0.3438855E+00
         13   -1    0    0    0    0  0.00000000000E+00  0.00000000000E+00  0.14999999963E+04  0.15000000000E+04  0.10566000000E+00 0. -1.
        994   -1    0    0    0    0 -0.00000000000E+00 -0.00000000000E+00  0.11368683772E-12  0.17120000000E+03  0.17120000000E+03 0.  0.
         13    1    1    2    0    0 -0.12340411772E+02 -0.65042657000E+00  0.28693451786E+02  0.31241545366E+02  0.10566000000E+00 0. -1.
        994    1    1    2    0    0 -0.59003931079E+01  0.50794365336E+01  0.29036430686E+01  0.17140153575E+03  0.17120000000E+03 0.  0.
        998    1    1    2    0    0  0.18240804880E+02 -0.44290099636E+01  0.14684029014E+04  0.14685569189E+04  0.10000000000E+02 0. -1.
</event>
<event>
 5    1  0.1153629E-008  0.3713743E+03  0.7957747E-01  0.3489598E+00
         13   -1    0    0    0    0  0.00000000000E+00  0.00000000000E+00  0.14999999963E+04  0.15000000000E+04  0.10566000000E+00 0.  1.
        994   -1    0    0    0    0 -0.00000000000E+00 -0.00000000000E+00  0.11368683772E-12  0.17120000000E+03  0.17120000000E+03 0.  0.
         13    1    1    2    0    0 -0.39706735084E+02 -0.79090087017E+01  0.10376575669E+03  0.11138456202E+03  0.10566000000E+00 0.  1.
        994    1    1    2    0    0 -0.69943961743E+01  0.19367600252E+02  0.10013050268E+02  0.17272442414E+03  0.17120000000E+03 0.  0.
        998    1    1    2    0    0  0.46701131258E+02 -0.11458591551E+02  0.13862211893E+04  0.13870910138E+04  0.10000000000E+02 0.  1.
</event>
<event>
 5    1  0.1153629E-008  0.3844926E+03  0.7957747E-01  0.3431827E+00
         13   -1    0    0    0    0  0.00000000000E+00  0.00000000000E+00  0.14999999963E+04  0.15000000000E+04  0.10566000000E+00 0. -1.
        994   -1    0    0    0    0 -0.00000000000E+00 -0.00000000000E+00  0.11368683772E-12  0.17120000000E+03  0.17120000000E+03 0.  0.
         13    1    1    2    0    0  0.28750486959E+01 -0.14153476583E+02  0.55188773503E+02  0.57047337266E+02  0.10566000000E+00 0. -1.
        994    1    1    2    0    0 -0.12538178292E+01  0.93655936438E+01  0.21764553491E+01  0.17147438106E+03  0.17120000000E+03 0.  0.
        998    1    1    2    0    0 -0.16212308667E+01  0.47878829392E+01  0.14426347674E+04  0.14426782817E+04  0.10000000000E+02 0. -1.
</event>
<event>
 5    1  0.1153629E-008  0.3777336E+03  0.7957747E-01  0.3461087E+00
         13   -1    0    0    0    0  0.00000000000E+00  0.00000000000E+00  0.14999999963E+04  0.15000000000E+04  0.10566000000E+00 0. -1.
        994   -1    0    0    0    0 -0.00000000000E+00 -0.00000000000E+00  0.11368683772E-12  0.17120000000E+03  0.17120000000E+03 0.  0.
         13    1    1    2    0    0 -0.31123985024E+02  0.45530592464E+01  0.93552999322E+02  0.98699582768E+02  0.10566000000E+00 0. -1.
        994    1    1    2    0    0  0.14445075059E+02 -0.52646553796E+01  0.60781833827E+01  0.17199639852E+03  0.17120000000E+03 0.  0.
        998    1    1    2    0    0  0.16678909965E+02  0.71159613315E+00  0.14003688136E+04  0.14005040187E+04  0.10000000000E+02 0. -1.
</event>
<event>
 5    1  0.1153629E-008  0.3845128E+03  0.7957747E-01  0.3431741E+00
         13   -1    0    0    0    0  0.00000000000E+00  0.00000000000E+00  0.14999999963E+04  0.15000000000E+04  0.10566000000E+00 0.  1.
        994   -1    0    0    0    0 -0.00000000000E+00 -0.00000000000E+00  0.11368683772E-12  0.17120000000E+03  0.17120000000E+03 0.  0.
         13    1    1    2    0    0 -0.18867863838E+02  0.89570118256E+00  0.98335681339E+02  0.10013349068E+03  0.10566000000E+00 0.  1.
        994    1    1    2    0    0  0.71344351596E+01 -0.79741143425E+01  0.22494099596E+01  0.17154878755E+03  0.17120000000E+03 0.  0.
        998    1    1    2    0    0  0.11733428678E+02  0.70784131599E+01  0.13994149050E+04  0.13995177218E+04  0.10000000000E+02 0.  1.
</event>
<event>
 5    1  0.1153629E-008  0.3767315E+03  0.7957747E-01  0.3465515E+00
         13   -1    0    0    0    0  0.00000000000E+00  0.00000000000E+00  0.14999999963E+04  0.15000000000E+04  0.10566000000E+00 0. -1.
        994   -1    0    0    0    0 -0.00000000000E+00 -0.00000000000E+00  0.11368683772E-12  0.17120000000E+03  0.17120000000E+03 0.  0.
         13    1    1    2    0    0  0.97182908713E+02  0.31443251516E+02  0.49863101302E+03  0.50898535747E+03  0.10566000000E+00 0. -1.
        994    1    1    2    0    0 -0.17189366390E+02 -0.35082679946E+01  0.15646153159E+02  0.17280632040E+03  0.17120000000E+03 0.  0.
        998    1    1    2    0    0 -0.79993542324E+02 -0.27934983521E+02  0.98572283010E+03  0.98940832213E+03  0.10000000000E+02 0. -1.
</event>
<event>
 5    1  0.1153629E-008  0.3849159E+03  0.7957747E-01  0.3430029E+00
         13   -1    0    0    0    0  0.00000000000E+00  0.00000000000E+00  0.14999999963E+04  0.15000000000E+04  0.10566000000E+00 0. -1.
        994   -1    0    0    0    0 -0.00000000000E+00 -0.00000000000E+00  0.11368683772E-12  0.17120000000E+03  0.17120000000E+03 0.  0.
         13    1    1    2    0    0  0.35888594876E+01 -0.18013834258E+02  0.98161566122E+02  0.99865321132E+02  0.10566000000E+00 0. -1.
        994    1    1    2    0    0  0.52870104371E+01  0.16785446296E+02  0.26913524506E+01  0.17212317411E+03  0.17120000000E+03 0.  0.
        998    1    1    2    0    0 -0.88758699248E+01  0.12283879618E+01  0.13991470777E+04  0.13992115048E+04  0.10000000000E+02 0. -1.
</event>
<event>
 5    1  0.1153629E-008  0.3858193E+03  0.7957747E-01  0.3426205E+00
         13   -1    0    0    0    0  0.00000000000E+00  0.00000000000E+00  0.14999999963E+04  0.15000000000E+04  0.10566000000E+00 0. -1.
        994   -1    0    0    0    0 -0.00000000000E+00 -0.00000000000E+00  0.11368683772E-12  0.17120000000E+03  0.17120000000E+03 0.  0.
         13    1    1    2    0    0  0.19277990385E+01 -0.11221911064E+02  0.53196781864E+02  0.54401805685E+02  0.10566000000E+00 0. -1.
        994    1    1    2    0    0 -0.44250141469E+01  0.77002750969E+01  0.14826776666E+01  0.17143661604E+03  0.17120000000E+03 0.  0.
        998    1    1    2    0    0  0.24972151083E+01  0.35216359671E+01  0.14453205367E+04  0.14453615783E+04  0.10000000000E+02 0. -1.
</event>
<event>
 5    1  0.1153629E-008  0.3858317E+03  0.7957747E-01  0.3426153E+00
         13   -1    0    0    0    0  0.00000000000E+00  0.00000000000E+00  0.14999999963E+04  0.15000000000E+04  0.10566000000E+00 0. -1.
        994   -1    0    0    0    0 -0.00000000000E+00 -0.00000000000E+00  0.11368683772E-12  0.17120000000E+03  0.17120000000E+03 0.  0.
         13    1    1    2    0    0  0.11091217479E+02 -0.90488088995E+01  0.85771872079E+02  0.86958158051E+02  0.10566000000E+00 0. -1.
        994    1    1    2    0    0 -0.10548786190E+02 -0.12260856922E-01  0.15828259800E+01  0.17153198646E+03  0.17120000000E+03 0.  0.
        998    1    1    2    0    0 -0.54243128933E+00  0.90610697564E+01  0.14126452982E+04  0.14127098555E+04  0.10000000000E+02 0. -1.
</event>
<event>
 5    1  0.1153629E-008  0.3847694E+03  0.7957747E-01  0.3430651E+00
         13   -1    0    0    0    0  0.00000000000E+00  0.00000000000E+00  0.14999999963E+04  0.15000000000E+04  0.10566000000E+00 0.  1.
        994   -1    0    0    0    0 -0.00000000000E+00 -0.00000000000E+00  0.11368683772E-12  0.17120000000E+03  0.17120000000E+03 0.  0.
         13    1    1    2    0    0  0.14920378549E+02 -0.44777474753E+01  0.67492144972E+02  0.69266649374E+02  0.10566000000E+00 0.  1.
        994    1    1    2    0    0 -0.17667244528E+02 -0.68341047363E+01  0.29265419219E+01  0.17226967570E+03  0.17120000000E+03 0.  0.
        998    1    1    2    0    0  0.27468659781E+01  0.11311852212E+02  0.14295813094E+04  0.14296636749E+04  0.10000000000E+02 0.  1.
</event>
<event>
 5    1  0.1153629E-008  0.3860528E+03  0.7957747E-01  0.3425219E+00
         13   -1    0    0    0    0  0.00000000000E+00  0.00000000000E+00  0.14999999963E+04  0.15000000000E+04  0.10566000000E+00 0. -1.
        994   -1    0    0    0    0 -0.00000000000E+00 -0.00000000000E+00  0.11368683772E-12  0.17120000000E+03  0.17120000000E+03 0.  0.
         13    1    1    2    0    0 -0.32357166803E+01 -0.11179860892E+02  0.58912881517E+02  0.60051627161E+02  0.10566000000E+00 0. -1.
        994    1    1    2    0    0  0.32217408457E+01  0.14291346377E+02  0.18120731154E+01  0.17183522865E+03  0.17120000000E+03 0.  0.
        998    1    1    2    0    0  0.13975834532E-01 -0.31114854848E+01  0.14392750416E+04  0.14393131442E+04  0.10000000000E+02 0. -1.
</event>
<event>
 5    1  0.1153629E-008  0.3811734E+03  0.7957747E-01  0.3446065E+00
         13   -1    0    0    0    0  0.00000000000E+00  0.00000000000E+00  0.14999999963E+04  0.15000000000E+04  0.10566000000E+00 0. -1.
        994   -1    0    0    0    0 -0.00000000000E+00 -0.00000000000E+00  0.11368683772E-12  0.17120000000E+03  0.17120000000E+03 0.  0.
         13    1    1    2    0    0  0.12058250697E+02 -0.29307671449E+02  0.13771965707E+03  0.14131898713E+03  0.10566000000E+00 0. -1.
        994    1    1    2    0    0  0.64502719119E+02  0.59402288259E+02  0.29585700512E+02  0.19461240017E+03  0.17120000000E+03 0.  0.
        998    1    1    2    0    0 -0.76560969816E+02 -0.30094616810E+02  0.13326946387E+04  0.13352686127E+04  0.10000000000E+02 0. -1.
</event>
<event>
 5    1  0.1153629E-008  0.3858387E+03  0.7957747E-01  0.3426123E+00
         13   -1    0    0    0    0  0.00000000000E+00  0.00000000000E+00  0.14999999963E+04  0.15000000000E+04  0.10566000000E+00 0. -1.
        994   -1    0    0    0    0 -0.00000000000E+00 -0.00000000000E+00  0.11368683772E-12  0.17120000000E+03  0.17120000000E+03 0.  0.
         13    1    1    2    0    0  0.11343326057E+02  0.46904326254E+01  0.62116436089E+02  0.63317722643E+02  0.10566000000E+00 0. -1.
        994    1    1    2    0    0 -0.70775523908E+01 -0.73143172558E+01  0.15541428074E+01  0.17150931854E+03  0.17120000000E+03 0.  0.
        998    1    1    2    0    0 -0.42657736660E+01  0.26238846304E+01  0.14363294174E+04  0.14363729588E+04  0.10000000000E+02 0. -1.
</event>
<event>
 5    1  0.1153629E-008  0.3765168E+03  0.7957747E-01  0.3466467E+00
         13   -1    0    0    0    0  0.00000000000E+00  0.00000000000E+00  0.14999999963E+04  0.15000000000E+04  0.10566000000E+00 0.  1.
        994   -1    0    0    0    0 -0.00000000000E+00 -0.00000000000E+00  0.11368683772E-12  0.17120000000E+03  0.17120000000E+03 0.  0.
         13    1    1    2    0    0  0.51373175289E+01 -0.38838463204E+02  0.14201825990E+03  0.14732282771E+03  0.10566000000E+00 0.  1.
        994    1    1    2    0    0  0.58451697809E+01  0.46102254344E+01  0.60893078432E+01  0.17146993864E+03  0.17120000000E+03 0.  0.
        998    1    1    2    0    0 -0.10982487310E+02  0.34228237769E+02  0.13518924285E+04  0.13524072336E+04  0.10000000000E+02 0.  1.
</event>
<event>
 5    1  0.1153629E-008  0.3813754E+03  0.7957747E-01  0.3445191E+00
         13   -1    0    0    0    0  0.00000000000E+00  0.00000000000E+00  0.14999999963E+04  0.15000000000E+04  0.10566000000E+00 0.  1.
        994   -1    0    0    0    0 -0.00000000000E+00 -0.00000000000E+00  0.11368683772E-12  0.17120000000E+03  0.17120000000E+03 0.  0.
         13    1    1    2    0    0 -0.47113676217E+01  0.24396168370E+02  0.91897140098E+02  0.95196982822E+02  0.10566000000E+00 0.  1.
        994    1    1    2    0    0  0.41582552091E+01 -0.78635000326E+01  0.37037974738E+01  0.17147094166E+03  0.17120000000E+03 0.  0.
        998    1    1    2    0    0  0.55311241255E+00 -0.16532668338E+02  0.14043990587E+04  0.14045320755E+04  0.10000000000E+02 0.  1.
</event>
<event>
 5    1  0.1153629E-008  0.3802422E+03  0.7957747E-01  0.3450105E+00
         13   -1    0    0    0    0  0.00000000000E+00  0.00000000000E+00  0.14999999963E+04  0.15000000000E+04  0.10566000000E+00 0.  1.
        994   -1    0    0    0    0 -0.00000000000E+00 -0.00000000000E+00  0.11368683772E-12  0.17120000000E+03  0.17120000000E+03 0.  0.
         13    1    1    2    0    0 -0.32604591530E+02  0.17179578027E+02  0.16246394508E+03  0.16659154212E+03  0.10566000000E+00 0.  1.
        994    1    1    2    0    0  0.22473922154E+02 -0.14272789022E+02  0.63820772886E+01  0.17337520178E+03  0.17120000000E+03 0.  0.
        998    1    1    2    0    0  0.10130669376E+02 -0.29067890048E+01  0.13311539739E+04  0.13312332561E+04  0.10000000000E+02 0.  1.
</event>
<event>
 5    1  0.1153629E-008  0.3844414E+03  0.7957747E-01  0.3432045E+00
         13   -1    0    0    0    0  0.00000000000E+00  0.00000000000E+00  0.14999999963E+04  0.15000000000E+04  0.10566000000E+00 0. -1.
        994   -1    0    0    0    0 -0.00000000000E+00 -0.00000000000E+00  0.11368683772E-12  0.17120000000E+03  0.17120000000E+03 0.  0.
         13    1    1    2    0    0  0.60564023641E+01  0.14513113716E+02  0.60656892013E+02  0.62662430467E+02  0.10566000000E+00 0. -1.
        994    1    1    2    0    0 -0.60206586320E+01 -0.20658693957E+02  0.34346967525E+01  0.17258118990E+03  0.17120000000E+03 0.  0.
        998    1    1    2    0    0 -0.35743732125E-01  0.61455802411E+01  0.14359084075E+04  0.14359563796E+04  0.10000000000E+02 0. -1.
</event>
<event>
 5    1  0.1153629E-008  0.3749536E+03  0.7957747E-01  0.3473430E+00
         13   -1    0    0    0    0  0.00000000000E+00  0.00000000000E+00  0.14999999963E+04  0.15000000000E+04  0.10566000000E+00 0.  1.
        994   -1    0    0    0    0 -0.00000000000E+00 -0.00000000000E+00  0.11368683772E-12  0.17120000000E+03  0.17120000000E+03 0.  0.
         13    1    1    2    0    0 -0.49254890758E+02  0.50334666523E+02  0.30029518681E+03  0.30844259320E+03  0.10566000000E+00 0.  1.
        994    1    1    2    0    0  0.97809371136E+02 -0.74614842035E+01  0.40153932821E+02  0.20135571795E+03  0.17120000000E+03 0.  0.
        998    1    1    2    0    0 -0.48554480379E+02 -0.42873182320E+02  0.11595508767E+04  0.11614016889E+04  0.10000000000E+02 0.  1.
</event>
<event>
 5    1  0.1153629E-008  0.3780348E+03  0.7957747E-01  0.3459760E+00
         13   -1    0    0    0    0  0.00000000000E+00  0.00000000000E+00  0.14999999963E+04  0.15000000000E+04  0.10566000000E+00 0. -1.
        994   -1    0    0    0    0 -0.00000000000E+00 -0.00000000000E+00  0.11368683772E-12  0.17120000000E+03  0.17120000000E+03 0.  0.
         13    1    1    2    0    0 -0.14737745143E+02  0.33476977473E+02  0.10311792374E+03  0.10941310028E+03  0.10566000000E+00 0. -1.
        994    1    1    2    0    0  0.48163571848E+02 -0.54594899563E+02  0.23175420565E+02  0.18747499255E+03  0.17120000000E+03 0.  0.
        998    1    1    2    0    0 -0.33425826705E+02  0.21117922090E+02  0.13737066520E+04  0.13743119072E+04  0.10000000000E+02 0. -1.
</event>
<event>
 5    1  0.1153629E-008  0.3757677E+03  0.7957747E-01  0.3469796E+00
         13   -1    0    0    0    0  0.00000000000E+00  0.00000000000E+00  0.14999999963E+04  0.15000000000E+04  0.10566000000E+00 0.  1.
        994   -1    0    0    0    0 -0.00000000000E+00 -0.00000000000E+00  0.11368683772E-12  0.17120000000E+03  0.17120000000E+03 0.  0.
         13    1    1    2    0    0  0.41280407155E+00  0.15274574651E+02  0.15712562445E+02  0.21917545953E+02  0.10566000000E+00 0.  1.
        994    1    1    2    0    0  0.12712363731E+01 -0.14185586618E+02  0.69730516301E+01  0.17193286585E+03  0.17120000000E+03 0.  0.
        998    1    1    2    0    0 -0.16840404447E+01 -0.10889880338E+01  0.14773143822E+04  0.14773495882E+04  0.10000000000E+02 0.  1.
</event>
<event>
 5    1  0.1153629E-008  0.3802727E+03  0.7957747E-01  0.3449972E+00
         13   -1    0    0    0    0  0.00000000000E+00  0.00000000000E+00  0.14999999963E+04  0.15000000000E+04  0.10566000000E+00 0.  1.
        994   -1    0    0    0    0 -0.00000000000E+00 -0.00000000000E+00  0.11368683772E-12  0.17120000000E+03  0.17120000000E+03 0.  0.
         13    1    1    2    0    0  0.12021945624E+02  0.20117088932E+02  0.70006463766E+02  0.73825067401E+02  0.10566000000E+00 0.  1.
        994    1    1    2    0    0  0.70010063195E+01 -0.11188701072E+02  0.45775804373E+01  0.17176901747E+03  0.17120000000E+03 0.  0.
        998    1    1    2    0    0 -0.19022951943E+02 -0.89283878592E+01  0.14254159521E+04  0.14256059151E+04  0.10000000000E+02 0.  1.
</event>
<event>
 5    1  0.1153629E-008  0.3859731E+03  0.7957747E-01  0.3425556E+00
         13   -1    0    0    0    0  0.00000000000E+00  0.00000000000E+00  0.14999999963E+04  0.15000000000E+04  0.10566000000E+00 0. -1.
        994   -1    0    0    0    0 -0.00000000000E+00 -0.00000000000E+00  0.11368683772E-12  0.17120000000E+03  0.17120000000E+03 0.  0.
         13    1    1    2    0    0 -0.11138792023E+02 -0.28434663566E+01  0.59182465511E+02  0.60288750000E+02  0.10566000000E+00 0. -1.
        994    1    1    2    0    0  0.35447827280E+01  0.83640203698E+01  0.14183438310E+01  0.17144670898E+03  0.17120000000E+03 0.  0.
        998    1    1    2    0    0  0.75940092951E+01 -0.55205540132E+01  0.14393991869E+04  0.14394645410E+04  0.10000000000E+02 0. -1.
</event>
<event>
 5    1  0.1153629E-008  0.3794022E+03  0.7957747E-01  0.3453765E+00
         13   -1    0    0    0    0  0.00000000000E+00  0.00000000000E+00  0.14999999963E+04  0.15000000000E+04  0.10566000000E+00 0. -1.
        994   -1    0    0    0    0 -0.00000000000E+00 -0.00000000000E+00  0.11368683772E-12  0.17120000000E+03  0.17120000000E+03 0.  0.
         13    1    1    2    0    0 -0.64077523353E+01 -0.43421765817E+02  0.17303629609E+03  0.17851632969E+03  0.10566000000E+00 0. -1.
        994    1    1    2    0    0  0.21869372839E+02  0.57428319273E+02  0.17189576126E+02  0.18270523487E+03  0.17120000000E+03 0.  0.
        998    1    1    2    0    0 -0.15461620504E+02 -0.14006553456E+02  0.13097741241E+04  0.13099784354E+04  0.10000000000E+02 0. -1.
</event>
<event>
 5    1  0.1153629E-008  0.3743323E+03  0.7957747E-01  0.3476215E+00
         13   -1    0    0    0    0  0.00000000000E+00  0.00000000000E+00  0.14999999963E+04  0.15000000000E+04  0.10566000000E+00 0. -1.
        994   -1    0    0    0    0 -0.00000000000E+00 -0.00000000000E+00  0.11368683772E-12  0.17120000000E+03  0.17120000000E+03 0.  0.
         13    1    1    2    0    0  0.89526148120E+02  0.25476657505E+02  0.42766064470E+03  0.43767297090E+03  0.10566000000E+00 0. -1.
        994    1    1    2    0    0 -0.88553345359E+02 -0.34707970314E+02  0.38496299118E+02  0.19959394586E+03  0.17120000000E+03 0.  0.
        998    1    1    2    0    0 -0.97280276076E+00  0.92313128092E+01  0.10338430525E+04  0.10339330832E+04  0.10000000000E+02 0.  0.
</event>
<event>
 5    1  0.1153629E-008  0.3829224E+03  0.7957747E-01  0.3438531E+00
         13   -1    0    0    0    0  0.00000000000E+00  0.00000000000E+00  0.14999999963E+04  0.15000000000E+04  0.10566000000E+00 0. -1.
        994   -1    0    0    0    0 -0.00000000000E+00 -0.00000000000E+00  0.11368683772E-12  0.17120000000E+03  0.17120000000E+03 0.  0.
         13    1    1    2    0    0 -0.41806400734E+01 -0.10402689347E+02  0.22399380861E+02  0.25048695057E+02  0.10566000000E+00 0. -1.
        994    1    1    2    0    0  0.75311542105E+01  0.85148252191E+01  0.30930941969E+01  0.17160485938E+03  0.17120000000E+03 0.  0.
        998    1    1    2    0    0 -0.33505141371E+01  0.18878641277E+01  0.14745075212E+04  0.14745464456E+04  0.10000000000E+02 0. -1.
</event>
<event>
 5    1  0.1153629E-008  0.3772171E+03  0.7957747E-01  0.3463366E+00
         13   -1    0    0    0    0  0.00000000000E+00  0.00000000000E+00  0.14999999963E+04  0.15000000000E+04  0.10566000000E+00 0. -1.
        994   -1    0    0    0    0 -0.00000000000E+00 -0.00000000000E+00  0.11368683772E-12  0.17120000000E+03  0.17120000000E+03 0.  0.
         13    1    1    2    0    0  0.10156633314E+02 -0.22889389514E+02  0.16857759024E+02  0.30187357552E+02  0.10566000000E+00 0. -1.
        994    1    1    2    0    0  0.26955876870E+02 -0.28425410533E+02  0.20331676023E+02  0.17679773842E+03  0.17120000000E+03 0.  0.
        998    1    1    2    0    0 -0.37112510183E+02  0.51314800048E+02  0.14628105612E+04  0.14642149040E+04  0.10000000000E+02 0. -1.
</event>
<event>
 5    1  0.1153629E-008  0.3849310E+03  0.7957747E-01  0.3429965E+00
         13   -1    0    0    0    0  0.00000000000E+00  0.00000000000E+00  0.14999999963E+04  0.15000000000E+04  0.10566000000E+00 0. -1.
        994   -1    0    0    0    0 -0.00000000000E+00 -0.00000000000E+00  0.11368683772E-12  0.17120000000E+03  0.17120000000E+03 0.  0.
         13    1    1    2    0    0 -0.94558949805E+00  0.13349301027E+02  0.58301051074E+02  0.59817402967E+02  0.10566000000E+00 0. -1.
        994    1    1    2    0    0  0.92439641250E+01  0.51712529860E+01  0.20335188548E+01  0.17153940634E+03  0.17120000000E+03 0.  0.
        998    1    1    2    0    0 -0.82983746270E+01 -0.18520554013E+02  0.14396654263E+04  0.14398431907E+04  0.10000000000E+02 0. -1.
</event>
<event>
 5    1  0.1153629E-008  0.3834116E+03  0.7957747E-01  0.3436437E+00
         13   -1    0    0    0    0  0.00000000000E+00  0.00000000000E+00  0.14999999963E+04  0.15000000000E+04  0.10566000000E+00 0.  1.
        994   -1    0    0    0    0 -0.00000000000E+00 -0.00000000000E+00  0.11368683772E-12  0.17120000000E+03  0.17120000000E+03 0.  0.
         13    1    1    2    0    0 -0.27646458306E+01 -0.10193794624E+02  0.22629296332E+02  0.24973044106E+02  0.10566000000E+00 0.  1.
        994    1    1    2    0    0 -0.43019369831E+01  0.28737548316E+01  0.25092696959E+01  0.17129653109E+03  0.17120000000E+03 0.  0.
        998    1    1    2    0    0  0.70665828137E+01  0.73200397920E+01  0.14748614303E+04  0.14749304248E+04  0.10000000000E+02 0.  1.
</event>
<event>
 5    1  0.1153629E-008  0.3706139E+03  0.7957747E-01  0.3493074E+00
         13   -1    0    0    0    0  0.00000000000E+00  0.00000000000E+00  0.14999999963E+04  0.15000000000E+04  0.10566000000E+00 0. -1.
        994   -1    0    0    0    0 -0.00000000000E+00 -0.00000000000E+00  0.11368683772E-12  0.17120000000E+03  0.17120000000E+03 0.  0.
         13    1    1    2    0    0 -0.38896362350E+02 -0.82330540672E+01  0.90808948077E+02  0.99131157555E+02  0.10566000000E+00 0. -1.
        994    1    1    2    0    0  0.14730256058E+02 -0.33291895925E+02  0.13535216765E+02  0.17555048525E+03  0.17120000000E+03 0.  0.
        998    1    1    2    0    0  0.24166106292E+02  0.41524949992E+02  0.13956558314E+04  0.13965183572E+04  0.10000000000E+02 0. -1.
</event>
<event>
 5    1  0.1153629E-008  0.3805587E+03  0.7957747E-01  0.3448730E+00
         13   -1    0    0    0    0  0.00000000000E+00  0.00000000000E+00  0.14999999963E+04  0.15000000000E+04  0.10566000000E+00 0. -1.
        994   -1    0    0    0    0 -0.00000000000E+00 -0.00000000000E+00  0.11368683772E-12  0.17120000000E+03  0.17120000000E+03 0.  0.
         13    1    1    2    0    0  0.78785637533E+01  0.89927486142E+01  0.17840702480E+02  0.21476571502E+02  0.10566000000E+00 0. -1.
        994    1    1    2    0    0  0.70237609734E+01  0.87187598793E+01  0.42697703651E+01  0.17161882452E+03  0.17120000000E+03 0.  0.
        998    1    1    2    0    0 -0.14902324727E+02 -0.17711508493E+02  0.14778895234E+04  0.14781046040E+04  0.10000000000E+02 0. -1.
</event>
<event>
 5    1  0.1153629E-008  0.3788934E+03  0.7957747E-01  0.3455991E+00
         13   -1    0    0    0    0  0.00000000000E+00  0.00000000000E+00  0.14999999963E+04  0.15000000000E+04  0.10566000000E+00 0. -1.
        994   -1    0    0    0    0 -0.00000000000E+00 -0.00000000000E+00  0.11368683772E-12  0.17120000000E+03  0.17120000000E+03 0.  0.
         13    1    1    2    0    0  0.61996727399E+01 -0.11417719225E+02  0.16095956139E+02  0.20685531718E+02  0.10566000000E+00 0. -1.
        994    1    1    2    0    0  0.11069927407E+02  0.12535023784E+02  0.56317050519E+01  0.17210701966E+03  0.17120000000E+03 0.  0.
        998    1    1    2    0    0 -0.17269600147E+02 -0.11173045584E+01  0.14782723351E+04  0.14784074486E+04  0.10000000000E+02 0. -1.
</event>
<event>
 5    1  0.1153629E-008  0.3803079E+03  0.7957747E-01  0.3449819E+00
         13   -1    0    0    0    0  0.00000000000E+00  0.00000000000E+00  0.14999999963E+04  0.15000000000E+04  0.10566000000E+00 0. -1.
        994   -1    0    0    0    0 -0.00000000000E+00 -0.00000000000E+00  0.11368683772E-12  0.17120000000E+03  0.17120000000E+03 0.  0.
         13    1    1    2    0    0 -0.16907934874E+02  0.93012611070E+01  0.45324454353E+02  0.49261638689E+02  0.10566000000E+00 0. -1.
        994    1    1    2    0    0  0.86761315542E+01 -0.10570289519E+02  0.46025354804E+01  0.17180695449E+03  0.17120000000E+03 0.  0.
        998    1    1    2    0    0  0.82318033202E+01  0.12690284117E+01  0.14500730064E+04  0.14501314068E+04  0.10000000000E+02 0. -1.
</event>
<event>
 5    1  0.1153629E-008  0.3847077E+03  0.7957747E-01  0.3430913E+00
         13   -1    0    0    0    0  0.00000000000E+00  0.00000000000E+00  0.14999999963E+04  0.15000000000E+04  0.10566000000E+00 0.  1.
        994   -1    0    0    0    0 -0.00000000000E+00 -0.00000000000E+00  0.11368683772E-12  0.17120000000E+03  0.17120000000E+03 0.  0.
         13    1    1    2    0    0  0.11679304720E+02 -0.90581309966E+00  0.38037714777E+02  0.39800823680E+02  0.10566000000E+00 0.  1.
        994    1    1    2    0    0 -0.10199894936E+02 -0.44215421631E+01  0.21822718453E+01  0.17157444507E+03  0.17120000000E+03 0.  0.
        998    1    1    2    0    0 -0.14794097836E+01  0.53273552628E+01  0.14597800097E+04  0.14598247312E+04  0.10000000000E+02 0.  1.
</event>
<event>
 5    1  0.1153629E-008  0.3751601E+03  0.7957747E-01  0.3472507E+00
         13   -1    0    0    0    0  0.00000000000E+00  0.00000000000E+00  0.14999999963E+04  0.15000000000E+04  0.10566000000E+00 0. -1.
        994   -1    0    0    0    0 -0.00000000000E+00 -0.00000000000E+00  0.11368683772E-12  0.17120000000E+03  0.17120000000E+03 0.  0.
         13    1    1    2    0    0  0.85289753598E+02  0.42594535533E+02  0.36258702773E+03  0.37491065652E+03  0.10566000000E+00 0. -1.
        994    1    1    2    0    0 -0.26881992953E+02 -0.36865563051E+02  0.21142561565E+02  0.17843250599E+03  0.17120000000E+03 0.  0.
        998    1    1    2    0    0 -0.58407760644E+02 -0.57289724821E+01  0.11162704070E+04  0.11178568375E+04  0.10000000000E+02 0. -1.
</event>
<event>
 5    1  0.1153629E-008  0.3824053E+03  0.7957747E-01  0.3440752E+00
         13   -1    0    0    0    0  0.00000000000E+00  0.00000000000E+00  0.14999999963E+04  0.15000000000E+04  0.10566000000E+00 0. -1.
        994   -1    0    0    0    0 -0.00000000000E+00 -0.00000000000E+00  0.11368683772E-12  0.17120000000E+03  0.17120000000E+03 0.  0.
         13    1    1    2    0    0 -0.10680014162E+02 -0.86995756075E+01  0.30758629975E+02  0.33702370840E+02  0.10566000000E+00 0. -1.
        994    1    1    2    0    0  0.10093154974E+02  0.11865784909E+02  0.37291017680E+01  0.17194770958E+03  0.17120000000E+03 0.  0.
        998    1    1    2    0    0  0.58685918869E+00 -0.31662093014E+01  0.14655122645E+04  0.14655499196E+04  0.10000000000E+02 0. -1.
</event>
<event>
 5    1  0.1153629E-008  0.3851420E+03  0.7957747E-01  0.3429070E+00
         13   -1    0    0    0    0  0.00000000000E+00  0.00000000000E+00  0.14999999963E+04  0.15000000000E+04  0.10566000000E+00 0. -1.
        994   -1    0    0    0    0 -0.00000000000E+00 -0.00000000000E+00  0.11368683772E-12  0.17120000000E+03  0.17120000000E+03 0.  0.
         13    1    1    2    0    0  0.13559918824E+02 -0.23410732554E+01  0.56627996690E+02  0.58276008749E+02  0.10566000000E+00 0. -1.
        994    1    1    2    0    0 -0.19274146597E+02  0.12092691403E+02  0.32633381632E+01  0.17273625933E+03  0.17120000000E+03 0.  0.
        998    1    1    2    0    0  0.57142277730E+01 -0.97516181473E+01  0.14401086614E+04  0.14401877319E+04  0.10000000000E+02 0. -1.
</event>
<event>
 5    1  0.1153629E-008  0.3844894E+03  0.7957747E-01  0.3431840E+00
         13   -1    0    0    0    0  0.00000000000E+00  0.00000000000E+00  0.14999999963E+04  0.15000000000E+04  0.10566000000E+00 0. -1.
        994   -1    0    0    0    0 -0.00000000000E+00 -0.00000000000E+00  0.11368683772E-12  0.17120000000E+03  0.17120000000E+03 0.  0.
         13    1    1    2    0    0  0.12265144940E+02 -0.42010973663E+01  0.47967831626E+02  0.49689103780E+02  0.10566000000E+00 0. -1.
        994    1    1    2    0    0  0.62908639648E+01 -0.21519540014E+01  0.20294687023E+01  0.17134107686E+03  0.17120000000E+03 0.  0.
        998    1    1    2    0    0 -0.18556008905E+02  0.63530513677E+01  0.14500026959E+04  0.14501698194E+04  0.10000000000E+02 0. -1.
</event>
<event>
 5    1  0.1153629E-008  0.3752553E+03  0.7957747E-01  0.3472082E+00
         13   -1    0    0    0    0  0.00000000000E+00  0.00000000000E+00  0.14999999963E+04  0.15000000000E+04  0.10566000000E+00 0. -1.
        994   -1    0    0    0    0 -0.00000000000E+00 -0.00000000000E+00  0.11368683772E-12  0.17120000000E+03  0.17120000000E+03 0.  0.
         13    1    1    2    0    0 -0.18470639789E+02 -0.16171608759E+02  0.45242328008E+02  0.51473924192E+02  0.10566000000E+00 0. -1.
        994    1    1    2    0    0 -0.15908767955E+01  0.64319387930E+01  0.66968265883E+01  0.17145899863E+03  0.17120000000E+03 0.  0.
        998    1    1    2    0    0  0.20061516584E+02  0.97396699658E+01  0.14480608417E+04  0.14482670772E+04  0.10000000000E+02 0. -1.
</event>
<event>
 5    1  0.1153629E-008  0.3833232E+03  0.7957747E-01  0.3436815E+00
         13   -1    0    0    0    0  0.00000000000E+00  0.00000000000E+00  0.14999999963E+04  0.15000000000E+04  0.10566000000E+00 0.  1.
        994   -1    0    0    0    0 -0.00000000000E+00 -0.00000000000E+00  0.11368683772E-12  0.17120000000E+03  0.17120000000E+03 0.  0.
         13    1    1    2    0    0  0.13112085567E+02  0.33201282219E+01  0.35379138709E+02  0.37876703383E+02  0.10566000000E+00 0.  1.
        994    1    1    2    0    0 -0.15018578315E+02 -0.58428627107E+01  0.33241116600E+01  0.17198891376E+03  0.17120000000E+03 0.  0.
        998    1    1    2    0    0  0.19064927483E+01  0.25227344887E+01  0.14612967459E+04  0.14613343829E+04  0.10000000000E+02 0.  1.
</event>
<event>
 5    1  0.1153629E-008  0.3838380E+03  0.7957747E-01  0.3434615E+00
         13   -1    0    0    0    0  0.00000000000E+00  0.00000000000E+00  0.14999999963E+04  0.15000000000E+04  0.10566000000E+00 0.  1.
        994   -1    0    0    0    0 -0.00000000000E+00 -0.00000000000E+00  0.11368683772E-12  0.17120000000E+03  0.17120000000E+03 0.  0.
         13    1    1    2    0    0  0.23156545292E+02 -0.32519209976E+01  0.12564165092E+03  0.12779920262E+03  0.10566000000E+00 0.  1.
        994    1    1    2    0    0 -0.11705286662E+02  0.23325586269E+01  0.26785494929E+01  0.17163644483E+03  0.17120000000E+03 0.  0.
        998    1    1    2    0    0 -0.11451258630E+02  0.91936237070E+00  0.13716797959E+04  0.13717643525E+04  0.10000000000E+02 0.  1.
</event>
<event>
 5    1  0.1153629E-008  0.3722201E+03  0.7957747E-01  0.3485750E+00
         13   -1    0    0    0    0  0.00000000000E+00  0.00000000000E+00  0.14999999963E+04  0.15000000000E+04  0.10566000000E+00 0.  1.
        994   -1    0    0    0    0 -0.00000000000E+00 -0.00000000000E+00  0.11368683772E-12  0.17120000000E+03  0.17120000000E+03 0.  0.
         13    1    1    2    0    0  0.18672166187E+02 -0.65052213534E+02  0.28647342143E+03  0.29435942761E+03  0.10566000000E+00 0.  1.
        994    1    1    2    0    0 -0.22312777659E+01  0.36236206536E+02  0.12649452902E+02  0.17546364274E+03  0.17120000000E+03 0.  0.
        998    1    1    2    0    0 -0.16440888421E+02  0.28816006997E+02  0.12008771219E+04  0.12013769296E+04  0.10000000000E+02 0.  1.
</event>
<event>
 5    1  0.1153629E-008  0.3763549E+03  0.7957747E-01  0.3467185E+00
         13   -1    0    0    0    0  0.00000000000E+00  0.00000000000E+00  0.14999999963E+04  0.15000000000E+04  0.10566000000E+00 0.  1.
        994   -1    0    0    0    0 -0.00000000000E+00 -0.00000000000E+00  0.11368683772E-12  0.17120000000E+03  0.17120000000E+03 0.  0.
         13    1    1    2    0    0  0.29895152902E+02 -0.44285224876E+01  0.80484285165E+02  0.85971293470E+02  0.10566000000E+00 0.  1.
        994    1    1    2    0    0  0.30218038923E+01  0.95886949857E+01  0.63267046775E+01  0.17161160090E+03  0.17120000000E+03 0.  0.
        998    1    1    2    0    0 -0.32916956794E+02 -0.51601724981E+01  0.14131890064E+04  0.14136171056E+04  0.10000000000E+02 0.  1.
</event>
<event>
 5    1  0.1153629E-008  0.3935916E+03  0.7957747E-01  0.3394032E+00
         13   -1    0    0    0    0  0.00000000000E+00  0.00000000000E+00  0.14999999963E+04  0.15000000000E+04  0.10566000000E+00 0.  1.
        994   -1    0    0    0    0 -0.00000000000E+00 -0.00000000000E+00  0.11368683772E-12  0.17120000000E+03  0.17120000000E+03 0.  0.
         13    1    1    2    0    0  0.72213217633E+02  0.76832473527E+02  0.29105087684E+03  0.30956195158E+03  0.10566000000E+00 0.  1.
        994    1    1    2    0    0 -0.60970764289E+01 -0.83564108386E+01  0.24412287481E+02  0.17324088352E+03  0.17120000000E+03 0.  0.
        998    1    1    2    0    0 -0.66116141204E+02 -0.68476062688E+02  0.11845368320E+04  0.11883971649E+04  0.10000000000E+02 0.  1.
</event>
<event>
 5    1  0.1153629E-008  0.3849151E+03  0.7957747E-01  0.3430033E+00
         13   -1    0    0    0    0  0.00000000000E+00  0.00000000000E+00  0.14999999963E+04  0.15000000000E+04  0.10566000000E+00 0. -1.
        994   -1    0    0    0    0 -0.00000000000E+00 -0.00000000000E+00  0.11368683772E-12  0.17120000000E+03  0.17120000000E+03 0.  0.
         13    1    1    2    0    0 -0.18925057044E+02  0.11158032417E+02  0.11007444086E+03  0.11224550399E+03  0.10566000000E+00 0. -1.
        994    1    1    2    0    0  0.39667463645E+02 -0.28475968634E+02  0.95555969155E+01  0.17828386886E+03  0.17120000000E+03 0.  0.
        998    1    1    2    0    0 -0.20742406602E+02  0.17317936217E+02  0.13803699585E+04  0.13806706272E+04  0.10000000000E+02 0. -1.
</event>
<event>
 5    1  0.1153629E-008  0.3832551E+03  0.7957747E-01  0.3437107E+00
         13   -1    0    0    0    0  0.00000000000E+00  0.00000000000E+00  0.14999999963E+04  0.15000000000E+04  0.10566000000E+00 0. -1.
        994   -1    0    0    0    0 -0.00000000000E+00 -0.00000000000E+00  0.11368683772E-12  0.17120000000E+03  0.17120000000E+03 0.  0.
         13    1    1    2    0    0 -0.44837396010E+02 -0.27670826116E+02  0.30403395604E+03  0.30856559155E+03  0.10566000000E+00 0. -1.
        994    1    1    2    0    0  0.53698813740E+02  0.89379628266E+02  0.39329238206E+02  0.20427557251E+03  0.17120000000E+03 0.  0.
        998    1    1    2    0    0 -0.88614177299E+01 -0.61708802150E+02  0.11566368020E+04  0.11583588359E+04  0.10000000000E+02 0. -1.
</event>
<event>
 5    1  0.1153629E-008  0.3827677E+03  0.7957747E-01  0.3439195E+00
         13   -1    0    0    0    0  0.00000000000E+00  0.00000000000E+00  0.14999999963E+04  0.15000000000E+04  0.10566000000E+00 0.  1.
        994   -1    0    0    0    0 -0.00000000000E+00 -0.00000000000E+00  0.11368683772E-12  0.17120000000E+03  0.17120000000E+03 0.  0.
         13    1    1    2    0    0 -0.23011169844E+02  0.17882583252E+02  0.17401283488E+03  0.17643633013E+03  0.10566000000E+00 0.  1.
        994    1    1    2    0    0 -0.27508301599E+01 -0.83229978061E+01  0.29970733928E+01  0.17145046459E+03  0.17120000000E+03 0.  0.
        998    1    1    2    0    0  0.25762000004E+02 -0.95595854462E+01  0.13229900880E+04  0.13233132053E+04  0.10000000000E+02 0.  1.
</event>
<event>
 5    1  0.1153629E-008  0.3707348E+03  0.7957747E-01  0.3492521E+00
         13   -1    0    0    0    0  0.00000000000E+00  0.00000000000E+00  0.14999999963E+04  0.15000000000E+04  0.10566000000E+00 0. -1.
        994   -1    0    0    0    0 -0.00000000000E+00 -0.00000000000E+00  0.11368683772E-12  0.17120000000E+03  0.17120000000E+03 0.  0.
         13    1    1    2    0    0 -0.38561866671E+02 -0.35595101012E+02  0.12049730666E+03  0.13142922374E+03  0.10566000000E+00 0. -1.
        994    1    1    2    0    0  0.23736197423E+02  0.13731983289E+02  0.13968014383E+02  0.17394401358E+03  0.17120000000E+03 0.  0.
        998    1    1    2    0    0  0.14825669248E+02  0.21863117723E+02  0.13655346752E+04  0.13658267627E+04  0.10000000000E+02 0. -1.
</event>
<event>
 5    1  0.1153629E-008  0.3834859E+03  0.7957747E-01  0.3436119E+00
         13   -1    0    0    0    0  0.00000000000E+00  0.00000000000E+00  0.14999999963E+04  0.15000000000E+04  0.10566000000E+00 0. -1.
        994   -1    0    0    0    0 -0.00000000000E+00 -0.00000000000E+00  0.11368683772E-12  0.17120000000E+03  0.17120000000E+03 0.  0.
         13    1    1    2    0    0 -0.18247168233E+02 -0.66345329283E+01  0.92318304747E+02  0.94337991982E+02  0.10566000000E+00 0. -1.
        994    1    1    2    0    0 -0.11745345417E+02 -0.47421598968E+01  0.29141361739E+01  0.17169267139E+03  0.17120000000E+03 0.  0.
        998    1    1    2    0    0  0.29992513650E+02  0.11376692825E+02  0.14047675554E+04  0.14051693366E+04  0.10000000000E+02 0. -1.
</event>
<event>
 5    1  0.1153629E-008  0.3830992E+03  0.7957747E-01  0.3437774E+00
         13   -1    0    0    0    0  0.00000000000E+00  0.00000000000E+00  0.14999999963E+04  0.15000000000E+04  0.10566000000E+00 0. -1.
        994   -1    0    0    0    0 -0.00000000000E+00 -0.00000000000E+00  0.11368683772E-12  0.17120000000E+03  0.17120000000E+03 0.  0.
         13    1    1    2    0    0 -0.14711003155E+02  0.14720115436E+02  0.77293613303E+02  0.80046294316E+02  0.10566000000E+00 0. -1.
        994    1    1    2    0    0  0.17327334442E+02 -0.20511148055E+02  0.49660967881E+01  0.17336391156E+03  0.17120000000E+03 0.  0.
        998    1    1    2    0    0 -0.26163312865E+01  0.57910326191E+01  0.14177402862E+04  0.14177897941E+04  0.10000000000E+02 0. -1.
</event>
<event>
 5    1  0.1153629E-008  0.3826892E+03  0.7957747E-01  0.3439532E+00
         13   -1    0    0    0    0  0.00000000000E+00  0.00000000000E+00  0.14999999963E+04  0.15000000000E+04  0.10566000000E+00 0. -1.
        994   -1    0    0    0    0 -0.00000000000E+00 -0.00000000000E+00  0.11368683772E-12  0.17120000000E+03  0.17120000000E+03 0.  0.
         13    1    1    2    0    0 -0.15939351015E+02  0.53246053299E+01  0.50401700289E+02  0.53129623458E+02  0.10566000000E+00 0. -1.
        994    1    1    2    0    0  0.10477419734E+02  0.37379605537E+01  0.31919150647E+01  0.17159072526E+03  0.17120000000E+03 0.  0.
        998    1    1    2    0    0  0.54619312814E+01 -0.90625658836E+01  0.14464063809E+04  0.14464796513E+04  0.10000000000E+02 0. -1.
</event>
<event>
 5    1  0.1153629E-008  0.3856126E+03  0.7957747E-01  0.3427078E+00
         13   -1    0    0    0    0  0.00000000000E+00  0.00000000000E+00  0.14999999963E+04  0.15000000000E+04  0.10566000000E+00 0.  1.
        994   -1    0    0    0    0 -0.00000000000E+00 -0.00000000000E+00  0.11368683772E-12  0.17120000000E+03  0.17120000000E+03 0.  0.
         13    1    1    2    0    0  0.55932457415E+01 -0.97518048843E+01  0.47020713337E+02  0.48346051992E+02  0.10566000000E+00 0.  1.
        994    1    1    2    0    0 -0.73829391349E+01  0.81411995647E+01  0.17228381738E+01  0.17156105354E+03  0.17120000000E+03 0.  0.
        998    1    1    2    0    0  0.17896933933E+01  0.16106053196E+01  0.14512564448E+04  0.14512928945E+04  0.10000000000E+02 0.  1.
</event>
<event>
 5    1  0.1153629E-008  0.3800889E+03  0.7957747E-01  0.3450772E+00
         13   -1    0    0    0    0  0.00000000000E+00  0.00000000000E+00  0.14999999963E+04  0.15000000000E+04  0.10566000000E+00 0.  1.
        994   -1    0    0    0    0 -0.00000000000E+00 -0.00000000000E+00  0.11368683772E-12  0.17120000000E+03  0.17120000000E+03 0.  0.
         13    1    1    2    0    0 -0.20889529837E+02  0.42798921870E+02  0.61123349405E+02  0.77486741940E+02  0.10566000000E+00 0.  1.
        994    1    1    2    0    0  0.23520399435E+02 -0.40166998556E+02  0.24270983545E+02  0.17906735494E+03  0.17120000000E+03 0.  0.
        998    1    1    2    0    0 -0.26308695981E+01 -0.26319233137E+01  0.14146056633E+04  0.14146459031E+04  0.10000000000E+02 0.  1.
</event>
<event>
 5    1  0.1153629E-008  0.3693829E+03  0.7957747E-01  0.3498732E+00
         13   -1    0    0    0    0  0.00000000000E+00  0.00000000000E+00  0.14999999963E+04  0.15000000000E+04  0.10566000000E+00 0.  1.
        994   -1    0    0    0    0 -0.00000000000E+00 -0.00000000000E+00  0.11368683772E-12  0.17120000000E+03  0.17120000000E+03 0.  0.
         13    1    1    2    0    0 -0.18594866014E+02  0.53234415313E+01  0.16136505509E+02  0.25189403445E+02  0.10566000000E+00 0.  1.
        994    1    1    2    0    0 -0.13792512520E+02 -0.15891075833E+02  0.11127639374E+02  0.17284682251E+03  0.17120000000E+03 0.  0.
        998    1    1    2    0    0  0.32387378534E+02  0.10567634302E+02  0.14727358514E+04  0.14731637740E+04  0.10000000000E+02 0.  1.
</event>
<event>
 5    1  0.1153629E-008  0.3846421E+03  0.7957747E-01  0.3431191E+00
         13   -1    0    0    0    0  0.00000000000E+00  0.00000000000E+00  0.14999999963E+04  0.15000000000E+04  0.10566000000E+00 0. -1.
        994   -1    0    0    0    0 -0.00000000000E+00 -0.00000000000E+00  0.11368683772E-12  0.17120000000E+03  0.17120000000E+03 0.  0.
         13    1    1    2    0    0  0.10001325412E+02 -0.88630637044E+01  0.50581746602E+02  0.52317345705E+02  0.10566000000E+00 0. -1.
        994    1    1    2    0    0 -0.11760289660E+02 -0.75465822196E+01  0.24510575726E+01  0.17178679518E+03  0.17120000000E+03 0.  0.
        998    1    1    2    0    0  0.17589642482E+01  0.16409645924E+02  0.14469671921E+04  0.14470958591E+04  0.10000000000E+02 0. -1.
</event>
<event>
 5    1  0.1153629E-008  0.3858684E+03  0.7957747E-01  0.3425998E+00
         13   -1    0    0    0    0  0.00000000000E+00  0.00000000000E+00  0.14999999963E+04  0.15000000000E+04  0.10566000000E+00 0.  1.
        994   -1    0    0    0    0 -0.00000000000E+00 -0.00000000000E+00  0.11368683772E-12  0.17120000000E+03  0.17120000000E+03 0.  0.
         13    1    1    2    0    0 -0.10409713766E+01 -0.12342112760E+02  0.63959461654E+02  0.65147795572E+02  0.10566000000E+00 0.  1.
        994    1    1    2    0    0  0.17751660445E+01  0.94269549993E+01  0.15014430080E+01  0.17147510906E+03  0.17120000000E+03 0.  0.
        998    1    1    2    0    0 -0.73419466796E+00  0.29151577602E+01  0.14345390916E+04  0.14345770954E+04  0.10000000000E+02 0.  1.
</event>
<event>
 5    1  0.1153629E-008  0.3838580E+03  0.7957747E-01  0.3434530E+00
         13   -1    0    0    0    0  0.00000000000E+00  0.00000000000E+00  0.14999999963E+04  0.15000000000E+04  0.10566000000E+00 0. -1.
        994   -1    0    0    0    0 -0.00000000000E+00 -0.00000000000E+00  0.11368683772E-12  0.17120000000E+03  0.17120000000E+03 0.  0.
         13    1    1    2    0    0 -0.11482417692E+02  0.84938751138E+01  0.47476420865E+02  0.49578357503E+02  0.10566000000E+00 0. -1.
        994    1    1    2    0    0 -0.12361542910E+01 -0.55785425657E+01  0.23059545454E+01  0.17131084508E+03  0.17120000000E+03 0.  0.
        998    1    1    2    0    0  0.12718571983E+02 -0.29153325481E+01  0.14502176209E+04  0.14503107974E+04  0.10000000000E+02 0. -1.
</event>
<event>
 5    1  0.1153629E-008  0.3822410E+03  0.7957747E-01  0.3441459E+00
         13   -1    0    0    0    0  0.00000000000E+00  0.00000000000E+00  0.14999999963E+04  0.15000000000E+04  0.10566000000E+00 0. -1.
        994   -1    0    0    0    0 -0.00000000000E+00 -0.00000000000E+00  0.11368683772E-12  0.17120000000E+03  0.17120000000E+03 0.  0.
         13    1    1    2    0    0  0.67095949537E+01  0.12841039813E+02  0.32477060595E+02  0.35562362082E+02  0.10566000000E+00 0. -1.
        994    1    1    2    0    0 -0.53639376410E+01 -0.21366648859E+02  0.46182522214E+01  0.17267331515E+03  0.17120000000E+03 0.  0.
        998    1    1    2    0    0 -0.13456573127E+01  0.85256090464E+01  0.14629046835E+04  0.14629643228E+04  0.10000000000E+02 0. -1.
</event>
<event>
 5    1  0.1153629E-008  0.3862101E+03  0.7957747E-01  0.3424556E+00
         13   -1    0    0    0    0  0.00000000000E+00  0.00000000000E+00  0.14999999963E+04  0.15000000000E+04  0.10566000000E+00 0. -1.
        994   -1    0    0    0    0 -0.00000000000E+00 -0.00000000000E+00  0.11368683772E-12  0.17120000000E+03  0.17120000000E+03 0.  0.
         13    1    1    2    0    0  0.10621582409E+02  0.34965537842E+01  0.57488948191E+02  0.58566494084E+02  0.10566000000E+00 0. -1.
        994    1    1    2    0    0 -0.13413727150E+02 -0.13796040674E+02  0.22443773123E+01  0.17229258848E+03  0.17120000000E+03 0.  0.
        998    1    1    2    0    0  0.27921447408E+01  0.10299486890E+02  0.14402666708E+04  0.14403409174E+04  0.10000000000E+02 0. -1.
</event>
<event>
 5    1  0.1153629E-008  0.3844693E+03  0.7957747E-01  0.3431926E+00
         13   -1    0    0    0    0  0.00000000000E+00  0.00000000000E+00  0.14999999963E+04  0.15000000000E+04  0.10566000000E+00 0. -1.
        994   -1    0    0    0    0 -0.00000000000E+00 -0.00000000000E+00  0.11368683772E-12  0.17120000000E+03  0.17120000000E+03 0.  0.
         13    1    1    2    0    0 -0.17179452828E+02 -0.18112150864E+00  0.71493269354E+02  0.73528668772E+02  0.10566000000E+00 0. -1.
        994    1    1    2    0    0  0.24760008582E+02  0.10914407632E+01  0.39200127810E+01  0.17302906047E+03  0.17120000000E+03 0.  0.
        998    1    1    2    0    0 -0.75805557538E+01 -0.91031925454E+00  0.14245867141E+04  0.14246422708E+04  0.10000000000E+02 0. -1.
</event>
<event>
 5    1  0.1153629E-008  0.3839730E+03  0.7957747E-01  0.3434040E+00
         13   -1    0    0    0    0  0.00000000000E+00  0.00000000000E+00  0.14999999963E+04  0.15000000000E+04  0.10566000000E+00 0.  1.
        994   -1    0    0    0    0 -0.00000000000E+00 -0.00000000000E+00  0.11368683772E-12  0.17120000000E+03  0.17120000000E+03 0.  0.
         13    1    1    2    0    0  0.14198594953E+02 -0.82291621336E+01  0.60451810595E+02  0.62639857729E+02  0.10566000000E+00 0.  1.
        994    1    1    2    0    0 -0.13401163554E+02  0.10377886074E+02  0.30894235219E+01  0.17206474433E+03  0.17120000000E+03 0.  0.
        998    1    1    2    0    0 -0.79743139960E+00 -0.21487239408E+01  0.14364587622E+04  0.14364953979E+04  0.10000000000E+02 0.  1.
</event>
<event>
 5    1  0.1153629E-008  0.3821765E+03  0.7957747E-01  0.3441736E+00
         13   -1    0    0    0    0  0.00000000000E+00  0.00000000000E+00  0.14999999963E+04  0.15000000000E+04  0.10566000000E+00 0.  1.
        994   -1    0    0    0    0 -0.00000000000E+00 -0.00000000000E+00  0.11368683772E-12  0.17120000000E+03  0.17120000000E+03 0.  0.
         13    1    1    2    0    0  0.21234115390E+02  0.17153834976E+02  0.11423491976E+03  0.11745113778E+03  0.10566000000E+00 0.  1.
        994    1    1    2    0    0 -0.22577198230E+02 -0.14409286413E+02  0.54230796267E+01  0.17336726106E+03  0.17120000000E+03 0.  0.
        998    1    1    2    0    0  0.13430828397E+01 -0.27445485631E+01  0.13803419969E+04  0.13803816012E+04  0.10000000000E+02 0.  1.
</event>
<event>
 5    1  0.1153629E-008  0.3811042E+03  0.7957747E-01  0.3446365E+00
         13   -1    0    0    0    0  0.00000000000E+00  0.00000000000E+00  0.14999999963E+04  0.15000000000E+04  0.10566000000E+00 0.  1.
        994   -1    0    0    0    0 -0.00000000000E+00 -0.00000000000E+00  0.11368683772E-12  0.17120000000E+03  0.17120000000E+03 0.  0.
         13    1    1    2    0    0 -0.15997675583E+02  0.40503274092E+02  0.47732376832E+02  0.64612938320E+02  0.10566000000E+00 0.  1.
        994    1    1    2    0    0  0.65257333464E+01 -0.47589610023E+02  0.25377600517E+02  0.17961296943E+03  0.17120000000E+03 0.  0.
        998    1    1    2    0    0  0.94719422366E+01  0.70863359305E+01  0.14268900189E+04  0.14269740923E+04  0.10000000000E+02 0.  1.
</event>
<event>
 5    1  0.1153629E-008  0.3760806E+03  0.7957747E-01  0.3468404E+00
         13   -1    0    0    0    0  0.00000000000E+00  0.00000000000E+00  0.14999999963E+04  0.15000000000E+04  0.10566000000E+00 0. -1.
        994   -1    0    0    0    0 -0.00000000000E+00 -0.00000000000E+00  0.11368683772E-12  0.17120000000E+03  0.17120000000E+03 0.  0.
         13    1    1    2    0    0  0.40056895196E+02  0.29553736795E+01  0.48612508618E+02  0.63059307358E+02  0.10566000000E+00 0. -1.
        994    1    1    2    0    0 -0.49737892470E+02 -0.15012213310E+01  0.23089280833E+02  0.17977393165E+03  0.17120000000E+03 0.  0.
        998    1    1    2    0    0  0.96809972739E+01 -0.14541523485E+01  0.14282982068E+04  0.14283667610E+04  0.10000000000E+02 0. -1.
</event>
<event>
 5    1  0.1153629E-008  0.3853855E+03  0.7957747E-01  0.3428039E+00
         13   -1    0    0    0    0  0.00000000000E+00  0.00000000000E+00  0.14999999963E+04  0.15000000000E+04  0.10566000000E+00 0.  1.
        994   -1    0    0    0    0 -0.00000000000E+00 -0.00000000000E+00  0.11368683772E-12  0.17120000000E+03  0.17120000000E+03 0.  0.
         13    1    1    2    0    0  0.14344015377E+02 -0.49453679701E+01  0.90086165905E+02  0.91354999278E+02  0.10566000000E+00 0.  1.
        994    1    1    2    0    0  0.65551904420E+01  0.61243743799E+01  0.17032404863E+01  0.17144334199E+03  0.17120000000E+03 0.  0.
        998    1    1    2    0    0 -0.20899205819E+02 -0.11790064097E+01  0.14082105899E+04  0.14084016587E+04  0.10000000000E+02 0.  1.
</event>
<event>
 5    1  0.1153629E-008  0.3832918E+03  0.7957747E-01  0.3436950E+00
         13   -1    0    0    0    0  0.00000000000E+00  0.00000000000E+00  0.14999999963E+04  0.15000000000E+04  0.10566000000E+00 0. -1.
        994   -1    0    0    0    0 -0.00000000000E+00 -0.00000000000E+00  0.11368683772E-12  0.17120000000E+03  0.17120000000E+03 0.  0.
         13    1    1    2    0    0  0.20583590352E+02  0.33085673414E+01  0.89809942700E+02  0.92197981440E+02  0.10566000000E+00 0. -1.
        994    1    1    2    0    0 -0.76843388235E+01 -0.16721978910E+01  0.26851773286E+01  0.17140156209E+03  0.17120000000E+03 0.  0.
        998    1    1    2    0    0 -0.12899251529E+02 -0.16363694504E+01  0.14075048762E+04  0.14076004565E+04  0.10000000000E+02 0. -1.
</event>
<event>
 5    1  0.1153629E-008  0.3775876E+03  0.7957747E-01  0.3461730E+00
         13   -1    0    0    0    0  0.00000000000E+00  0.00000000000E+00  0.14999999963E+04  0.15000000000E+04  0.10566000000E+00 0.  1.
        994   -1    0    0    0    0 -0.00000000000E+00 -0.00000000000E+00  0.11368683772E-12  0.17120000000E+03  0.17120000000E+03 0.  0.
         13    1    1    2    0    0  0.17449314644E+02 -0.23972251277E+02  0.80399015398E+02  0.85692241503E+02  0.10566000000E+00 0.  1.
        994    1    1    2    0    0 -0.31038918470E+02 -0.45327534244E+00  0.86099315361E+01  0.17420445126E+03  0.17120000000E+03 0.  0.
        998    1    1    2    0    0  0.13589603826E+02  0.24425526619E+02  0.14109910493E+04  0.14113033072E+04  0.10000000000E+02 0.  1.
</event>
<event>
 5    1  0.1153629E-008  0.3701533E+03  0.7957747E-01  0.3495187E+00
         13   -1    0    0    0    0  0.00000000000E+00  0.00000000000E+00  0.14999999963E+04  0.15000000000E+04  0.10566000000E+00 0.  1.
        994   -1    0    0    0    0 -0.00000000000E+00 -0.00000000000E+00  0.11368683772E-12  0.17120000000E+03  0.17120000000E+03 0.  0.
         13    1    1    2    0    0 -0.13925742749E+02 -0.12572919636E+03  0.53401548922E+03  0.54879350490E+03  0.10566000000E+00 0.  1.
        994    1    1    2    0    0  0.88196301270E+01  0.12633065542E+03  0.66839100380E+02  0.22319078322E+03  0.17120000000E+03 0.  0.
        998    1    1    2    0    0  0.51061126224E+01 -0.60145906270E+00  0.89914540668E+03  0.89921571188E+03  0.10000000000E+02 0.  1.
</event>
<event>
 5    1  0.1153629E-008  0.3797023E+03  0.7957747E-01  0.3452456E+00
         13   -1    0    0    0    0  0.00000000000E+00  0.00000000000E+00  0.14999999963E+04  0.15000000000E+04  0.10566000000E+00 0.  1.
        994   -1    0    0    0    0 -0.00000000000E+00 -0.00000000000E+00  0.11368683772E-12  0.17120000000E+03  0.17120000000E+03 0.  0.
         13    1    1    2    0    0  0.21780911543E+02 -0.10349098266E+01  0.53499593483E+02  0.57772803402E+02  0.10566000000E+00 0.  1.
        994    1    1    2    0    0 -0.15885114629E+02  0.54984931975E+01  0.52296254633E+01  0.17210275790E+03  0.17120000000E+03 0.  0.
        998    1    1    2    0    0 -0.58957969138E+01 -0.44635833710E+01  0.14412707773E+04  0.14413244387E+04  0.10000000000E+02 0.  1.
</event>
<event>
 5    1  0.1153629E-008  0.3721698E+03  0.7957747E-01  0.3485978E+00
         13   -1    0    0    0    0  0.00000000000E+00  0.00000000000E+00  0.14999999963E+04  0.15000000000E+04  0.10566000000E+00 0.  1.
        994   -1    0    0    0    0 -0.00000000000E+00 -0.00000000000E+00  0.11368683772E-12  0.17120000000E+03  0.17120000000E+03 0.  0.
         13    1    1    2    0    0  0.11977441132E+02  0.10337713085E+02  0.48615614092E+01  0.16552140383E+02  0.10566000000E+00 0.  1.
        994    1    1    2    0    0 -0.13588871279E+02 -0.42615185904E+01  0.12805566706E+02  0.17226793231E+03  0.17120000000E+03 0.  0.
        998    1    1    2    0    0  0.16114301467E+01 -0.60761944943E+01  0.14823328682E+04  0.14823799273E+04  0.10000000000E+02 0.  1.
</event>
<event>
 5    1  0.1153629E-008  0.3701043E+03  0.7957747E-01  0.3495412E+00
         13   -1    0    0    0    0  0.00000000000E+00  0.00000000000E+00  0.14999999963E+04  0.15000000000E+04  0.10566000000E+00 0. -1.
        994   -1    0    0    0    0 -0.00000000000E+00 -0.00000000000E+00  0.11368683772E-12  0.17120000000E+03  0.17120000000E+03 0.  0.
         13    1    1    2    0    0 -0.26694438686E+01 -0.15241762664E+02  0.87833387449E+01  0.17793129664E+02  0.10566000000E+00 0. -1.
        994    1    1    2    0    0 -0.12933072524E+01  0.15164797327E+02  0.10015614716E+02  0.17216676874E+03  0.17120000000E+03 0.  0.
        998    1    1    2    0    0  0.39627511210E+01  0.76965337483E-01  0.14812010428E+04  0.14812401016E+04  0.10000000000E+02 0. -1.
</event>
<event>
 5    1  0.1153629E-008  0.3749674E+03  0.7957747E-01  0.3473369E+00
         13   -1    0    0    0    0  0.00000000000E+00  0.00000000000E+00  0.14999999963E+04  0.15000000000E+04  0.10566000000E+00 0. -1.
        994   -1    0    0    0    0 -0.00000000000E+00 -0.00000000000E+00  0.11368683772E-12  0.17120000000E+03  0.17120000000E+03 0.  0.
         13    1    1    2    0    0 -0.51226504088E+02 -0.49903174068E+02  0.35169255721E+03  0.35889016073E+03  0.10566000000E+00 0. -1.
        994    1    1    2    0    0  0.17653116759E+02  0.55482111071E+02  0.18308268372E+02  0.18175403674E+03  0.17120000000E+03 0.  0.
        998    1    1    2    0    0  0.33573387329E+02 -0.55789370032E+01  0.11299991707E+04  0.11305558025E+04  0.10000000000E+02 0. -1.
</event>
<event>
 5    1  0.1153629E-008  0.3778199E+03  0.7957747E-01  0.3460706E+00
         13   -1    0    0    0    0  0.00000000000E+00  0.00000000000E+00  0.14999999963E+04  0.15000000000E+04  0.10566000000E+00 0.  1.
        994   -1    0    0    0    0 -0.00000000000E+00 -0.00000000000E+00  0.11368683772E-12  0.17120000000E+03  0.17120000000E+03 0.  0.
         13    1    1    2    0    0  0.18762085941E+02 -0.15003931930E+02  0.52786510853E+02  0.57996213103E+02  0.10566000000E+00 0.  1.
        994    1    1    2    0    0 -0.15048736045E+02  0.88015585130E+01  0.62617803813E+01  0.17219925024E+03  0.17120000000E+03 0.  0.
        998    1    1    2    0    0 -0.37133498952E+01  0.62023734170E+01  0.14409517050E+04  0.14410045367E+04  0.10000000000E+02 0.  1.
</event>
<event>
 5    1  0.1153629E-008  0.3763140E+03  0.7957747E-01  0.3467367E+00
         13   -1    0    0    0    0  0.00000000000E+00  0.00000000000E+00  0.14999999963E+04  0.15000000000E+04  0.10566000000E+00 0.  1.
        994   -1    0    0    0    0 -0.00000000000E+00 -0.00000000000E+00  0.11368683772E-12  0.17120000000E+03  0.17120000000E+03 0.  0.
         13    1    1    2    0    0 -0.18770560737E+02 -0.34492835472E+02  0.10540259945E+03  0.11248025954E+03  0.10566000000E+00 0.  1.
        994    1    1    2    0    0  0.79922848089E+02  0.30947750348E+02  0.31283303575E+02  0.19399358232E+03  0.17120000000E+03 0.  0.
        998    1    1    2    0    0 -0.61152287352E+02  0.35450851240E+01  0.13633140932E+04  0.13647261581E+04  0.10000000000E+02 0.  1.
</event>
<event>
 5    1  0.1153629E-008  0.3825749E+03  0.7957747E-01  0.3440023E+00
         13   -1    0    0    0    0  0.00000000000E+00  0.00000000000E+00  0.14999999963E+04  0.15000000000E+04  0.10566000000E+00 0. -1.
        994   -1    0    0    0    0 -0.00000000000E+00 -0.00000000000E+00  0.11368683772E-12  0.17120000000E+03  0.17120000000E+03 0.  0.
         13    1    1    2    0    0 -0.32487648597E+01 -0.17361971185E+02  0.51798468975E+02  0.54727370381E+02  0.10566000000E+00 0. -1.
        994    1    1    2    0    0  0.50789920837E+00  0.21452682037E+02  0.43667794474E+01  0.17259485592E+03  0.17120000000E+03 0.  0.
        998    1    1    2    0    0  0.27408656513E+01 -0.40907108512E+01  0.14438347479E+04  0.14438777737E+04  0.10000000000E+02 0. -1.
</event>
<event>
 5    1  0.1153629E-008  0.3942632E+03  0.7957747E-01  0.3391312E+00
         13   -1    0    0    0    0  0.00000000000E+00  0.00000000000E+00  0.14999999963E+04  0.15000000000E+04  0.10566000000E+00 0. -1.
        994   -1    0    0    0    0 -0.00000000000E+00 -0.00000000000E+00  0.11368683772E-12  0.17120000000E+03  0.17120000000E+03 0.  0.
         13    1    1    2    0    0 -0.74897842888E+02 -0.60556321510E+02  0.16093108189E+03  0.18755153752E+03  0.10566000000E+00 0. -1.
        994    1    1    2    0    0  0.79005041942E+02  0.60657001212E+02  0.63447150829E+02  0.20798088709E+03  0.17120000000E+03 0.  0.
        998    1    1    2    0    0 -0.41071990536E+01 -0.10067970131E+00  0.12756217636E+04  0.12756675754E+04  0.10000000000E+02 0. -1.
</event>
<event>
 5    1  0.1153629E-008  0.3782666E+03  0.7957747E-01  0.3458741E+00
         13   -1    0    0    0    0  0.00000000000E+00  0.00000000000E+00  0.14999999963E+04  0.15000000000E+04  0.10566000000E+00 0. -1.
        994   -1    0    0    0    0 -0.00000000000E+00 -0.00000000000E+00  0.11368683772E-12  0.17120000000E+03  0.17120000000E+03 0.  0.
         13    1    1    2    0    0  0.87029643642E+02 -0.26795597725E+02  0.47630001543E+03  0.48492667363E+03  0.10566000000E+00 0. -1.
        994    1    1    2    0    0 -0.10430955624E+03  0.16784865928E+02  0.43507614178E+02  0.20582654770E+03  0.17120000000E+03 0.  0.
        998    1    1    2    0    0  0.17279912602E+02  0.10010731797E+02  0.98019236667E+03  0.98044677867E+03  0.10000000000E+02 0. -1.
</event>
<event>
 5    1  0.1153629E-008  0.3826049E+03  0.7957747E-01  0.3439894E+00
         13   -1    0    0    0    0  0.00000000000E+00  0.00000000000E+00  0.14999999963E+04  0.15000000000E+04  0.10566000000E+00 0. -1.
        994   -1    0    0    0    0 -0.00000000000E+00 -0.00000000000E+00  0.11368683772E-12  0.17120000000E+03  0.17120000000E+03 0.  0.
         13    1    1    2    0    0  0.25325693112E+02 -0.19306121093E+02  0.16323635896E+03  0.16631367080E+03  0.10566000000E+00 0. -1.
        994    1    1    2    0    0 -0.19316264479E+02  0.25026440539E+02  0.61435741227E+01  0.17420282519E+03  0.17120000000E+03 0.  0.
        998    1    1    2    0    0 -0.60094286328E+01 -0.57203194462E+01  0.13306200632E+04  0.13306835040E+04  0.10000000000E+02 0. -1.
</event>
<event>
 5    1  0.1153629E-008  0.4169316E+03  0.7957747E-01  0.3304595E+00
         13   -1    0    0    0    0  0.00000000000E+00  0.00000000000E+00  0.14999999963E+04  0.15000000000E+04  0.10566000000E+00 0. -1.
        994   -1    0    0    0    0 -0.00000000000E+00 -0.00000000000E+00  0.11368683772E-12  0.17120000000E+03  0.17120000000E+03 0.  0.
         13    1    1    2    0    0 -0.23813873226E+02  0.84666582035E+02  0.84806041505E+02  0.12217858450E+03  0.10566000000E+00 0. -1.
        994    1    1    2    0    0  0.16399635694E+02 -0.85444909485E+02  0.70961254591E+02  0.20473084834E+03  0.17120000000E+03 0.  0.
        998    1    1    2    0    0  0.74142375317E+01  0.77832745019E+00  0.13442327002E+04  0.13442905672E+04  0.10000000000E+02 0. -1.
</event>
<event>
 5    1  0.1153629E-008  0.3743742E+03  0.7957747E-01  0.3476026E+00
         13   -1    0    0    0    0  0.00000000000E+00  0.00000000000E+00  0.14999999963E+04  0.15000000000E+04  0.10566000000E+00 0. -1.
        994   -1    0    0    0    0 -0.00000000000E+00 -0.00000000000E+00  0.11368683772E-12  0.17120000000E+03  0.17120000000E+03 0.  0.
         13    1    1    2    0    0  0.15541087720E+02 -0.71109837034E+02  0.27806074119E+03  0.28742985455E+03  0.10566000000E+00 0. -1.
        994    1    1    2    0    0 -0.10777334770E+02  0.85784359882E+02  0.32906725945E+02  0.19459547774E+03  0.17120000000E+03 0.  0.
        998    1    1    2    0    0 -0.47637529498E+01 -0.14674522848E+02  0.11890325291E+04  0.11891746677E+04  0.10000000000E+02 0. -1.
</event>
<event>
 5    1  0.1153629E-008  0.3707568E+03  0.7957747E-01  0.3492420E+00
         13   -1    0    0    0    0  0.00000000000E+00  0.00000000000E+00  0.14999999963E+04  0.15000000000E+04  0.10566000000E+00 0. -1.
        994   -1    0    0    0    0 -0.00000000000E+00 -0.00000000000E+00  0.11368683772E-12  0.17120000000E+03  0.17120000000E+03 0.  0.
         13    1    1    2    0    0 -0.67007761988E+02  0.40599483652E+02  0.28210912678E+03  0.29278649015E+03  0.10566000000E+00 0. -1.
        994    1    1    2    0    0  0.39738670098E+02 -0.54008274645E+01  0.16998354722E+02  0.17665422413E+03  0.17120000000E+03 0.  0.
        998    1    1    2    0    0  0.27269091890E+02 -0.35198656187E+02  0.12008925148E+04  0.12017592857E+04  0.10000000000E+02 0. -1.
</event>
<event>
 5    1  0.1153629E-008  0.3814903E+03  0.7957747E-01  0.3444695E+00
         13   -1    0    0    0    0  0.00000000000E+00  0.00000000000E+00  0.14999999963E+04  0.15000000000E+04  0.10566000000E+00 0. -1.
        994   -1    0    0    0    0 -0.00000000000E+00 -0.00000000000E+00  0.11368683772E-12  0.17120000000E+03  0.17120000000E+03 0.  0.
         13    1    1    2    0    0  0.16694273594E+01  0.18859258357E+02  0.47365805073E+02  0.51009697781E+02  0.10566000000E+00 0. -1.
        994    1    1    2    0    0 -0.23497047726E+02 -0.33170243073E+02  0.88990161399E+01  0.17618458720E+03  0.17120000000E+03 0.  0.
        998    1    1    2    0    0  0.21827620367E+02  0.14310984716E+02  0.14437351751E+04  0.14440057150E+04  0.10000000000E+02 0. -1.
</event>
<event>
 5    1  0.1153629E-008  0.3852630E+03  0.7957747E-01  0.3428558E+00
         13   -1    0    0    0    0  0.00000000000E+00  0.00000000000E+00  0.14999999963E+04  0.15000000000E+04  0.10566000000E+00 0.  1.
        994   -1    0    0    0    0 -0.00000000000E+00 -0.00000000000E+00  0.11368683772E-12  0.17120000000E+03  0.17120000000E+03 0.  0.
         13    1    1    2    0    0  0.11382195016E+02 -0.10557000343E+02  0.85852881952E+02  0.87245246994E+02  0.10566000000E+00 0.  1.
        994    1    1    2    0    0 -0.77039789112E+01 -0.54209101883E+01  0.17912493803E+01  0.17146832399E+03  0.17120000000E+03 0.  0.
        998    1    1    2    0    0 -0.36782161049E+01  0.15977910531E+02  0.14123558649E+04  0.14124864290E+04  0.10000000000E+02 0.  1.
</event>
<event>
 5    1  0.1153629E-008  0.3833230E+03  0.7957747E-01  0.3436816E+00
         13   -1    0    0    0    0  0.00000000000E+00  0.00000000000E+00  0.14999999963E+04  0.15000000000E+04  0.10566000000E+00 0. -1.
        994   -1    0    0    0    0 -0.00000000000E+00 -0.00000000000E+00  0.11368683772E-12  0.17120000000E+03  0.17120000000E+03 0.  0.
         13    1    1    2    0    0 -0.13418675980E+02  0.85140387524E+01  0.50714877305E+02  0.53146586579E+02  0.10566000000E+00 0. -1.
        994    1    1    2    0    0  0.86174292563E+01 -0.45836155421E+01  0.27801290931E+01  0.17150055025E+03  0.17120000000E+03 0.  0.
        998    1    1    2    0    0  0.48012467236E+01 -0.39304232103E+01  0.14465049899E+04  0.14465528632E+04  0.10000000000E+02 0. -1.
</event>
<event>
 5    1  0.1153629E-008  0.3848620E+03  0.7957747E-01  0.3430258E+00
         13   -1    0    0    0    0  0.00000000000E+00  0.00000000000E+00  0.14999999963E+04  0.15000000000E+04  0.10566000000E+00 0. -1.
        994   -1    0    0    0    0 -0.00000000000E+00 -0.00000000000E+00  0.11368683772E-12  0.17120000000E+03  0.17120000000E+03 0.  0.
         13    1    1    2    0    0 -0.62487241450E+01  0.12343138402E+02  0.55576094915E+02  0.57272271729E+02  0.10566000000E+00 0. -1.
        994    1    1    2    0    0  0.97107381179E+01 -0.77520076794E+01  0.22068084873E+01  0.17166450437E+03  0.17120000000E+03 0.  0.
        998    1    1    2    0    0 -0.34620139729E+01 -0.45911307230E+01  0.14422170929E+04  0.14422632239E+04  0.10000000000E+02 0. -1.
</event>
<event>
 5    1  0.1153629E-008  0.3814825E+03  0.7957747E-01  0.3444729E+00
         13   -1    0    0    0    0  0.00000000000E+00  0.00000000000E+00  0.14999999963E+04  0.15000000000E+04  0.10566000000E+00 0.  1.
        994   -1    0    0    0    0 -0.00000000000E+00 -0.00000000000E+00  0.11368683772E-12  0.17120000000E+03  0.17120000000E+03 0.  0.
         13    1    1    2    0    0 -0.10324997632E+02  0.40972355360E+02  0.24513761366E+03  0.24875248798E+03  0.10566000000E+00 0.  1.
        994    1    1    2    0    0  0.22076063839E+02 -0.27667439004E+02  0.75655993379E+01  0.17498433664E+03  0.17120000000E+03 0.  0.
        998    1    1    2    0    0 -0.11751066207E+02 -0.13304916356E+02  0.12472967833E+04  0.12474631754E+04  0.10000000000E+02 0.  1.
</event>
<event>
 5    1  0.1153629E-008  0.3771909E+03  0.7957747E-01  0.3463482E+00
         13   -1    0    0    0    0  0.00000000000E+00  0.00000000000E+00  0.14999999963E+04  0.15000000000E+04  0.10566000000E+00 0.  1.
        994   -1    0    0    0    0 -0.00000000000E+00 -0.00000000000E+00  0.11368683772E-12  0.17120000000E+03  0.17120000000E+03 0.  0.
         13    1    1    2    0    0  0.47732046273E+02  0.11786812163E+02  0.19505342464E+03  0.20115448494E+03  0.10566000000E+00 0.  1.
        994    1    1    2    0    0 -0.42192182818E+02 -0.13956546166E+02  0.12251189887E+02  0.17729776402E+03  0.17120000000E+03 0.  0.
        998    1    1    2    0    0 -0.55398634550E+01  0.21697340031E+01  0.12926953817E+04  0.12927477510E+04  0.10000000000E+02 0.  1.
</event>
<event>
 5    1  0.1153629E-008  0.3786280E+03  0.7957747E-01  0.3457154E+00
         13   -1    0    0    0    0  0.00000000000E+00  0.00000000000E+00  0.14999999963E+04  0.15000000000E+04  0.10566000000E+00 0. -1.
        994   -1    0    0    0    0 -0.00000000000E+00 -0.00000000000E+00  0.11368683772E-12  0.17120000000E+03  0.17120000000E+03 0.  0.
         13    1    1    2    0    0  0.41327700818E+02 -0.10110327773E+03  0.60345245778E+03  0.61325747577E+03  0.10566000000E+00 0. -1.
        994    1    1    2    0    0 -0.26027156071E+02  0.12132824457E+03  0.58408569493E+02  0.21936033546E+03  0.17120000000E+03 0.  0.
        998    1    1    2    0    0 -0.15300544747E+02 -0.20224966841E+02  0.83813896900E+03  0.83858218876E+03  0.10000000000E+02 0. -1.
</event>
<event>
 5    1  0.1153629E-008  0.3813748E+03  0.7957747E-01  0.3445194E+00
         13   -1    0    0    0    0  0.00000000000E+00  0.00000000000E+00  0.14999999963E+04  0.15000000000E+04  0.10566000000E+00 0. -1.
        994   -1    0    0    0    0 -0.00000000000E+00 -0.00000000000E+00  0.11368683772E-12  0.17120000000E+03  0.17120000000E+03 0.  0.
         13    1    1    2    0    0  0.86942115196E+01  0.12329793786E+02  0.30801231002E+02  0.34297815149E+02  0.10566000000E+00 0. -1.
        994    1    1    2    0    0 -0.15378069251E+02 -0.13186973944E+02  0.48076280353E+01  0.17246140027E+03  0.17120000000E+03 0.  0.
        998    1    1    2    0    0  0.66838577311E+01  0.85718015767E+00  0.14643911372E+04  0.14644407846E+04  0.10000000000E+02 0. -1.
</event>
<event>
 5    1  0.1153629E-008  0.3846579E+03  0.7957747E-01  0.3431124E+00
         13   -1    0    0    0    0  0.00000000000E+00  0.00000000000E+00  0.14999999963E+04  0.15000000000E+04  0.10566000000E+00 0.  1.
        994   -1    0    0    0    0 -0.00000000000E+00 -0.00000000000E+00  0.11368683772E-12  0.17120000000E+03  0.17120000000E+03 0.  0.
         13    1    1    2    0    0  0.10721654268E+02 -0.52056148124E+01  0.39141712430E+02  0.40916220644E+02  0.10566000000E+00 0.  1.
        994    1    1    2    0    0 -0.60879316189E+01  0.63162196826E+01  0.20534710281E+01  0.17143691051E+03  0.17120000000E+03 0.  0.
        998    1    1    2    0    0 -0.46337226486E+01 -0.11106048702E+01  0.14588048128E+04  0.14588468688E+04  0.10000000000E+02 0.  1.
</event>
<event>
 5    1  0.1153629E-008  0.3808875E+03  0.7957747E-01  0.3447303E+00
         13   -1    0    0    0    0  0.00000000000E+00  0.00000000000E+00  0.14999999963E+04  0.15000000000E+04  0.10566000000E+00 0. -1.
        994   -1    0    0    0    0 -0.00000000000E+00 -0.00000000000E+00  0.11368683772E-12  0.17120000000E+03  0.17120000000E+03 0.  0.
         13    1    1    2    0    0 -0.29635536541E+02  0.47178821471E+01  0.14015311139E+03  0.14332979186E+03  0.10566000000E+00 0. -1.
        994    1    1    2    0    0 -0.44190676066E+01  0.10120332964E+01  0.37543234481E+01  0.17130115970E+03  0.17120000000E+03 0.  0.
        998    1    1    2    0    0  0.34054604147E+02 -0.57299154434E+01  0.13560925614E+04  0.13565690484E+04  0.10000000000E+02 0. -1.
</event>
<event>
 5    1  0.1153629E-008  0.3802860E+03  0.7957747E-01  0.3449914E+00
         13   -1    0    0    0    0  0.00000000000E+00  0.00000000000E+00  0.14999999963E+04  0.15000000000E+04  0.10566000000E+00 0.  1.
        994   -1    0    0    0    0 -0.00000000000E+00 -0.00000000000E+00  0.11368683772E-12  0.17120000000E+03  0.17120000000E+03 0.  0.
         13    1    1    2    0    0  0.10312694284E+02 -0.32318866779E+02  0.12775567117E+03  0.13218314376E+03  0.10566000000E+00 0.  1.
        994    1    1    2    0    0 -0.79359293549E+01  0.38836813884E+02  0.92544245016E+01  0.17597261565E+03  0.17120000000E+03 0.  0.
        998    1    1    2    0    0 -0.23767649288E+01 -0.65179471044E+01  0.13629899006E+04  0.13630442406E+04  0.10000000000E+02 0.  1.
</event>
<event>
 5    1  0.1153629E-008  0.2799845E+03  0.7957747E-01  0.4050157E+00
         13   -1    0    0    0    0  0.00000000000E+00  0.00000000000E+00  0.14999999963E+04  0.15000000000E+04  0.10566000000E+00 0.  1.
        994   -1    0    0    0    0 -0.00000000000E+00 -0.00000000000E+00  0.11368683772E-12  0.17120000000E+03  0.17120000000E+03 0.  0.
         13    1    1    2    0    0 -0.95551158238E+02  0.10435385217E+03  0.67159040342E+03  0.68633332385E+03  0.10566000000E+00 0.  1.
        994    1    1    2    0    0  0.34020558120E+02 -0.35697832207E+02  0.29492008583E+02  0.18058502753E+03  0.17120000000E+03 0.  0.
        998    1    1    2    0    0  0.61530600118E+02 -0.68656019965E+02  0.79891758428E+03  0.80428164861E+03  0.10000000000E+02 0.  1.
</event>
<event>
 5    1  0.1153629E-008  0.3717688E+03  0.7957747E-01  0.3487801E+00
         13   -1    0    0    0    0  0.00000000000E+00  0.00000000000E+00  0.14999999963E+04  0.15000000000E+04  0.10566000000E+00 0. -1.
        994   -1    0    0    0    0 -0.00000000000E+00 -0.00000000000E+00  0.11368683772E-12  0.17120000000E+03  0.17120000000E+03 0.  0.
         13    1    1    2    0    0  0.62866326544E+02 -0.89923445544E+02  0.46910516515E+03  0.48176557391E+03  0.10566000000E+00 0. -1.
        994    1    1    2    0    0 -0.46658204823E+02  0.10533095054E+03  0.55436483061E+02  0.21366853038E+03  0.17120000000E+03 0.  0.
        998    1    1    2    0    0 -0.16208121722E+02 -0.15407504997E+02  0.97545834807E+03  0.97576589571E+03  0.10000000000E+02 0. -1.
</event>
<event>
 5    1  0.1153629E-008  0.3707840E+03  0.7957747E-01  0.3492295E+00
         13   -1    0    0    0    0  0.00000000000E+00  0.00000000000E+00  0.14999999963E+04  0.15000000000E+04  0.10566000000E+00 0. -1.
        994   -1    0    0    0    0 -0.00000000000E+00 -0.00000000000E+00  0.11368683772E-12  0.17120000000E+03  0.17120000000E+03 0.  0.
         13    1    1    2    0    0  0.15155071056E+03 -0.55655818273E+02  0.53658758184E+03  0.56034938398E+03  0.10566000000E+00 0. -1.
        994    1    1    2    0    0 -0.19547129557E+03  0.57066794899E+02  0.16903323326E+03  0.31519409960E+03  0.17120000000E+03 0.  0.
        998    1    1    2    0    0  0.43920585009E+02 -0.14109766268E+01  0.79437918117E+03  0.79565651642E+03  0.10000000000E+02 0. -1.
</event>
<event>
 5    1  0.1153629E-008  0.3800692E+03  0.7957747E-01  0.3450857E+00
         13   -1    0    0    0    0  0.00000000000E+00  0.00000000000E+00  0.14999999963E+04  0.15000000000E+04  0.10566000000E+00 0.  1.
        994   -1    0    0    0    0 -0.00000000000E+00 -0.00000000000E+00  0.11368683772E-12  0.17120000000E+03  0.17120000000E+03 0.  0.
         13    1    1    2    0    0  0.11896718300E+02  0.18547757966E+02  0.54173486732E+02  0.58483579410E+02  0.10566000000E+00 0.  1.
        994    1    1    2    0    0 -0.16187890606E+02 -0.25964102100E+02  0.72334083444E+01  0.17406304776E+03  0.17120000000E+03 0.  0.
        998    1    1    2    0    0  0.42911723057E+01  0.74163441338E+01  0.14385931012E+04  0.14386533728E+04  0.10000000000E+02 0.  1.
</event>
<event>
 5    1  0.1153629E-008  0.3802719E+03  0.7957747E-01  0.3449975E+00
         13   -1    0    0    0    0  0.00000000000E+00  0.00000000000E+00  0.14999999963E+04  0.15000000000E+04  0.10566000000E+00 0. -1.
        994   -1    0    0    0    0 -0.00000000000E+00 -0.00000000000E+00  0.11368683772E-12  0.17120000000E+03  0.17120000000E+03 0.  0.
         13    1    1    2    0    0 -0.52935685495E+01  0.19834869772E+02  0.52292812710E+02  0.56178228452E+02  0.10566000000E+00 0. -1.
        994    1    1    2    0    0  0.23734283204E+00 -0.84519809063E+01  0.42347586229E+01  0.17146097367E+03  0.17120000000E+03 0.  0.
        998    1    1    2    0    0  0.50562257175E+01 -0.11382888866E+02  0.14434724249E+04  0.14435607979E+04  0.10000000000E+02 0. -1.
</event>
<event>
 5    1  0.1153629E-008  0.3753207E+03  0.7957747E-01  0.3471790E+00
         13   -1    0    0    0    0  0.00000000000E+00  0.00000000000E+00  0.14999999963E+04  0.15000000000E+04  0.10566000000E+00 0. -1.
        994   -1    0    0    0    0 -0.00000000000E+00 -0.00000000000E+00  0.11368683772E-12  0.17120000000E+03  0.17120000000E+03 0.  0.
         13    1    1    2    0    0 -0.20257797290E+02  0.83263997662E+01  0.33117533415E+02  0.39705030759E+02  0.10566000000E+00 0. -1.
        994    1    1    2    0    0  0.25284939401E+02 -0.71721215857E+01  0.88632135080E+01  0.17343230392E+03  0.17120000000E+03 0.  0.
        998    1    1    2    0    0 -0.50271421111E+01 -0.11542781805E+01  0.14580192494E+04  0.14580626653E+04  0.10000000000E+02 0. -1.
</event>
<event>
 5    1  0.1153629E-008  0.3713683E+03  0.7957747E-01  0.3489626E+00
         13   -1    0    0    0    0  0.00000000000E+00  0.00000000000E+00  0.14999999963E+04  0.15000000000E+04  0.10566000000E+00 0.  1.
        994   -1    0    0    0    0 -0.00000000000E+00 -0.00000000000E+00  0.11368683772E-12  0.17120000000E+03  0.17120000000E+03 0.  0.
         13    1    1    2    0    0  0.13600908531E+02  0.18923696290E+02  0.28616196274E+02  0.36905133076E+02  0.10566000000E+00 0.  1.
        994    1    1    2    0    0 -0.13039202598E+01 -0.11837284576E+02  0.90438272729E+01  0.17185183248E+03  0.17120000000E+03 0.  0.
        998    1    1    2    0    0 -0.12296988271E+02 -0.70864117136E+01  0.14623399727E+04  0.14624430344E+04  0.10000000000E+02 0.  1.
</event>
<event>
 5    1  0.1153629E-008  0.3857116E+03  0.7957747E-01  0.3426660E+00
         13   -1    0    0    0    0  0.00000000000E+00  0.00000000000E+00  0.14999999963E+04  0.15000000000E+04  0.10566000000E+00 0.  1.
        994   -1    0    0    0    0 -0.00000000000E+00 -0.00000000000E+00  0.11368683772E-12  0.17120000000E+03  0.17120000000E+03 0.  0.
         13    1    1    2    0    0 -0.14627078268E+02  0.22368955393E+01  0.85753756678E+02  0.87021107030E+02  0.10566000000E+00 0.  1.
        994    1    1    2    0    0  0.10415795225E+02 -0.11815956980E+01  0.16378583392E+01  0.17152844528E+03  0.17120000000E+03 0.  0.
        998    1    1    2    0    0  0.42112830429E+01 -0.10552998413E+01  0.14126083813E+04  0.14126504477E+04  0.10000000000E+02 0.  1.
</event>
<event>
 5    1  0.1153629E-008  0.3828087E+03  0.7957747E-01  0.3439019E+00
         13   -1    0    0    0    0  0.00000000000E+00  0.00000000000E+00  0.14999999963E+04  0.15000000000E+04  0.10566000000E+00 0.  1.
        994   -1    0    0    0    0 -0.00000000000E+00 -0.00000000000E+00  0.11368683772E-12  0.17120000000E+03  0.17120000000E+03 0.  0.
         13    1    1    2    0    0 -0.16909071170E+02  0.60816088124E+01  0.59367577808E+02  0.62027599602E+02  0.10566000000E+00 0.  1.
        994    1    1    2    0    0  0.13146859973E+02  0.10744296515E+02  0.36774203609E+01  0.17207917729E+03  0.17120000000E+03 0.  0.
        998    1    1    2    0    0  0.37622111962E+01 -0.16825905327E+02  0.14369549981E+04  0.14370932231E+04  0.10000000000E+02 0.  1.
</event>
<event>
 5    1  0.1153629E-008  0.4047220E+03  0.7957747E-01  0.3350106E+00
         13   -1    0    0    0    0  0.00000000000E+00  0.00000000000E+00  0.14999999963E+04  0.15000000000E+04  0.10566000000E+00 0. -1.
        994   -1    0    0    0    0 -0.00000000000E+00 -0.00000000000E+00  0.11368683772E-12  0.17120000000E+03  0.17120000000E+03 0.  0.
         13    1    1    2    0    0  0.14595504767E+02 -0.20341763405E+02 -0.30715095365E+01  0.25224223134E+02  0.10566000000E+00 0. -1.
        994    1    1    2    0    0 -0.21713552580E+01  0.36870594608E+02  0.36095146801E+02  0.17881961624E+03  0.17120000000E+03 0.  0.
        998    1    1    2    0    0 -0.12424149509E+02 -0.16528831203E+02  0.14669763590E+04  0.14671561606E+04  0.10000000000E+02 0. -1.
</event>
<event>
 5    1  0.1153629E-008  0.3742462E+03  0.7957747E-01  0.3476601E+00
         13   -1    0    0    0    0  0.00000000000E+00  0.00000000000E+00  0.14999999963E+04  0.15000000000E+04  0.10566000000E+00 0. -1.
        994   -1    0    0    0    0 -0.00000000000E+00 -0.00000000000E+00  0.11368683772E-12  0.17120000000E+03  0.17120000000E+03 0.  0.
         13    1    1    2    0    0  0.73567694641E+01 -0.88144420519E+01  0.60483175550E+01  0.12977278409E+02  0.10566000000E+00 0. -1.
        994    1    1    2    0    0 -0.76495281487E+01  0.79172819679E+01  0.74794647947E+01  0.17171657179E+03  0.17120000000E+03 0.  0.
        998    1    1    2    0    0  0.29275868462E+00  0.89716008394E+00  0.14864722139E+04  0.14865061498E+04  0.10000000000E+02 0. -1.
</event>
<event>
 5    1  0.1153629E-008  0.3861059E+03  0.7957747E-01  0.3424995E+00
         13   -1    0    0    0    0  0.00000000000E+00  0.00000000000E+00  0.14999999963E+04  0.15000000000E+04  0.10566000000E+00 0. -1.
        994   -1    0    0    0    0 -0.00000000000E+00 -0.00000000000E+00  0.11368683772E-12  0.17120000000E+03  0.17120000000E+03 0.  0.
         13    1    1    2    0    0 -0.25050878930E+01  0.12552736567E+02  0.73763294218E+02  0.74865755847E+02  0.10566000000E+00 0. -1.
        994    1    1    2    0    0  0.41915129111E+01 -0.12684325545E+02  0.16670667339E+01  0.17172850668E+03  0.17120000000E+03 0.  0.
        998    1    1    2    0    0 -0.16864250181E+01  0.13158897800E+00  0.14245696353E+04  0.14246057375E+04  0.10000000000E+02 0. -1.
</event>
<event>
 5    1  0.1153629E-008  0.3703102E+03  0.7957747E-01  0.3494466E+00
         13   -1    0    0    0    0  0.00000000000E+00  0.00000000000E+00  0.14999999963E+04  0.15000000000E+04  0.10566000000E+00 0.  1.
        994   -1    0    0    0    0 -0.00000000000E+00 -0.00000000000E+00  0.11368683772E-12  0.17120000000E+03  0.17120000000E+03 0.  0.
         13    1    1    2    0    0 -0.14091052060E+02 -0.31395925126E+02  0.64604007356E+02  0.73198024517E+02  0.10566000000E+00 0.  1.
        994    1    1    2    0    0  0.64231663748E+01  0.52514957052E+01  0.93447884589E+01  0.17165546989E+03  0.17120000000E+03 0.  0.
        998    1    1    2    0    0  0.76678856854E+01  0.26144429421E+02  0.14260512005E+04  0.14263465056E+04  0.10000000000E+02 0.  1.
</event>
<event>
 5    1  0.1153629E-008  0.3778837E+03  0.7957747E-01  0.3460425E+00
         13   -1    0    0    0    0  0.00000000000E+00  0.00000000000E+00  0.14999999963E+04  0.15000000000E+04  0.10566000000E+00 0. -1.
        994   -1    0    0    0    0 -0.00000000000E+00 -0.00000000000E+00  0.11368683772E-12  0.17120000000E+03  0.17120000000E+03 0.  0.
         13    1    1    2    0    0 -0.30377967224E+02 -0.83253555476E+02  0.40169308599E+03  0.41135303802E+03  0.10566000000E+00 0. -1.
        994    1    1    2    0    0 -0.25967070497E+02 -0.48725919509E+01  0.17683438985E+02  0.17412689315E+03  0.17120000000E+03 0.  0.
        998    1    1    2    0    0  0.56345037721E+02  0.88126147427E+02  0.10806234713E+04  0.10857200688E+04  0.10000000000E+02 0. -1.
</event>
<event>
 5    1  0.1153629E-008  0.3782551E+03  0.7957747E-01  0.3458792E+00
         13   -1    0    0    0    0  0.00000000000E+00  0.00000000000E+00  0.14999999963E+04  0.15000000000E+04  0.10566000000E+00 0.  1.
        994   -1    0    0    0    0 -0.00000000000E+00 -0.00000000000E+00  0.11368683772E-12  0.17120000000E+03  0.17120000000E+03 0.  0.
         13    1    1    2    0    0  0.13219943384E+02 -0.17343200266E+00  0.15905951230E+02  0.20683506238E+02  0.10566000000E+00 0.  1.
        994    1    1    2    0    0  0.81567061900E+01 -0.17907013326E+02  0.63195183433E+01  0.17244294504E+03  0.17120000000E+03 0.  0.
        998    1    1    2    0    0 -0.21376649574E+02  0.18080445328E+02  0.14777745267E+04  0.14780735487E+04  0.10000000000E+02 0.  1.
</event>
<event>
 5    1  0.1153629E-008  0.3822090E+03  0.7957747E-01  0.3441596E+00
         13   -1    0    0    0    0  0.00000000000E+00  0.00000000000E+00  0.14999999963E+04  0.15000000000E+04  0.10566000000E+00 0. -1.
        994   -1    0    0    0    0 -0.00000000000E+00 -0.00000000000E+00  0.11368683772E-12  0.17120000000E+03  0.17120000000E+03 0.  0.
         13    1    1    2    0    0  0.19012056726E+02 -0.20767788406E+02  0.13074363479E+03  0.13374105031E+03  0.10566000000E+00 0. -1.
        994    1    1    2    0    0 -0.13716014608E+02  0.95385835676E+01  0.39490418246E+01  0.17205856144E+03  0.17120000000E+03 0.  0.
        998    1    1    2    0    0 -0.52960421184E+01  0.11229204838E+02  0.13653073197E+04  0.13654003882E+04  0.10000000000E+02 0. -1.
</event>
<event>
 5    1  0.1153629E-008  0.3827159E+03  0.7957747E-01  0.3439417E+00
         13   -1    0    0    0    0  0.00000000000E+00  0.00000000000E+00  0.14999999963E+04  0.15000000000E+04  0.10566000000E+00 0. -1.
        994   -1    0    0    0    0 -0.00000000000E+00 -0.00000000000E+00  0.11368683772E-12  0.17120000000E+03  0.17120000000E+03 0.  0.
         13    1    1    2    0    0 -0.26443750356E+02  0.53673780097E+01  0.14431075521E+03  0.14681173629E+03  0.10566000000E+00 0. -1.
        994    1    1    2    0    0  0.19809370433E+01 -0.59101519383E+01  0.28971385905E+01  0.17133793339E+03  0.17120000000E+03 0.  0.
        998    1    1    2    0    0  0.24462813312E+02  0.54277392858E+00  0.13527921025E+04  0.13530503303E+04  0.10000000000E+02 0. -1.
</event>
<event>
 5    1  0.1153629E-008  0.2159844E+03  0.7957747E-01  0.4769659E+00
         13   -1    0    0    0    0  0.00000000000E+00  0.00000000000E+00  0.14999999963E+04  0.15000000000E+04  0.10566000000E+00 0.  1.
        994   -1    0    0    0    0 -0.00000000000E+00 -0.00000000000E+00  0.11368683772E-12  0.17120000000E+03  0.17120000000E+03 0.  0.
         13    1    1    2    0    0  0.72739962632E+02  0.54370201758E+02  0.24185310652E+02  0.93979579794E+02  0.10566000000E+00 0.  1.
        994    1    1    2    0    0 -0.78184230435E+02 -0.52027321792E+02  0.13741847407E+03  0.23877372786E+03  0.17120000000E+03 0.  0.
        998    1    1    2    0    0  0.54442678034E+01 -0.23428799667E+01  0.13383962116E+04  0.13384466923E+04  0.10000000000E+02 0.  1.
</event>
<event>
 5    1  0.1153629E-008  0.3819533E+03  0.7957747E-01  0.3442697E+00
         13   -1    0    0    0    0  0.00000000000E+00  0.00000000000E+00  0.14999999963E+04  0.15000000000E+04  0.10566000000E+00 0.  1.
        994   -1    0    0    0    0 -0.00000000000E+00 -0.00000000000E+00  0.11368683772E-12  0.17120000000E+03  0.17120000000E+03 0.  0.
         13    1    1    2    0    0 -0.52440319619E+02 -0.95058837816E+01  0.26357622619E+03  0.26891037006E+03  0.10566000000E+00 0.  1.
        994    1    1    2    0    0  0.93845594451E+02 -0.62225955832E+01  0.33110333885E+02  0.19811978827E+03  0.17120000000E+03 0.  0.
        998    1    1    2    0    0 -0.41405274832E+02  0.15728479365E+02  0.12033134362E+04  0.12041698417E+04  0.10000000000E+02 0.  1.
</event>
<event>
 5    1  0.1153629E-008  0.3949198E+03  0.7957747E-01  0.3388661E+00
         13   -1    0    0    0    0  0.00000000000E+00  0.00000000000E+00  0.14999999963E+04  0.15000000000E+04  0.10566000000E+00 0.  1.
        994   -1    0    0    0    0 -0.00000000000E+00 -0.00000000000E+00  0.11368683772E-12  0.17120000000E+03  0.17120000000E+03 0.  0.
         13    1    1    2    0    0 -0.52807419684E+02 -0.61982739488E+02  0.12050940463E+03  0.14544074854E+03  0.10566000000E+00 0.  1.
        994    1    1    2    0    0  0.54298857231E+02  0.47082236465E+02  0.44871003408E+02  0.19101819242E+03  0.17120000000E+03 0.  0.
        998    1    1    2    0    0 -0.14914375468E+01  0.14900503023E+02  0.13346195882E+04  0.13347410590E+04  0.10000000000E+02 0.  1.
</event>
<event>
 5    1  0.1153629E-008  0.3795201E+03  0.7957747E-01  0.3453251E+00
         13   -1    0    0    0    0  0.00000000000E+00  0.00000000000E+00  0.14999999963E+04  0.15000000000E+04  0.10566000000E+00 0.  1.
        994   -1    0    0    0    0 -0.00000000000E+00 -0.00000000000E+00  0.11368683772E-12  0.17120000000E+03  0.17120000000E+03 0.  0.
         13    1    1    2    0    0 -0.15650152957E+02  0.22266372366E+02  0.80986766779E+02  0.85437615740E+02  0.10566000000E+00 0.  1.
        994    1    1    2    0    0  0.12568280376E+03  0.48859543590E+02  0.67881078588E+02  0.22825578413E+03  0.17120000000E+03 0.  0.
        998    1    1    2    0    0 -0.11003265080E+03 -0.71125915956E+02  0.13511321509E+04  0.13575066001E+04  0.10000000000E+02 0.  1.
</event>
<event>
 5    1  0.1153629E-008  0.3851294E+03  0.7957747E-01  0.3429124E+00
         13   -1    0    0    0    0  0.00000000000E+00  0.00000000000E+00  0.14999999963E+04  0.15000000000E+04  0.10566000000E+00 0.  1.
        994   -1    0    0    0    0 -0.00000000000E+00 -0.00000000000E+00  0.11368683772E-12  0.17120000000E+03  0.17120000000E+03 0.  0.
         13    1    1    2    0    0  0.11786268852E+02 -0.99136095370E+01  0.67724590204E+02  0.69453776498E+02  0.10566000000E+00 0.  1.
        994    1    1    2    0    0 -0.92015272423E+01  0.32729880164E+02  0.53749752567E+01  0.17462601043E+03  0.17120000000E+03 0.  0.
        998    1    1    2    0    0 -0.25847416101E+01 -0.22816270627E+02  0.14269004308E+04  0.14271202131E+04  0.10000000000E+02 0.  1.
</event>
<event>
 5    1  0.1153629E-008  0.3843307E+03  0.7957747E-01  0.3432516E+00
         13   -1    0    0    0    0  0.00000000000E+00  0.00000000000E+00  0.14999999963E+04  0.15000000000E+04  0.10566000000E+00 0.  1.
        994   -1    0    0    0    0 -0.00000000000E+00 -0.00000000000E+00  0.11368683772E-12  0.17120000000E+03  0.17120000000E+03 0.  0.
         13    1    1    2    0    0  0.15199173028E+02 -0.80467793499E+01  0.86254535638E+02  0.87952382576E+02  0.10566000000E+00 0.  1.
        994    1    1    2    0    0 -0.18995302008E+01 -0.22045432382E+02  0.35781203550E+01  0.17266109072E+03  0.17120000000E+03 0.  0.
        998    1    1    2    0    0 -0.13299642827E+02  0.30092211732E+02  0.14101673403E+04  0.14105865267E+04  0.10000000000E+02 0.  1.
</event>
<event>
 5    1  0.1153629E-008  0.3746352E+03  0.7957747E-01  0.3474856E+00
         13   -1    0    0    0    0  0.00000000000E+00  0.00000000000E+00  0.14999999963E+04  0.15000000000E+04  0.10566000000E+00 0.  1.
        994   -1    0    0    0    0 -0.00000000000E+00 -0.00000000000E+00  0.11368683772E-12  0.17120000000E+03  0.17120000000E+03 0.  0.
         13    1    1    2    0    0 -0.33738638076E+02 -0.23510326700E+02  0.13006420853E+03  0.13641019267E+03  0.10566000000E+00 0.  1.
        994    1    1    2    0    0  0.75005791452E+01  0.52336712219E+01  0.71509477292E+01  0.17159319933E+03  0.17120000000E+03 0.  0.
        998    1    1    2    0    0  0.26238058930E+02  0.18276655478E+02  0.13627848400E+04  0.13631966080E+04  0.10000000000E+02 0.  1.
</event>
<event>
 5    1  0.1153629E-008  0.3859066E+03  0.7957747E-01  0.3425836E+00
         13   -1    0    0    0    0  0.00000000000E+00  0.00000000000E+00  0.14999999963E+04  0.15000000000E+04  0.10566000000E+00 0. -1.
        994   -1    0    0    0    0 -0.00000000000E+00 -0.00000000000E+00  0.11368683772E-12  0.17120000000E+03  0.17120000000E+03 0.  0.
         13    1    1    2    0    0 -0.12589456729E+02  0.22930338482E+01  0.65894021686E+02  0.67125149407E+02  0.10566000000E+00 0. -1.
        994    1    1    2    0    0  0.16370969151E+02 -0.39835833479E+01  0.21120796049E+01  0.17204004896E+03  0.17120000000E+03 0.  0.
        998    1    1    2    0    0 -0.37815124213E+01  0.16905494997E+01  0.14319938950E+04  0.14320348016E+04  0.10000000000E+02 0. -1.
</event>
<event>
 5    1  0.1153629E-008  0.3770060E+03  0.7957747E-01  0.3464299E+00
         13   -1    0    0    0    0  0.00000000000E+00  0.00000000000E+00  0.14999999963E+04  0.15000000000E+04  0.10566000000E+00 0.  1.
        994   -1    0    0    0    0 -0.00000000000E+00 -0.00000000000E+00  0.11368683772E-12  0.17120000000E+03  0.17120000000E+03 0.  0.
         13    1    1    2    0    0  0.82094113675E+01 -0.46428983330E+02  0.25660205259E+03  0.26089781426E+03  0.10566000000E+00 0.  1.
        994    1    1    2    0    0 -0.19910612584E+01 -0.88907808473E+01  0.59324995162E+01  0.17154487710E+03  0.17120000000E+03 0.  0.
        998    1    1    2    0    0 -0.62183501092E+01  0.55319764177E+02  0.12374654442E+04  0.12387573086E+04  0.10000000000E+02 0.  1.
</event>
<event>
 5    1  0.1153629E-008  0.3848122E+03  0.7957747E-01  0.3430469E+00
         13   -1    0    0    0    0  0.00000000000E+00  0.00000000000E+00  0.14999999963E+04  0.15000000000E+04  0.10566000000E+00 0.  1.
        994   -1    0    0    0    0 -0.00000000000E+00 -0.00000000000E+00  0.11368683772E-12  0.17120000000E+03  0.17120000000E+03 0.  0.
         13    1    1    2    0    0 -0.62946145246E+01 -0.79814494319E+01  0.29579983902E+02  0.31277984569E+02  0.10566000000E+00 0.  1.
        994    1    1    2    0    0  0.32443589895E+01  0.71374949341E+01  0.19257060767E+01  0.17139025072E+03  0.17120000000E+03 0.  0.
        998    1    1    2    0    0  0.30502555352E+01  0.84395449784E+00  0.14684943063E+04  0.14685317647E+04  0.10000000000E+02 0.  1.
</event>
<event>
 5    1  0.1153629E-008  0.3795714E+03  0.7957747E-01  0.3453027E+00
         13   -1    0    0    0    0  0.00000000000E+00  0.00000000000E+00  0.14999999963E+04  0.15000000000E+04  0.10566000000E+00 0.  1.
        994   -1    0    0    0    0 -0.00000000000E+00 -0.00000000000E+00  0.11368683772E-12  0.17120000000E+03  0.17120000000E+03 0.  0.
         13    1    1    2    0    0  0.55485043435E+01 -0.47554787258E+02  0.22928339930E+03  0.23422880277E+03  0.10566000000E+00 0.  1.
        994    1    1    2    0    0 -0.10043702713E+01  0.45108706632E+02  0.11195148903E+02  0.17739948008E+03  0.17120000000E+03 0.  0.
        998    1    1    2    0    0 -0.45441340722E+01  0.24460806257E+01  0.12595214481E+04  0.12595717171E+04  0.10000000000E+02 0.  1.
</event>
<event>
 5    1  0.1153629E-008  0.3833401E+03  0.7957747E-01  0.3436743E+00
         13   -1    0    0    0    0  0.00000000000E+00  0.00000000000E+00  0.14999999963E+04  0.15000000000E+04  0.10566000000E+00 0.  1.
        994   -1    0    0    0    0 -0.00000000000E+00 -0.00000000000E+00  0.11368683772E-12  0.17120000000E+03  0.17120000000E+03 0.  0.
         13    1    1    2    0    0 -0.14733014087E+02 -0.60902314926E+01  0.55922459065E+02  0.58150539255E+02  0.10566000000E+00 0.  1.
        994    1    1    2    0    0 -0.56600019303E+01 -0.69691666631E+01  0.27230488950E+01  0.17145687476E+03  0.17120000000E+03 0.  0.
        998    1    1    2    0    0  0.20393016017E+02  0.13059398156E+02  0.14413544883E+04  0.14415925860E+04  0.10000000000E+02 0.  1.
</event>
<event>
 5    1  0.1153629E-008  0.3854212E+03  0.7957747E-01  0.3427888E+00
         13   -1    0    0    0    0  0.00000000000E+00  0.00000000000E+00  0.14999999963E+04  0.15000000000E+04  0.10566000000E+00 0. -1.
        994   -1    0    0    0    0 -0.00000000000E+00 -0.00000000000E+00  0.11368683772E-12  0.17120000000E+03  0.17120000000E+03 0.  0.
         13    1    1    2    0    0 -0.15374857886E+02  0.24206489956E+00  0.92015119733E+02  0.93291147886E+02  0.10566000000E+00 0. -1.
        994    1    1    2    0    0 -0.17755298552E+01 -0.98796561647E+01  0.17521523704E+01  0.17150297417E+03  0.17120000000E+03 0.  0.
        998    1    1    2    0    0  0.17150387741E+02  0.96375912651E+01  0.14062327242E+04  0.14064058779E+04  0.10000000000E+02 0. -1.
</event>
<event>
 5    1  0.1153629E-008  0.3833515E+03  0.7957747E-01  0.3436694E+00
         13   -1    0    0    0    0  0.00000000000E+00  0.00000000000E+00  0.14999999963E+04  0.15000000000E+04  0.10566000000E+00 0. -1.
        994   -1    0    0    0    0 -0.00000000000E+00 -0.00000000000E+00  0.11368683772E-12  0.17120000000E+03  0.17120000000E+03 0.  0.
         13    1    1    2    0    0 -0.20841001405E+02  0.10003658507E+02  0.10786363739E+03  0.11031317218E+03  0.10566000000E+00 0. -1.
        994    1    1    2    0    0  0.86678891534E+01 -0.16972002014E+02  0.36525320546E+01  0.17229614663E+03  0.17120000000E+03 0.  0.
        998    1    1    2    0    0  0.12173112252E+02  0.69683435078E+01  0.13884838268E+04  0.13885906812E+04  0.10000000000E+02 0. -1.
</event>
<event>
 5    1  0.1153629E-008  0.3826891E+03  0.7957747E-01  0.3439532E+00
         13   -1    0    0    0    0  0.00000000000E+00  0.00000000000E+00  0.14999999963E+04  0.15000000000E+04  0.10566000000E+00 0.  1.
        994   -1    0    0    0    0 -0.00000000000E+00 -0.00000000000E+00  0.11368683772E-12  0.17120000000E+03  0.17120000000E+03 0.  0.
         13    1    1    2    0    0  0.69759719894E+01  0.11110257640E+02  0.29692124318E+02  0.32461291111E+02  0.10566000000E+00 0.  1.
        994    1    1    2    0    0 -0.52210595757E+01 -0.10302427644E+02  0.32239593901E+01  0.17161944352E+03  0.17120000000E+03 0.  0.
        998    1    1    2    0    0 -0.17549124138E+01 -0.80782999647E+00  0.14670839126E+04  0.14671192654E+04  0.10000000000E+02 0.  1.
</event>
<event>
 5    1  0.1153629E-008  0.3752170E+03  0.7957747E-01  0.3472253E+00
         13   -1    0    0    0    0  0.00000000000E+00  0.00000000000E+00  0.14999999963E+04  0.15000000000E+04  0.10566000000E+00 0.  1.
        994   -1    0    0    0    0 -0.00000000000E+00 -0.00000000000E+00  0.11368683772E-12  0.17120000000E+03  0.17120000000E+03 0.  0.
         13    1    1    2    0    0  0.41936934545E+01 -0.14272516734E+02  0.13793002208E+02  0.20286692009E+02  0.10566000000E+00 0.  1.
        994    1    1    2    0    0 -0.61118899849E+01  0.14612266785E+02  0.74199454439E+01  0.17209116517E+03  0.17120000000E+03 0.  0.
        998    1    1    2    0    0  0.19181965304E+01 -0.33975005098E+00  0.14787870486E+04  0.14788221428E+04  0.10000000000E+02 0.  1.
</event>
<event>
 5    1  0.1153629E-008  0.3832822E+03  0.7957747E-01  0.3436990E+00
         13   -1    0    0    0    0  0.00000000000E+00  0.00000000000E+00  0.14999999963E+04  0.15000000000E+04  0.10566000000E+00 0. -1.
        994   -1    0    0    0    0 -0.00000000000E+00 -0.00000000000E+00  0.11368683772E-12  0.17120000000E+03  0.17120000000E+03 0.  0.
         13    1    1    2    0    0  0.13847987015E+02  0.23213781238E+01  0.40362787334E+02  0.42735480647E+02  0.10566000000E+00 0. -1.
        994    1    1    2    0    0  0.15406281295E+00 -0.55853245782E+01  0.25886503851E+01  0.17131071390E+03  0.17120000000E+03 0.  0.
        998    1    1    2    0    0 -0.14002049828E+02  0.32639464544E+01  0.14570485586E+04  0.14571538055E+04  0.10000000000E+02 0. -1.
</event>
<event>
 5    1  0.1153629E-008  0.3743457E+03  0.7957747E-01  0.3476154E+00
         13   -1    0    0    0    0  0.00000000000E+00  0.00000000000E+00  0.14999999963E+04  0.15000000000E+04  0.10566000000E+00 0.  1.
        994   -1    0    0    0    0 -0.00000000000E+00 -0.00000000000E+00  0.11368683772E-12  0.17120000000E+03  0.17120000000E+03 0.  0.
         13    1    1    2    0    0  0.73646440317E+02 -0.57080919591E+01  0.19501881092E+03  0.20853951247E+03  0.10566000000E+00 0.  1.
        994    1    1    2    0    0 -0.55263192612E+02 -0.30691439834E+02  0.27580616284E+02  0.18457008244E+03  0.17120000000E+03 0.  0.
        998    1    1    2    0    0 -0.18383247705E+02  0.36399531793E+02  0.12774005691E+04  0.12780904051E+04  0.10000000000E+02 0.  1.
</event>
<event>
 5    1  0.1153629E-008  0.3717312E+03  0.7957747E-01  0.3487972E+00
         13   -1    0    0    0    0  0.00000000000E+00  0.00000000000E+00  0.14999999963E+04  0.15000000000E+04  0.10566000000E+00 0.  1.
        994   -1    0    0    0    0 -0.00000000000E+00 -0.00000000000E+00  0.11368683772E-12  0.17120000000E+03  0.17120000000E+03 0.  0.
         13    1    1    2    0    0  0.90925653253E+01  0.12842643832E+02  0.11052550899E+02  0.19229620126E+02  0.10566000000E+00 0.  1.
        994    1    1    2    0    0 -0.55344694658E+01 -0.11022890879E+02  0.88900559745E+01  0.17187381293E+03  0.17120000000E+03 0.  0.
        998    1    1    2    0    0 -0.35580958596E+01 -0.18197529532E+01  0.14800573894E+04  0.14800965669E+04  0.10000000000E+02 0.  1.
</event>
<event>
 5    1  0.1153629E-008  0.3717772E+03  0.7957747E-01  0.3487763E+00
         13   -1    0    0    0    0  0.00000000000E+00  0.00000000000E+00  0.14999999963E+04  0.15000000000E+04  0.10566000000E+00 0.  1.
        994   -1    0    0    0    0 -0.00000000000E+00 -0.00000000000E+00  0.11368683772E-12  0.17120000000E+03  0.17120000000E+03 0.  0.
         13    1    1    2    0    0  0.58852583868E+02  0.45777990231E+01  0.14534322861E+03  0.15687335063E+03  0.10566000000E+00 0.  1.
        994    1    1    2    0    0 -0.32602636906E+02  0.61022328395E+01  0.15761717201E+02  0.17509437715E+03  0.17120000000E+03 0.  0.
        998    1    1    2    0    0 -0.26249946962E+02 -0.10680031863E+02  0.13388950505E+04  0.13392322722E+04  0.10000000000E+02 0.  1.
</event>
<event>
 5    1  0.1153629E-008  0.3770014E+03  0.7957747E-01  0.3464320E+00
         13   -1    0    0    0    0  0.00000000000E+00  0.00000000000E+00  0.14999999963E+04  0.15000000000E+04  0.10566000000E+00 0. -1.
        994   -1    0    0    0    0 -0.00000000000E+00 -0.00000000000E+00  0.11368683772E-12  0.17120000000E+03  0.17120000000E+03 0.  0.
         13    1    1    2    0    0 -0.55118417706E+02 -0.40937341806E+02  0.14200463658E+03  0.15773152475E+03  0.10566000000E+00 0. -1.
        994    1    1    2    0    0  0.51555785572E+02  0.44190729996E+02  0.31406503249E+02  0.18683315576E+03  0.17120000000E+03 0.  0.
        998    1    1    2    0    0  0.35626321336E+01 -0.32533881900E+01  0.13265888565E+04  0.13266353195E+04  0.10000000000E+02 0. -1.
</event>
<event>
 5    1  0.1153629E-008  0.3813012E+03  0.7957747E-01  0.3445512E+00
         13   -1    0    0    0    0  0.00000000000E+00  0.00000000000E+00  0.14999999963E+04  0.15000000000E+04  0.10566000000E+00 0.  1.
        994   -1    0    0    0    0 -0.00000000000E+00 -0.00000000000E+00  0.11368683772E-12  0.17120000000E+03  0.17120000000E+03 0.  0.
         13    1    1    2    0    0  0.73318511235E+01 -0.83711607422E+01  0.16158285370E+02  0.19619727908E+02  0.10566000000E+00 0.  1.
        994    1    1    2    0    0 -0.10129551153E+02  0.77663168483E+01  0.40202286623E+01  0.17172223421E+03  0.17120000000E+03 0.  0.
        998    1    1    2    0    0  0.27977000295E+01  0.60484389387E+00  0.14798214822E+04  0.14798580379E+04  0.10000000000E+02 0.  1.
</event>
<event>
 5    1  0.1153629E-008  0.3554740E+03  0.7957747E-01  0.3565435E+00
         13   -1    0    0    0    0  0.00000000000E+00  0.00000000000E+00  0.14999999963E+04  0.15000000000E+04  0.10566000000E+00 0. -1.
        994   -1    0    0    0    0 -0.00000000000E+00 -0.00000000000E+00  0.11368683772E-12  0.17120000000E+03  0.17120000000E+03 0.  0.
         13    1    1    2    0    0 -0.18571416547E+03 -0.21293104151E+03  0.80329531414E+03  0.85153552632E+03  0.10566000000E+00 0. -1.
        994    1    1    2    0    0  0.18795768241E+03  0.22838135740E+03  0.41613544452E+03  0.53848331726E+03  0.17120000000E+03 0.  0.
        998    1    1    2    0    0 -0.22435169347E+01 -0.15450315893E+02  0.28056923762E+03  0.28118115642E+03  0.10000000000E+02 0. -1.
</event>
<event>
 5    1  0.1153629E-008  0.3794561E+03  0.7957747E-01  0.3453530E+00
         13   -1    0    0    0    0  0.00000000000E+00  0.00000000000E+00  0.14999999963E+04  0.15000000000E+04  0.10566000000E+00 0.  1.
        994   -1    0    0    0    0 -0.00000000000E+00 -0.00000000000E+00  0.11368683772E-12  0.17120000000E+03  0.17120000000E+03 0.  0.
         13    1    1    2    0    0 -0.20709075164E+02  0.40844484935E+02  0.19377583405E+03  0.19911359263E+03  0.10566000000E+00 0.  1.
        994    1    1    2    0    0 -0.27028947671E+02 -0.81231834199E+02  0.29357457000E+02  0.19365039422E+03  0.17120000000E+03 0.  0.
        998    1    1    2    0    0  0.47738022835E+02  0.40387349264E+02  0.12768667052E+04  0.12784360132E+04  0.10000000000E+02 0.  1.
</event>
<event>
 5    1  0.1153629E-008  0.3844469E+03  0.7957747E-01  0.3432021E+00
         13   -1    0    0    0    0  0.00000000000E+00  0.00000000000E+00  0.14999999963E+04  0.15000000000E+04  0.10566000000E+00 0.  1.
        994   -1    0    0    0    0 -0.00000000000E+00 -0.00000000000E+00  0.11368683772E-12  0.17120000000E+03  0.17120000000E+03 0.  0.
         13    1    1    2    0    0 -0.22758645309E+01 -0.10956644710E+02  0.32224819640E+02  0.34112721784E+02  0.10566000000E+00 0.  1.
        994    1    1    2    0    0  0.13374318743E+01  0.91741712938E+01  0.21882123301E+01  0.17146481393E+03  0.17120000000E+03 0.  0.
        998    1    1    2    0    0  0.93843265662E+00  0.17824734159E+01  0.14655869643E+04  0.14656224643E+04  0.10000000000E+02 0.  1.
</event>
<event>
 5    1  0.1153629E-008  0.3717557E+03  0.7957747E-01  0.3487861E+00
         13   -1    0    0    0    0  0.00000000000E+00  0.00000000000E+00  0.14999999963E+04  0.15000000000E+04  0.10566000000E+00 0. -1.
        994   -1    0    0    0    0 -0.00000000000E+00 -0.00000000000E+00  0.11368683772E-12  0.17120000000E+03  0.17120000000E+03 0.  0.
         13    1    1    2    0    0  0.16333230048E+02  0.27668840586E+02  0.57172237199E+02  0.65582124192E+02  0.10566000000E+00 0. -1.
        994    1    1    2    0    0 -0.13308323114E+02 -0.25871923988E+02  0.11268951667E+02  0.17401981837E+03  0.17120000000E+03 0.  0.
        998    1    1    2    0    0 -0.30249069339E+01 -0.17969165978E+01  0.14315588074E+04  0.14315980574E+04  0.10000000000E+02 0. -1.
</event>
<event>
 5    1  0.1153629E-008  0.3802557E+03  0.7957747E-01  0.3450046E+00
         13   -1    0    0    0    0  0.00000000000E+00  0.00000000000E+00  0.14999999963E+04  0.15000000000E+04  0.10566000000E+00 0. -1.
        994   -1    0    0    0    0 -0.00000000000E+00 -0.00000000000E+00  0.11368683772E-12  0.17120000000E+03  0.17120000000E+03 0.  0.
         13    1    1    2    0    0  0.25280723712E+02  0.17047495831E+02  0.11171474385E+03  0.11580124034E+03  0.10566000000E+00 0. -1.
        994    1    1    2    0    0 -0.14848146481E+02 -0.19593402714E+02  0.60253906139E+01  0.17306101299E+03  0.17120000000E+03 0.  0.
        998    1    1    2    0    0 -0.10432577231E+02  0.25459068832E+01  0.13822598618E+04  0.13823377467E+04  0.10000000000E+02 0. -1.
</event>
<event>
 5    1  0.1153629E-008  0.3765762E+03  0.7957747E-01  0.3466203E+00
         13   -1    0    0    0    0  0.00000000000E+00  0.00000000000E+00  0.14999999963E+04  0.15000000000E+04  0.10566000000E+00 0. -1.
        994   -1    0    0    0    0 -0.00000000000E+00 -0.00000000000E+00  0.11368683772E-12  0.17120000000E+03  0.17120000000E+03 0.  0.
         13    1    1    2    0    0 -0.11174710528E+02  0.16549080739E+02  0.32096815545E+02  0.37801626431E+02  0.10566000000E+00 0. -1.
        994    1    1    2    0    0  0.11427747476E+01 -0.84325520913E+01  0.61164148949E+01  0.17152044893E+03  0.17120000000E+03 0.  0.
        998    1    1    2    0    0  0.10031935781E+02 -0.81165286480E+01  0.14617867658E+04  0.14618779246E+04  0.10000000000E+02 0. -1.
</event>
<event>
 5    1  0.1153629E-008  0.3916606E+03  0.7957747E-01  0.3401906E+00
         13   -1    0    0    0    0  0.00000000000E+00  0.00000000000E+00  0.14999999963E+04  0.15000000000E+04  0.10566000000E+00 0. -1.
        994   -1    0    0    0    0 -0.00000000000E+00 -0.00000000000E+00  0.11368683772E-12  0.17120000000E+03  0.17120000000E+03 0.  0.
         13    1    1    2    0    0 -0.19902337839E+02 -0.58812648768E+01 -0.77762941608E+00  0.20767960891E+02  0.10566000000E+00 0. -1.
        994    1    1    2    0    0  0.22630919785E+02  0.71728450818E+01  0.25022711455E+02  0.17464015668E+03  0.17120000000E+03 0.  0.
        998    1    1    2    0    0 -0.27285819461E+01 -0.12915802050E+01  0.14757549142E+04  0.14757918824E+04  0.10000000000E+02 0. -1.
</event>
<event>
 5    1  0.1153629E-008  0.3825112E+03  0.7957747E-01  0.3440297E+00
         13   -1    0    0    0    0  0.00000000000E+00  0.00000000000E+00  0.14999999963E+04  0.15000000000E+04  0.10566000000E+00 0. -1.
        994   -1    0    0    0    0 -0.00000000000E+00 -0.00000000000E+00  0.11368683772E-12  0.17120000000E+03  0.17120000000E+03 0.  0.
         13    1    1    2    0    0  0.16022303141E+02 -0.71439463630E+01  0.54046732598E+02  0.56822624334E+02  0.10566000000E+00 0. -1.
        994    1    1    2    0    0 -0.45899460511E+01  0.39706405483E+01  0.29929993839E+01  0.17133368506E+03  0.17120000000E+03 0.  0.
        998    1    1    2    0    0 -0.11432357090E+02  0.31733058147E+01  0.14429602643E+04  0.14430436906E+04  0.10000000000E+02 0. -1.
</event>
<event>
 5    1  0.1153629E-008  0.3798800E+03  0.7957747E-01  0.3451681E+00
         13   -1    0    0    0    0  0.00000000000E+00  0.00000000000E+00  0.14999999963E+04  0.15000000000E+04  0.10566000000E+00 0. -1.
        994   -1    0    0    0    0 -0.00000000000E+00 -0.00000000000E+00  0.11368683772E-12  0.17120000000E+03  0.17120000000E+03 0.  0.
         13    1    1    2    0    0  0.12416370074E+02  0.41105015225E+01  0.18344865334E+02  0.22530151281E+02  0.10566000000E+00 0. -1.
        994    1    1    2    0    0 -0.16229319605E+02  0.10344299211E+01  0.50786446136E+01  0.17204561457E+03  0.17120000000E+03 0.  0.
        998    1    1    2    0    0  0.38129495311E+01 -0.51449314436E+01  0.14765764863E+04  0.14766242342E+04  0.10000000000E+02 0. -1.
</event>
<event>
 5    1  0.1153629E-008  0.3767718E+03  0.7957747E-01  0.3465336E+00
         13   -1    0    0    0    0  0.00000000000E+00  0.00000000000E+00  0.14999999963E+04  0.15000000000E+04  0.10566000000E+00 0.  1.
        994   -1    0    0    0    0 -0.00000000000E+00 -0.00000000000E+00  0.11368683772E-12  0.17120000000E+03  0.17120000000E+03 0.  0.
         13    1    1    2    0    0 -0.40738873016E+02 -0.25357504404E+02  0.18002589647E+03  0.18631154921E+03  0.10566000000E+00 0.  1.
        994    1    1    2    0    0  0.37294751870E+02  0.22369054925E+02  0.12189132086E+02  0.17705730167E+03  0.17120000000E+03 0.  0.
        998    1    1    2    0    0  0.34441211458E+01  0.29884494797E+01  0.13077849677E+04  0.13078311491E+04  0.10000000000E+02 0.  1.
</event>
<event>
 5    1  0.1153629E-008  0.3699675E+03  0.7957747E-01  0.3496040E+00
         13   -1    0    0    0    0  0.00000000000E+00  0.00000000000E+00  0.14999999963E+04  0.15000000000E+04  0.10566000000E+00 0.  1.
        994   -1    0    0    0    0 -0.00000000000E+00 -0.00000000000E+00  0.11368683772E-12  0.17120000000E+03  0.17120000000E+03 0.  0.
         13    1    1    2    0    0  0.19499085646E+01 -0.34912551869E+02  0.49660891300E+02  0.60736345874E+02  0.10566000000E+00 0.  1.
        994    1    1    2    0    0 -0.21612628610E+02  0.37506819750E+02  0.17500634225E+02  0.17745303447E+03  0.17120000000E+03 0.  0.
        998    1    1    2    0    0  0.19662720046E+02 -0.25942678810E+01  0.14328384708E+04  0.14330106197E+04  0.10000000000E+02 0.  1.
</event>
<event>
 5    1  0.1153629E-008  0.3758626E+03  0.7957747E-01  0.3469374E+00
         13   -1    0    0    0    0  0.00000000000E+00  0.00000000000E+00  0.14999999963E+04  0.15000000000E+04  0.10566000000E+00 0. -1.
        994   -1    0    0    0    0 -0.00000000000E+00 -0.00000000000E+00  0.11368683772E-12  0.17120000000E+03  0.17120000000E+03 0.  0.
         13    1    1    2    0    0 -0.31668214872E+02  0.40546637214E+02  0.21977388429E+03  0.22571547799E+03  0.10566000000E+00 0. -1.
        994    1    1    2    0    0 -0.21547926738E+02 -0.49172532212E+02  0.16068646179E+02  0.18013853686E+03  0.17120000000E+03 0.  0.
        998    1    1    2    0    0  0.53216141610E+02  0.86258949977E+01  0.12641574658E+04  0.12653459852E+04  0.10000000000E+02 0. -1.
</event>
<event>
 5    1  0.1153629E-008  0.3850556E+03  0.7957747E-01  0.3429436E+00
         13   -1    0    0    0    0  0.00000000000E+00  0.00000000000E+00  0.14999999963E+04  0.15000000000E+04  0.10566000000E+00 0.  1.
        994   -1    0    0    0    0 -0.00000000000E+00 -0.00000000000E+00  0.11368683772E-12  0.17120000000E+03  0.17120000000E+03 0.  0.
         13    1    1    2    0    0  0.41419134646E+01 -0.97800221248E+01  0.35106322093E+02  0.36677912902E+02  0.10566000000E+00 0.  1.
        994    1    1    2    0    0  0.16484363446E+01  0.81200628335E+01  0.18282991219E+01  0.17141013809E+03  0.17120000000E+03 0.  0.
        998    1    1    2    0    0 -0.57903498092E+01  0.16599592913E+01  0.14630653751E+04  0.14631119490E+04  0.10000000000E+02 0.  1.
</event>
<event>
 5    1  0.1153629E-008  0.3918131E+03  0.7957747E-01  0.3401281E+00
         13   -1    0    0    0    0  0.00000000000E+00  0.00000000000E+00  0.14999999963E+04  0.15000000000E+04  0.10566000000E+00 0.  1.
        994   -1    0    0    0    0 -0.00000000000E+00 -0.00000000000E+00  0.11368683772E-12  0.17120000000E+03  0.17120000000E+03 0.  0.
         13    1    1    2    0    0 -0.84547447258E+02  0.13879153815E+02  0.20503785280E+03  0.22221933758E+03  0.10566000000E+00 0.  1.
        994    1    1    2    0    0 -0.14813989348E+02  0.30841834150E+02  0.27421416558E+02  0.17672590953E+03  0.17120000000E+03 0.  0.
        998    1    1    2    0    0  0.99361436606E+02 -0.44720987965E+02  0.12675407269E+04  0.12722547529E+04  0.10000000000E+02 0.  1.
</event>
<event>
 5    1  0.1153629E-008  0.3725895E+03  0.7957747E-01  0.3484074E+00
         13   -1    0    0    0    0  0.00000000000E+00  0.00000000000E+00  0.14999999963E+04  0.15000000000E+04  0.10566000000E+00 0.  1.
        994   -1    0    0    0    0 -0.00000000000E+00 -0.00000000000E+00  0.11368683772E-12  0.17120000000E+03  0.17120000000E+03 0.  0.
         13    1    1    2    0    0 -0.17920904507E+02  0.12177689188E+02  0.25165807051E+02  0.33208190871E+02  0.10566000000E+00 0.  1.
        994    1    1    2    0    0  0.23252142344E+02 -0.24268920220E+02  0.11803019103E+02  0.17486678893E+03  0.17120000000E+03 0.  0.
        998    1    1    2    0    0 -0.53312378370E+01  0.12091231032E+02  0.14630311701E+04  0.14631250202E+04  0.10000000000E+02 0.  1.
</event>
<event>
 5    1  0.1153629E-008  0.3855526E+03  0.7957747E-01  0.3427332E+00
         13   -1    0    0    0    0  0.00000000000E+00  0.00000000000E+00  0.14999999963E+04  0.15000000000E+04  0.10566000000E+00 0. -1.
        994   -1    0    0    0    0 -0.00000000000E+00 -0.00000000000E+00  0.11368683772E-12  0.17120000000E+03  0.17120000000E+03 0.  0.
         13    1    1    2    0    0  0.13436515350E+02  0.37491326143E+01  0.65401105203E+02  0.66872353525E+02  0.10566000000E+00 0. -1.
        994    1    1    2    0    0 -0.22735593313E+02 -0.65384844907E+01  0.31954239495E+01  0.17285632681E+03  0.17120000000E+03 0.  0.
        998    1    1    2    0    0  0.92990779631E+01  0.27893518764E+01  0.14314034671E+04  0.14314713197E+04  0.10000000000E+02 0. -1.
</event>
<event>
 5    1  0.1153629E-008  0.3814585E+03  0.7957747E-01  0.3444832E+00
         13   -1    0    0    0    0  0.00000000000E+00  0.00000000000E+00  0.14999999963E+04  0.15000000000E+04  0.10566000000E+00 0.  1.
        994   -1    0    0    0    0 -0.00000000000E+00 -0.00000000000E+00  0.11368683772E-12  0.17120000000E+03  0.17120000000E+03 0.  0.
         13    1    1    2    0    0  0.10292300790E+02 -0.91580967279E+01  0.25951653138E+02  0.29381995437E+02  0.10566000000E+00 0.  1.
        994    1    1    2    0    0 -0.13702101006E+02  0.10873946687E+02  0.44173445954E+01  0.17214802706E+03  0.17120000000E+03 0.  0.
        998    1    1    2    0    0  0.34098002157E+01 -0.17158499590E+01  0.14696309985E+04  0.14696699775E+04  0.10000000000E+02 0.  1.
</event>
<event>
 5    1  0.1153629E-008  0.3757971E+03  0.7957747E-01  0.3469665E+00
         13   -1    0    0    0    0  0.00000000000E+00  0.00000000000E+00  0.14999999963E+04  0.15000000000E+04  0.10566000000E+00 0.  1.
        994   -1    0    0    0    0 -0.00000000000E+00 -0.00000000000E+00  0.11368683772E-12  0.17120000000E+03  0.17120000000E+03 0.  0.
         13    1    1    2    0    0 -0.41919827561E+02  0.18796284015E+02  0.15636748329E+03  0.16297660332E+03  0.10566000000E+00 0.  1.
        994    1    1    2    0    0  0.33004628466E+02 -0.20222679303E+02  0.11366095386E+02  0.17588885804E+03  0.17120000000E+03 0.  0.
        998    1    1    2    0    0  0.89151990952E+01  0.14263952880E+01  0.13322664176E+04  0.13323345386E+04  0.10000000000E+02 0.  1.
</event>
<event>
 5    1  0.1153629E-008  0.3806715E+03  0.7957747E-01  0.3448240E+00
         13   -1    0    0    0    0  0.00000000000E+00  0.00000000000E+00  0.14999999963E+04  0.15000000000E+04  0.10566000000E+00 0.  1.
        994   -1    0    0    0    0 -0.00000000000E+00 -0.00000000000E+00  0.11368683772E-12  0.17120000000E+03  0.17120000000E+03 0.  0.
         13    1    1    2    0    0 -0.15575290383E+02 -0.52570823147E+01  0.34660505673E+02  0.38361287811E+02  0.10566000000E+00 0.  1.
        994    1    1    2    0    0  0.33235978396E+01  0.11002036332E+02  0.42352651688E+01  0.17163760828E+03  0.17120000000E+03 0.  0.
        998    1    1    2    0    0  0.12251692543E+02 -0.57449540174E+01  0.14611042254E+04  0.14612011039E+04  0.10000000000E+02 0.  1.
</event>
<event>
 5    1  0.1153629E-008  0.3822709E+03  0.7957747E-01  0.3441330E+00
         13   -1    0    0    0    0  0.00000000000E+00  0.00000000000E+00  0.14999999963E+04  0.15000000000E+04  0.10566000000E+00 0. -1.
        994   -1    0    0    0    0 -0.00000000000E+00 -0.00000000000E+00  0.11368683772E-12  0.17120000000E+03  0.17120000000E+03 0.  0.
         13    1    1    2    0    0 -0.12198707605E+02  0.24751434320E+01  0.23924155231E+02  0.26968707233E+02  0.10566000000E+00 0. -1.
        994    1    1    2    0    0  0.19946341862E+02 -0.34015462817E+00  0.43127937622E+01  0.17241233265E+03  0.17120000000E+03 0.  0.
        998    1    1    2    0    0 -0.77476342564E+01 -0.21349888038E+01  0.14717630473E+04  0.14718189601E+04  0.10000000000E+02 0. -1.
</event>
<event>
 5    1  0.1153629E-008  0.3695060E+03  0.7957747E-01  0.3498164E+00
         13   -1    0    0    0    0  0.00000000000E+00  0.00000000000E+00  0.14999999963E+04  0.15000000000E+04  0.10566000000E+00 0.  1.
        994   -1    0    0    0    0 -0.00000000000E+00 -0.00000000000E+00  0.11368683772E-12  0.17120000000E+03  0.17120000000E+03 0.  0.
         13    1    1    2    0    0  0.17939588923E+02 -0.57078392973E+01  0.14278923452E+02  0.23628523000E+02  0.10566000000E+00 0.  1.
        994    1    1    2    0    0 -0.16906123686E+02  0.77061376759E+01  0.10724035557E+02  0.17253882611E+03  0.17120000000E+03 0.  0.
        998    1    1    2    0    0 -0.10334652373E+01 -0.19982983786E+01  0.14749970373E+04  0.14750326509E+04  0.10000000000E+02 0.  1.
</event>
<event>
 5    1  0.1153629E-008  0.3818235E+03  0.7957747E-01  0.3443257E+00
         13   -1    0    0    0    0  0.00000000000E+00  0.00000000000E+00  0.14999999963E+04  0.15000000000E+04  0.10566000000E+00 0. -1.
        994   -1    0    0    0    0 -0.00000000000E+00 -0.00000000000E+00  0.11368683772E-12  0.17120000000E+03  0.17120000000E+03 0.  0.
         13    1    1    2    0    0 -0.11156630583E+02 -0.69533780096E+01  0.24798835084E+02  0.28068011281E+02  0.10566000000E+00 0. -1.
        994    1    1    2    0    0  0.19500404618E+02  0.60053711335E+01  0.46001344436E+01  0.17247298774E+03  0.17120000000E+03 0.  0.
        998    1    1    2    0    0 -0.83437740350E+01  0.94800687608E+00  0.14706010268E+04  0.14706590010E+04  0.10000000000E+02 0. -1.
</event>
<event>
 5    1  0.1153629E-008  0.3825417E+03  0.7957747E-01  0.3440166E+00
         13   -1    0    0    0    0  0.00000000000E+00  0.00000000000E+00  0.14999999963E+04  0.15000000000E+04  0.10566000000E+00 0.  1.
        994   -1    0    0    0    0 -0.00000000000E+00 -0.00000000000E+00  0.11368683772E-12  0.17120000000E+03  0.17120000000E+03 0.  0.
         13    1    1    2    0    0 -0.26252067370E+02 -0.13421686033E+02  0.15800993432E+02  0.33451386439E+02  0.10566000000E+00 0.  1.
        994    1    1    2    0    0  0.54908508097E+02  0.79313213771E+01  0.29075567873E+02  0.18229832355E+03  0.17120000000E+03 0.  0.
        998    1    1    2    0    0 -0.28656440727E+02  0.54903646556E+01  0.14551234350E+04  0.14554502900E+04  0.10000000000E+02 0.  1.
</event>
<event>
 5    1  0.1495390E-008  0.3848015E+03  0.7957747E-01  0.3430514E+00
         13   -1    0    0    0    0  0.00000000000E+00  0.00000000000E+00  0.14999999963E+04  0.15000000000E+04  0.10566000000E+00 0. -1.
        994   -1    0    0    0    0 -0.00000000000E+00 -0.00000000000E+00  0.11368683772E-12  0.17120000000E+03  0.17120000000E+03 0.  0.
         13    1    1    2    0    0  0.52316685048E+01 -0.90266478044E+01  0.31393095267E+02  0.33081540478E+02  0.10566000000E+00 0. -1.
        994    1    1    2    0    0 -0.11542217538E+01  0.57969533122E+01  0.18436788824E+01  0.17131192617E+03  0.17120000000E+03 0.  0.
        998    1    1    2    0    0 -0.40774467511E+01  0.32296944923E+01  0.14667632221E+04  0.14668065334E+04  0.10000000000E+02 0. -1.
</event>
<event>
 5    1  0.1153629E-008  0.3847802E+03  0.7957747E-01  0.3430605E+00
         13   -1    0    0    0    0  0.00000000000E+00  0.00000000000E+00  0.14999999963E+04  0.15000000000E+04  0.10566000000E+00 0.  1.
        994   -1    0    0    0    0 -0.00000000000E+00 -0.00000000000E+00  0.11368683772E-12  0.17120000000E+03  0.17120000000E+03 0.  0.
         13    1    1    2    0    0 -0.13460649312E+01  0.13631524802E+02  0.58888773168E+02  0.60460971944E+02  0.10566000000E+00 0.  1.
        994    1    1    2    0    0  0.77672527560E+01  0.68133981167E+01  0.20907266031E+01  0.17152423662E+03  0.17120000000E+03 0.  0.
        998    1    1    2    0    0 -0.64211878248E+01 -0.20444922919E+02  0.14390204965E+04  0.14392147914E+04  0.10000000000E+02 0.  1.
</event>
<event>
 5    1  0.1153629E-008  0.3856647E+03  0.7957747E-01  0.3426858E+00
         13   -1    0    0    0    0  0.00000000000E+00  0.00000000000E+00  0.14999999963E+04  0.15000000000E+04  0.10566000000E+00 0.  1.
        994   -1    0    0    0    0 -0.00000000000E+00 -0.00000000000E+00  0.11368683772E-12  0.17120000000E+03  0.17120000000E+03 0.  0.
         13    1    1    2    0    0  0.12220027803E+02  0.28030074601E+01  0.60601263652E+02  0.61884652787E+02  0.10566000000E+00 0.  1.
        994    1    1    2    0    0 -0.94126293665E+01  0.87860445033E+00  0.15938325206E+01  0.17146821816E+03  0.17120000000E+03 0.  0.
        998    1    1    2    0    0 -0.28073984367E+01 -0.36816119104E+01  0.14378049001E+04  0.14378471291E+04  0.10000000000E+02 0.  1.
</event>
<event>
 5    1  0.1153629E-008  0.3803678E+03  0.7957747E-01  0.3449558E+00
         13   -1    0    0    0    0  0.00000000000E+00  0.00000000000E+00  0.14999999963E+04  0.15000000000E+04  0.10566000000E+00 0.  1.
        994   -1    0    0    0    0 -0.00000000000E+00 -0.00000000000E+00  0.11368683772E-12  0.17120000000E+03  0.17120000000E+03 0.  0.
         13    1    1    2    0    0  0.91634246694E+01 -0.76888770053E+01  0.16579368678E+02  0.20444407819E+02  0.10566000000E+00 0.  1.
        994    1    1    2    0    0 -0.53602520358E+01  0.22656986691E+01  0.40606628400E+01  0.17134700078E+03  0.17120000000E+03 0.  0.
        998    1    1    2    0    0 -0.38031726336E+01  0.54231783363E+01  0.14793599648E+04  0.14794085914E+04  0.10000000000E+02 0.  1.
</event>
<event>
 5    1  0.1153629E-008  0.3848887E+03  0.7957747E-01  0.3430145E+00
         13   -1    0    0    0    0  0.00000000000E+00  0.00000000000E+00  0.14999999963E+04  0.15000000000E+04  0.10566000000E+00 0. -1.
        994   -1    0    0    0    0 -0.00000000000E+00 -0.00000000000E+00  0.11368683772E-12  0.17120000000E+03  0.17120000000E+03 0.  0.
         13    1    1    2    0    0  0.71982112080E+01  0.14230403732E+02  0.71049394472E+02  0.72817211247E+02  0.10566000000E+00 0. -1.
        994    1    1    2    0    0 -0.16111098979E+02 -0.13994642301E+02  0.31851048746E+01  0.17255434627E+03  0.17120000000E+03 0.  0.
        998    1    1    2    0    0  0.89128877711E+01 -0.23576143066E+00  0.14257654969E+04  0.14258284425E+04  0.10000000000E+02 0. -1.
</event>
<event>
 5    1  0.1153629E-008  0.3787433E+03  0.7957747E-01  0.3456649E+00
         13   -1    0    0    0    0  0.00000000000E+00  0.00000000000E+00  0.14999999963E+04  0.15000000000E+04  0.10566000000E+00 0.  1.
        994   -1    0    0    0    0 -0.00000000000E+00 -0.00000000000E+00  0.11368683772E-12  0.17120000000E+03  0.17120000000E+03 0.  0.
         13    1    1    2    0    0  0.57711924352E+01 -0.17352063969E+03  0.10227919107E+04  0.10374227792E+04  0.10566000000E+00 0.  1.
        994    1    1    2    0    0 -0.32495174299E+00  0.16632155057E+03  0.10406001069E+03  0.26038603957E+03  0.17120000000E+03 0.  0.
        998    1    1    2    0    0 -0.54462406922E+01  0.71990891232E+01  0.37314807491E+03  0.37339118124E+03  0.10000000000E+02 0.  0.
</event>
<event>
 5    1  0.1153629E-008  0.3764371E+03  0.7957747E-01  0.3466820E+00
         13   -1    0    0    0    0  0.00000000000E+00  0.00000000000E+00  0.14999999963E+04  0.15000000000E+04  0.10566000000E+00 0.  1.
        994   -1    0    0    0    0 -0.00000000000E+00 -0.00000000000E+00  0.11368683772E-12  0.17120000000E+03  0.17120000000E+03 0.  0.
         13    1    1    2    0    0 -0.11567164638E+02  0.14353936539E+02  0.25908695512E+02  0.31797900231E+02  0.10566000000E+00 0.  1.
        994    1    1    2    0    0  0.88437252890E+01 -0.13124379877E+02  0.67902865576E+01  0.17206396722E+03  0.17120000000E+03 0.  0.
        998    1    1    2    0    0  0.27234393488E+01 -0.12295566624E+01  0.14673010142E+04  0.14673381325E+04  0.10000000000E+02 0.  1.
</event>
<event>
 5    1  0.1153629E-008  0.3806412E+03  0.7957747E-01  0.3448371E+00
         13   -1    0    0    0    0  0.00000000000E+00  0.00000000000E+00  0.14999999963E+04  0.15000000000E+04  0.10566000000E+00 0. -1.
        994   -1    0    0    0    0 -0.00000000000E+00 -0.00000000000E+00  0.11368683772E-12  0.17120000000E+03  0.17120000000E+03 0.  0.
         13    1    1    2    0    0  0.11179309965E+02  0.45648969889E+01  0.17357077508E+02  0.21144610648E+02  0.10566000000E+00 0. -1.
        994    1    1    2    0    0 -0.11521090831E+02 -0.50268550842E+01  0.43370860411E+01  0.17171562282E+03  0.17120000000E+03 0.  0.
        998    1    1    2    0    0  0.34178086625E+00  0.46195809533E+00  0.14783058327E+04  0.14783397665E+04  0.10000000000E+02 0. -1.
</event>
<event>
 5    1  0.1153629E-008  0.3844120E+03  0.7957747E-01  0.3432170E+00
         13   -1    0    0    0    0  0.00000000000E+00  0.00000000000E+00  0.14999999963E+04  0.15000000000E+04  0.10566000000E+00 0.  1.
        994   -1    0    0    0    0 -0.00000000000E+00 -0.00000000000E+00  0.11368683772E-12  0.17120000000E+03  0.17120000000E+03 0.  0.
         13    1    1    2    0    0 -0.17294141419E+02 -0.12205650820E+02  0.10831930802E+03  0.11036824223E+03  0.10566000000E+00 0.  1.
        994    1    1    2    0    0  0.20754933581E+02  0.10015074769E+02  0.36741204452E+01  0.17278312461E+03  0.17120000000E+03 0.  0.
        998    1    1    2    0    0 -0.34607921617E+01  0.21905760510E+01  0.13880065678E+04  0.13880486332E+04  0.10000000000E+02 0.  1.
</event>
<event>
 5    1  0.1153629E-008  0.3779488E+03  0.7957747E-01  0.3460139E+00
         13   -1    0    0    0    0  0.00000000000E+00  0.00000000000E+00  0.14999999963E+04  0.15000000000E+04  0.10566000000E+00 0. -1.
        994   -1    0    0    0    0 -0.00000000000E+00 -0.00000000000E+00  0.11368683772E-12  0.17120000000E+03  0.17120000000E+03 0.  0.
         13    1    1    2    0    0  0.79960998997E+02 -0.10154094130E+03  0.67713320213E+03  0.68935746077E+03  0.10566000000E+00 0. -1.
        994    1    1    2    0    0 -0.13231570880E+03  0.87453291464E+02  0.95131240596E+02  0.25202166161E+03  0.17120000000E+03 0.  0.
        998    1    1    2    0    0  0.52354709800E+02  0.14087649838E+02  0.72773555355E+03  0.72982087763E+03  0.10000000000E+02 0. -1.
</event>
<event>
 5    1  0.1153629E-008  0.3828343E+03  0.7957747E-01  0.3438910E+00
         13   -1    0    0    0    0  0.00000000000E+00  0.00000000000E+00  0.14999999963E+04  0.15000000000E+04  0.10566000000E+00 0. -1.
        994   -1    0    0    0    0 -0.00000000000E+00 -0.00000000000E+00  0.11368683772E-12  0.17120000000E+03  0.17120000000E+03 0.  0.
         13    1    1    2    0    0 -0.14112378212E+02  0.21664822121E+02  0.11371847903E+03  0.11662087023E+03  0.10566000000E+00 0. -1.
        994    1    1    2    0    0  0.34585391199E+02 -0.10730048925E+02  0.70642304779E+01  0.17513031316E+03  0.17120000000E+03 0.  0.
        998    1    1    2    0    0 -0.20473012987E+02 -0.10934773196E+02  0.13792172868E+04  0.13794488166E+04  0.10000000000E+02 0. -1.
</event>
<event>
 5    1  0.1153629E-008  0.3827194E+03  0.7957747E-01  0.3439402E+00
         13   -1    0    0    0    0  0.00000000000E+00  0.00000000000E+00  0.14999999963E+04  0.15000000000E+04  0.10566000000E+00 0.  1.
        994   -1    0    0    0    0 -0.00000000000E+00 -0.00000000000E+00  0.11368683772E-12  0.17120000000E+03  0.17120000000E+03 0.  0.
         13    1    1    2    0    0 -0.16937009092E+02 -0.76196073021E+01  0.60905772719E+02  0.63674524003E+02  0.10566000000E+00 0.  1.
        994    1    1    2    0    0  0.13130739246E+02  0.49379694091E+01  0.34189498089E+01  0.17180782599E+03  0.17120000000E+03 0.  0.
        998    1    1    2    0    0  0.38062698451E+01  0.26816378930E+01  0.14356752738E+04  0.14357176500E+04  0.10000000000E+02 0.  1.
</event>
<event>
 5    1  0.1153629E-008  0.3719472E+03  0.7957747E-01  0.3486989E+00
         13   -1    0    0    0    0  0.00000000000E+00  0.00000000000E+00  0.14999999963E+04  0.15000000000E+04  0.10566000000E+00 0.  1.
        994   -1    0    0    0    0 -0.00000000000E+00 -0.00000000000E+00  0.11368683772E-12  0.17120000000E+03  0.17120000000E+03 0.  0.
         13    1    1    2    0    0 -0.11418730512E+02 -0.88756888878E+01  0.33675436304E+01  0.14849807200E+02  0.10566000000E+00 0.  1.
        994    1    1    2    0    0 -0.30932178478E+01  0.90164476058E+01  0.12292093404E+02  0.17190520610E+03  0.17120000000E+03 0.  0.
        998    1    1    2    0    0  0.14511948360E+02 -0.14075871795E+00  0.14843403592E+04  0.14844449867E+04  0.10000000000E+02 0.  1.
</event>
<event>
 5    1  0.1153629E-008  0.3841050E+03  0.7957747E-01  0.3433477E+00
         13   -1    0    0    0    0  0.00000000000E+00  0.00000000000E+00  0.14999999963E+04  0.15000000000E+04  0.10566000000E+00 0. -1.
        994   -1    0    0    0    0 -0.00000000000E+00 -0.00000000000E+00  0.11368683772E-12  0.17120000000E+03  0.17120000000E+03 0.  0.
         13    1    1    2    0    0 -0.16114615780E+02  0.36266853832E+01  0.63350865674E+02  0.65468901276E+02  0.10566000000E+00 0. -1.
        994    1    1    2    0    0  0.16334936243E+02 -0.18783148428E+01  0.29673714202E+01  0.17201338175E+03  0.17120000000E+03 0.  0.
        998    1    1    2    0    0 -0.22032046295E+00 -0.17483705404E+01  0.14336817592E+04  0.14337177170E+04  0.10000000000E+02 0. -1.
</event>
<event>
 5    1  0.1153629E-008  0.3791326E+03  0.7957747E-01  0.3454944E+00
         13   -1    0    0    0    0  0.00000000000E+00  0.00000000000E+00  0.14999999963E+04  0.15000000000E+04  0.10566000000E+00 0.  1.
        994   -1    0    0    0    0 -0.00000000000E+00 -0.00000000000E+00  0.11368683772E-12  0.17120000000E+03  0.17120000000E+03 0.  0.
         13    1    1    2    0    0  0.10381197852E+02  0.68240362797E+00  0.98818883697E+01  0.14349140230E+02  0.10566000000E+00 0.  1.
        994    1    1    2    0    0 -0.35684748062E+01 -0.35413788547E+01  0.46563667821E+01  0.17133708626E+03  0.17120000000E+03 0.  0.
        998    1    1    2    0    0 -0.68127230458E+01  0.28589752267E+01  0.14854617411E+04  0.14855137735E+04  0.10000000000E+02 0.  1.
</event>
<event>
 5    1  0.1153629E-008  0.3823614E+03  0.7957747E-01  0.3440940E+00
         13   -1    0    0    0    0  0.00000000000E+00  0.00000000000E+00  0.14999999963E+04  0.15000000000E+04  0.10566000000E+00 0.  1.
        994   -1    0    0    0    0 -0.00000000000E+00 -0.00000000000E+00  0.11368683772E-12  0.17120000000E+03  0.17120000000E+03 0.  0.
         13    1    1    2    0    0  0.14421975879E+02 -0.21314666015E+01  0.33924804670E+02  0.36924789425E+02  0.10566000000E+00 0.  1.
        994    1    1    2    0    0 -0.19312000323E+02 -0.23272291751E+01  0.42018961047E+01  0.17235273506E+03  0.17120000000E+03 0.  0.
        998    1    1    2    0    0  0.48900244440E+01  0.44586957766E+01  0.14618732955E+04  0.14619224755E+04  0.10000000000E+02 0.  1.
</event>
<event>
 5    1  0.1153629E-008  0.3860698E+03  0.7957747E-01  0.3425148E+00
         13   -1    0    0    0    0  0.00000000000E+00  0.00000000000E+00  0.14999999963E+04  0.15000000000E+04  0.10566000000E+00 0.  1.
        994   -1    0    0    0    0 -0.00000000000E+00 -0.00000000000E+00  0.11368683772E-12  0.17120000000E+03  0.17120000000E+03 0.  0.
         13    1    1    2    0    0 -0.77893222242E+00  0.11995014246E+02  0.63012396137E+02  0.64148736021E+02  0.10566000000E+00 0.  1.
        994    1    1    2    0    0 -0.10070283622E+02 -0.16162381180E+02  0.22893061712E+01  0.17227104835E+03  0.17120000000E+03 0.  0.
        998    1    1    2    0    0  0.10849215844E+02  0.41673669348E+01  0.14346982940E+04  0.14347802156E+04  0.10000000000E+02 0. -1.
</event>
<event>
 5    1  0.1153629E-008  0.3822777E+03  0.7957747E-01  0.3441301E+00
         13   -1    0    0    0    0  0.00000000000E+00  0.00000000000E+00  0.14999999963E+04  0.15000000000E+04  0.10566000000E+00 0. -1.
        994   -1    0    0    0    0 -0.00000000000E+00 -0.00000000000E+00  0.11368683772E-12  0.17120000000E+03  0.17120000000E+03 0.  0.
         13    1    1    2    0    0 -0.19431586727E+02 -0.23195120446E+02  0.16938186751E+03  0.17206344289E+03  0.10566000000E+00 0. -1.
        994    1    1    2    0    0  0.59864264023E+01  0.91959267713E+00  0.31095023601E+01  0.17133532023E+03  0.17120000000E+03 0.  0.
        998    1    1    2    0    0  0.13445160325E+02  0.22275527769E+02  0.13275086264E+04  0.13278012369E+04  0.10000000000E+02 0. -1.
</event>
<event>
 5    1  0.1153629E-008  0.3806530E+03  0.7957747E-01  0.3448320E+00
         13   -1    0    0    0    0  0.00000000000E+00  0.00000000000E+00  0.14999999963E+04  0.15000000000E+04  0.10566000000E+00 0.  1.
        994   -1    0    0    0    0 -0.00000000000E+00 -0.00000000000E+00  0.11368683772E-12  0.17120000000E+03  0.17120000000E+03 0.  0.
         13    1    1    2    0    0  0.14511309689E+02  0.80982070110E+01  0.36210805132E+02  0.39842096306E+02  0.10566000000E+00 0.  1.
        994    1    1    2    0    0 -0.26798893350E+01  0.50740421597E+01  0.39137438688E+01  0.17134084481E+03  0.17120000000E+03 0.  0.
        998    1    1    2    0    0 -0.11831420354E+02 -0.13172249171E+02  0.14598754473E+04  0.14600170589E+04  0.10000000000E+02 0.  1.
</event>
<event>
 5    1  0.1153629E-008  0.3714535E+03  0.7957747E-01  0.3489237E+00
         13   -1    0    0    0    0  0.00000000000E+00  0.00000000000E+00  0.14999999963E+04  0.15000000000E+04  0.10566000000E+00 0. -1.
        994   -1    0    0    0    0 -0.00000000000E+00 -0.00000000000E+00  0.11368683772E-12  0.17120000000E+03  0.17120000000E+03 0.  0.
         13    1    1    2    0    0 -0.32643970389E+02 -0.10334579369E+02  0.45488732997E+02  0.56935650758E+02  0.10566000000E+00 0. -1.
        994    1    1    2    0    0  0.21353201973E+02  0.12140040153E+02  0.13832364525E+02  0.17350537201E+03  0.17120000000E+03 0.  0.
        998    1    1    2    0    0  0.11290768416E+02 -0.18054607842E+01  0.14406788988E+04  0.14407589772E+04  0.10000000000E+02 0. -1.
</event>
<event>
 5    1  0.1153629E-008  0.3810212E+03  0.7957747E-01  0.3446724E+00
         13   -1    0    0    0    0  0.00000000000E+00  0.00000000000E+00  0.14999999963E+04  0.15000000000E+04  0.10566000000E+00 0.  1.
        994   -1    0    0    0    0 -0.00000000000E+00 -0.00000000000E+00  0.11368683772E-12  0.17120000000E+03  0.17120000000E+03 0.  0.
         13    1    1    2    0    0  0.32995752209E+02 -0.10448223545E+02  0.17516729774E+03  0.17855385295E+03  0.10566000000E+00 0.  1.
        994    1    1    2    0    0 -0.78429433864E+01  0.14072316427E+02  0.44837291098E+01  0.17201478331E+03  0.17120000000E+03 0.  0.
        998    1    1    2    0    0 -0.25152808822E+02 -0.36240928821E+01  0.13203489694E+04  0.13206313637E+04  0.10000000000E+02 0.  1.
</event>
<event>
 5    1  0.1153629E-008  0.3831435E+03  0.7957747E-01  0.3437584E+00
         13   -1    0    0    0    0  0.00000000000E+00  0.00000000000E+00  0.14999999963E+04  0.15000000000E+04  0.10566000000E+00 0.  1.
        994   -1    0    0    0    0 -0.00000000000E+00 -0.00000000000E+00  0.11368683772E-12  0.17120000000E+03  0.17120000000E+03 0.  0.
         13    1    1    2    0    0 -0.10707521361E+01  0.25632248901E+02  0.12408322536E+03  0.12670760306E+03  0.10566000000E+00 0.  1.
        994    1    1    2    0    0  0.56898375763E+01 -0.19878414410E+02  0.39704559415E+01  0.17248979718E+03  0.17120000000E+03 0.  0.
        998    1    1    2    0    0 -0.46190854402E+01 -0.57538344913E+01  0.13719463150E+04  0.13720025998E+04  0.10000000000E+02 0.  1.
</event>
<event>
 5    1  0.1153629E-008  0.3823625E+03  0.7957747E-01  0.3440936E+00
         13   -1    0    0    0    0  0.00000000000E+00  0.00000000000E+00  0.14999999963E+04  0.15000000000E+04  0.10566000000E+00 0.  1.
        994   -1    0    0    0    0 -0.00000000000E+00 -0.00000000000E+00  0.11368683772E-12  0.17120000000E+03  0.17120000000E+03 0.  0.
         13    1    1    2    0    0  0.33063982607E+02 -0.77042834015E+01  0.17637719838E+03  0.17961489415E+03  0.10566000000E+00 0.  1.
        994    1    1    2    0    0 -0.25040212328E+02  0.46767554748E+02  0.12336883480E+02  0.17965482210E+03  0.17120000000E+03 0.  0.
        998    1    1    2    0    0 -0.80237702788E+01 -0.39063271346E+02  0.13112859144E+04  0.13119302837E+04  0.10000000000E+02 0.  1.
</event>
<event>
 5    1  0.1153629E-008  0.3830483E+03  0.7957747E-01  0.3437992E+00
         13   -1    0    0    0    0  0.00000000000E+00  0.00000000000E+00  0.14999999963E+04  0.15000000000E+04  0.10566000000E+00 0. -1.
        994   -1    0    0    0    0 -0.00000000000E+00 -0.00000000000E+00  0.11368683772E-12  0.17120000000E+03  0.17120000000E+03 0.  0.
         13    1    1    2    0    0  0.48132276656E+00 -0.12641718513E+02  0.29335838185E+02  0.31947570872E+02  0.10566000000E+00 0. -1.
        994    1    1    2    0    0 -0.32758478299E+01  0.13594294190E+02  0.32496340015E+01  0.17180086186E+03  0.17120000000E+03 0.  0.
        998    1    1    2    0    0  0.27945250633E+01 -0.95257567743E+00  0.14674145241E+04  0.14674515673E+04  0.10000000000E+02 0. -1.
</event>
<event>
 5    1  0.1153629E-008  0.3763534E+03  0.7957747E-01  0.3467192E+00
         13   -1    0    0    0    0  0.00000000000E+00  0.00000000000E+00  0.14999999963E+04  0.15000000000E+04  0.10566000000E+00 0.  1.
        994   -1    0    0    0    0 -0.00000000000E+00 -0.00000000000E+00  0.11368683772E-12  0.17120000000E+03  0.17120000000E+03 0.  0.
         13    1    1    2    0    0 -0.39487102499E+02  0.64091185576E+01  0.12093526974E+03  0.12737997761E+03  0.10566000000E+00 0.  1.
        994    1    1    2    0    0  0.42993210118E+02  0.48917602122E+01  0.12347309773E+02  0.17701480586E+03  0.17120000000E+03 0.  0.
        998    1    1    2    0    0 -0.35061076188E+01 -0.11300878770E+02  0.13667174168E+04  0.13668052165E+04  0.10000000000E+02 0.  1.
</event>
<event>
 5    1  0.1153629E-008  0.3735730E+03  0.7957747E-01  0.3479629E+00
         13   -1    0    0    0    0  0.00000000000E+00  0.00000000000E+00  0.14999999963E+04  0.15000000000E+04  0.10566000000E+00 0. -1.
        994   -1    0    0    0    0 -0.00000000000E+00 -0.00000000000E+00  0.11368683772E-12  0.17120000000E+03  0.17120000000E+03 0.  0.
         13    1    1    2    0    0 -0.19913139000E+02  0.16779796910E+02  0.45287534273E+02  0.52240469119E+02  0.10566000000E+00 0. -1.
        994    1    1    2    0    0 -0.16205572271E+02 -0.16367647735E+02  0.92275014634E+01  0.17298874891E+03  0.17120000000E+03 0.  0.
        998    1    1    2    0    0  0.36118711272E+02 -0.41214917485E+00  0.14454849605E+04  0.14459707820E+04  0.10000000000E+02 0. -1.
</event>
<event>
 5    1  0.1153629E-008  0.3843753E+03  0.7957747E-01  0.3432326E+00
         13   -1    0    0    0    0  0.00000000000E+00  0.00000000000E+00  0.14999999963E+04  0.15000000000E+04  0.10566000000E+00 0. -1.
        994   -1    0    0    0    0 -0.00000000000E+00 -0.00000000000E+00  0.11368683772E-12  0.17120000000E+03  0.17120000000E+03 0.  0.
         13    1    1    2    0    0  0.14160458393E+02  0.88900189250E+01  0.61801304359E+02  0.64023147400E+02  0.10566000000E+00 0. -1.
        994    1    1    2    0    0 -0.41646415204E+02 -0.50567563898E+01  0.77620315138E+01  0.17643606156E+03  0.17120000000E+03 0.  0.
        998    1    1    2    0    0  0.27485956811E+02 -0.38332625352E+01  0.14304366604E+04  0.14307407910E+04  0.10000000000E+02 0. -1.
</event>
<event>
 5    1  0.1153629E-008  0.3839947E+03  0.7957747E-01  0.3433947E+00
         13   -1    0    0    0    0  0.00000000000E+00  0.00000000000E+00  0.14999999963E+04  0.15000000000E+04  0.10566000000E+00 0. -1.
        994   -1    0    0    0    0 -0.00000000000E+00 -0.00000000000E+00  0.11368683772E-12  0.17120000000E+03  0.17120000000E+03 0.  0.
         13    1    1    2    0    0  0.18491090809E+02  0.10222309466E+02  0.99926837502E+02  0.10213618393E+03  0.10566000000E+00 0. -1.
        994    1    1    2    0    0 -0.18794034194E+02 -0.64349830343E+01  0.34331731446E+01  0.17238286285E+03  0.17120000000E+03 0.  0.
        998    1    1    2    0    0  0.30294338461E+00 -0.37873264321E+01  0.13966399856E+04  0.13966809532E+04  0.10000000000E+02 0. -1.
</event>
<event>
 5    1  0.1153629E-008  0.3718739E+03  0.7957747E-01  0.3487323E+00
         13   -1    0    0    0    0  0.00000000000E+00  0.00000000000E+00  0.14999999963E+04  0.15000000000E+04  0.10566000000E+00 0. -1.
        994   -1    0    0    0    0 -0.00000000000E+00 -0.00000000000E+00  0.11368683772E-12  0.17120000000E+03  0.17120000000E+03 0.  0.
         13    1    1    2    0    0 -0.87640311437E+02  0.46596797059E+02  0.41472024431E+03  0.42643285273E+03  0.10566000000E+00 0. -1.
        994    1    1    2    0    0  0.90243175962E+02 -0.45195239208E+02  0.44144290540E+02  0.20357946567E+03  0.17120000000E+03 0.  0.
        998    1    1    2    0    0 -0.26028645253E+01 -0.14015578507E+01  0.10411354614E+04  0.10411876816E+04  0.10000000000E+02 0. -1.
</event>
<event>
 5    1  0.1153629E-008  0.3685169E+03  0.7957747E-01  0.3502735E+00
         13   -1    0    0    0    0  0.00000000000E+00  0.00000000000E+00  0.14999999963E+04  0.15000000000E+04  0.10566000000E+00 0. -1.
        994   -1    0    0    0    0 -0.00000000000E+00 -0.00000000000E+00  0.11368683772E-12  0.17120000000E+03  0.17120000000E+03 0.  0.
         13    1    1    2    0    0 -0.22491776347E+02  0.35518375859E+02  0.91801747788E+02  0.10097032776E+03  0.10566000000E+00 0. -1.
        994    1    1    2    0    0  0.91379631396E+01  0.24544769449E+01  0.10357593047E+02  0.17177382385E+03  0.17120000000E+03 0.  0.
        998    1    1    2    0    0  0.13353813208E+02 -0.37972852803E+02  0.13978406554E+04  0.13984558484E+04  0.10000000000E+02 0. -1.
</event>
<event>
 5    1  0.1153629E-008  0.3688399E+03  0.7957747E-01  0.3501240E+00
         13   -1    0    0    0    0  0.00000000000E+00  0.00000000000E+00  0.14999999963E+04  0.15000000000E+04  0.10566000000E+00 0.  1.
        994   -1    0    0    0    0 -0.00000000000E+00 -0.00000000000E+00  0.11368683772E-12  0.17120000000E+03  0.17120000000E+03 0.  0.
         13    1    1    2    0    0 -0.45864869488E+02  0.16626878789E+02  0.12481578187E+03  0.13401130519E+03  0.10566000000E+00 0.  1.
        994    1    1    2    0    0  0.94966301811E+01 -0.16145041301E+02  0.11095653116E+02  0.17257868310E+03  0.17120000000E+03 0.  0.
        998    1    1    2    0    0  0.36368239307E+02 -0.48183748751E+00  0.13640885613E+04  0.13646100117E+04  0.10000000000E+02 0.  1.
</event>
<event>
 5    1  0.1153629E-008  0.3756355E+03  0.7957747E-01  0.3470385E+00
         13   -1    0    0    0    0  0.00000000000E+00  0.00000000000E+00  0.14999999963E+04  0.15000000000E+04  0.10566000000E+00 0.  1.
        994   -1    0    0    0    0 -0.00000000000E+00 -0.00000000000E+00  0.11368683772E-12  0.17120000000E+03  0.17120000000E+03 0.  0.
         13    1    1    2    0    0 -0.53178085308E-01  0.30793900429E+02  0.73622270647E+02  0.79802988859E+02  0.10566000000E+00 0.  1.
        994    1    1    2    0    0 -0.11449908700E+02 -0.14615995817E+02  0.75229037197E+01  0.17236809978E+03  0.17120000000E+03 0.  0.
        998    1    1    2    0    0  0.11503086785E+02 -0.16177904612E+02  0.14188548219E+04  0.14190289114E+04  0.10000000000E+02 0.  1.
</event>
<event>
 5    1  0.1153629E-008  0.3783510E+03  0.7957747E-01  0.3458370E+00
         13   -1    0    0    0    0  0.00000000000E+00  0.00000000000E+00  0.14999999963E+04  0.15000000000E+04  0.10566000000E+00 0.  1.
        994   -1    0    0    0    0 -0.00000000000E+00 -0.00000000000E+00  0.11368683772E-12  0.17120000000E+03  0.17120000000E+03 0.  0.
         13    1    1    2    0    0  0.13833288761E+03  0.14419300462E+03  0.10594388925E+04  0.10781179845E+04  0.10566000000E+00 0.  1.
        994    1    1    2    0    0 -0.11535674423E+03 -0.16782660918E+03  0.16008538917E+03  0.31049914817E+03  0.17120000000E+03 0.  0.
        998    1    1    2    0    0 -0.22976143375E+02  0.23633604557E+02  0.28047571464E+03  0.28258286737E+03  0.10000000000E+02 0.  1.
</event>
<event>
 5    1  0.1153629E-008  0.3837198E+03  0.7957747E-01  0.3435120E+00
         13   -1    0    0    0    0  0.00000000000E+00  0.00000000000E+00  0.14999999963E+04  0.15000000000E+04  0.10566000000E+00 0.  1.
        994   -1    0    0    0    0 -0.00000000000E+00 -0.00000000000E+00  0.11368683772E-12  0.17120000000E+03  0.17120000000E+03 0.  0.
         13    1    1    2    0    0  0.17203031067E+02 -0.54143284647E+01  0.78432374091E+02  0.80479237696E+02  0.10566000000E+00 0.  1.
        994    1    1    2    0    0  0.27953504621E+01 -0.54989090340E+01  0.23927459003E+01  0.17132780632E+03  0.17120000000E+03 0.  0.
        998    1    1    2    0    0 -0.19998381529E+02  0.10913237499E+02  0.14191748763E+04  0.14193929560E+04  0.10000000000E+02 0.  1.
</event>
<event>
 5    1  0.1153629E-008  0.3794176E+03  0.7957747E-01  0.3453698E+00
         13   -1    0    0    0    0  0.00000000000E+00  0.00000000000E+00  0.14999999963E+04  0.15000000000E+04  0.10566000000E+00 0.  1.
        994   -1    0    0    0    0 -0.00000000000E+00 -0.00000000000E+00  0.11368683772E-12  0.17120000000E+03  0.17120000000E+03 0.  0.
         13    1    1    2    0    0  0.43973358974E+02 -0.58422562581E+02  0.40394963796E+03  0.41051452263E+03  0.10566000000E+00 0.  1.
        994    1    1    2    0    0 -0.50385915883E+02  0.63124889614E+02  0.26596363485E+02  0.19115516932E+03  0.17120000000E+03 0.  0.
        998    1    1    2    0    0  0.64125569092E+01 -0.47023270334E+01  0.10694539948E+04  0.10695303080E+04  0.10000000000E+02 0.  1.
</event>
<event>
 5    1  0.1153629E-008  0.3840266E+03  0.7957747E-01  0.3433811E+00
         13   -1    0    0    0    0  0.00000000000E+00  0.00000000000E+00  0.14999999963E+04  0.15000000000E+04  0.10566000000E+00 0. -1.
        994   -1    0    0    0    0 -0.00000000000E+00 -0.00000000000E+00  0.11368683772E-12  0.17120000000E+03  0.17120000000E+03 0.  0.
         13    1    1    2    0    0 -0.88045727570E+01  0.13146261167E+02  0.62712388319E+02  0.64677658406E+02  0.10566000000E+00 0. -1.
        994    1    1    2    0    0 -0.69342662855E+01 -0.32028776646E+01  0.23066951864E+01  0.17138583173E+03  0.17120000000E+03 0.  0.
        998    1    1    2    0    0  0.15738839043E+02 -0.99433835021E+01  0.14349809128E+04  0.14351365099E+04  0.10000000000E+02 0. -1.
</event>
<event>
 5    1  0.1153629E-008  0.3820401E+03  0.7957747E-01  0.3442323E+00
         13   -1    0    0    0    0  0.00000000000E+00  0.00000000000E+00  0.14999999963E+04  0.15000000000E+04  0.10566000000E+00 0.  1.
        994   -1    0    0    0    0 -0.00000000000E+00 -0.00000000000E+00  0.11368683772E-12  0.17120000000E+03  0.17120000000E+03 0.  0.
         13    1    1    2    0    0 -0.12516675670E+02  0.64781974566E-01  0.23998282430E+02  0.27066586230E+02  0.10566000000E+00 0.  1.
        994    1    1    2    0    0  0.90371237618E+01  0.18409833199E+01  0.33893346474E+01  0.17148173785E+03  0.17120000000E+03 0.  0.
        998    1    1    2    0    0  0.34795519086E+01 -0.19057652945E+01  0.14726123792E+04  0.14726516759E+04  0.10000000000E+02 0.  1.
</event>
<event>
 5    1  0.1153629E-008  0.3803762E+03  0.7957747E-01  0.3449522E+00
         13   -1    0    0    0    0  0.00000000000E+00  0.00000000000E+00  0.14999999963E+04  0.15000000000E+04  0.10566000000E+00 0.  1.
        994   -1    0    0    0    0 -0.00000000000E+00 -0.00000000000E+00  0.11368683772E-12  0.17120000000E+03  0.17120000000E+03 0.  0.
         13    1    1    2    0    0 -0.11479455696E+02  0.19467112723E+01  0.15254065214E+02  0.19190238598E+02  0.10566000000E+00 0.  1.
        994    1    1    2    0    0  0.14439123520E+02 -0.36633625823E+01  0.46846220819E+01  0.17191071577E+03  0.17120000000E+03 0.  0.
        998    1    1    2    0    0 -0.29596678241E+01  0.17166513100E+01  0.14800613090E+04  0.14800990456E+04  0.10000000000E+02 0.  1.
</event>
<event>
 5    1  0.1153629E-008  0.3858142E+03  0.7957747E-01  0.3426226E+00
         13   -1    0    0    0    0  0.00000000000E+00  0.00000000000E+00  0.14999999963E+04  0.15000000000E+04  0.10566000000E+00 0. -1.
        994   -1    0    0    0    0 -0.00000000000E+00 -0.00000000000E+00  0.11368683772E-12  0.17120000000E+03  0.17120000000E+03 0.  0.
         13    1    1    2    0    0  0.75838057515E+01  0.88700355118E+01  0.54178830715E+02  0.55421552679E+02  0.10566000000E+00 0. -1.
        994    1    1    2    0    0 -0.47008587477E+01 -0.12973727015E+02  0.18512502476E+01  0.17176519669E+03  0.17120000000E+03 0.  0.
        998    1    1    2    0    0 -0.28829470038E+01  0.41036915036E+01  0.14439699153E+04  0.14440132506E+04  0.10000000000E+02 0. -1.
</event>
<event>
 5    1  0.1153629E-008  0.3781944E+03  0.7957747E-01  0.3459058E+00
         13   -1    0    0    0    0  0.00000000000E+00  0.00000000000E+00  0.14999999963E+04  0.15000000000E+04  0.10566000000E+00 0.  1.
        994   -1    0    0    0    0 -0.00000000000E+00 -0.00000000000E+00  0.11368683772E-12  0.17120000000E+03  0.17120000000E+03 0.  0.
         13    1    1    2    0    0  0.78378037556E+02 -0.14079923347E+02  0.19246910809E+03  0.20829241404E+03  0.10566000000E+00 0.  1.
        994    1    1    2    0    0 -0.61046762621E+02  0.15425229125E+01  0.28887547447E+02  0.18404623604E+03  0.17120000000E+03 0.  0.
        998    1    1    2    0    0 -0.17331274934E+02  0.12537400434E+02  0.12786433407E+04  0.12788613499E+04  0.10000000000E+02 0.  1.
</event>
<event>
 5    1  0.1153629E-008  0.3695243E+03  0.7957747E-01  0.3498080E+00
         13   -1    0    0    0    0  0.00000000000E+00  0.00000000000E+00  0.14999999963E+04  0.15000000000E+04  0.10566000000E+00 0.  1.
        994   -1    0    0    0    0 -0.00000000000E+00 -0.00000000000E+00  0.11368683772E-12  0.17120000000E+03  0.17120000000E+03 0.  0.
         13    1    1    2    0    0 -0.40636363252E+02 -0.13270299043E+02  0.84752374524E+02  0.94923079420E+02  0.10566000000E+00 0.  1.
        994    1    1    2    0    0  0.45863768365E+02  0.28949180557E+02  0.19775509126E+02  0.18067111298E+03  0.17120000000E+03 0.  0.
        998    1    1    2    0    0 -0.52274051129E+01 -0.15678881514E+02  0.13954721126E+04  0.13956058076E+04  0.10000000000E+02 0.  1.
</event>
<event>
 5    1  0.1153629E-008  0.3776078E+03  0.7957747E-01  0.3461641E+00
         13   -1    0    0    0    0  0.00000000000E+00  0.00000000000E+00  0.14999999963E+04  0.15000000000E+04  0.10566000000E+00 0.  1.
        994   -1    0    0    0    0 -0.00000000000E+00 -0.00000000000E+00  0.11368683772E-12  0.17120000000E+03  0.17120000000E+03 0.  0.
         13    1    1    2    0    0 -0.19228258289E+02  0.29486078656E+02  0.10430806770E+03  0.11008786901E+03  0.10566000000E+00 0.  1.
        994    1    1    2    0    0  0.24907213245E+02 -0.31900421540E+02  0.10884944499E+02  0.17625529264E+03  0.17120000000E+03 0.  0.
        998    1    1    2    0    0 -0.56789549566E+01  0.24143428840E+01  0.13848069841E+04  0.13848568384E+04  0.10000000000E+02 0.  1.
</event>
<event>
 5    1  0.1153629E-008  0.3806664E+03  0.7957747E-01  0.3448262E+00
         13   -1    0    0    0    0  0.00000000000E+00  0.00000000000E+00  0.14999999963E+04  0.15000000000E+04  0.10566000000E+00 0. -1.
        994   -1    0    0    0    0 -0.00000000000E+00 -0.00000000000E+00  0.11368683772E-12  0.17120000000E+03  0.17120000000E+03 0.  0.
         13    1    1    2    0    0  0.23110035940E+02 -0.24323681890E+02  0.14558040732E+03  0.14939672493E+03  0.10566000000E+00 0. -1.
        994    1    1    2    0    0 -0.62365147177E+01  0.23615474847E+02  0.57895961922E+01  0.17303047186E+03  0.17120000000E+03 0.  0.
        998    1    1    2    0    0 -0.16873521222E+02  0.70820704227E+00  0.13486299928E+04  0.13487728032E+04  0.10000000000E+02 0. -1.
</event>
<event>
 5    1  0.1153629E-008  0.3824946E+03  0.7957747E-01  0.3440368E+00
         13   -1    0    0    0    0  0.00000000000E+00  0.00000000000E+00  0.14999999963E+04  0.15000000000E+04  0.10566000000E+00 0. -1.
        994   -1    0    0    0    0 -0.00000000000E+00 -0.00000000000E+00  0.11368683772E-12  0.17120000000E+03  0.17120000000E+03 0.  0.
         13    1    1    2    0    0 -0.19041812754E+02 -0.20672615142E+02  0.12577439874E+03  0.12887652304E+03  0.10566000000E+00 0. -1.
        994    1    1    2    0    0  0.21775159893E+02  0.19230604861E+02  0.56824804750E+01  0.17374033595E+03  0.17120000000E+03 0.  0.
        998    1    1    2    0    0 -0.27333471389E+01  0.14420102806E+01  0.13685431171E+04  0.13685831410E+04  0.10000000000E+02 0. -1.
</event>
<event>
 5    1  0.1153629E-008  0.3813773E+03  0.7957747E-01  0.3445183E+00
         13   -1    0    0    0    0  0.00000000000E+00  0.00000000000E+00  0.14999999963E+04  0.15000000000E+04  0.10566000000E+00 0.  1.
        994   -1    0    0    0    0 -0.00000000000E+00 -0.00000000000E+00  0.11368683772E-12  0.17120000000E+03  0.17120000000E+03 0.  0.
         13    1    1    2    0    0 -0.27923265753E+02 -0.34748410205E+02  0.50153945295E+02  0.67101342570E+02  0.10566000000E+00 0.  1.
        994    1    1    2    0    0  0.28821963524E+02  0.34096039937E+02  0.24380474941E+02  0.17859757299E+03  0.17120000000E+03 0.  0.
        998    1    1    2    0    0 -0.89869777099E+00  0.65237026809E+00  0.14254655760E+04  0.14255010844E+04  0.10000000000E+02 0.  1.
</event>
<event>
 5    1  0.1153629E-008  0.3857625E+03  0.7957747E-01  0.3426445E+00
         13   -1    0    0    0    0  0.00000000000E+00  0.00000000000E+00  0.14999999963E+04  0.15000000000E+04  0.10566000000E+00 0.  1.
        994   -1    0    0    0    0 -0.00000000000E+00 -0.00000000000E+00  0.11368683772E-12  0.17120000000E+03  0.17120000000E+03 0.  0.
         13    1    1    2    0    0 -0.40992661439E+01  0.10815696021E+02  0.58617702081E+02  0.59748049547E+02  0.10566000000E+00 0.  1.
        994    1    1    2    0    0 -0.12303858437E+02 -0.10433195117E+00  0.17488619113E+01  0.17165050054E+03  0.17120000000E+03 0.  0.
        998    1    1    2    0    0  0.16403124581E+02 -0.10711364070E+02  0.14396334323E+04  0.14398014499E+04  0.10000000000E+02 0.  1.
</event>
<event>
 5    1  0.1153629E-008  0.3864850E+03  0.7957747E-01  0.3423398E+00
         13   -1    0    0    0    0  0.00000000000E+00  0.00000000000E+00  0.14999999963E+04  0.15000000000E+04  0.10566000000E+00 0.  1.
        994   -1    0    0    0    0 -0.00000000000E+00 -0.00000000000E+00  0.11368683772E-12  0.17120000000E+03  0.17120000000E+03 0.  0.
         13    1    1    2    0    0 -0.10547231052E+02  0.19600923773E+00  0.59333359425E+02  0.60263929570E+02  0.10566000000E+00 0.  1.
        994    1    1    2    0    0  0.15616797488E+02 -0.12085967956E+01  0.16980369248E+01  0.17192343761E+03  0.17120000000E+03 0.  0.
        998    1    1    2    0    0 -0.50695664358E+01  0.10125875579E+01  0.14389685999E+04  0.14390126328E+04  0.10000000000E+02 0.  1.
</event>
<event>
 5    1  0.1153629E-008  0.3791147E+03  0.7957747E-01  0.3455022E+00
         13   -1    0    0    0    0  0.00000000000E+00  0.00000000000E+00  0.14999999963E+04  0.15000000000E+04  0.10566000000E+00 0.  1.
        994   -1    0    0    0    0 -0.00000000000E+00 -0.00000000000E+00  0.11368683772E-12  0.17120000000E+03  0.17120000000E+03 0.  0.
         13    1    1    2    0    0 -0.59876260326E+01  0.21856311641E+02  0.59268711612E+02  0.63453458253E+02  0.10566000000E+00 0.  1.
        994    1    1    2    0    0  0.13509137027E+02  0.11546730480E+02  0.56402695266E+01  0.17221230040E+03  0.17120000000E+03 0.  0.
        998    1    1    2    0    0 -0.75215109940E+01 -0.33403042121E+02  0.14350910151E+04  0.14355342413E+04  0.10000000000E+02 0.  1.
</event>
<event>
 5    1  0.1601981E-008  0.3857805E+03  0.7957747E-01  0.3426369E+00
         13   -1    0    0    0    0  0.00000000000E+00  0.00000000000E+00  0.14999999963E+04  0.15000000000E+04  0.10566000000E+00 0. -1.
        994   -1    0    0    0    0 -0.00000000000E+00 -0.00000000000E+00  0.11368683772E-12  0.17120000000E+03  0.17120000000E+03 0.  0.
         13    1    1    2    0    0 -0.11858725819E+02 -0.19834098951E+01  0.56550902519E+02  0.57815041578E+02  0.10566000000E+00 0. -1.
        994    1    1    2    0    0  0.13289207970E+02  0.21480211285E+01  0.18378109554E+01  0.17173827352E+03  0.17120000000E+03 0.  0.
        998    1    1    2    0    0 -0.14304821515E+01 -0.16461123345E+00  0.14416112828E+04  0.14416466849E+04  0.10000000000E+02 0.  0.
</event>
<event>
 5    1  0.1153629E-008  0.3736073E+03  0.7957747E-01  0.3479475E+00
         13   -1    0    0    0    0  0.00000000000E+00  0.00000000000E+00  0.14999999963E+04  0.15000000000E+04  0.10566000000E+00 0. -1.
        994   -1    0    0    0    0 -0.00000000000E+00 -0.00000000000E+00  0.11368683772E-12  0.17120000000E+03  0.17120000000E+03 0.  0.
         13    1    1    2    0    0 -0.23927505553E+02  0.20542720776E+00  0.17084667240E+02  0.29401781257E+02  0.10566000000E+00 0. -1.
        994    1    1    2    0    0  0.10216350426E+02  0.80594528471E+01  0.13458868429E+02  0.17222052646E+03  0.17120000000E+03 0.  0.
        998    1    1    2    0    0  0.13711155127E+02 -0.82648800549E+01  0.14694564606E+04  0.14695776923E+04  0.10000000000E+02 0. -1.
</event>
<event>
 5    1  0.1153629E-008  0.3829361E+03  0.7957747E-01  0.3438473E+00
         13   -1    0    0    0    0  0.00000000000E+00  0.00000000000E+00  0.14999999963E+04  0.15000000000E+04  0.10566000000E+00 0.  1.
        994   -1    0    0    0    0 -0.00000000000E+00 -0.00000000000E+00  0.11368683772E-12  0.17120000000E+03  0.17120000000E+03 0.  0.
         13    1    1    2    0    0  0.17925172953E+02 -0.46053638475E+01  0.65223250833E+02  0.67798265573E+02  0.10566000000E+00 0.  1.
        994    1    1    2    0    0 -0.42658956580E+01  0.12510867113E+02  0.32369569591E+01  0.17174002897E+03  0.17120000000E+03 0.  0.
        998    1    1    2    0    0 -0.13659277295E+02 -0.79055032653E+01  0.14315397885E+04  0.14316617055E+04  0.10000000000E+02 0.  1.
</event>
<event>
 5    1  0.1153629E-008  0.3841227E+03  0.7957747E-01  0.3433401E+00
         13   -1    0    0    0    0  0.00000000000E+00  0.00000000000E+00  0.14999999963E+04  0.15000000000E+04  0.10566000000E+00 0.  1.
        994   -1    0    0    0    0 -0.00000000000E+00 -0.00000000000E+00  0.11368683772E-12  0.17120000000E+03  0.17120000000E+03 0.  0.
         13    1    1    2    0    0  0.27344611264E+01  0.10640832617E+02  0.29496181391E+02  0.31476030200E+02  0.10566000000E+00 0.  1.
        994    1    1    2    0    0 -0.51309961723E+01  0.11485790583E+01  0.21574906051E+01  0.17129431141E+03  0.17120000000E+03 0.  0.
        998    1    1    2    0    0  0.23965350459E+01 -0.11789411675E+02  0.14683463243E+04  0.14684296584E+04  0.10000000000E+02 0.  1.
</event>
<event>
 5    1  0.1153629E-008  0.3858362E+03  0.7957747E-01  0.3426133E+00
         13   -1    0    0    0    0  0.00000000000E+00  0.00000000000E+00  0.14999999963E+04  0.15000000000E+04  0.10566000000E+00 0. -1.
        994   -1    0    0    0    0 -0.00000000000E+00 -0.00000000000E+00  0.11368683772E-12  0.17120000000E+03  0.17120000000E+03 0.  0.
         13    1    1    2    0    0  0.16103225733E+02  0.41015557703E+01  0.10053265965E+03  0.10189682753E+03  0.10566000000E+00 0. -1.
        994    1    1    2    0    0 -0.21564428271E+02 -0.19454766175E+02  0.39869527622E+01  0.17369181986E+03  0.17120000000E+03 0.  0.
        998    1    1    2    0    0  0.54612025374E+01  0.15353210405E+02  0.13954803839E+04  0.13956113526E+04  0.10000000000E+02 0. -1.
</event>
<event>
 5    1  0.1153629E-008  0.3864321E+03  0.7957747E-01  0.3423621E+00
         13   -1    0    0    0    0  0.00000000000E+00  0.00000000000E+00  0.14999999963E+04  0.15000000000E+04  0.10566000000E+00 0. -1.
        994   -1    0    0    0    0 -0.00000000000E+00 -0.00000000000E+00  0.11368683772E-12  0.17120000000E+03  0.17120000000E+03 0.  0.
         13    1    1    2    0    0 -0.81317837473E+01 -0.63960908831E+01  0.58087515402E+02  0.59001749932E+02  0.10566000000E+00 0. -1.
        994    1    1    2    0    0  0.14867075753E+02 -0.30354270656E+01  0.16748612910E+01  0.17187928589E+03  0.17120000000E+03 0.  0.
        998    1    1    2    0    0 -0.67352920058E+01  0.94315179487E+01  0.14402376196E+04  0.14403189642E+04  0.10000000000E+02 0. -1.
</event>
<event>
 5    1  0.1153629E-008  0.3829534E+03  0.7957747E-01  0.3438399E+00
         13   -1    0    0    0    0  0.00000000000E+00  0.00000000000E+00  0.14999999963E+04  0.15000000000E+04  0.10566000000E+00 0. -1.
        994   -1    0    0    0    0 -0.00000000000E+00 -0.00000000000E+00  0.11368683772E-12  0.17120000000E+03  0.17120000000E+03 0.  0.
         13    1    1    2    0    0 -0.18933598007E+02 -0.11613395735E+02  0.10029793391E+03  0.10272798453E+03  0.10566000000E+00 0. -1.
        994    1    1    2    0    0  0.70959455174E+01 -0.96444425196E+01  0.31244247128E+01  0.17164664210E+03  0.17120000000E+03 0.  0.
        998    1    1    2    0    0  0.11837652490E+02  0.21257838255E+02  0.13965776377E+04  0.13968253734E+04  0.10000000000E+02 0. -1.
</event>
<event>
 5    1  0.1153629E-008  0.3802571E+03  0.7957747E-01  0.3450040E+00
         13   -1    0    0    0    0  0.00000000000E+00  0.00000000000E+00  0.14999999963E+04  0.15000000000E+04  0.10566000000E+00 0.  1.
        994   -1    0    0    0    0 -0.00000000000E+00 -0.00000000000E+00  0.11368683772E-12  0.17120000000E+03  0.17120000000E+03 0.  0.
         13    1    1    2    0    0  0.38570778847E+01 -0.35198892039E+02  0.14700940718E+03  0.15121380894E+03  0.10566000000E+00 0.  1.
        994    1    1    2    0    0 -0.40671508336E-01  0.29665615522E+02  0.69484386366E+01  0.17389011242E+03  0.17120000000E+03 0.  0.
        998    1    1    2    0    0 -0.38164063764E+01  0.55332765173E+01  0.13460421505E+04  0.13460960786E+04  0.10000000000E+02 0.  1.
</event>
<event>
 5    1  0.1153629E-008  0.3810905E+03  0.7957747E-01  0.3446424E+00
         13   -1    0    0    0    0  0.00000000000E+00  0.00000000000E+00  0.14999999963E+04  0.15000000000E+04  0.10566000000E+00 0.  1.
        994   -1    0    0    0    0 -0.00000000000E+00 -0.00000000000E+00  0.11368683772E-12  0.17120000000E+03  0.17120000000E+03 0.  0.
         13    1    1    2    0    0 -0.12393927102E+02 -0.16037928897E+02  0.61123077193E+02  0.64396166982E+02  0.10566000000E+00 0.  1.
        994    1    1    2    0    0 -0.12700881390E+02  0.14118939541E+01  0.41278106444E+01  0.17172589977E+03  0.17120000000E+03 0.  0.
        998    1    1    2    0    0  0.25094808492E+02  0.14626034943E+02  0.14347491084E+04  0.14350779332E+04  0.10000000000E+02 0.  1.
</event>
<event>
 5    1  0.1153629E-008  0.3741979E+03  0.7957747E-01  0.3476818E+00
         13   -1    0    0    0    0  0.00000000000E+00  0.00000000000E+00  0.14999999963E+04  0.15000000000E+04  0.10566000000E+00 0.  1.
        994   -1    0    0    0    0 -0.00000000000E+00 -0.00000000000E+00  0.11368683772E-12  0.17120000000E+03  0.17120000000E+03 0.  0.
         13    1    1    2    0    0  0.38420888872E+02 -0.23407593850E+01  0.99116204160E+02  0.10632815689E+03  0.10566000000E+00 0.  1.
        994    1    1    2    0    0 -0.30806132431E+02 -0.33512951058E+01  0.10371107653E+02  0.17429070213E+03  0.17120000000E+03 0.  0.
        998    1    1    2    0    0 -0.76147564414E+01  0.56920544909E+01  0.13905126845E+04  0.13905811410E+04  0.10000000000E+02 0.  1.
</event>
<event>
 5    1  0.1153629E-008  0.3801454E+03  0.7957747E-01  0.3450525E+00
         13   -1    0    0    0    0  0.00000000000E+00  0.00000000000E+00  0.14999999963E+04  0.15000000000E+04  0.10566000000E+00 0. -1.
        994   -1    0    0    0    0 -0.00000000000E+00 -0.00000000000E+00  0.11368683772E-12  0.17120000000E+03  0.17120000000E+03 0.  0.
         13    1    1    2    0    0 -0.13536639210E+02  0.12779672139E+01  0.21033254366E+02  0.25045613479E+02  0.10566000000E+00 0. -1.
        994    1    1    2    0    0  0.10542414092E+02 -0.21024100912E+00  0.44313431198E+01  0.17158165257E+03  0.17120000000E+03 0.  0.
        998    1    1    2    0    0  0.29942251182E+01 -0.10677262048E+01  0.14745353988E+04  0.14745727340E+04  0.10000000000E+02 0. -1.
</event>
<event>
 5    1  0.1153629E-008  0.3835603E+03  0.7957747E-01  0.3435801E+00
         13   -1    0    0    0    0  0.00000000000E+00  0.00000000000E+00  0.14999999963E+04  0.15000000000E+04  0.10566000000E+00 0. -1.
        994   -1    0    0    0    0 -0.00000000000E+00 -0.00000000000E+00  0.11368683772E-12  0.17120000000E+03  0.17120000000E+03 0.  0.
         13    1    1    2    0    0  0.93428034315E+00  0.17607613956E+02  0.68738722805E+02  0.70964245405E+02  0.10566000000E+00 0. -1.
        994    1    1    2    0    0  0.95279987972E+01 -0.37510876524E+01  0.26931251015E+01  0.17152710090E+03  0.17120000000E+03 0.  0.
        998    1    1    2    0    0 -0.10462279140E+02 -0.13856526303E+02  0.14285681484E+04  0.14287086537E+04  0.10000000000E+02 0. -1.
</event>
<event>
 5    1  0.1153629E-008  0.3837856E+03  0.7957747E-01  0.3434839E+00
         13   -1    0    0    0    0  0.00000000000E+00  0.00000000000E+00  0.14999999963E+04  0.15000000000E+04  0.10566000000E+00 0. -1.
        994   -1    0    0    0    0 -0.00000000000E+00 -0.00000000000E+00  0.11368683772E-12  0.17120000000E+03  0.17120000000E+03 0.  0.
         13    1    1    2    0    0  0.15843057355E+02 -0.67902681447E+01  0.64175468215E+02  0.66450072178E+02  0.10566000000E+00 0. -1.
        994    1    1    2    0    0 -0.14174712351E+02  0.83579486297E+01  0.31287896998E+01  0.17201746162E+03  0.17120000000E+03 0.  0.
        998    1    1    2    0    0 -0.16683450037E+01 -0.15676804851E+01  0.14326957384E+04  0.14327324662E+04  0.10000000000E+02 0. -1.
</event>
<event>
 5    1  0.1153629E-008  0.3824542E+03  0.7957747E-01  0.3440542E+00
         13   -1    0    0    0    0  0.00000000000E+00  0.00000000000E+00  0.14999999963E+04  0.15000000000E+04  0.10566000000E+00 0.  1.
        994   -1    0    0    0    0 -0.00000000000E+00 -0.00000000000E+00  0.11368683772E-12  0.17120000000E+03  0.17120000000E+03 0.  0.
         13    1    1    2    0    0 -0.25787919744E+01  0.12060249836E+02  0.25282417180E+02  0.28130260871E+02  0.10566000000E+00 0.  1.
        994    1    1    2    0    0  0.20541327971E+01 -0.67165330925E+01  0.30629997876E+01  0.17137138981E+03  0.17120000000E+03 0.  0.
        998    1    1    2    0    0  0.52465917734E+00 -0.53437167440E+01  0.14716545793E+04  0.14716983493E+04  0.10000000000E+02 0.  1.
</event>
<event>
 5    1  0.1153629E-008  0.3845252E+03  0.7957747E-01  0.3431688E+00
         13   -1    0    0    0    0  0.00000000000E+00  0.00000000000E+00  0.14999999963E+04  0.15000000000E+04  0.10566000000E+00 0. -1.
        994   -1    0    0    0    0 -0.00000000000E+00 -0.00000000000E+00  0.11368683772E-12  0.17120000000E+03  0.17120000000E+03 0.  0.
         13    1    1    2    0    0 -0.11010599386E+02  0.18583872867E+02  0.12396678607E+03  0.12583468854E+03  0.10566000000E+00 0. -1.
        994    1    1    2    0    0  0.13445203448E+02 -0.86670044115E+01  0.27093315033E+01  0.17196706353E+03  0.17120000000E+03 0.  0.
        998    1    1    2    0    0 -0.24346040625E+01 -0.99168684553E+01  0.13733238787E+04  0.13733982479E+04  0.10000000000E+02 0. -1.
</event>
<event>
 5    1  0.1153629E-008  0.3792591E+03  0.7957747E-01  0.3454391E+00
         13   -1    0    0    0    0  0.00000000000E+00  0.00000000000E+00  0.14999999963E+04  0.15000000000E+04  0.10566000000E+00 0.  1.
        994   -1    0    0    0    0 -0.00000000000E+00 -0.00000000000E+00  0.11368683772E-12  0.17120000000E+03  0.17120000000E+03 0.  0.
         13    1    1    2    0    0 -0.27589140471E+02 -0.63838783229E+01  0.87001670439E+02  0.91494351725E+02  0.10566000000E+00 0.  1.
        994    1    1    2    0    0  0.20230286314E+02 -0.58591912922E+01  0.59955683241E+01  0.17259484768E+03  0.17120000000E+03 0.  0.
        998    1    1    2    0    0  0.73588541573E+01  0.12243069615E+02  0.14070027575E+04  0.14071108006E+04  0.10000000000E+02 0.  1.
</event>
<event>
 5    1  0.1153629E-008  0.3829209E+03  0.7957747E-01  0.3438538E+00
         13   -1    0    0    0    0  0.00000000000E+00  0.00000000000E+00  0.14999999963E+04  0.15000000000E+04  0.10566000000E+00 0. -1.
        994   -1    0    0    0    0 -0.00000000000E+00 -0.00000000000E+00  0.11368683772E-12  0.17120000000E+03  0.17120000000E+03 0.  0.
         13    1    1    2    0    0 -0.21058669439E+02  0.17752765739E+02  0.14356598295E+03  0.14618423606E+03  0.10566000000E+00 0. -1.
        994    1    1    2    0    0  0.48501380213E+01 -0.17107176884E+02  0.37134638234E+01  0.17216099777E+03  0.17120000000E+03 0.  0.
        998    1    1    2    0    0  0.16208531418E+02 -0.64558885502E+00  0.13527205495E+04  0.13528547662E+04  0.10000000000E+02 0. -1.
</event>
<event>
 5    1  0.1153629E-008  0.3852683E+03  0.7957747E-01  0.3428535E+00
         13   -1    0    0    0    0  0.00000000000E+00  0.00000000000E+00  0.14999999963E+04  0.15000000000E+04  0.10566000000E+00 0.  1.
        994   -1    0    0    0    0 -0.00000000000E+00 -0.00000000000E+00  0.11368683772E-12  0.17120000000E+03  0.17120000000E+03 0.  0.
         13    1    1    2    0    0  0.12720018498E+02 -0.10183021875E+01  0.52908792434E+02  0.54425979925E+02  0.10566000000E+00 0.  1.
        994    1    1    2    0    0 -0.13640261225E+02 -0.90586801025E+00  0.21112557060E+01  0.17175789567E+03  0.17120000000E+03 0.  0.
        998    1    1    2    0    0  0.92024272658E+00  0.19241701978E+01  0.14449799481E+04  0.14450161244E+04  0.10000000000E+02 0.  1.
</event>
<event>
 5    1  0.1153629E-008  0.3816243E+03  0.7957747E-01  0.3444116E+00
         13   -1    0    0    0    0  0.00000000000E+00  0.00000000000E+00  0.14999999963E+04  0.15000000000E+04  0.10566000000E+00 0. -1.
        994   -1    0    0    0    0 -0.00000000000E+00 -0.00000000000E+00  0.11368683772E-12  0.17120000000E+03  0.17120000000E+03 0.  0.
         13    1    1    2    0    0  0.18707829856E+02  0.30961941648E+01  0.51607960578E+02  0.54981470290E+02  0.10566000000E+00 0. -1.
        994    1    1    2    0    0 -0.18051620031E+02 -0.81756142609E+01  0.46222883587E+01  0.17240506722E+03  0.17120000000E+03 0.  0.
        998    1    1    2    0    0 -0.65620982445E+00  0.50794200961E+01  0.14437697473E+04  0.14438134625E+04  0.10000000000E+02 0. -1.
</event>
<event>
 5    1  0.1153629E-008  0.3859055E+03  0.7957747E-01  0.3425841E+00
         13   -1    0    0    0    0  0.00000000000E+00  0.00000000000E+00  0.14999999963E+04  0.15000000000E+04  0.10566000000E+00 0.  1.
        994   -1    0    0    0    0 -0.00000000000E+00 -0.00000000000E+00  0.11368683772E-12  0.17120000000E+03  0.17120000000E+03 0.  0.
         13    1    1    2    0    0  0.82469977554E+01  0.89612968601E+01  0.67495626855E+02  0.68585629850E+02  0.10566000000E+00 0.  1.
        994    1    1    2    0    0 -0.56827881852E+01  0.51670400978E+01  0.13746862553E+01  0.17137771777E+03  0.17120000000E+03 0.  0.
        998    1    1    2    0    0 -0.25642095702E+01 -0.14128336958E+02  0.14311296832E+04  0.14312366524E+04  0.10000000000E+02 0.  1.
</event>
<event>
 5    1  0.1153629E-008  0.3816174E+03  0.7957747E-01  0.3444146E+00
         13   -1    0    0    0    0  0.00000000000E+00  0.00000000000E+00  0.14999999963E+04  0.15000000000E+04  0.10566000000E+00 0. -1.
        994   -1    0    0    0    0 -0.00000000000E+00 -0.00000000000E+00  0.11368683772E-12  0.17120000000E+03  0.17120000000E+03 0.  0.
         13    1    1    2    0    0 -0.21660440720E+02 -0.25749027132E+02  0.16897169146E+03  0.17228938089E+03  0.10566000000E+00 0. -1.
        994    1    1    2    0    0  0.55851727022E+01  0.21758042135E+02  0.49986128673E+01  0.17273978315E+03  0.17120000000E+03 0.  0.
        998    1    1    2    0    0  0.16075268018E+02  0.39909849977E+01  0.13260296920E+04  0.13261708360E+04  0.10000000000E+02 0. -1.
</event>
<event>
 5    1  0.1153629E-008  0.3706367E+03  0.7957747E-01  0.3492970E+00
         13   -1    0    0    0    0  0.00000000000E+00  0.00000000000E+00  0.14999999963E+04  0.15000000000E+04  0.10566000000E+00 0. -1.
        994   -1    0    0    0    0 -0.00000000000E+00 -0.00000000000E+00  0.11368683772E-12  0.17120000000E+03  0.17120000000E+03 0.  0.
         13    1    1    2    0    0  0.33815552683E+02 -0.30773972952E+02  0.12878286301E+03  0.13665857450E+03  0.10566000000E+00 0. -1.
        994    1    1    2    0    0  0.13135435224E+02  0.13611422203E+02  0.10172076825E+02  0.17254194163E+03  0.17120000000E+03 0.  0.
        998    1    1    2    0    0 -0.46950987907E+02  0.17162550748E+02  0.13610450564E+04  0.13619994839E+04  0.10000000000E+02 0. -1.
</event>
<event>
 5    1  0.1153629E-008  0.3799969E+03  0.7957747E-01  0.3451172E+00
         13   -1    0    0    0    0  0.00000000000E+00  0.00000000000E+00  0.14999999963E+04  0.15000000000E+04  0.10566000000E+00 0.  1.
        994   -1    0    0    0    0 -0.00000000000E+00 -0.00000000000E+00  0.11368683772E-12  0.17120000000E+03  0.17120000000E+03 0.  0.
         13    1    1    2    0    0  0.16801483579E+02 -0.26333783083E+02  0.11576658604E+03  0.11990692887E+03  0.10566000000E+00 0.  1.
        994    1    1    2    0    0  0.17070491468E+01  0.25078978258E+02  0.62498910034E+01  0.17314840544E+03  0.17120000000E+03 0.  0.
        998    1    1    2    0    0 -0.18508532726E+02  0.12548048242E+01  0.13779835192E+04  0.13781446657E+04  0.10000000000E+02 0.  1.
</event>
<event>
 5    1  0.1153629E-008  0.3742169E+03  0.7957747E-01  0.3476732E+00
         13   -1    0    0    0    0  0.00000000000E+00  0.00000000000E+00  0.14999999963E+04  0.15000000000E+04  0.10566000000E+00 0.  1.
        994   -1    0    0    0    0 -0.00000000000E+00 -0.00000000000E+00  0.11368683772E-12  0.17120000000E+03  0.17120000000E+03 0.  0.
         13    1    1    2    0    0 -0.77071694299E+02  0.68135779654E+02  0.58914852026E+03  0.59806230496E+03  0.10566000000E+00 0.  1.
        994    1    1    2    0    0  0.11082179060E+03 -0.12814998927E+02  0.50760726160E+02  0.21055114531E+03  0.17120000000E+03 0.  0.
        998    1    1    2    0    0 -0.33750096303E+02 -0.55320780727E+02  0.86009074986E+03  0.86258654973E+03  0.10000000000E+02 0.  1.
</event>
<event>
 5    1  0.1153629E-008  0.3847214E+03  0.7957747E-01  0.3430855E+00
         13   -1    0    0    0    0  0.00000000000E+00  0.00000000000E+00  0.14999999963E+04  0.15000000000E+04  0.10566000000E+00 0. -1.
        994   -1    0    0    0    0 -0.00000000000E+00 -0.00000000000E+00  0.11368683772E-12  0.17120000000E+03  0.17120000000E+03 0.  0.
         13    1    1    2    0    0 -0.18300440046E+00 -0.23004832305E+02  0.13021496854E+03  0.13223163387E+03  0.10566000000E+00 0. -1.
        994    1    1    2    0    0 -0.19011298586E+01  0.30535716131E+02  0.48557218366E+01  0.17398006291E+03  0.17120000000E+03 0.  0.
        998    1    1    2    0    0  0.20841342591E+01 -0.75308838258E+01  0.13649293059E+04  0.13649883032E+04  0.10000000000E+02 0. -1.
</event>
<event>
 5    1  0.1353611E-008  0.3857641E+03  0.7957747E-01  0.3426438E+00
         13   -1    0    0    0    0  0.00000000000E+00  0.00000000000E+00  0.14999999963E+04  0.15000000000E+04  0.10566000000E+00 0.  1.
        994   -1    0    0    0    0 -0.00000000000E+00 -0.00000000000E+00  0.11368683772E-12  0.17120000000E+03  0.17120000000E+03 0.  0.
         13    1    1    2    0    0  0.13165968812E+02  0.23052926555E+01  0.70482222114E+02  0.71738496688E+02  0.10566000000E+00 0.  1.
        994    1    1    2    0    0 -0.11824932725E+02 -0.51757851340E-01  0.17101190181E+01  0.17161642177E+03  0.17120000000E+03 0.  0.
        998    1    1    2    0    0 -0.13410360873E+01 -0.22535348041E+01  0.14278076551E+04  0.14278450815E+04  0.10000000000E+02 0.  1.
</event>
<event>
 5    1  0.1153629E-008  0.3823076E+03  0.7957747E-01  0.3441172E+00
         13   -1    0    0    0    0  0.00000000000E+00  0.00000000000E+00  0.14999999963E+04  0.15000000000E+04  0.10566000000E+00 0. -1.
        994   -1    0    0    0    0 -0.00000000000E+00 -0.00000000000E+00  0.11368683772E-12  0.17120000000E+03  0.17120000000E+03 0.  0.
         13    1    1    2    0    0  0.17614665184E+02 -0.78506287702E+01  0.63385398047E+02  0.66254272702E+02  0.10566000000E+00 0. -1.
        994    1    1    2    0    0 -0.35181253805E+01  0.80225336832E+01  0.32274267252E+01  0.17145435117E+03  0.17120000000E+03 0.  0.
        998    1    1    2    0    0 -0.14096539804E+02 -0.17190491297E+00  0.14333871715E+04  0.14334913761E+04  0.10000000000E+02 0. -1.
</event>
<event>
 5    1  0.1153629E-008  0.3830423E+03  0.7957747E-01  0.3438018E+00
         13   -1    0    0    0    0  0.00000000000E+00  0.00000000000E+00  0.14999999963E+04  0.15000000000E+04  0.10566000000E+00 0.  1.
        994   -1    0    0    0    0 -0.00000000000E+00 -0.00000000000E+00  0.11368683772E-12  0.17120000000E+03  0.17120000000E+03 0.  0.
         13    1    1    2    0    0  0.78454008927E+01  0.80717028025E+01  0.23775956962E+02  0.26306082847E+02  0.10566000000E+00 0.  1.
        994    1    1    2    0    0  0.17159843922E+01 -0.56222495212E+01  0.27195855612E+01  0.17132247499E+03  0.17120000000E+03 0.  0.
        998    1    1    2    0    0 -0.95613852848E+01 -0.24494532813E+01  0.14735044538E+04  0.14735714422E+04  0.10000000000E+02 0.  1.
</event>
<event>
 5    1  0.1153629E-008  0.3800105E+03  0.7957747E-01  0.3451113E+00
         13   -1    0    0    0    0  0.00000000000E+00  0.00000000000E+00  0.14999999963E+04  0.15000000000E+04  0.10566000000E+00 0.  1.
        994   -1    0    0    0    0 -0.00000000000E+00 -0.00000000000E+00  0.11368683772E-12  0.17120000000E+03  0.17120000000E+03 0.  0.
         13    1    1    2    0    0  0.12758136400E+02  0.14636670170E+02  0.47015350006E+02  0.50867046880E+02  0.10566000000E+00 0.  1.
        994    1    1    2    0    0  0.10400522414E+01  0.52048536513E+01  0.42220507579E+01  0.17133428706E+03  0.17120000000E+03 0.  0.
        998    1    1    2    0    0 -0.13798188642E+02 -0.19841523821E+02  0.14487625955E+04  0.14489986661E+04  0.10000000000E+02 0.  1.
</event>
<event>
 5    1  0.1153629E-008  0.3848061E+03  0.7957747E-01  0.3430495E+00
         13   -1    0    0    0    0  0.00000000000E+00  0.00000000000E+00  0.14999999963E+04  0.15000000000E+04  0.10566000000E+00 0.  1.
        994   -1    0    0    0    0 -0.00000000000E+00 -0.00000000000E+00  0.11368683772E-12  0.17120000000E+03  0.17120000000E+03 0.  0.
         13    1    1    2    0    0  0.12391240032E+02  0.53487641686E+01  0.50014044223E+02  0.51803164877E+02  0.10566000000E+00 0.  1.
        994    1    1    2    0    0 -0.18783249578E+02 -0.29740312142E+01  0.29174371014E+01  0.17227770246E+03  0.17120000000E+03 0.  0.
        998    1    1    2    0    0  0.63920095459E+01 -0.23747329544E+01  0.14470685150E+04  0.14471191327E+04  0.10000000000E+02 0.  1.
</event>
<event>
 5    1  0.1153629E-008  0.3847673E+03  0.7957747E-01  0.3430660E+00
         13   -1    0    0    0    0  0.00000000000E+00  0.00000000000E+00  0.14999999963E+04  0.15000000000E+04  0.10566000000E+00 0.  1.
        994   -1    0    0    0    0 -0.00000000000E+00 -0.00000000000E+00  0.11368683772E-12  0.17120000000E+03  0.17120000000E+03 0.  0.
         13    1    1    2    0    0  0.14363384081E+01  0.11105139608E+02  0.36205803363E+02  0.37898001991E+02  0.10566000000E+00 0.  1.
        994    1    1    2    0    0 -0.39171289267E+01 -0.37860829073E+01  0.18433950022E+01  0.17129657448E+03  0.17120000000E+03 0.  0.
        998    1    1    2    0    0  0.24807905186E+01 -0.73190567010E+01  0.14619507979E+04  0.14620054235E+04  0.10000000000E+02 0.  1.
</event>
<event>
 5    1  0.1153629E-008  0.3853767E+03  0.7957747E-01  0.3428076E+00
         13   -1    0    0    0    0  0.00000000000E+00  0.00000000000E+00  0.14999999963E+04  0.15000000000E+04  0.10566000000E+00 0. -1.
        994   -1    0    0    0    0 -0.00000000000E+00 -0.00000000000E+00  0.11368683772E-12  0.17120000000E+03  0.17120000000E+03 0.  0.
         13    1    1    2    0    0  0.13452657068E+02  0.72989154912E+01  0.84048020893E+02  0.85430258864E+02  0.10566000000E+00 0. -1.
        994    1    1    2    0    0 -0.30098317970E+01 -0.68973043166E+01  0.16292568673E+01  0.17137306198E+03  0.17120000000E+03 0.  0.
        998    1    1    2    0    0 -0.10442825271E+02 -0.40161117459E+00  0.14143227185E+04  0.14143966792E+04  0.10000000000E+02 0. -1.
</event>
<event>
 5    1  0.1153629E-008  0.3805548E+03  0.7957747E-01  0.3448746E+00
         13   -1    0    0    0    0  0.00000000000E+00  0.00000000000E+00  0.14999999963E+04  0.15000000000E+04  0.10566000000E+00 0.  1.
        994   -1    0    0    0    0 -0.00000000000E+00 -0.00000000000E+00  0.11368683772E-12  0.17120000000E+03  0.17120000000E+03 0.  0.
         13    1    1    2    0    0  0.37811918186E+02  0.42998632095E+02  0.34412941322E+03  0.34886055628E+03  0.10566000000E+00 0.  1.
        994    1    1    2    0    0 -0.31292710769E+02 -0.43362346786E+02  0.13454601906E+02  0.17986103852E+03  0.17120000000E+03 0.  0.
        998    1    1    2    0    0 -0.65192074163E+01  0.36371469090E+00  0.11424159812E+04  0.11424784052E+04  0.10000000000E+02 0.  1.
</event>
<event>
 5    1  0.1153629E-008  0.3837413E+03  0.7957747E-01  0.3435028E+00
         13   -1    0    0    0    0  0.00000000000E+00  0.00000000000E+00  0.14999999963E+04  0.15000000000E+04  0.10566000000E+00 0.  1.
        994   -1    0    0    0    0 -0.00000000000E+00 -0.00000000000E+00  0.11368683772E-12  0.17120000000E+03  0.17120000000E+03 0.  0.
         13    1    1    2    0    0 -0.54929894182E+01 -0.12834983064E+02  0.41938313876E+02  0.44201165797E+02  0.10566000000E+00 0.  1.
        994    1    1    2    0    0  0.84217258229E+01  0.10412065054E+02  0.28487635842E+01  0.17174659245E+03  0.17120000000E+03 0.  0.
        998    1    1    2    0    0 -0.29287364047E+01  0.24229180102E+01  0.14552129188E+04  0.14552522418E+04  0.10000000000E+02 0.  1.
</event>
<event>
 5    1  0.1153629E-008  0.3797233E+03  0.7957747E-01  0.3452364E+00
         13   -1    0    0    0    0  0.00000000000E+00  0.00000000000E+00  0.14999999963E+04  0.15000000000E+04  0.10566000000E+00 0.  1.
        994   -1    0    0    0    0 -0.00000000000E+00 -0.00000000000E+00  0.11368683772E-12  0.17120000000E+03  0.17120000000E+03 0.  0.
         13    1    1    2    0    0 -0.24992124356E+02  0.12382381426E+02  0.10858646155E+03  0.11211137519E+03  0.10566000000E+00 0.  1.
        994    1    1    2    0    0 -0.70612704364E+01  0.26515106356E+02  0.67961987286E+01  0.17351812794E+03  0.17120000000E+03 0.  0.
        998    1    1    2    0    0  0.32053394793E+02 -0.38897487782E+02  0.13846173360E+04  0.13855704969E+04  0.10000000000E+02 0.  1.
</event>
<event>
 5    1  0.1153629E-008  0.3799084E+03  0.7957747E-01  0.3451558E+00
         13   -1    0    0    0    0  0.00000000000E+00  0.00000000000E+00  0.14999999963E+04  0.15000000000E+04  0.10566000000E+00 0.  1.
        994   -1    0    0    0    0 -0.00000000000E+00 -0.00000000000E+00  0.11368683772E-12  0.17120000000E+03  0.17120000000E+03 0.  0.
         13    1    1    2    0    0 -0.20604254794E+02  0.30888067337E+02  0.18801053848E+03  0.19164180588E+03  0.10566000000E+00 0.  1.
        994    1    1    2    0    0 -0.29646137593E+01 -0.49165598583E+01  0.42896370376E+01  0.17134994159E+03  0.17120000000E+03 0.  0.
        998    1    1    2    0    0  0.23568868554E+02 -0.25971507478E+02  0.13076998208E+04  0.13082082525E+04  0.10000000000E+02 0.  1.
</event>
<event>
 5    1  0.1153629E-008  0.3751679E+03  0.7957747E-01  0.3472472E+00
         13   -1    0    0    0    0  0.00000000000E+00  0.00000000000E+00  0.14999999963E+04  0.15000000000E+04  0.10566000000E+00 0.  1.
        994   -1    0    0    0    0 -0.00000000000E+00 -0.00000000000E+00  0.11368683772E-12  0.17120000000E+03  0.17120000000E+03 0.  0.
         13    1    1    2    0    0  0.17058306849E+02 -0.11975955819E+02  0.32300246750E+02  0.38441207765E+02  0.10566000000E+00 0.  1.
        994    1    1    2    0    0  0.31364249886E+02  0.26317081856E+02  0.12308723335E+02  0.17645750094E+03  0.17120000000E+03 0.  0.
        998    1    1    2    0    0 -0.48422556735E+02 -0.14341126037E+02  0.14553910262E+04  0.14563012913E+04  0.10000000000E+02 0.  1.
</event>
<event>
 5    1  0.1153629E-008  0.3705418E+03  0.7957747E-01  0.3493405E+00
         13   -1    0    0    0    0  0.00000000000E+00  0.00000000000E+00  0.14999999963E+04  0.15000000000E+04  0.10566000000E+00 0.  1.
        994   -1    0    0    0    0 -0.00000000000E+00 -0.00000000000E+00  0.11368683772E-12  0.17120000000E+03  0.17120000000E+03 0.  0.
         13    1    1    2    0    0  0.33160175972E+01 -0.13837621618E+02  0.72035786748E+01  0.15949246205E+02  0.10566000000E+00 0.  1.
        994    1    1    2    0    0 -0.56649551090E+01  0.88572182738E+01  0.93677506186E+01  0.17177816154E+03  0.17120000000E+03 0.  0.
        998    1    1    2    0    0  0.23489375119E+01  0.49804033442E+01  0.14834286670E+04  0.14834725923E+04  0.10000000000E+02 0.  1.
</event>
<event>
 5    1  0.1153629E-008  0.3827825E+03  0.7957747E-01  0.3439132E+00
         13   -1    0    0    0    0  0.00000000000E+00  0.00000000000E+00  0.14999999963E+04  0.15000000000E+04  0.10566000000E+00 0. -1.
        994   -1    0    0    0    0 -0.00000000000E+00 -0.00000000000E+00  0.11368683772E-12  0.17120000000E+03  0.17120000000E+03 0.  0.
         13    1    1    2    0    0  0.16160617273E+02  0.26380061702E+01  0.49153176656E+02  0.51808981524E+02  0.10566000000E+00 0. -1.
        994    1    1    2    0    0 -0.53893032381E+01 -0.54068560406E+01  0.29281804786E+01  0.17139513681E+03  0.17120000000E+03 0.  0.
        998    1    1    2    0    0 -0.10771314035E+02  0.27688498704E+01  0.14479186391E+04  0.14479958817E+04  0.10000000000E+02 0. -1.
</event>
<event>
 5    1  0.1153629E-008  0.3767686E+03  0.7957747E-01  0.3465350E+00
         13   -1    0    0    0    0  0.00000000000E+00  0.00000000000E+00  0.14999999963E+04  0.15000000000E+04  0.10566000000E+00 0.  1.
        994   -1    0    0    0    0 -0.00000000000E+00 -0.00000000000E+00  0.11368683772E-12  0.17120000000E+03  0.17120000000E+03 0.  0.
         13    1    1    2    0    0 -0.83926445640E+02  0.59828466081E+02  0.54000903783E+03  0.54975709702E+03  0.10566000000E+00 0.  1.
        994    1    1    2    0    0  0.79567812322E+02 -0.75230662826E+02  0.47428633618E+02  0.20868542037E+03  0.17120000000E+03 0.  0.
        998    1    1    2    0    0  0.43586333186E+01  0.15402196746E+02  0.91256232484E+03  0.91275748261E+03  0.10000000000E+02 0.  1.
</event>
<event>
 5    1  0.1153629E-008  0.3799081E+03  0.7957747E-01  0.3451559E+00
         13   -1    0    0    0    0  0.00000000000E+00  0.00000000000E+00  0.14999999963E+04  0.15000000000E+04  0.10566000000E+00 0.  1.
        994   -1    0    0    0    0 -0.00000000000E+00 -0.00000000000E+00  0.11368683772E-12  0.17120000000E+03  0.17120000000E+03 0.  0.
         13    1    1    2    0    0 -0.89400485476E+01  0.11821123155E+02  0.21042221365E+02  0.25738097535E+02  0.10566000000E+00 0.  1.
        994    1    1    2    0    0  0.57171070194E+02 -0.38263768864E+02  0.20171031843E+02  0.18560430437E+03  0.17120000000E+03 0.  0.
        998    1    1    2    0    0 -0.48231021646E+02  0.26442645708E+02  0.14587867431E+04  0.14598575981E+04  0.10000000000E+02 0.  1.
</event>
<event>
 5    1  0.1153629E-008  0.3803214E+03  0.7957747E-01  0.3449760E+00
         13   -1    0    0    0    0  0.00000000000E+00  0.00000000000E+00  0.14999999963E+04  0.15000000000E+04  0.10566000000E+00 0.  1.
        994   -1    0    0    0    0 -0.00000000000E+00 -0.00000000000E+00  0.11368683772E-12  0.17120000000E+03  0.17120000000E+03 0.  0.
         13    1    1    2    0    0 -0.34623520646E+02  0.11105583103E+02  0.19054779738E+03  0.19398607272E+03  0.10566000000E+00 0.  1.
        994    1    1    2    0    0  0.54336094592E+01  0.95387170468E+01  0.43735332308E+01  0.17160733967E+03  0.17120000000E+03 0.  0.
        998    1    1    2    0    0  0.29189911187E+02 -0.20644300150E+02  0.13050786657E+04  0.13056065876E+04  0.10000000000E+02 0.  1.
</event>
<event>
 5    1  0.1153629E-008  0.3779615E+03  0.7957747E-01  0.3460083E+00
         13   -1    0    0    0    0  0.00000000000E+00  0.00000000000E+00  0.14999999963E+04  0.15000000000E+04  0.10566000000E+00 0. -1.
        994   -1    0    0    0    0 -0.00000000000E+00 -0.00000000000E+00  0.11368683772E-12  0.17120000000E+03  0.17120000000E+03 0.  0.
         13    1    1    2    0    0 -0.88173679070E+01  0.11164557626E+02  0.17389621751E+02  0.22467831058E+02  0.10566000000E+00 0. -1.
        994    1    1    2    0    0  0.67467509811E+01 -0.68629926540E+01  0.54775217861E+01  0.17155775285E+03  0.17120000000E+03 0.  0.
        998    1    1    2    0    0  0.20706169258E+01 -0.43015649724E+01  0.14771328527E+04  0.14771744161E+04  0.10000000000E+02 0. -1.
</event>
<event>
 5    1  0.1153629E-008  0.3857995E+03  0.7957747E-01  0.3426288E+00
         13   -1    0    0    0    0  0.00000000000E+00  0.00000000000E+00  0.14999999963E+04  0.15000000000E+04  0.10566000000E+00 0. -1.
        994   -1    0    0    0    0 -0.00000000000E+00 -0.00000000000E+00  0.11368683772E-12  0.17120000000E+03  0.17120000000E+03 0.  0.
         13    1    1    2    0    0  0.76883922469E+01 -0.83848457389E+01  0.52966129917E+02  0.54174155239E+02  0.10566000000E+00 0. -1.
        994    1    1    2    0    0  0.15912201425E+01  0.11716253984E+02  0.16924037459E+01  0.17161616130E+03  0.17120000000E+03 0.  0.
        998    1    1    2    0    0 -0.92796123894E+01 -0.33314082450E+01  0.14453414626E+04  0.14454096835E+04  0.10000000000E+02 0. -1.
</event>
<event>
 5    1  0.1153629E-008  0.4014272E+03  0.7957747E-01  0.3362856E+00
         13   -1    0    0    0    0  0.00000000000E+00  0.00000000000E+00  0.14999999963E+04  0.15000000000E+04  0.10566000000E+00 0.  1.
        994   -1    0    0    0    0 -0.00000000000E+00 -0.00000000000E+00  0.11368683772E-12  0.17120000000E+03  0.17120000000E+03 0.  0.
         13    1    1    2    0    0  0.25337182213E+02  0.75578383482E+01 -0.46077258971E+00  0.26444606226E+02  0.10566000000E+00 0.  1.
        994    1    1    2    0    0 -0.42604367571E+02 -0.11299705921E+02  0.36321998544E+02  0.18047587946E+03  0.17120000000E+03 0.  0.
        998    1    1    2    0    0  0.17267185357E+02  0.37418675729E+01  0.14641387703E+04  0.14642795143E+04  0.10000000000E+02 0.  1.
</event>
<event>
 5    1  0.1153629E-008  0.3787590E+03  0.7957747E-01  0.3456580E+00
         13   -1    0    0    0    0  0.00000000000E+00  0.00000000000E+00  0.14999999963E+04  0.15000000000E+04  0.10566000000E+00 0. -1.
        994   -1    0    0    0    0 -0.00000000000E+00 -0.00000000000E+00  0.11368683772E-12  0.17120000000E+03  0.17120000000E+03 0.  0.
         13    1    1    2    0    0  0.20418415921E+02  0.24186942735E+02  0.95770967381E+02  0.10086629400E+03  0.10566000000E+00 0. -1.
        994    1    1    2    0    0 -0.31423616497E+02 -0.20453055323E+02  0.94941133688E+01  0.17551452742E+03  0.17120000000E+03 0.  0.
        998    1    1    2    0    0  0.11005200576E+02 -0.37338874121E+01  0.13947349155E+04  0.13948191786E+04  0.10000000000E+02 0. -1.
</event>
<event>
 5    1  0.1153629E-008  0.3943053E+03  0.7957747E-01  0.3391141E+00
         13   -1    0    0    0    0  0.00000000000E+00  0.00000000000E+00  0.14999999963E+04  0.15000000000E+04  0.10566000000E+00 0.  1.
        994   -1    0    0    0    0 -0.00000000000E+00 -0.00000000000E+00  0.11368683772E-12  0.17120000000E+03  0.17120000000E+03 0.  0.
         13    1    1    2    0    0 -0.10391506523E+02  0.28452940977E+02  0.83773156438E+01  0.31428392251E+02  0.10566000000E+00 0.  1.
        994    1    1    2    0    0  0.49548125350E+02 -0.11613712046E+02  0.34393958268E+02  0.18188534685E+03  0.17120000000E+03 0.  0.
        998    1    1    2    0    0 -0.39156618826E+02 -0.16839228932E+02  0.14572287224E+04  0.14578862609E+04  0.10000000000E+02 0.  1.
</event>
<event>
 5    1  0.1153629E-008  0.3781654E+03  0.7957747E-01  0.3459186E+00
         13   -1    0    0    0    0  0.00000000000E+00  0.00000000000E+00  0.14999999963E+04  0.15000000000E+04  0.10566000000E+00 0.  1.
        994   -1    0    0    0    0 -0.00000000000E+00 -0.00000000000E+00  0.11368683772E-12  0.17120000000E+03  0.17120000000E+03 0.  0.
         13    1    1    2    0    0  0.52015190302E+02  0.22531985315E+02  0.25195078466E+03  0.25824887113E+03  0.10566000000E+00 0.  1.
        994    1    1    2    0    0 -0.57358059548E+02 -0.25315774252E+02  0.18398654495E+02  0.18324515248E+03  0.17120000000E+03 0.  0.
        998    1    1    2    0    0  0.53428692462E+01  0.27837889373E+01  0.12296505571E+04  0.12297059764E+04  0.10000000000E+02 0.  1.
</event>
<event>
 5    1  0.1153629E-008  0.3847933E+03  0.7957747E-01  0.3430549E+00
         13   -1    0    0    0    0  0.00000000000E+00  0.00000000000E+00  0.14999999963E+04  0.15000000000E+04  0.10566000000E+00 0. -1.
        994   -1    0    0    0    0 -0.00000000000E+00 -0.00000000000E+00  0.11368683772E-12  0.17120000000E+03  0.17120000000E+03 0.  0.
         13    1    1    2    0    0  0.28204416391E+01 -0.10200339281E+02  0.30897882709E+02  0.32660253098E+02  0.10566000000E+00 0. -1.
        994    1    1    2    0    0  0.12413299817E+02  0.19613854926E+02  0.35079002514E+01  0.17280202164E+03  0.17120000000E+03 0.  0.
        998    1    1    2    0    0 -0.15233741456E+02 -0.94135156448E+01  0.14655942133E+04  0.14657377253E+04  0.10000000000E+02 0. -1.
</event>
<event>
 5    1  0.1153629E-008  0.3777226E+03  0.7957747E-01  0.3461135E+00
         13   -1    0    0    0    0  0.00000000000E+00  0.00000000000E+00  0.14999999963E+04  0.15000000000E+04  0.10566000000E+00 0.  1.
        994   -1    0    0    0    0 -0.00000000000E+00 -0.00000000000E+00  0.11368683772E-12  0.17120000000E+03  0.17120000000E+03 0.  0.
         13    1    1    2    0    0  0.82250475204E+02 -0.99233430180E+00  0.45511341562E+03  0.46248714322E+03  0.10566000000E+00 0.  1.
        994    1    1    2    0    0 -0.79633801170E+02  0.49148081628E+01  0.27037803544E+02  0.19080403677E+03  0.17120000000E+03 0.  0.
        998    1    1    2    0    0 -0.26166740341E+01 -0.39224738610E+01  0.10178487771E+04  0.10179088200E+04  0.10000000000E+02 0.  1.
</event>
<event>
 5    1  0.1153629E-008  0.3721991E+03  0.7957747E-01  0.3485845E+00
         13   -1    0    0    0    0  0.00000000000E+00  0.00000000000E+00  0.14999999963E+04  0.15000000000E+04  0.10566000000E+00 0. -1.
        994   -1    0    0    0    0 -0.00000000000E+00 -0.00000000000E+00  0.11368683772E-12  0.17120000000E+03  0.17120000000E+03 0.  0.
         13    1    1    2    0    0  0.60837640235E+01 -0.82133187652E+01 -0.13785857022E+01  0.10314186948E+02  0.10566000000E+00 0. -1.
        994    1    1    2    0    0 -0.75131303403E+01  0.87822603491E+01  0.12577139187E+02  0.17204999173E+03  0.17120000000E+03 0.  0.
        998    1    1    2    0    0  0.14293663168E+01 -0.56894158381E+00  0.14888014428E+04  0.14888358213E+04  0.10000000000E+02 0. -1.
</event>
<event>
 5    1  0.1153629E-008  0.3685665E+03  0.7957747E-01  0.3502505E+00
         13   -1    0    0    0    0  0.00000000000E+00  0.00000000000E+00  0.14999999963E+04  0.15000000000E+04  0.10566000000E+00 0.  1.
        994   -1    0    0    0    0 -0.00000000000E+00 -0.00000000000E+00  0.11368683772E-12  0.17120000000E+03  0.17120000000E+03 0.  0.
         13    1    1    2    0    0 -0.76078894707E+01  0.40463144179E+02  0.83090181472E+02  0.92731523444E+02  0.10566000000E+00 0.  1.
        994    1    1    2    0    0 -0.13654030693E+02 -0.16436342192E+02  0.11772676223E+02  0.17292952843E+03  0.17120000000E+03 0.  0.
        998    1    1    2    0    0  0.21261920164E+02 -0.24026801987E+02  0.14051371386E+04  0.14055389481E+04  0.10000000000E+02 0.  1.
</event>
<event>
 5    1  0.1153629E-008  0.3775031E+03  0.7957747E-01  0.3462103E+00
         13   -1    0    0    0    0  0.00000000000E+00  0.00000000000E+00  0.14999999963E+04  0.15000000000E+04  0.10566000000E+00 0.  1.
        994   -1    0    0    0    0 -0.00000000000E+00 -0.00000000000E+00  0.11368683772E-12  0.17120000000E+03  0.17120000000E+03 0.  0.
         13    1    1    2    0    0 -0.64120514433E+02 -0.78706356409E+02  0.29123144719E+03  0.30841838127E+03  0.10566000000E+00 0.  1.
        994    1    1    2    0    0  0.52992157414E+02  0.71868292270E+02  0.44180244799E+02  0.19807714207E+03  0.17120000000E+03 0.  0.
        998    1    1    2    0    0  0.11128357019E+02  0.68380641383E+01  0.11645883043E+04  0.11647044767E+04  0.10000000000E+02 0. -1.
</event>
<event>
 5    1  0.1533679E-008  0.3855319E+03  0.7957747E-01  0.3427420E+00
         13   -1    0    0    0    0  0.00000000000E+00  0.00000000000E+00  0.14999999963E+04  0.15000000000E+04  0.10566000000E+00 0.  1.
        994   -1    0    0    0    0 -0.00000000000E+00 -0.00000000000E+00  0.11368683772E-12  0.17120000000E+03  0.17120000000E+03 0.  0.
         13    1    1    2    0    0  0.75933261225E+01 -0.76864505010E+01  0.43318247642E+02  0.44645513388E+02  0.10566000000E+00 0.  1.
        994    1    1    2    0    0 -0.44543946980E+01  0.33811243560E+01  0.14689857976E+01  0.17129761106E+03  0.17120000000E+03 0.  0.
        998    1    1    2    0    0 -0.31389314245E+01  0.43053261451E+01  0.14552127628E+04  0.14552568756E+04  0.10000000000E+02 0.  0.
</event>
<event>
 5    1  0.1153629E-008  0.3845645E+03  0.7957747E-01  0.3431521E+00
         13   -1    0    0    0    0  0.00000000000E+00  0.00000000000E+00  0.14999999963E+04  0.15000000000E+04  0.10566000000E+00 0.  1.
        994   -1    0    0    0    0 -0.00000000000E+00 -0.00000000000E+00  0.11368683772E-12  0.17120000000E+03  0.17120000000E+03 0.  0.
         13    1    1    2    0    0 -0.11969962123E+02 -0.54099641989E+00  0.39170147386E+02  0.40961985799E+02  0.10566000000E+00 0.  1.
        994    1    1    2    0    0  0.45424605095E+01  0.46425725766E+01  0.19854519705E+01  0.17133467088E+03  0.17120000000E+03 0.  0.
        998    1    1    2    0    0  0.74275016137E+01 -0.41015761567E+01  0.14588443969E+04  0.14589033433E+04  0.10000000000E+02 0.  1.
</event>
<event>
 5    1  0.1153629E-008  0.3788802E+03  0.7957747E-01  0.3456049E+00
         13   -1    0    0    0    0  0.00000000000E+00  0.00000000000E+00  0.14999999963E+04  0.15000000000E+04  0.10566000000E+00 0. -1.
        994   -1    0    0    0    0 -0.00000000000E+00 -0.00000000000E+00  0.11368683772E-12  0.17120000000E+03  0.17120000000E+03 0.  0.
         13    1    1    2    0    0  0.19183097259E+02  0.36636757376E+02  0.23125229853E+03  0.23492100790E+03  0.10566000000E+00 0. -1.
        994    1    1    2    0    0 -0.41591747477E+01  0.10582698720E+02  0.51334130931E+01  0.17165396639E+03  0.17120000000E+03 0.  0.
        998    1    1    2    0    0 -0.15023922511E+02 -0.47219456095E+02  0.12636142847E+04  0.12646250257E+04  0.10000000000E+02 0. -1.
</event>
<event>
 5    1  0.1153629E-008  0.3823191E+03  0.7957747E-01  0.3441122E+00
         13   -1    0    0    0    0  0.00000000000E+00  0.00000000000E+00  0.14999999963E+04  0.15000000000E+04  0.10566000000E+00 0. -1.
        994   -1    0    0    0    0 -0.00000000000E+00 -0.00000000000E+00  0.11368683772E-12  0.17120000000E+03  0.17120000000E+03 0.  0.
         13    1    1    2    0    0 -0.23823726147E+02 -0.36398396410E+01  0.12115628877E+03  0.12353006045E+03  0.10566000000E+00 0. -1.
        994    1    1    2    0    0 -0.15920101773E+02 -0.12916066866E+02  0.43625259541E+01  0.17247824807E+03  0.17120000000E+03 0.  0.
        998    1    1    2    0    0  0.39743827920E+02  0.16555906507E+02  0.13744811816E+04  0.13751916915E+04  0.10000000000E+02 0. -1.
</event>
<event>
 5    1  0.1153629E-008  0.3742923E+03  0.7957747E-01  0.3476394E+00
         13   -1    0    0    0    0  0.00000000000E+00  0.00000000000E+00  0.14999999963E+04  0.15000000000E+04  0.10566000000E+00 0.  1.
        994   -1    0    0    0    0 -0.00000000000E+00 -0.00000000000E+00  0.11368683772E-12  0.17120000000E+03  0.17120000000E+03 0.  0.
         13    1    1    2    0    0 -0.26093744564E+02 -0.14661635818E+02  0.59478493149E+02  0.66584903555E+02  0.10566000000E+00 0.  1.
        994    1    1    2    0    0  0.14792552947E+02  0.27958814516E+02  0.10459281398E+02  0.17441144314E+03  0.17120000000E+03 0.  0.
        998    1    1    2    0    0  0.11301191617E+02 -0.13297178698E+02  0.14300622217E+04  0.14302036533E+04  0.10000000000E+02 0.  1.
</event>
<event>
 5    1  0.1153629E-008  0.3806848E+03  0.7957747E-01  0.3448182E+00
         13   -1    0    0    0    0  0.00000000000E+00  0.00000000000E+00  0.14999999963E+04  0.15000000000E+04  0.10566000000E+00 0. -1.
        994   -1    0    0    0    0 -0.00000000000E+00 -0.00000000000E+00  0.11368683772E-12  0.17120000000E+03  0.17120000000E+03 0.  0.
         13    1    1    2    0    0  0.38765279266E+01 -0.27691354768E+02  0.82910342739E+02  0.87498426813E+02  0.10566000000E+00 0. -1.
        994    1    1    2    0    0 -0.13682972526E+02  0.58918383728E+02  0.16088450796E+02  0.18228241256E+03  0.17120000000E+03 0.  0.
        998    1    1    2    0    0  0.98064445998E+01 -0.31227028960E+02  0.14010012027E+04  0.14014191606E+04  0.10000000000E+02 0. -1.
</event>
<event>
 5    1  0.1153629E-008  0.3753475E+03  0.7957747E-01  0.3471670E+00
         13   -1    0    0    0    0  0.00000000000E+00  0.00000000000E+00  0.14999999963E+04  0.15000000000E+04  0.10566000000E+00 0.  1.
        994   -1    0    0    0    0 -0.00000000000E+00 -0.00000000000E+00  0.11368683772E-12  0.17120000000E+03  0.17120000000E+03 0.  0.
         13    1    1    2    0    0 -0.36000309685E+02 -0.75127477241E+01  0.99093789697E+02  0.10569793752E+03  0.10566000000E+00 0.  1.
        994    1    1    2    0    0  0.27304611788E+02  0.95740330327E+01  0.93481283198E+01  0.17387935886E+03  0.17120000000E+03 0.  0.
        998    1    1    2    0    0  0.86956978970E+01 -0.20612853086E+01  0.13915580783E+04  0.13916227036E+04  0.10000000000E+02 0.  1.
</event>
<event>
 5    1  0.1153629E-008  0.3712945E+03  0.7957747E-01  0.3489963E+00
         13   -1    0    0    0    0  0.00000000000E+00  0.00000000000E+00  0.14999999963E+04  0.15000000000E+04  0.10566000000E+00 0.  1.
        994   -1    0    0    0    0 -0.00000000000E+00 -0.00000000000E+00  0.11368683772E-12  0.17120000000E+03  0.17120000000E+03 0.  0.
         13    1    1    2    0    0  0.22251481379E+02  0.23799533966E+02  0.62638299153E+02  0.70605339213E+02  0.10566000000E+00 0.  1.
        994    1    1    2    0    0 -0.37496492102E+02  0.35642314643E+02  0.17863720893E+02  0.17973567825E+03  0.17120000000E+03 0.  0.
        998    1    1    2    0    0  0.15245010724E+02 -0.59441848610E+02  0.14194979762E+04  0.14208589825E+04  0.10000000000E+02 0.  1.
</event>
<event>
 5    1  0.1153629E-008  0.3834968E+03  0.7957747E-01  0.3436073E+00
         13   -1    0    0    0    0  0.00000000000E+00  0.00000000000E+00  0.14999999963E+04  0.15000000000E+04  0.10566000000E+00 0.  1.
        994   -1    0    0    0    0 -0.00000000000E+00 -0.00000000000E+00  0.11368683772E-12  0.17120000000E+03  0.17120000000E+03 0.  0.
         13    1    1    2    0    0 -0.14290948159E+02 -0.18979670768E+01  0.43214120042E+02  0.45555513534E+02  0.10566000000E+00 0.  1.
        994    1    1    2    0    0  0.87348406590E+01  0.27082383342E-02  0.26304906932E+01  0.17144286783E+03  0.17120000000E+03 0.  0.
        998    1    1    2    0    0  0.55561075003E+01  0.18952588385E+01  0.14541553855E+04  0.14542016186E+04  0.10000000000E+02 0.  1.
</event>
<event>
 5    1  0.1153629E-008  0.3856217E+03  0.7957747E-01  0.3427040E+00
         13   -1    0    0    0    0  0.00000000000E+00  0.00000000000E+00  0.14999999963E+04  0.15000000000E+04  0.10566000000E+00 0. -1.
        994   -1    0    0    0    0 -0.00000000000E+00 -0.00000000000E+00  0.11368683772E-12  0.17120000000E+03  0.17120000000E+03 0.  0.
         13    1    1    2    0    0 -0.33636320686E+01 -0.10921291040E+02  0.51000398285E+02  0.52265097416E+02  0.10566000000E+00 0. -1.
        994    1    1    2    0    0 -0.62856242688E+01  0.56872027307E+01  0.15576645905E+01  0.17141680100E+03  0.17120000000E+03 0.  0.
        998    1    1    2    0    0  0.96492563374E+01  0.52340883089E+01  0.14474419334E+04  0.14475181016E+04  0.10000000000E+02 0. -1.
</event>
<event>
 5    1  0.1153629E-008  0.3837819E+03  0.7957747E-01  0.3434855E+00
         13   -1    0    0    0    0  0.00000000000E+00  0.00000000000E+00  0.14999999963E+04  0.15000000000E+04  0.10566000000E+00 0.  1.
        994   -1    0    0    0    0 -0.00000000000E+00 -0.00000000000E+00  0.11368683772E-12  0.17120000000E+03  0.17120000000E+03 0.  0.
         13    1    1    2    0    0 -0.44131843489E-01 -0.11643828015E+02  0.30934518665E+02  0.33053536687E+02  0.10566000000E+00 0.  1.
        994    1    1    2    0    0  0.89740843285E+01 -0.27957245178E+01  0.25278476330E+01  0.17147647150E+03  0.17120000000E+03 0.  0.
        998    1    1    2    0    0 -0.89299524850E+01  0.14439552533E+02  0.14665376300E+04  0.14666699918E+04  0.10000000000E+02 0.  1.
</event>
<event>
 5    1  0.1712692E-008  0.3861523E+03  0.7957747E-01  0.3424800E+00
         13   -1    0    0    0    0  0.00000000000E+00  0.00000000000E+00  0.14999999963E+04  0.15000000000E+04  0.10566000000E+00 0.  1.
        994   -1    0    0    0    0 -0.00000000000E+00 -0.00000000000E+00  0.11368683772E-12  0.17120000000E+03  0.17120000000E+03 0.  0.
         13    1    1    2    0    0  0.92268705248E+01 -0.47830485712E+01  0.51688765161E+02  0.52723356316E+02  0.10566000000E+00 0.  1.
        994    1    1    2    0    0 -0.77216925058E+01  0.59668753413E+00  0.12556656371E+01  0.17137968744E+03  0.17120000000E+03 0.  0.
        998    1    1    2    0    0 -0.15051780190E+01  0.41863610371E+01  0.14470555655E+04  0.14470969562E+04  0.10000000000E+02 0.  1.
</event>
<event>
 5    1  0.1153629E-008  0.4406815E+03  0.7957747E-01  0.3223163E+00
         13   -1    0    0    0    0  0.00000000000E+00  0.00000000000E+00  0.14999999963E+04  0.15000000000E+04  0.10566000000E+00 0. -1.
        994   -1    0    0    0    0 -0.00000000000E+00 -0.00000000000E+00  0.11368683772E-12  0.17120000000E+03  0.17120000000E+03 0.  0.
         13    1    1    2    0    0 -0.22985711230E+02  0.60992651171E+02  0.19670462986E+02  0.68083659535E+02  0.10566000000E+00 0. -1.
        994    1    1    2    0    0  0.28654570076E+02 -0.60767182345E+02  0.76414269023E+02  0.19915399907E+03  0.17120000000E+03 0.  0.
        998    1    1    2    0    0 -0.56688588459E+01 -0.22546882602E+00  0.14039152643E+04  0.14039623414E+04  0.10000000000E+02 0. -1.
</event>
<event>
 5    1  0.1153629E-008  0.3787026E+03  0.7957747E-01  0.3456827E+00
         13   -1    0    0    0    0  0.00000000000E+00  0.00000000000E+00  0.14999999963E+04  0.15000000000E+04  0.10566000000E+00 0. -1.
        994   -1    0    0    0    0 -0.00000000000E+00 -0.00000000000E+00  0.11368683772E-12  0.17120000000E+03  0.17120000000E+03 0.  0.
         13    1    1    2    0    0  0.83424922735E+01 -0.92515858025E+01  0.13799754707E+02  0.18591218659E+02  0.10566000000E+00 0. -1.
        994    1    1    2    0    0 -0.28233994974E+02 -0.14651474101E+01  0.74776444741E+01  0.17367976363E+03  0.17120000000E+03 0.  0.
        998    1    1    2    0    0  0.19891502701E+02  0.10716733213E+02  0.14787225971E+04  0.14789290177E+04  0.10000000000E+02 0. -1.
</event>
<event>
 5    1  0.1153629E-008  0.3762525E+03  0.7957747E-01  0.3467640E+00
         13   -1    0    0    0    0  0.00000000000E+00  0.00000000000E+00  0.14999999963E+04  0.15000000000E+04  0.10566000000E+00 0. -1.
        994   -1    0    0    0    0 -0.00000000000E+00 -0.00000000000E+00  0.11368683772E-12  0.17120000000E+03  0.17120000000E+03 0.  0.
         13    1    1    2    0    0 -0.38044897992E+02  0.85642467261E+00  0.11042604525E+03  0.11679927380E+03  0.10566000000E+00 0. -1.
        994    1    1    2    0    0  0.37257324588E+02  0.49076017833E+01  0.10832028853E+02  0.17561026633E+03  0.17120000000E+03 0.  0.
        998    1    1    2    0    0  0.78757340385E+00 -0.57640264559E+01  0.13787419222E+04  0.13787904599E+04  0.10000000000E+02 0. -1.
</event>
<event>
 5    1  0.1153629E-008  0.3780536E+03  0.7957747E-01  0.3459677E+00
         13   -1    0    0    0    0  0.00000000000E+00  0.00000000000E+00  0.14999999963E+04  0.15000000000E+04  0.10566000000E+00 0. -1.
        994   -1    0    0    0    0 -0.00000000000E+00 -0.00000000000E+00  0.11368683772E-12  0.17120000000E+03  0.17120000000E+03 0.  0.
         13    1    1    2    0    0  0.18875300828E+02  0.10647661640E+02  0.43823619533E+02  0.48889369732E+02  0.10566000000E+00 0. -1.
        994    1    1    2    0    0 -0.11750252251E+02 -0.90986763802E+01  0.58623231152E+01  0.17194377329E+03  0.17120000000E+03 0.  0.
        998    1    1    2    0    0 -0.71250485770E+01 -0.15489852594E+01  0.14503140536E+04  0.14503668570E+04  0.10000000000E+02 0. -1.
</event>
<event>
 5    1  0.1153629E-008  0.3849891E+03  0.7957747E-01  0.3429718E+00
         13   -1    0    0    0    0  0.00000000000E+00  0.00000000000E+00  0.14999999963E+04  0.15000000000E+04  0.10566000000E+00 0.  1.
        994   -1    0    0    0    0 -0.00000000000E+00 -0.00000000000E+00  0.11368683772E-12  0.17120000000E+03  0.17120000000E+03 0.  0.
         13    1    1    2    0    0  0.13977311904E+02  0.22739398562E+01  0.58636961655E+02  0.60322802378E+02  0.10566000000E+00 0.  1.
        994    1    1    2    0    0 -0.17917079721E+02  0.50061859183E+01  0.27745496779E+01  0.17223014187E+03  0.17120000000E+03 0.  0.
        998    1    1    2    0    0  0.39397678169E+01 -0.72801257745E+01  0.14385884849E+04  0.14386470558E+04  0.10000000000E+02 0.  1.
</event>
<event>
 5    1  0.1153629E-008  0.3818792E+03  0.7957747E-01  0.3443017E+00
         13   -1    0    0    0    0  0.00000000000E+00  0.00000000000E+00  0.14999999963E+04  0.15000000000E+04  0.10566000000E+00 0. -1.
        994   -1    0    0    0    0 -0.00000000000E+00 -0.00000000000E+00  0.11368683772E-12  0.17120000000E+03  0.17120000000E+03 0.  0.
         13    1    1    2    0    0  0.35259062447E+02 -0.13188906325E+02  0.22079894852E+03  0.22398512354E+03  0.10566000000E+00 0. -1.
        994    1    1    2    0    0 -0.16423677068E+02  0.19606595575E+02  0.53638719252E+01  0.17318304444E+03  0.17120000000E+03 0.  0.
        998    1    1    2    0    0 -0.18835385379E+02 -0.64176892496E+01  0.12738371758E+04  0.12740318320E+04  0.10000000000E+02 0. -1.
</event>
<event>
 5    1  0.1153629E-008  0.3832790E+03  0.7957747E-01  0.3437004E+00
         13   -1    0    0    0    0  0.00000000000E+00  0.00000000000E+00  0.14999999963E+04  0.15000000000E+04  0.10566000000E+00 0. -1.
        994   -1    0    0    0    0 -0.00000000000E+00 -0.00000000000E+00  0.11368683772E-12  0.17120000000E+03  0.17120000000E+03 0.  0.
         13    1    1    2    0    0 -0.26739972607E+02  0.52920062611E+01  0.15696266811E+03  0.15931202657E+03  0.10566000000E+00 0. -1.
        994    1    1    2    0    0  0.11339052303E+02  0.64468291124E+01  0.30498368749E+01  0.17172325765E+03  0.17120000000E+03 0.  0.
        998    1    1    2    0    0  0.15400920305E+02 -0.11738835373E+02  0.13399874913E+04  0.13401647158E+04  0.10000000000E+02 0. -1.
</event>
<event>
 5    1  0.1153629E-008  0.3694589E+03  0.7957747E-01  0.3498381E+00
         13   -1    0    0    0    0  0.00000000000E+00  0.00000000000E+00  0.14999999963E+04  0.15000000000E+04  0.10566000000E+00 0. -1.
        994   -1    0    0    0    0 -0.00000000000E+00 -0.00000000000E+00  0.11368683772E-12  0.17120000000E+03  0.17120000000E+03 0.  0.
         13    1    1    2    0    0  0.67209578535E+02 -0.42563934040E+02  0.43681552552E+03  0.44400070994E+03  0.10566000000E+00 0. -1.
        994    1    1    2    0    0 -0.12291345058E+00  0.25264106942E+02  0.11766425010E+02  0.17345367959E+03  0.17120000000E+03 0.  0.
        998    1    1    2    0    0 -0.67086665084E+02  0.17299827097E+02  0.10514180458E+04  0.10537456105E+04  0.10000000000E+02 0. -1.
</event>
<event>
 5    1  0.1153629E-008  0.3751062E+03  0.7957747E-01  0.3472748E+00
         13   -1    0    0    0    0  0.00000000000E+00  0.00000000000E+00  0.14999999963E+04  0.15000000000E+04  0.10566000000E+00 0.  1.
        994   -1    0    0    0    0 -0.00000000000E+00 -0.00000000000E+00  0.11368683772E-12  0.17120000000E+03  0.17120000000E+03 0.  0.
         13    1    1    2    0    0  0.21406871243E+02 -0.12785414905E+01  0.33527366521E+02  0.39799299927E+02  0.10566000000E+00 0.  1.
        994    1    1    2    0    0  0.16781307143E+01 -0.94851790704E+01  0.69395554880E+01  0.17161113651E+03  0.17120000000E+03 0.  0.
        998    1    1    2    0    0 -0.23085001957E+02  0.10763720561E+02  0.14595330743E+04  0.14597895636E+04  0.10000000000E+02 0.  1.
</event>
<event>
 5    1  0.1153629E-008  0.3845641E+03  0.7957747E-01  0.3431523E+00
         13   -1    0    0    0    0  0.00000000000E+00  0.00000000000E+00  0.14999999963E+04  0.15000000000E+04  0.10566000000E+00 0.  1.
        994   -1    0    0    0    0 -0.00000000000E+00 -0.00000000000E+00  0.11368683772E-12  0.17120000000E+03  0.17120000000E+03 0.  0.
         13    1    1    2    0    0  0.11742379585E+02 -0.18917989242E+01  0.38760060683E+02  0.40543998936E+02  0.10566000000E+00 0.  1.
        994    1    1    2    0    0 -0.28871494479E+01  0.52938808582E+01  0.19664778587E+01  0.17131744757E+03  0.17120000000E+03 0.  0.
        998    1    1    2    0    0 -0.88552301371E+01 -0.34020819339E+01  0.14592734577E+04  0.14593385535E+04  0.10000000000E+02 0.  1.
</event>
<event>
 5    1  0.1153629E-008  0.3791814E+03  0.7957747E-01  0.3454730E+00
         13   -1    0    0    0    0  0.00000000000E+00  0.00000000000E+00  0.14999999963E+04  0.15000000000E+04  0.10566000000E+00 0.  1.
        994   -1    0    0    0    0 -0.00000000000E+00 -0.00000000000E+00  0.11368683772E-12  0.17120000000E+03  0.17120000000E+03 0.  0.
         13    1    1    2    0    0 -0.46609605196E+02  0.87926534210E+02  0.54037463679E+03  0.54946181848E+03  0.10566000000E+00 0.  1.
        994    1    1    2    0    0  0.26428132035E+02  0.20189965622E+02  0.19884589034E+02  0.17553038984E+03  0.17120000000E+03 0.  0.
        998    1    1    2    0    0  0.20181473161E+02 -0.10811649983E+03  0.93974077045E+03  0.94620779168E+03  0.10000000000E+02 0. -1.
</event>
<event>
 5    1  0.1153629E-008  0.3794861E+03  0.7957747E-01  0.3453399E+00
         13   -1    0    0    0    0  0.00000000000E+00  0.00000000000E+00  0.14999999963E+04  0.15000000000E+04  0.10566000000E+00 0. -1.
        994   -1    0    0    0    0 -0.00000000000E+00 -0.00000000000E+00  0.11368683772E-12  0.17120000000E+03  0.17120000000E+03 0.  0.
         13    1    1    2    0    0 -0.10949537927E+02 -0.17716490710E+02  0.46412676830E+02  0.50871545666E+02  0.10566000000E+00 0. -1.
        994    1    1    2    0    0  0.78996027757E+01  0.20263524941E+02  0.59783135591E+01  0.17267945564E+03  0.17120000000E+03 0.  0.
        998    1    1    2    0    0  0.30499351516E+01 -0.25470342308E+01  0.14476090059E+04  0.14476489987E+04  0.10000000000E+02 0. -1.
</event>
<event>
 5    1  0.1153629E-008  0.3766195E+03  0.7957747E-01  0.3466011E+00
         13   -1    0    0    0    0  0.00000000000E+00  0.00000000000E+00  0.14999999963E+04  0.15000000000E+04  0.10566000000E+00 0.  1.
        994   -1    0    0    0    0 -0.00000000000E+00 -0.00000000000E+00  0.11368683772E-12  0.17120000000E+03  0.17120000000E+03 0.  0.
         13    1    1    2    0    0  0.22109037253E+02 -0.19462396071E+02  0.70317329317E+02  0.76237342264E+02  0.10566000000E+00 0.  1.
        994    1    1    2    0    0 -0.17853668551E+02  0.17250132521E+02  0.79358331245E+01  0.17317256711E+03  0.17120000000E+03 0.  0.
        998    1    1    2    0    0 -0.42553687019E+01  0.22122635499E+01  0.14217468338E+04  0.14217900906E+04  0.10000000000E+02 0.  1.
</event>
<event>
 5    1  0.1153629E-008  0.3847529E+03  0.7957747E-01  0.3430721E+00
         13   -1    0    0    0    0  0.00000000000E+00  0.00000000000E+00  0.14999999963E+04  0.15000000000E+04  0.10566000000E+00 0. -1.
        994   -1    0    0    0    0 -0.00000000000E+00 -0.00000000000E+00  0.11368683772E-12  0.17120000000E+03  0.17120000000E+03 0.  0.
         13    1    1    2    0    0 -0.77049860201E+01 -0.10745536489E+02  0.48424278561E+02  0.50197164086E+02  0.10566000000E+00 0. -1.
        994    1    1    2    0    0  0.11434646420E+02  0.87108324593E+01  0.24332575684E+01  0.17181964522E+03  0.17120000000E+03 0.  0.
        998    1    1    2    0    0 -0.37296603999E+01  0.20347040296E+01  0.14491424601E+04  0.14491831907E+04  0.10000000000E+02 0. -1.
</event>
<event>
 5    1  0.1153629E-008  0.3802588E+03  0.7957747E-01  0.3450032E+00
         13   -1    0    0    0    0  0.00000000000E+00  0.00000000000E+00  0.14999999963E+04  0.15000000000E+04  0.10566000000E+00 0. -1.
        994   -1    0    0    0    0 -0.00000000000E+00 -0.00000000000E+00  0.11368683772E-12  0.17120000000E+03  0.17120000000E+03 0.  0.
         13    1    1    2    0    0 -0.11643732480E+02 -0.67050863746E+01  0.20580091553E+02  0.24578161480E+02  0.10566000000E+00 0. -1.
        994    1    1    2    0    0  0.14080623816E+02  0.56069982149E+01  0.47701281516E+01  0.17193573369E+03  0.17120000000E+03 0.  0.
        998    1    1    2    0    0 -0.24368913355E+01  0.10980881597E+01  0.14746497766E+04  0.14746861048E+04  0.10000000000E+02 0. -1.
</event>
<event>
 5    1  0.1153629E-008  0.3854889E+03  0.7957747E-01  0.3427601E+00
         13   -1    0    0    0    0  0.00000000000E+00  0.00000000000E+00  0.14999999963E+04  0.15000000000E+04  0.10566000000E+00 0.  1.
        994   -1    0    0    0    0 -0.00000000000E+00 -0.00000000000E+00  0.11368683772E-12  0.17120000000E+03  0.17120000000E+03 0.  0.
         13    1    1    2    0    0  0.12292072636E+02  0.41595665166E+01  0.73122157352E+02  0.74264783735E+02  0.10566000000E+00 0.  1.
        994    1    1    2    0    0  0.18311049450E+02 -0.62557068769E+01  0.26179689696E+01  0.17230995956E+03  0.17120000000E+03 0.  0.
        998    1    1    2    0    0 -0.30603122086E+02  0.20961403604E+01  0.14242598700E+04  0.14246252567E+04  0.10000000000E+02 0.  1.
</event>
<event>
 5    1  0.1153629E-008  0.3792735E+03  0.7957747E-01  0.3454328E+00
         13   -1    0    0    0    0  0.00000000000E+00  0.00000000000E+00  0.14999999963E+04  0.15000000000E+04  0.10566000000E+00 0. -1.
        994   -1    0    0    0    0 -0.00000000000E+00 -0.00000000000E+00  0.11368683772E-12  0.17120000000E+03  0.17120000000E+03 0.  0.
         13    1    1    2    0    0 -0.34441308929E+02 -0.28881341768E+02  0.19359009533E+03  0.19873970876E+03  0.10566000000E+00 0. -1.
        994    1    1    2    0    0  0.27653989928E+02  0.39825043568E+02  0.12418329776E+02  0.17836600620E+03  0.17120000000E+03 0.  0.
        998    1    1    2    0    0  0.67873190017E+01 -0.10943701800E+02  0.12939915712E+04  0.12940942850E+04  0.10000000000E+02 0. -1.
</event>
<event>
 5    1  0.1153629E-008  0.3784638E+03  0.7957747E-01  0.3457875E+00
         13   -1    0    0    0    0  0.00000000000E+00  0.00000000000E+00  0.14999999963E+04  0.15000000000E+04  0.10566000000E+00 0. -1.
        994   -1    0    0    0    0 -0.00000000000E+00 -0.00000000000E+00  0.11368683772E-12  0.17120000000E+03  0.17120000000E+03 0.  0.
         13    1    1    2    0    0  0.27592381083E+02  0.40963907954E+02  0.76042806318E+02  0.90674697714E+02  0.10566000000E+00 0. -1.
        994    1    1    2    0    0 -0.30001627150E+02 -0.50094999554E+01  0.18826792444E+02  0.17489734371E+03  0.17120000000E+03 0.  0.
        998    1    1    2    0    0  0.24092460661E+01 -0.35954407998E+02  0.14051303975E+04  0.14056279586E+04  0.10000000000E+02 0. -1.
</event>
<event>
 5    1  0.1153629E-008  0.3775219E+03  0.7957747E-01  0.3462020E+00
         13   -1    0    0    0    0  0.00000000000E+00  0.00000000000E+00  0.14999999963E+04  0.15000000000E+04  0.10566000000E+00 0.  1.
        994   -1    0    0    0    0 -0.00000000000E+00 -0.00000000000E+00  0.11368683772E-12  0.17120000000E+03  0.17120000000E+03 0.  0.
         13    1    1    2    0    0 -0.69414091001E+01 -0.12559865455E+03  0.71944977030E+03  0.73036373701E+03  0.10566000000E+00 0.  1.
        994    1    1    2    0    0  0.52678442417E+01  0.12580879412E+03  0.60844419546E+02  0.22105901079E+03  0.17120000000E+03 0.  0.
        998    1    1    2    0    0  0.16735648584E+01 -0.21013957249E+00  0.71970580643E+03  0.71977725220E+03  0.10000000000E+02 0.  0.
</event>
<event>
 5    1  0.1153629E-008  0.3707760E+03  0.7957747E-01  0.3492332E+00
         13   -1    0    0    0    0  0.00000000000E+00  0.00000000000E+00  0.14999999963E+04  0.15000000000E+04  0.10566000000E+00 0. -1.
        994   -1    0    0    0    0 -0.00000000000E+00 -0.00000000000E+00  0.11368683772E-12  0.17120000000E+03  0.17120000000E+03 0.  0.
         13    1    1    2    0    0  0.80136114133E+01  0.26392759168E+02  0.31516298530E+02  0.41881785318E+02  0.10566000000E+00 0. -1.
        994    1    1    2    0    0  0.16489088584E+02  0.12636646359E+02  0.12864063580E+02  0.17293495600E+03  0.17120000000E+03 0.  0.
        998    1    1    2    0    0 -0.24502699997E+02 -0.39029405527E+02  0.14556196342E+04  0.14563832587E+04  0.10000000000E+02 0. -1.
</event>
<event>
 5    1  0.1153629E-008  0.3758323E+03  0.7957747E-01  0.3469509E+00
         13   -1    0    0    0    0  0.00000000000E+00  0.00000000000E+00  0.14999999963E+04  0.15000000000E+04  0.10566000000E+00 0. -1.
        994   -1    0    0    0    0 -0.00000000000E+00 -0.00000000000E+00  0.11368683772E-12  0.17120000000E+03  0.17120000000E+03 0.  0.
         13    1    1    2    0    0  0.16027597698E+02  0.29752680529E+02  0.96136555768E+02  0.10190365256E+03  0.10566000000E+00 0. -1.
        994    1    1    2    0    0  0.98906509280E+00 -0.39987064157E+01  0.63094533214E+01  0.17136574075E+03  0.17120000000E+03 0.  0.
        998    1    1    2    0    0 -0.17016662790E+02 -0.25753974113E+02  0.13975539872E+04  0.13979306067E+04  0.10000000000E+02 0. -1.
</event>
<event>
 5    1  0.1437389E-008  0.3861403E+03  0.7957747E-01  0.3424850E+00
         13   -1    0    0    0    0  0.00000000000E+00  0.00000000000E+00  0.14999999963E+04  0.15000000000E+04  0.10566000000E+00 0.  1.
        994   -1    0    0    0    0 -0.00000000000E+00 -0.00000000000E+00  0.11368683772E-12  0.17120000000E+03  0.17120000000E+03 0.  0.
         13    1    1    2    0    0  0.29039273189E+01  0.11041367548E+02  0.60297933804E+02  0.61369345575E+02  0.10566000000E+00 0.  1.
        994    1    1    2    0    0 -0.11433691665E+01 -0.11599149424E+02  0.15102979031E+01  0.17160293867E+03  0.17120000000E+03 0.  0.
        998    1    1    2    0    0 -0.17605581525E+01  0.55778187647E+00  0.14381917646E+04  0.14382277158E+04  0.10000000000E+02 0.  1.
</event>
<event>
 5    1  0.1153629E-008  0.3852354E+03  0.7957747E-01  0.3428674E+00
         13   -1    0    0    0    0  0.00000000000E+00  0.00000000000E+00  0.14999999963E+04  0.15000000000E+04  0.10566000000E+00 0. -1.
        994   -1    0    0    0    0 -0.00000000000E+00 -0.00000000000E+00  0.11368683772E-12  0.17120000000E+03  0.17120000000E+03 0.  0.
         13    1    1    2    0    0  0.90038258723E+00  0.12561632802E+02  0.49744052202E+02  0.51313616136E+02  0.10566000000E+00 0. -1.
        994    1    1    2    0    0  0.34094108918E+01 -0.18126168146E+02  0.26319790693E+01  0.17221077019E+03  0.17120000000E+03 0.  0.
        998    1    1    2    0    0 -0.43097934790E+01  0.55645353435E+01  0.14476239650E+04  0.14476756137E+04  0.10000000000E+02 0. -1.
</event>
<event>
 5    1  0.1153629E-008  0.3692805E+03  0.7957747E-01  0.3499204E+00
         13   -1    0    0    0    0  0.00000000000E+00  0.00000000000E+00  0.14999999963E+04  0.15000000000E+04  0.10566000000E+00 0.  1.
        994   -1    0    0    0    0 -0.00000000000E+00 -0.00000000000E+00  0.11368683772E-12  0.17120000000E+03  0.17120000000E+03 0.  0.
         13    1    1    2    0    0  0.23148940293E+02  0.47936368189E+02  0.13357274722E+03  0.14378963383E+03  0.10566000000E+00 0.  1.
        994    1    1    2    0    0 -0.18322321668E+02 -0.46415100890E+02  0.18326921767E+02  0.17926345172E+03  0.17120000000E+03 0.  0.
        998    1    1    2    0    0 -0.48266186252E+01 -0.15212672994E+01  0.13481003273E+04  0.13481469145E+04  0.10000000000E+02 0.  1.
</event>
<event>
 5    1  0.1153629E-008  0.3857607E+03  0.7957747E-01  0.3426453E+00
         13   -1    0    0    0    0  0.00000000000E+00  0.00000000000E+00  0.14999999963E+04  0.15000000000E+04  0.10566000000E+00 0.  1.
        994   -1    0    0    0    0 -0.00000000000E+00 -0.00000000000E+00  0.11368683772E-12  0.17120000000E+03  0.17120000000E+03 0.  0.
         13    1    1    2    0    0  0.10727136322E+02  0.19385639323E+01  0.49479687042E+02  0.50666360414E+02  0.10566000000E+00 0.  1.
        994    1    1    2    0    0 -0.33830120169E+01  0.79015744083E+01  0.14953522287E+01  0.17142215646E+03  0.17120000000E+03 0.  0.
        998    1    1    2    0    0 -0.73441243056E+01 -0.98401383405E+01  0.14490249570E+04  0.14491114831E+04  0.10000000000E+02 0.  1.
</event>
<event>
 5    1  0.1153629E-008  0.3806699E+03  0.7957747E-01  0.3448247E+00
         13   -1    0    0    0    0  0.00000000000E+00  0.00000000000E+00  0.14999999963E+04  0.15000000000E+04  0.10566000000E+00 0.  1.
        994   -1    0    0    0    0 -0.00000000000E+00 -0.00000000000E+00  0.11368683772E-12  0.17120000000E+03  0.17120000000E+03 0.  0.
         13    1    1    2    0    0 -0.45746850909E+02  0.12919750648E+03  0.75146884975E+03  0.76386531101E+03  0.10566000000E+00 0.  1.
        994    1    1    2    0    0  0.48225190588E+02 -0.15070358263E+03  0.92395802251E+02  0.25076615222E+03  0.17120000000E+03 0.  0.
        998    1    1    2    0    0 -0.24783396794E+01  0.21506076149E+02  0.65613534428E+03  0.65656853678E+03  0.10000000000E+02 0. -1.
</event>
<event>
 5    1  0.1153629E-008  0.3843513E+03  0.7957747E-01  0.3432428E+00
         13   -1    0    0    0    0  0.00000000000E+00  0.00000000000E+00  0.14999999963E+04  0.15000000000E+04  0.10566000000E+00 0. -1.
        994   -1    0    0    0    0 -0.00000000000E+00 -0.00000000000E+00  0.11368683772E-12  0.17120000000E+03  0.17120000000E+03 0.  0.
         13    1    1    2    0    0  0.11497713791E+02 -0.11346696668E+02  0.63376639590E+02  0.65403016425E+02  0.10566000000E+00 0. -1.
        994    1    1    2    0    0 -0.11668557479E+02  0.15325537781E+02  0.31762631057E+01  0.17230947736E+03  0.17120000000E+03 0.  0.
        998    1    1    2    0    0  0.17084368871E+00 -0.39788411122E+01  0.14334470936E+04  0.14334875062E+04  0.10000000000E+02 0. -1.
</event>
<event>
 5    1  0.1211708E-008  0.3858375E+03  0.7957747E-01  0.3426128E+00
         13   -1    0    0    0    0  0.00000000000E+00  0.00000000000E+00  0.14999999963E+04  0.15000000000E+04  0.10566000000E+00 0. -1.
        994   -1    0    0    0    0 -0.00000000000E+00 -0.00000000000E+00  0.11368683772E-12  0.17120000000E+03  0.17120000000E+03 0.  0.
         13    1    1    2    0    0 -0.72153894430E+01  0.10765797554E+02  0.67873680083E+02  0.69100013414E+02  0.10566000000E+00 0. -1.
        994    1    1    2    0    0  0.10049258743E+02 -0.81011490704E+01  0.17615342291E+01  0.17169495980E+03  0.17120000000E+03 0.  0.
        998    1    1    2    0    0 -0.28338693003E+01 -0.26646484836E+01  0.14303647820E+04  0.14304050268E+04  0.10000000000E+02 0. -1.
</event>
<event>
 5    1  0.1153629E-008  0.3737717E+03  0.7957747E-01  0.3478734E+00
         13   -1    0    0    0    0  0.00000000000E+00  0.00000000000E+00  0.14999999963E+04  0.15000000000E+04  0.10566000000E+00 0. -1.
        994   -1    0    0    0    0 -0.00000000000E+00 -0.00000000000E+00  0.11368683772E-12  0.17120000000E+03  0.17120000000E+03 0.  0.
         13    1    1    2    0    0 -0.12822372581E+02 -0.10357847631E+02  0.15296496388E+02  0.22487601293E+02  0.10566000000E+00 0. -1.
        994    1    1    2    0    0  0.13000916111E+02  0.66789355672E+01  0.80403665079E+01  0.17201081214E+03  0.17120000000E+03 0.  0.
        998    1    1    2    0    0 -0.17854353056E+00  0.36789120642E+01  0.14766631334E+04  0.14767015866E+04  0.10000000000E+02 0. -1.
</event>
<event>
 5    1  0.1153629E-008  0.3796412E+03  0.7957747E-01  0.3452722E+00
         13   -1    0    0    0    0  0.00000000000E+00  0.00000000000E+00  0.14999999963E+04  0.15000000000E+04  0.10566000000E+00 0. -1.
        994   -1    0    0    0    0 -0.00000000000E+00 -0.00000000000E+00  0.11368683772E-12  0.17120000000E+03  0.17120000000E+03 0.  0.
         13    1    1    2    0    0 -0.39643416383E+01  0.96824040380E+01  0.10896329456E+02  0.15106492387E+02  0.10566000000E+00 0. -1.
        994    1    1    2    0    0 -0.29622491922E+01 -0.43566903707E+01  0.44072802365E+01  0.17133773604E+03  0.17120000000E+03 0.  0.
        998    1    1    2    0    0  0.69265908305E+01 -0.53257136673E+01  0.14846963866E+04  0.14847557716E+04  0.10000000000E+02 0. -1.
</event>
<event>
 5    1  0.1153629E-008  0.3832807E+03  0.7957747E-01  0.3436997E+00
         13   -1    0    0    0    0  0.00000000000E+00  0.00000000000E+00  0.14999999963E+04  0.15000000000E+04  0.10566000000E+00 0.  1.
        994   -1    0    0    0    0 -0.00000000000E+00 -0.00000000000E+00  0.11368683772E-12  0.17120000000E+03  0.17120000000E+03 0.  0.
         13    1    1    2    0    0 -0.95388967627E+01 -0.31574016797E+01  0.19112901056E+02  0.21593376013E+02  0.10566000000E+00 0.  1.
        994    1    1    2    0    0  0.10849656676E+02  0.47949243539E+01  0.29516210129E+01  0.17163583081E+03  0.17120000000E+03 0.  0.
        998    1    1    2    0    0 -0.13107599136E+01 -0.16375226741E+01  0.14779354742E+04  0.14779707932E+04  0.10000000000E+02 0.  1.
</event>
<event>
 5    1  0.1153629E-008  0.3732713E+03  0.7957747E-01  0.3480991E+00
         13   -1    0    0    0    0  0.00000000000E+00  0.00000000000E+00  0.14999999963E+04  0.15000000000E+04  0.10566000000E+00 0.  1.
        994   -1    0    0    0    0 -0.00000000000E+00 -0.00000000000E+00  0.11368683772E-12  0.17120000000E+03  0.17120000000E+03 0.  0.
         13    1    1    2    0    0 -0.32998105947E+02  0.36348784936E+02  0.14016321992E+03  0.14851211581E+03  0.10566000000E+00 0.  1.
        994    1    1    2    0    0  0.36864354189E+02 -0.38106126104E+02  0.17242268685E+02  0.18004941901E+03  0.17120000000E+03 0.  0.
        998    1    1    2    0    0 -0.38662482426E+01  0.17573411679E+01  0.13425945077E+04  0.13426384652E+04  0.10000000000E+02 0.  1.
</event>
<event>
 5    1  0.1153629E-008  0.3858126E+03  0.7957747E-01  0.3426233E+00
         13   -1    0    0    0    0  0.00000000000E+00  0.00000000000E+00  0.14999999963E+04  0.15000000000E+04  0.10566000000E+00 0. -1.
        994   -1    0    0    0    0 -0.00000000000E+00 -0.00000000000E+00  0.11368683772E-12  0.17120000000E+03  0.17120000000E+03 0.  0.
         13    1    1    2    0    0  0.11113155454E+02  0.83453270463E+00  0.50848805688E+02  0.52055843792E+02  0.10566000000E+00 0. -1.
        994    1    1    2    0    0 -0.81071953151E+01 -0.47832188042E-01  0.14428365007E+01  0.17139793080E+03  0.17120000000E+03 0.  0.
        998    1    1    2    0    0 -0.30059601387E+01 -0.78670051659E+00  0.14477083541E+04  0.14477462254E+04  0.10000000000E+02 0. -1.
</event>
<event>
 5    1  0.1153629E-008  0.3702328E+03  0.7957747E-01  0.3494822E+00
         13   -1    0    0    0    0  0.00000000000E+00  0.00000000000E+00  0.14999999963E+04  0.15000000000E+04  0.10566000000E+00 0.  1.
        994   -1    0    0    0    0 -0.00000000000E+00 -0.00000000000E+00  0.11368683772E-12  0.17120000000E+03  0.17120000000E+03 0.  0.
         13    1    1    2    0    0 -0.71609850205E+02  0.13583382175E+03  0.69716687339E+03  0.71387706105E+03  0.10566000000E+00 0.  1.
        994    1    1    2    0    0  0.70667606494E+02 -0.12743741696E+03  0.86524116146E+02  0.24089430986E+03  0.17120000000E+03 0.  0.
        998    1    1    2    0    0  0.94224371146E+00 -0.83964047935E+01  0.71630900674E+03  0.71642862909E+03  0.10000000000E+02 0. -1.
</event>
<event>
 5    1  0.1153629E-008  0.3845839E+03  0.7957747E-01  0.3431439E+00
         13   -1    0    0    0    0  0.00000000000E+00  0.00000000000E+00  0.14999999963E+04  0.15000000000E+04  0.10566000000E+00 0. -1.
        994   -1    0    0    0    0 -0.00000000000E+00 -0.00000000000E+00  0.11368683772E-12  0.17120000000E+03  0.17120000000E+03 0.  0.
         13    1    1    2    0    0  0.97280174463E+01  0.31902818248E+01  0.28017101934E+02  0.29829203583E+02  0.10566000000E+00 0. -1.
        994    1    1    2    0    0 -0.81502808863E+01 -0.45425428470E+00  0.20563375049E+01  0.17140683169E+03  0.17120000000E+03 0.  0.
        998    1    1    2    0    0 -0.15777365600E+01 -0.27360275401E+01  0.14699265568E+04  0.14699639647E+04  0.10000000000E+02 0. -1.
</event>
<event>
 5    1  0.1153629E-008  0.3688794E+03  0.7957747E-01  0.3501057E+00
         13   -1    0    0    0    0  0.00000000000E+00  0.00000000000E+00  0.14999999963E+04  0.15000000000E+04  0.10566000000E+00 0. -1.
        994   -1    0    0    0    0 -0.00000000000E+00 -0.00000000000E+00  0.11368683772E-12  0.17120000000E+03  0.17120000000E+03 0.  0.
         13    1    1    2    0    0  0.18822286142E+02 -0.11341741417E+02  0.15897630727E+02  0.27123041510E+02  0.10566000000E+00 0. -1.
        994    1    1    2    0    0 -0.51514099649E+02  0.73509764208E+02  0.38957486416E+02  0.19719156586E+03  0.17120000000E+03 0.  0.
        998    1    1    2    0    0  0.32691813507E+02 -0.62168022792E+02  0.14451448791E+04  0.14468853926E+04  0.10000000000E+02 0. -1.
</event>
