<event>
 5    1  0.1440459E-008  0.3744610E+03  0.7957747E-01  0.3475637E+00
         13   -1    0    0    0    0  0.00000000000E+00  0.00000000000E+00  0.14999999963E+04  0.15000000000E+04  0.10566000000E+00 0.  1.
        994   -1    0    0    0    0 -0.00000000000E+00 -0.00000000000E+00  0.11368683772E-12  0.17120000000E+03  0.17120000000E+03 0.  0.
         13    1    1    2    0    0  0.97281392396E+01  0.20943780950E+02  0.38938829970E+02  0.45271650036E+02  0.10566000000E+00 0.  1.
        994    1    1    2    0    0  0.17323746707E+02  0.10398885600E+02  0.83472553059E+01  0.17259016685E+03  0.17120000000E+03 0.  0.
        998    1    1    2    0    0 -0.27051885946E+02 -0.31342666549E+02  0.14527139110E+04  0.14533381831E+04  0.10000000000E+02 0.  1.
</event>
<event>
 5    1  0.1440459E-008  0.3861081E+03  0.7957747E-01  0.3424986E+00
         13   -1    0    0    0    0  0.00000000000E+00  0.00000000000E+00  0.14999999963E+04  0.15000000000E+04  0.10566000000E+00 0.  1.
        994   -1    0    0    0    0 -0.00000000000E+00 -0.00000000000E+00  0.11368683772E-12  0.17120000000E+03  0.17120000000E+03 0.  0.
         13    1    1    2    0    0  0.11436344794E+03 -0.29403660491E+02  0.59561503710E+03  0.60720742507E+03  0.10566000000E+00 0.  1.
        994    1    1    2    0    0 -0.96495712717E+00  0.29022892039E+02  0.22855498459E+02  0.17514300789E+03  0.17120000000E+03 0.  0.
        998    1    1    2    0    0 -0.11339849081E+03  0.38076845226E+00  0.88152946072E+03  0.88884956704E+03  0.10000000000E+02 0.  1.
</event>
<event>
 5    1  0.1440459E-008  0.4240816E+03  0.7957747E-01  0.3279142E+00
         13   -1    0    0    0    0  0.00000000000E+00  0.00000000000E+00  0.14999999963E+04  0.15000000000E+04  0.10566000000E+00 0.  1.
        994   -1    0    0    0    0 -0.00000000000E+00 -0.00000000000E+00  0.11368683772E-12  0.17120000000E+03  0.17120000000E+03 0.  0.
         13    1    1    2    0    0  0.33027929038E+02 -0.12310186783E+03  0.23237692406E+03  0.26503577109E+03  0.10566000000E+00 0.  1.
        994    1    1    2    0    0 -0.23049281737E+02  0.95913808694E+01  0.45761845522E+02  0.17896047184E+03  0.17120000000E+03 0.  0.
        998    1    1    2    0    0 -0.99786473016E+01  0.11351048696E+03  0.12218612267E+04  0.12272037571E+04  0.10000000000E+02 0.  1.
</event>
<event>
 5    1  0.1440459E-008  0.3771121E+03  0.7957747E-01  0.3463830E+00
         13   -1    0    0    0    0  0.00000000000E+00  0.00000000000E+00  0.14999999963E+04  0.15000000000E+04  0.10566000000E+00 0. -1.
        994   -1    0    0    0    0 -0.00000000000E+00 -0.00000000000E+00  0.11368683772E-12  0.17120000000E+03  0.17120000000E+03 0.  0.
         13    1    1    2    0    0 -0.33030140729E+02 -0.37290705041E+02  0.17520680238E+03  0.18215109564E+03  0.10566000000E+00 0. -1.
        994    1    1    2    0    0  0.38633710188E+02  0.56211473361E+02  0.21464983184E+02  0.18553295881E+03  0.17120000000E+03 0.  0.
        998    1    1    2    0    0 -0.56035694592E+01 -0.18920768320E+02  0.13033282107E+04  0.13035159456E+04  0.10000000000E+02 0. -1.
</event>
<event>
 5    1  0.1440459E-008  0.3813607E+03  0.7957747E-01  0.3445255E+00
         13   -1    0    0    0    0  0.00000000000E+00  0.00000000000E+00  0.14999999963E+04  0.15000000000E+04  0.10566000000E+00 0.  1.
        994   -1    0    0    0    0 -0.00000000000E+00 -0.00000000000E+00  0.11368683772E-12  0.17120000000E+03  0.17120000000E+03 0.  0.
         13    1    1    2    0    0  0.68130660884E+01  0.30735802875E+02  0.13391884216E+03  0.13756952751E+03  0.10566000000E+00 0.  1.
        994    1    1    2    0    0 -0.75694050507E+01 -0.27525076337E+02  0.61646133348E+01  0.17367316482E+03  0.17120000000E+03 0.  0.
        998    1    1    2    0    0  0.75633896227E+00 -0.32107265378E+01  0.13599165408E+04  0.13599573077E+04  0.10000000000E+02 0.  0.
</event>
<event>
 5    1  0.1440459E-008  0.3854691E+03  0.7957747E-01  0.3427685E+00
         13   -1    0    0    0    0  0.00000000000E+00  0.00000000000E+00  0.14999999963E+04  0.15000000000E+04  0.10566000000E+00 0.  1.
        994   -1    0    0    0    0 -0.00000000000E+00 -0.00000000000E+00  0.11368683772E-12  0.17120000000E+03  0.17120000000E+03 0.  0.
         13    1    1    2    0    0 -0.27023411333E+01  0.13793468593E+02  0.82022022852E+02  0.83217701363E+02  0.10566000000E+00 0.  1.
        994    1    1    2    0    0 -0.28759224629E+01  0.86388410065E+01  0.16696685703E+01  0.17145007523E+03  0.17120000000E+03 0.  0.
        998    1    1    2    0    0  0.55782635962E+01 -0.22432309599E+02  0.14163083049E+04  0.14165322234E+04  0.10000000000E+02 0.  1.
</event>
<event>
 5    1  0.1440459E-008  0.3805960E+03  0.7957747E-01  0.3448567E+00
         13   -1    0    0    0    0  0.00000000000E+00  0.00000000000E+00  0.14999999963E+04  0.15000000000E+04  0.10566000000E+00 0.  1.
        994   -1    0    0    0    0 -0.00000000000E+00 -0.00000000000E+00  0.11368683772E-12  0.17120000000E+03  0.17120000000E+03 0.  0.
         13    1    1    2    0    0  0.56342980098E+01  0.18518973826E+02  0.50197283418E+02  0.53800335800E+02  0.10566000000E+00 0.  1.
        994    1    1    2    0    0  0.40851229030E+01  0.50820127404E+00  0.38891167429E+01  0.17129364182E+03  0.17120000000E+03 0.  0.
        998    1    1    2    0    0 -0.97194209128E+01 -0.19027175101E+02  0.14459135961E+04  0.14461060224E+04  0.10000000000E+02 0.  1.
</event>
<event>
 5    1  0.1440459E-008  0.3834548E+03  0.7957747E-01  0.3436252E+00
         13   -1    0    0    0    0  0.00000000000E+00  0.00000000000E+00  0.14999999963E+04  0.15000000000E+04  0.10566000000E+00 0.  1.
        994   -1    0    0    0    0 -0.00000000000E+00 -0.00000000000E+00  0.11368683772E-12  0.17120000000E+03  0.17120000000E+03 0.  0.
         13    1    1    2    0    0  0.12183570045E+02  0.12643517632E+02  0.63038375219E+02  0.65438106876E+02  0.10566000000E+00 0.  1.
        994    1    1    2    0    0 -0.15531174476E+02 -0.34263641244E+01  0.32357715417E+01  0.17196763524E+03  0.17120000000E+03 0.  0.
        998    1    1    2    0    0  0.33476044314E+01 -0.92171535071E+01  0.14337258495E+04  0.14337942579E+04  0.10000000000E+02 0.  1.
</event>
<event>
 5    1  0.1440459E-008  0.3779374E+03  0.7957747E-01  0.3460189E+00
         13   -1    0    0    0    0  0.00000000000E+00  0.00000000000E+00  0.14999999963E+04  0.15000000000E+04  0.10566000000E+00 0.  1.
        994   -1    0    0    0    0 -0.00000000000E+00 -0.00000000000E+00  0.11368683772E-12  0.17120000000E+03  0.17120000000E+03 0.  0.
         13    1    1    2    0    0  0.12964760148E+02  0.77079262474E+02  0.44009635534E+03  0.44698334517E+03  0.10566000000E+00 0.  1.
        994    1    1    2    0    0 -0.52236931548E+01 -0.73060100478E+02  0.23454104241E+02  0.18768217885E+03  0.17120000000E+03 0.  0.
        998    1    1    2    0    0 -0.77410669929E+01 -0.40191619962E+01  0.10364495367E+04  0.10365344760E+04  0.10000000000E+02 0.  1.
</event>
<event>
 5    1  0.1440459E-008  0.3802606E+03  0.7957747E-01  0.3450024E+00
         13   -1    0    0    0    0  0.00000000000E+00  0.00000000000E+00  0.14999999963E+04  0.15000000000E+04  0.10566000000E+00 0.  1.
        994   -1    0    0    0    0 -0.00000000000E+00 -0.00000000000E+00  0.11368683772E-12  0.17120000000E+03  0.17120000000E+03 0.  0.
         13    1    1    2    0    0 -0.10081481249E+02 -0.10900201710E+02  0.26296320806E+02  0.30198647544E+02  0.10566000000E+00 0.  1.
        994    1    1    2    0    0  0.81440338112E+01  0.63295647744E-01  0.42232154641E+01  0.17144563232E+03  0.17120000000E+03 0.  0.
        998    1    1    2    0    0  0.19374474382E+01  0.10836906062E+02  0.14694804600E+04  0.14695557201E+04  0.10000000000E+02 0.  1.
</event>
<event>
 5    1  0.1440459E-008  0.3828544E+03  0.7957747E-01  0.3438823E+00
         13   -1    0    0    0    0  0.00000000000E+00  0.00000000000E+00  0.14999999963E+04  0.15000000000E+04  0.10566000000E+00 0.  1.
        994   -1    0    0    0    0 -0.00000000000E+00 -0.00000000000E+00  0.11368683772E-12  0.17120000000E+03  0.17120000000E+03 0.  0.
         13    1    1    2    0    0  0.23321826487E+02  0.17405283589E+02  0.15092815228E+03  0.15370806681E+03  0.10566000000E+00 0.  1.
        994    1    1    2    0    0 -0.89148169443E+01 -0.24873905495E+02  0.50147317137E+01  0.17329966148E+03  0.17120000000E+03 0.  0.
        998    1    1    2    0    0 -0.14407009543E+02  0.74686219068E+01  0.13440571123E+04  0.13441922717E+04  0.10000000000E+02 0.  1.
</event>
<event>
 5    1  0.1440459E-008  0.3791579E+03  0.7957747E-01  0.3454833E+00
         13   -1    0    0    0    0  0.00000000000E+00  0.00000000000E+00  0.14999999963E+04  0.15000000000E+04  0.10566000000E+00 0.  1.
        994   -1    0    0    0    0 -0.00000000000E+00 -0.00000000000E+00  0.11368683772E-12  0.17120000000E+03  0.17120000000E+03 0.  0.
         13    1    1    2    0    0 -0.60957677811E+01 -0.33812177925E+02  0.14124237422E+03  0.14536107182E+03  0.10566000000E+00 0.  1.
        994    1    1    2    0    0  0.92132997372E+01  0.21690732475E+01  0.48592244829E+01  0.17153029421E+03  0.17120000000E+03 0.  0.
        998    1    1    2    0    0 -0.31175319561E+01  0.31643104677E+02  0.13538983976E+04  0.13543086340E+04  0.10000000000E+02 0.  1.
</event>
<event>
 5    1  0.1440459E-008  0.3784184E+03  0.7957747E-01  0.3458074E+00
         13   -1    0    0    0    0  0.00000000000E+00  0.00000000000E+00  0.14999999963E+04  0.15000000000E+04  0.10566000000E+00 0. -1.
        994   -1    0    0    0    0 -0.00000000000E+00 -0.00000000000E+00  0.11368683772E-12  0.17120000000E+03  0.17120000000E+03 0.  0.
         13    1    1    2    0    0  0.12572375293E+02 -0.21734688689E+02  0.59399420088E+02  0.64488476363E+02  0.10566000000E+00 0. -1.
        994    1    1    2    0    0 -0.38660779034E+02  0.97726972622E+01  0.10296014716E+02  0.17608409743E+03  0.17120000000E+03 0.  0.
        998    1    1    2    0    0  0.26088403741E+02  0.11961991427E+02  0.14303045615E+04  0.14306274262E+04  0.10000000000E+02 0. -1.
</event>
<event>
 5    1  0.1440459E-008  0.3695863E+03  0.7957747E-01  0.3497794E+00
         13   -1    0    0    0    0  0.00000000000E+00  0.00000000000E+00  0.14999999963E+04  0.15000000000E+04  0.10566000000E+00 0.  1.
        994   -1    0    0    0    0 -0.00000000000E+00 -0.00000000000E+00  0.11368683772E-12  0.17120000000E+03  0.17120000000E+03 0.  0.
         13    1    1    2    0    0 -0.41908055664E+01  0.33567953468E+02  0.52867765962E+02  0.62764497872E+02  0.10566000000E+00 0.  1.
        994    1    1    2    0    0 -0.11755875430E+02  0.94304567372E+00  0.11205941559E+02  0.17197122744E+03  0.17120000000E+03 0.  0.
        998    1    1    2    0    0  0.15946680997E+02 -0.34510999142E+02  0.14359262888E+04  0.14364642747E+04  0.10000000000E+02 0.  1.
</event>
<event>
 5    1  0.1440459E-008  0.3787326E+03  0.7957747E-01  0.3456695E+00
         13   -1    0    0    0    0  0.00000000000E+00  0.00000000000E+00  0.14999999963E+04  0.15000000000E+04  0.10566000000E+00 0. -1.
        994   -1    0    0    0    0 -0.00000000000E+00 -0.00000000000E+00  0.11368683772E-12  0.17120000000E+03  0.17120000000E+03 0.  0.
         13    1    1    2    0    0  0.16872509897E+02  0.11846502062E+02  0.40482927334E+02  0.45430163668E+02  0.10566000000E+00 0. -1.
        994    1    1    2    0    0 -0.26356336778E+02 -0.13956981282E+02  0.77659102627E+01  0.17395172657E+03  0.17120000000E+03 0.  0.
        998    1    1    2    0    0  0.94838268810E+01  0.21104792194E+01  0.14517511587E+04  0.14518181098E+04  0.10000000000E+02 0. -1.
</event>
<event>
 5    1  0.1440459E-008  0.3824525E+03  0.7957747E-01  0.3440549E+00
         13   -1    0    0    0    0  0.00000000000E+00  0.00000000000E+00  0.14999999963E+04  0.15000000000E+04  0.10566000000E+00 0. -1.
        994   -1    0    0    0    0 -0.00000000000E+00 -0.00000000000E+00  0.11368683772E-12  0.17120000000E+03  0.17120000000E+03 0.  0.
         13    1    1    2    0    0  0.25556135063E+02  0.83763481636E+01  0.11520793103E+03  0.11830535822E+03  0.10566000000E+00 0. -1.
        994    1    1    2    0    0 -0.26316907444E+02 -0.81461900706E+01  0.54209807825E+01  0.17348708039E+03  0.17120000000E+03 0.  0.
        998    1    1    2    0    0  0.76077238105E+00 -0.23015809305E+00  0.13793710845E+04  0.13794075614E+04  0.10000000000E+02 0. -1.
</event>
<event>
 5    1  0.1440459E-008  0.3831030E+03  0.7957747E-01  0.3437758E+00
         13   -1    0    0    0    0  0.00000000000E+00  0.00000000000E+00  0.14999999963E+04  0.15000000000E+04  0.10566000000E+00 0. -1.
        994   -1    0    0    0    0 -0.00000000000E+00 -0.00000000000E+00  0.11368683772E-12  0.17120000000E+03  0.17120000000E+03 0.  0.
         13    1    1    2    0    0  0.60114886550E+01  0.22146725253E+02  0.10497389776E+03  0.10745299349E+03  0.10566000000E+00 0. -1.
        994    1    1    2    0    0 -0.78120024189E+01 -0.73667772015E+01  0.29565077989E+01  0.17156187725E+03  0.17120000000E+03 0.  0.
        998    1    1    2    0    0  0.18005137640E+01 -0.14779948052E+02  0.13920695907E+04  0.13921851293E+04  0.10000000000E+02 0. -1.
</event>
<event>
 5    1  0.1440459E-008  0.3851822E+03  0.7957747E-01  0.3428900E+00
         13   -1    0    0    0    0  0.00000000000E+00  0.00000000000E+00  0.14999999963E+04  0.15000000000E+04  0.10566000000E+00 0.  1.
        994   -1    0    0    0    0 -0.00000000000E+00 -0.00000000000E+00  0.11368683772E-12  0.17120000000E+03  0.17120000000E+03 0.  0.
         13    1    1    2    0    0 -0.17907027275E+02 -0.12149892532E+02  0.12462226267E+03  0.12648715758E+03  0.10566000000E+00 0.  1.
        994    1    1    2    0    0  0.33787865687E+02  0.15273769665E+02  0.60717350271E+01  0.17527468121E+03  0.17120000000E+03 0.  0.
        998    1    1    2    0    0 -0.15880838412E+02 -0.31238771326E+01  0.13693059986E+04  0.13694381612E+04  0.10000000000E+02 0.  1.
</event>
<event>
 5    1  0.1440459E-008  0.3746322E+03  0.7957747E-01  0.3474869E+00
         13   -1    0    0    0    0  0.00000000000E+00  0.00000000000E+00  0.14999999963E+04  0.15000000000E+04  0.10566000000E+00 0. -1.
        994   -1    0    0    0    0 -0.00000000000E+00 -0.00000000000E+00  0.11368683772E-12  0.17120000000E+03  0.17120000000E+03 0.  0.
         13    1    1    2    0    0 -0.97921946272E+02  0.17012617433E+03  0.85254678113E+03  0.87485292931E+03  0.10566000000E+00 0. -1.
        994    1    1    2    0    0  0.86774027075E+02 -0.18327337565E+03  0.16291539799E+03  0.31139962893E+03  0.17120000000E+03 0.  0.
        998    1    1    2    0    0  0.11147919197E+02  0.13147201314E+02  0.48453781717E+03  0.48494744176E+03  0.10000000000E+02 0.  1.
</event>
<event>
 5    1  0.1440459E-008  0.3840653E+03  0.7957747E-01  0.3433646E+00
         13   -1    0    0    0    0  0.00000000000E+00  0.00000000000E+00  0.14999999963E+04  0.15000000000E+04  0.10566000000E+00 0. -1.
        994   -1    0    0    0    0 -0.00000000000E+00 -0.00000000000E+00  0.11368683772E-12  0.17120000000E+03  0.17120000000E+03 0.  0.
         13    1    1    2    0    0 -0.57132896403E+01 -0.24383512277E+02  0.13897355440E+03  0.14121210053E+03  0.10566000000E+00 0. -1.
        994    1    1    2    0    0  0.13115221956E+01  0.24304701562E+02  0.40515847824E+01  0.17296905488E+03  0.17120000000E+03 0.  0.
        998    1    1    2    0    0  0.44017674446E+01  0.78810714752E-01  0.13569748571E+04  0.13570188446E+04  0.10000000000E+02 0. -1.
</event>
<event>
 5    1  0.1440459E-008  0.3747021E+03  0.7957747E-01  0.3474556E+00
         13   -1    0    0    0    0  0.00000000000E+00  0.00000000000E+00  0.14999999963E+04  0.15000000000E+04  0.10566000000E+00 0. -1.
        994   -1    0    0    0    0 -0.00000000000E+00 -0.00000000000E+00  0.11368683772E-12  0.17120000000E+03  0.17120000000E+03 0.  0.
         13    1    1    2    0    0 -0.28875685106E+02  0.11739481259E+02  0.68623980906E+02  0.75371629477E+02  0.10566000000E+00 0. -1.
        994    1    1    2    0    0  0.20235306915E+02 -0.23109946543E+01  0.82444659152E+01  0.17260422811E+03  0.17120000000E+03 0.  0.
        998    1    1    2    0    0  0.86403781913E+01 -0.94284866043E+01  0.14231315495E+04  0.14232241424E+04  0.10000000000E+02 0. -1.
</event>
<event>
 5    1  0.1440459E-008  0.3723757E+03  0.7957747E-01  0.3485044E+00
         13   -1    0    0    0    0  0.00000000000E+00  0.00000000000E+00  0.14999999963E+04  0.15000000000E+04  0.10566000000E+00 0. -1.
        994   -1    0    0    0    0 -0.00000000000E+00 -0.00000000000E+00  0.11368683772E-12  0.17120000000E+03  0.17120000000E+03 0.  0.
         13    1    1    2    0    0 -0.35307704506E+02 -0.23634915015E+02  0.12527919487E+03  0.13228806082E+03  0.10566000000E+00 0. -1.
        994    1    1    2    0    0  0.18845532070E+02 -0.34684666967E+02  0.13395387061E+02  0.17620174970E+03  0.17120000000E+03 0.  0.
        998    1    1    2    0    0  0.16462172435E+02  0.58319581982E+02  0.13613254143E+04  0.13627101895E+04  0.10000000000E+02 0. -1.
</event>
<event>
 5    1  0.1440459E-008  0.3685437E+03  0.7957747E-01  0.3502610E+00
         13   -1    0    0    0    0  0.00000000000E+00  0.00000000000E+00  0.14999999963E+04  0.15000000000E+04  0.10566000000E+00 0. -1.
        994   -1    0    0    0    0 -0.00000000000E+00 -0.00000000000E+00  0.11368683772E-12  0.17120000000E+03  0.17120000000E+03 0.  0.
         13    1    1    2    0    0  0.26600626059E+02  0.10323704532E+01  0.31550670375E+02  0.41280928534E+02  0.10566000000E+00 0. -1.
        994    1    1    2    0    0 -0.14639558402E+02  0.13345131392E+01  0.10783556155E+02  0.17216800713E+03  0.17120000000E+03 0.  0.
        998    1    1    2    0    0 -0.11961067657E+02 -0.23668835924E+01  0.14576657697E+04  0.14577510643E+04  0.10000000000E+02 0. -1.
</event>
<event>
 5    1  0.1440459E-008  0.3828251E+03  0.7957747E-01  0.3438949E+00
         13   -1    0    0    0    0  0.00000000000E+00  0.00000000000E+00  0.14999999963E+04  0.15000000000E+04  0.10566000000E+00 0.  1.
        994   -1    0    0    0    0 -0.00000000000E+00 -0.00000000000E+00  0.11368683772E-12  0.17120000000E+03  0.17120000000E+03 0.  0.
         13    1    1    2    0    0 -0.21298521910E+02  0.24530936701E+02  0.21503679702E+02  0.38959123395E+02  0.10566000000E+00 0.  1.
        994    1    1    2    0    0  0.80718648368E+01 -0.42488059247E+02  0.24767548588E+02  0.17830665059E+03  0.17120000000E+03 0.  0.
        998    1    1    2    0    0  0.13226657073E+02  0.17957122546E+02  0.14537287680E+04  0.14539342260E+04  0.10000000000E+02 0.  1.
</event>
<event>
 5    1  0.2260360E-008  0.3863495E+03  0.7957747E-01  0.3423969E+00
         13   -1    0    0    0    0  0.00000000000E+00  0.00000000000E+00  0.14999999963E+04  0.15000000000E+04  0.10566000000E+00 0. -1.
        994   -1    0    0    0    0 -0.00000000000E+00 -0.00000000000E+00  0.11368683772E-12  0.17120000000E+03  0.17120000000E+03 0.  0.
         13    1    1    2    0    0 -0.16039624961E+00  0.10181670131E+02  0.60902560554E+02  0.61748078348E+02  0.10566000000E+00 0. -1.
        994    1    1    2    0    0  0.17214345992E+01  0.59728592520E+01  0.10881300163E+01  0.17131626429E+03  0.17120000000E+03 0.  0.
        998    1    1    2    0    0 -0.15610383496E+01 -0.16154529383E+02  0.14380093057E+04  0.14381356574E+04  0.10000000000E+02 0. -1.
</event>
<event>
 5    1  0.1440459E-008  0.3822060E+03  0.7957747E-01  0.3441609E+00
         13   -1    0    0    0    0  0.00000000000E+00  0.00000000000E+00  0.14999999963E+04  0.15000000000E+04  0.10566000000E+00 0.  1.
        994   -1    0    0    0    0 -0.00000000000E+00 -0.00000000000E+00  0.11368683772E-12  0.17120000000E+03  0.17120000000E+03 0.  0.
         13    1    1    2    0    0 -0.16046542960E+02 -0.17638256381E+02  0.90642195006E+02  0.93726294650E+02  0.10566000000E+00 0.  1.
        994    1    1    2    0    0  0.19468503409E+01  0.24892324348E+02  0.50953838715E+01  0.17308616633E+03  0.17120000000E+03 0.  0.
        998    1    1    2    0    0  0.14099692619E+02 -0.72540679671E+01  0.14042624174E+04  0.14043875390E+04  0.10000000000E+02 0.  1.
</event>
<event>
 5    1  0.1440459E-008  0.3739433E+03  0.7957747E-01  0.3477962E+00
         13   -1    0    0    0    0  0.00000000000E+00  0.00000000000E+00  0.14999999963E+04  0.15000000000E+04  0.10566000000E+00 0.  1.
        994   -1    0    0    0    0 -0.00000000000E+00 -0.00000000000E+00  0.11368683772E-12  0.17120000000E+03  0.17120000000E+03 0.  0.
         13    1    1    2    0    0 -0.10952127143E+02 -0.24495026050E+02  0.21403802773E+02  0.34323305892E+02  0.10566000000E+00 0.  1.
        994    1    1    2    0    0  0.89597344977E+01  0.33576961585E+02  0.17332568573E+02  0.17554927264E+03  0.17120000000E+03 0.  0.
        998    1    1    2    0    0  0.19923926457E+01 -0.90819355353E+01  0.14612636249E+04  0.14613274215E+04  0.10000000000E+02 0.  1.
</event>
<event>
 5    1  0.1440459E-008  0.3814162E+03  0.7957747E-01  0.3445015E+00
         13   -1    0    0    0    0  0.00000000000E+00  0.00000000000E+00  0.14999999963E+04  0.15000000000E+04  0.10566000000E+00 0.  1.
        994   -1    0    0    0    0 -0.00000000000E+00 -0.00000000000E+00  0.11368683772E-12  0.17120000000E+03  0.17120000000E+03 0.  0.
         13    1    1    2    0    0  0.10935697979E+02  0.93599326519E+01  0.30380659702E+02  0.33618350309E+02  0.10566000000E+00 0.  1.
        994    1    1    2    0    0  0.12642910288E+01  0.53182951653E+01  0.35194250868E+01  0.17132340485E+03  0.17120000000E+03 0.  0.
        998    1    1    2    0    0 -0.12199989008E+02 -0.14678227817E+02  0.14660999115E+04  0.14662582448E+04  0.10000000000E+02 0.  1.
</event>
<event>
 5    1  0.1440459E-008  0.3890628E+03  0.7957747E-01  0.3412622E+00
         13   -1    0    0    0    0  0.00000000000E+00  0.00000000000E+00  0.14999999963E+04  0.15000000000E+04  0.10566000000E+00 0. -1.
        994   -1    0    0    0    0 -0.00000000000E+00 -0.00000000000E+00  0.11368683772E-12  0.17120000000E+03  0.17120000000E+03 0.  0.
         13    1    1    2    0    0  0.64626307885E+02  0.72674620498E+02  0.26662237780E+03  0.28380567937E+03  0.10566000000E+00 0. -1.
        994    1    1    2    0    0  0.49074256440E+02 -0.65450147653E+02  0.46944447613E+02  0.19546157074E+03  0.17120000000E+03 0.  0.
        998    1    1    2    0    0 -0.11370056433E+03 -0.72244728450E+01  0.11864331709E+04  0.11919327499E+04  0.10000000000E+02 0. -1.
</event>
<event>
 5    1  0.1440459E-008  0.3765727E+03  0.7957747E-01  0.3466219E+00
         13   -1    0    0    0    0  0.00000000000E+00  0.00000000000E+00  0.14999999963E+04  0.15000000000E+04  0.10566000000E+00 0. -1.
        994   -1    0    0    0    0 -0.00000000000E+00 -0.00000000000E+00  0.11368683772E-12  0.17120000000E+03  0.17120000000E+03 0.  0.
         13    1    1    2    0    0 -0.13313191932E+02 -0.47108518117E+02  0.80213935122E+02  0.93972017699E+02  0.10566000000E+00 0. -1.
        994    1    1    2    0    0 -0.34125702378E+01  0.24582887280E+02  0.16664608353E+02  0.17379042883E+03  0.17120000000E+03 0.  0.
        998    1    1    2    0    0  0.16725762170E+02  0.22525630838E+02  0.14031214528E+04  0.14034375535E+04  0.10000000000E+02 0. -1.
</event>
<event>
 5    1  0.1440459E-008  0.3766620E+03  0.7957747E-01  0.3465823E+00
         13   -1    0    0    0    0  0.00000000000E+00  0.00000000000E+00  0.14999999963E+04  0.15000000000E+04  0.10566000000E+00 0. -1.
        994   -1    0    0    0    0 -0.00000000000E+00 -0.00000000000E+00  0.11368683772E-12  0.17120000000E+03  0.17120000000E+03 0.  0.
         13    1    1    2    0    0  0.13557052991E+03 -0.28012441300E+02  0.76035966180E+03  0.77285890815E+03  0.10566000000E+00 0. -1.
        994    1    1    2    0    0 -0.13227082889E+03  0.43910079775E+02  0.74588898053E+02  0.23301633203E+03  0.17120000000E+03 0.  0.
        998    1    1    2    0    0 -0.32997010216E+01 -0.15897638475E+02  0.66505143642E+03  0.66532475981E+03  0.10000000000E+02 0. -1.
</event>
<event>
 5    1  0.1440459E-008  0.3858887E+03  0.7957747E-01  0.3425912E+00
         13   -1    0    0    0    0  0.00000000000E+00  0.00000000000E+00  0.14999999963E+04  0.15000000000E+04  0.10566000000E+00 0. -1.
        994   -1    0    0    0    0 -0.00000000000E+00 -0.00000000000E+00  0.11368683772E-12  0.17120000000E+03  0.17120000000E+03 0.  0.
         13    1    1    2    0    0  0.50942399679E+01 -0.11920578944E+02  0.71351595613E+02  0.72519741063E+02  0.10566000000E+00 0. -1.
        994    1    1    2    0    0 -0.46916103284E+01  0.72980035079E+01  0.14364311516E+01  0.17142571393E+03  0.17120000000E+03 0.  0.
        998    1    1    2    0    0 -0.40262963944E+00  0.46225754363E+01  0.14272119695E+04  0.14272545450E+04  0.10000000000E+02 0. -1.
</event>
<event>
 5    1  0.1440459E-008  0.3857606E+03  0.7957747E-01  0.3426453E+00
         13   -1    0    0    0    0  0.00000000000E+00  0.00000000000E+00  0.14999999963E+04  0.15000000000E+04  0.10566000000E+00 0. -1.
        994   -1    0    0    0    0 -0.00000000000E+00 -0.00000000000E+00  0.11368683772E-12  0.17120000000E+03  0.17120000000E+03 0.  0.
         13    1    1    2    0    0 -0.10251834848E+02  0.85933363889E+01  0.75346829987E+02  0.76525169070E+02  0.10566000000E+00 0. -1.
        994    1    1    2    0    0 -0.10025372347E+01 -0.59112381285E+01  0.13709274328E+01  0.17131044119E+03  0.17120000000E+03 0.  0.
        998    1    1    2    0    0  0.11254372083E+02 -0.26820982604E+01  0.14232822389E+04  0.14233643897E+04  0.10000000000E+02 0. -1.
</event>
<event>
 5    1  0.1440459E-008  0.3845612E+03  0.7957747E-01  0.3431535E+00
         13   -1    0    0    0    0  0.00000000000E+00  0.00000000000E+00  0.14999999963E+04  0.15000000000E+04  0.10566000000E+00 0. -1.
        994   -1    0    0    0    0 -0.00000000000E+00 -0.00000000000E+00  0.11368683772E-12  0.17120000000E+03  0.17120000000E+03 0.  0.
         13    1    1    2    0    0 -0.10613225052E+02  0.17549268542E+01  0.30821558020E+02  0.32645059612E+02  0.10566000000E+00 0. -1.
        994    1    1    2    0    0  0.77029358051E+01 -0.28094079580E+01  0.20695688361E+01  0.17140872530E+03  0.17120000000E+03 0.  0.
        998    1    1    2    0    0  0.29102892473E+01  0.10544811038E+01  0.14671088694E+04  0.14671462151E+04  0.10000000000E+02 0. -1.
</event>
<event>
 5    1  0.1440459E-008  0.3790429E+03  0.7957747E-01  0.3455336E+00
         13   -1    0    0    0    0  0.00000000000E+00  0.00000000000E+00  0.14999999963E+04  0.15000000000E+04  0.10566000000E+00 0.  1.
        994   -1    0    0    0    0 -0.00000000000E+00 -0.00000000000E+00  0.11368683772E-12  0.17120000000E+03  0.17120000000E+03 0.  0.
         13    1    1    2    0    0 -0.18819560356E+02 -0.19235446762E+02  0.83648142058E+02  0.87870365300E+02  0.10566000000E+00 0.  1.
        994    1    1    2    0    0  0.28279313861E+02 -0.29271603129E+02  0.10192439750E+02  0.17626648056E+03  0.17120000000E+03 0.  0.
        998    1    1    2    0    0 -0.94597535046E+01  0.48507049892E+02  0.14061594145E+04  0.14070631541E+04  0.10000000000E+02 0.  1.
</event>
<event>
 5    1  0.1440459E-008  0.3846033E+03  0.7957747E-01  0.3431356E+00
         13   -1    0    0    0    0  0.00000000000E+00  0.00000000000E+00  0.14999999963E+04  0.15000000000E+04  0.10566000000E+00 0.  1.
        994   -1    0    0    0    0 -0.00000000000E+00 -0.00000000000E+00  0.11368683772E-12  0.17120000000E+03  0.17120000000E+03 0.  0.
         13    1    1    2    0    0 -0.15521897196E+02 -0.14287226440E+02  0.12344078150E+03  0.12523055471E+03  0.10566000000E+00 0.  1.
        994    1    1    2    0    0  0.94681685271E+01  0.64560771249E+01  0.22597956797E+01  0.17159800064E+03  0.17120000000E+03 0.  0.
        998    1    1    2    0    0  0.60537286686E+01  0.78311493154E+01  0.13742994191E+04  0.13743714447E+04  0.10000000000E+02 0.  1.
</event>
<event>
 5    1  0.1440459E-008  0.3801532E+03  0.7957747E-01  0.3450492E+00
         13   -1    0    0    0    0  0.00000000000E+00  0.00000000000E+00  0.14999999963E+04  0.15000000000E+04  0.10566000000E+00 0.  1.
        994   -1    0    0    0    0 -0.00000000000E+00 -0.00000000000E+00  0.11368683772E-12  0.17120000000E+03  0.17120000000E+03 0.  0.
         13    1    1    2    0    0 -0.22808353524E+01 -0.18837964132E+02  0.42539224281E+02  0.46579693741E+02  0.10566000000E+00 0.  1.
        994    1    1    2    0    0 -0.77398601808E+01  0.15708116135E+02  0.50810857512E+01  0.17216825428E+03  0.17120000000E+03 0.  0.
        998    1    1    2    0    0  0.10020695533E+02  0.31298479973E+01  0.14523796862E+04  0.14524520520E+04  0.10000000000E+02 0.  1.
</event>
<event>
 5    1  0.1440459E-008  0.3838429E+03  0.7957747E-01  0.3434594E+00
         13   -1    0    0    0    0  0.00000000000E+00  0.00000000000E+00  0.14999999963E+04  0.15000000000E+04  0.10566000000E+00 0.  1.
        994   -1    0    0    0    0 -0.00000000000E+00 -0.00000000000E+00  0.11368683772E-12  0.17120000000E+03  0.17120000000E+03 0.  0.
         13    1    1    2    0    0  0.12724405418E+02 -0.14478467692E+02  0.77730217814E+02  0.80084545609E+02  0.10566000000E+00 0.  1.
        994    1    1    2    0    0 -0.21067683115E+02  0.14616430327E+02  0.43791016475E+01  0.17316496135E+03  0.17120000000E+03 0.  0.
        998    1    1    2    0    0  0.83432776976E+01 -0.13796263506E+00  0.14178906768E+04  0.14179504930E+04  0.10000000000E+02 0.  1.
</event>
<event>
 5    1  0.1440459E-008  0.3692294E+03  0.7957747E-01  0.3499440E+00
         13   -1    0    0    0    0  0.00000000000E+00  0.00000000000E+00  0.14999999963E+04  0.15000000000E+04  0.10566000000E+00 0. -1.
        994   -1    0    0    0    0 -0.00000000000E+00 -0.00000000000E+00  0.11368683772E-12  0.17120000000E+03  0.17120000000E+03 0.  0.
         13    1    1    2    0    0 -0.48117684094E+02  0.34756677257E+02  0.16016666792E+03  0.17081191648E+03  0.10566000000E+00 0. -1.
        994    1    1    2    0    0  0.45042750693E+02 -0.79206690672E+01  0.17860114181E+02  0.17810112315E+03  0.17120000000E+03 0.  0.
        998    1    1    2    0    0  0.30749334009E+01 -0.26836008190E+02  0.13219732142E+04  0.13222869604E+04  0.10000000000E+02 0. -1.
</event>
<event>
 5    1  0.1440459E-008  0.3756707E+03  0.7957747E-01  0.3470229E+00
         13   -1    0    0    0    0  0.00000000000E+00  0.00000000000E+00  0.14999999963E+04  0.15000000000E+04  0.10566000000E+00 0. -1.
        994   -1    0    0    0    0 -0.00000000000E+00 -0.00000000000E+00  0.11368683772E-12  0.17120000000E+03  0.17120000000E+03 0.  0.
         13    1    1    2    0    0  0.10645595560E+02 -0.81111879201E+01  0.11168289199E+02  0.17431635665E+02  0.10566000000E+00 0. -1.
        994    1    1    2    0    0 -0.14561802700E+02  0.59925050018E+01  0.71761267281E+01  0.17207234818E+03  0.17120000000E+03 0.  0.
        998    1    1    2    0    0  0.39162071401E+01  0.21186829182E+01  0.14816555804E+04  0.14816960162E+04  0.10000000000E+02 0. -1.
</event>
<event>
 5    1  0.1440459E-008  0.3824803E+03  0.7957747E-01  0.3440429E+00
         13   -1    0    0    0    0  0.00000000000E+00  0.00000000000E+00  0.14999999963E+04  0.15000000000E+04  0.10566000000E+00 0. -1.
        994   -1    0    0    0    0 -0.00000000000E+00 -0.00000000000E+00  0.11368683772E-12  0.17120000000E+03  0.17120000000E+03 0.  0.
         13    1    1    2    0    0 -0.32294940822E+01 -0.13571559957E+02  0.32345966840E+02  0.35226263023E+02  0.10566000000E+00 0. -1.
        994    1    1    2    0    0  0.44565891044E+01  0.11797232808E+02  0.34138155434E+01  0.17169778690E+03  0.17120000000E+03 0.  0.
        998    1    1    2    0    0 -0.12270950222E+01  0.17743271485E+01  0.14642402139E+04  0.14642759501E+04  0.10000000000E+02 0. -1.
</event>
<event>
 5    1  0.1440459E-008  0.3797562E+03  0.7957747E-01  0.3452221E+00
         13   -1    0    0    0    0  0.00000000000E+00  0.00000000000E+00  0.14999999963E+04  0.15000000000E+04  0.10566000000E+00 0.  1.
        994   -1    0    0    0    0 -0.00000000000E+00 -0.00000000000E+00  0.11368683772E-12  0.17120000000E+03  0.17120000000E+03 0.  0.
         13    1    1    2    0    0  0.14338248489E+00 -0.20698020748E+02  0.48688547358E+02  0.52905712634E+02  0.10566000000E+00 0.  1.
        994    1    1    2    0    0  0.10948719002E+02  0.13867432112E+02  0.53013661724E+01  0.17219095390E+03  0.17120000000E+03 0.  0.
        998    1    1    2    0    0 -0.11092101487E+02  0.68305886360E+01  0.14460100827E+04  0.14461033335E+04  0.10000000000E+02 0.  1.
</event>
<event>
 5    1  0.1440459E-008  0.3737711E+03  0.7957747E-01  0.3478737E+00
         13   -1    0    0    0    0  0.00000000000E+00  0.00000000000E+00  0.14999999963E+04  0.15000000000E+04  0.10566000000E+00 0.  1.
        994   -1    0    0    0    0 -0.00000000000E+00 -0.00000000000E+00  0.11368683772E-12  0.17120000000E+03  0.17120000000E+03 0.  0.
         13    1    1    2    0    0  0.60333520612E+02  0.35500739088E+02  0.35009883401E+03  0.35702890768E+03  0.10566000000E+00 0.  1.
        994    1    1    2    0    0 -0.27067202388E+02 -0.20474320924E+02  0.11252868883E+02  0.17489396308E+03  0.17120000000E+03 0.  0.
        998    1    1    2    0    0 -0.33266318224E+02 -0.15026418164E+02  0.11386482934E+04  0.11392771292E+04  0.10000000000E+02 0.  1.
</event>
<event>
 5    1  0.1440459E-008  0.3860948E+03  0.7957747E-01  0.3425042E+00
         13   -1    0    0    0    0  0.00000000000E+00  0.00000000000E+00  0.14999999963E+04  0.15000000000E+04  0.10566000000E+00 0. -1.
        994   -1    0    0    0    0 -0.00000000000E+00 -0.00000000000E+00  0.11368683772E-12  0.17120000000E+03  0.17120000000E+03 0.  0.
         13    1    1    2    0    0  0.23957675359E+01 -0.99336965513E+01  0.47387018437E+02  0.48476372695E+02  0.10566000000E+00 0. -1.
        994    1    1    2    0    0 -0.21146005602E+02  0.65867386679E+01  0.26966932715E+01  0.17264776522E+03  0.17120000000E+03 0.  0.
        998    1    1    2    0    0  0.18750238066E+02  0.33469578834E+01  0.14499162846E+04  0.14500758621E+04  0.10000000000E+02 0. -1.
</event>
<event>
 5    1  0.1440459E-008  0.3772199E+03  0.7957747E-01  0.3463354E+00
         13   -1    0    0    0    0  0.00000000000E+00  0.00000000000E+00  0.14999999963E+04  0.15000000000E+04  0.10566000000E+00 0. -1.
        994   -1    0    0    0    0 -0.00000000000E+00 -0.00000000000E+00  0.11368683772E-12  0.17120000000E+03  0.17120000000E+03 0.  0.
         13    1    1    2    0    0  0.21907821119E+02 -0.23488998510E+02  0.88452116039E+02  0.94103526358E+02  0.10566000000E+00 0. -1.
        994    1    1    2    0    0 -0.14295661829E+02  0.23025793777E+02  0.80254756831E+01  0.17351772643E+03  0.17120000000E+03 0.  0.
        998    1    1    2    0    0 -0.76121592892E+01  0.46320473354E+00  0.14035224046E+04  0.14035787472E+04  0.10000000000E+02 0. -1.
</event>
<event>
 5    1  0.1440459E-008  0.3758794E+03  0.7957747E-01  0.3469299E+00
         13   -1    0    0    0    0  0.00000000000E+00  0.00000000000E+00  0.14999999963E+04  0.15000000000E+04  0.10566000000E+00 0.  1.
        994   -1    0    0    0    0 -0.00000000000E+00 -0.00000000000E+00  0.11368683772E-12  0.17120000000E+03  0.17120000000E+03 0.  0.
         13    1    1    2    0    0 -0.11296380454E+02 -0.55840502542E+02  0.20748899541E+03  0.21516845567E+03  0.10566000000E+00 0.  1.
        994    1    1    2    0    0 -0.10701098718E+02  0.72944006616E+02  0.24877397702E+02  0.18805229733E+03  0.17120000000E+03 0.  0.
        998    1    1    2    0    0  0.21997479172E+02 -0.17103504074E+02  0.12676336032E+04  0.12679792470E+04  0.10000000000E+02 0.  1.
</event>
<event>
 5    1  0.1440459E-008  0.3814170E+03  0.7957747E-01  0.3445012E+00
         13   -1    0    0    0    0  0.00000000000E+00  0.00000000000E+00  0.14999999963E+04  0.15000000000E+04  0.10566000000E+00 0. -1.
        994   -1    0    0    0    0 -0.00000000000E+00 -0.00000000000E+00  0.11368683772E-12  0.17120000000E+03  0.17120000000E+03 0.  0.
         13    1    1    2    0    0 -0.55445961691E+01 -0.90245721154E+01  0.15029056269E+02  0.18386656708E+02  0.10566000000E+00 0. -1.
        994    1    1    2    0    0 -0.32754170992E+00  0.73585068785E+01  0.36001192610E+01  0.17139619531E+03  0.17120000000E+03 0.  0.
        998    1    1    2    0    0  0.58721378790E+01  0.16660652369E+01  0.14813708207E+04  0.14814171480E+04  0.10000000000E+02 0. -1.
</event>
<event>
 5    1  0.1440459E-008  0.3755752E+03  0.7957747E-01  0.3470654E+00
         13   -1    0    0    0    0  0.00000000000E+00  0.00000000000E+00  0.14999999963E+04  0.15000000000E+04  0.10566000000E+00 0. -1.
        994   -1    0    0    0    0 -0.00000000000E+00 -0.00000000000E+00  0.11368683772E-12  0.17120000000E+03  0.17120000000E+03 0.  0.
         13    1    1    2    0    0  0.16328047823E+02 -0.83465446226E+02  0.21071493448E+03  0.22723089719E+03  0.10566000000E+00 0. -1.
        994    1    1    2    0    0 -0.24969662278E+02  0.89885335924E+02  0.45641140661E+02  0.20023838635E+03  0.17120000000E+03 0.  0.
        998    1    1    2    0    0  0.86416144549E+01 -0.64198896978E+01  0.12436439211E+04  0.12437307165E+04  0.10000000000E+02 0. -1.
</event>
<event>
 5    1  0.1440459E-008  0.3823768E+03  0.7957747E-01  0.3440874E+00
         13   -1    0    0    0    0  0.00000000000E+00  0.00000000000E+00  0.14999999963E+04  0.15000000000E+04  0.10566000000E+00 0.  1.
        994   -1    0    0    0    0 -0.00000000000E+00 -0.00000000000E+00  0.11368683772E-12  0.17120000000E+03  0.17120000000E+03 0.  0.
         13    1    1    2    0    0  0.16645091828E+02 -0.16048760359E+02  0.81675337927E+02  0.84885179982E+02  0.10566000000E+00 0.  1.
        994    1    1    2    0    0 -0.29354039900E+02  0.16808148412E+02  0.67425160309E+01  0.17463984378E+03  0.17120000000E+03 0.  0.
        998    1    1    2    0    0  0.12708948072E+02 -0.75938805295E+00  0.14115821423E+04  0.14116749762E+04  0.10000000000E+02 0.  1.
</event>
<event>
 5    1  0.1440459E-008  0.3721823E+03  0.7957747E-01  0.3485921E+00
         13   -1    0    0    0    0  0.00000000000E+00  0.00000000000E+00  0.14999999963E+04  0.15000000000E+04  0.10566000000E+00 0. -1.
        994   -1    0    0    0    0 -0.00000000000E+00 -0.00000000000E+00  0.11368683772E-12  0.17120000000E+03  0.17120000000E+03 0.  0.
         13    1    1    2    0    0  0.30358643052E+02 -0.18517234764E+02  0.70362163843E+02  0.78837684238E+02  0.10566000000E+00 0. -1.
        994    1    1    2    0    0 -0.54938340197E+02 -0.12344927881E+02  0.19093471713E+02  0.18123084486E+03  0.17120000000E+03 0.  0.
        998    1    1    2    0    0  0.24579697145E+02  0.30862162644E+02  0.14105443607E+04  0.14111314709E+04  0.10000000000E+02 0. -1.
</event>
<event>
 5    1  0.1440459E-008  0.3692328E+03  0.7957747E-01  0.3499424E+00
         13   -1    0    0    0    0  0.00000000000E+00  0.00000000000E+00  0.14999999963E+04  0.15000000000E+04  0.10566000000E+00 0. -1.
        994   -1    0    0    0    0 -0.00000000000E+00 -0.00000000000E+00  0.11368683772E-12  0.17120000000E+03  0.17120000000E+03 0.  0.
         13    1    1    2    0    0  0.29397302863E+02  0.71371855983E+02  0.28833627772E+03  0.29848946959E+03  0.10566000000E+00 0. -1.
        994    1    1    2    0    0  0.22192944145E+01 -0.44377651216E+02  0.17449159165E+02  0.17773073553E+03  0.17120000000E+03 0.  0.
        998    1    1    2    0    0 -0.31616597278E+02 -0.26994204767E+02  0.11942145594E+04  0.11949797949E+04  0.10000000000E+02 0.  1.
</event>
<event>
 5    1  0.1440459E-008  0.3824982E+03  0.7957747E-01  0.3440353E+00
         13   -1    0    0    0    0  0.00000000000E+00  0.00000000000E+00  0.14999999963E+04  0.15000000000E+04  0.10566000000E+00 0. -1.
        994   -1    0    0    0    0 -0.00000000000E+00 -0.00000000000E+00  0.11368683772E-12  0.17120000000E+03  0.17120000000E+03 0.  0.
         13    1    1    2    0    0  0.28648220917E+02  0.24299704365E+02  0.21993263192E+03  0.22311783869E+03  0.10566000000E+00 0. -1.
        994    1    1    2    0    0 -0.28705467178E+02 -0.17767075849E+02  0.66652144688E+01  0.17462399009E+03  0.17120000000E+03 0.  0.
        998    1    1    2    0    0  0.57246260231E-01 -0.65326285163E+01  0.12734021499E+04  0.12734581712E+04  0.10000000000E+02 0.  0.
</event>
<event>
 5    1  0.1440459E-008  0.3712453E+03  0.7957747E-01  0.3490187E+00
         13   -1    0    0    0    0  0.00000000000E+00  0.00000000000E+00  0.14999999963E+04  0.15000000000E+04  0.10566000000E+00 0. -1.
        994   -1    0    0    0    0 -0.00000000000E+00 -0.00000000000E+00  0.11368683772E-12  0.17120000000E+03  0.17120000000E+03 0.  0.
         13    1    1    2    0    0  0.46381609068E+01 -0.89002596015E+01  0.17867091064E+01  0.10194638348E+02  0.10566000000E+00 0. -1.
        994    1    1    2    0    0 -0.77921207284E+01  0.77363139142E+01  0.90348043560E+01  0.17178950896E+03  0.17120000000E+03 0.  0.
        998    1    1    2    0    0  0.31539598217E+01  0.11639456873E+01  0.14891784828E+04  0.14892158527E+04  0.10000000000E+02 0. -1.
</event>
<event>
 5    1  0.1440459E-008  0.3730161E+03  0.7957747E-01  0.3482143E+00
         13   -1    0    0    0    0  0.00000000000E+00  0.00000000000E+00  0.14999999963E+04  0.15000000000E+04  0.10566000000E+00 0. -1.
        994   -1    0    0    0    0 -0.00000000000E+00 -0.00000000000E+00  0.11368683772E-12  0.17120000000E+03  0.17120000000E+03 0.  0.
         13    1    1    2    0    0  0.89913077953E+02  0.18503514788E+02  0.40361354953E+03  0.41392106757E+03  0.10566000000E+00 0. -1.
        994    1    1    2    0    0 -0.90503505984E+02 -0.35998915075E+01  0.36318834136E+02  0.19705923355E+03  0.17120000000E+03 0.  0.
        998    1    1    2    0    0  0.59042803121E+00 -0.14903623280E+02  0.10600676126E+04  0.10602196989E+04  0.10000000000E+02 0.  1.
</event>
<event>
 5    1  0.1440459E-008  0.3838941E+03  0.7957747E-01  0.3434376E+00
         13   -1    0    0    0    0  0.00000000000E+00  0.00000000000E+00  0.14999999963E+04  0.15000000000E+04  0.10566000000E+00 0.  1.
        994   -1    0    0    0    0 -0.00000000000E+00 -0.00000000000E+00  0.11368683772E-12  0.17120000000E+03  0.17120000000E+03 0.  0.
         13    1    1    2    0    0  0.15629534669E+02  0.14731122841E+01  0.57844558525E+02  0.59937104775E+02  0.10566000000E+00 0.  1.
        994    1    1    2    0    0 -0.41402865465E+01 -0.17564062922E+01  0.22469329397E+01  0.17127380314E+03  0.17120000000E+03 0.  0.
        998    1    1    2    0    0 -0.11489248123E+02  0.28329400810E+00  0.14399085048E+04  0.14399890921E+04  0.10000000000E+02 0.  1.
</event>
<event>
 5    1  0.1440459E-008  0.3774672E+03  0.7957747E-01  0.3462262E+00
         13   -1    0    0    0    0  0.00000000000E+00  0.00000000000E+00  0.14999999963E+04  0.15000000000E+04  0.10566000000E+00 0. -1.
        994   -1    0    0    0    0 -0.00000000000E+00 -0.00000000000E+00  0.11368683772E-12  0.17120000000E+03  0.17120000000E+03 0.  0.
         13    1    1    2    0    0 -0.16108423753E+02 -0.52910235772E+02  0.24234408302E+03  0.24857522021E+03  0.10566000000E+00 0. -1.
        994    1    1    2    0    0  0.23061329861E+02  0.47560125788E+02  0.14894052329E+02  0.17979172199E+03  0.17120000000E+03 0.  0.
        998    1    1    2    0    0 -0.69529061082E+01  0.53501099839E+01  0.12427618609E+04  0.12428330578E+04  0.10000000000E+02 0. -1.
</event>
<event>
 5    1  0.1440459E-008  0.3831791E+03  0.7957747E-01  0.3437432E+00
         13   -1    0    0    0    0  0.00000000000E+00  0.00000000000E+00  0.14999999963E+04  0.15000000000E+04  0.10566000000E+00 0.  1.
        994   -1    0    0    0    0 -0.00000000000E+00 -0.00000000000E+00  0.11368683772E-12  0.17120000000E+03  0.17120000000E+03 0.  0.
         13    1    1    2    0    0  0.19989173642E+02 -0.12482142731E+02  0.11302149735E+03  0.11545233205E+03  0.10566000000E+00 0.  1.
        994    1    1    2    0    0 -0.14460350304E+02 -0.59761807315E+01  0.33472223893E+01  0.17194609727E+03  0.17120000000E+03 0.  0.
        998    1    1    2    0    0 -0.55288233383E+01  0.18458323463E+02  0.13836312765E+04  0.13838015707E+04  0.10000000000E+02 0.  1.
</event>
<event>
 5    1  0.1440459E-008  0.3846967E+03  0.7957747E-01  0.3430959E+00
         13   -1    0    0    0    0  0.00000000000E+00  0.00000000000E+00  0.14999999963E+04  0.15000000000E+04  0.10566000000E+00 0. -1.
        994   -1    0    0    0    0 -0.00000000000E+00 -0.00000000000E+00  0.11368683772E-12  0.17120000000E+03  0.17120000000E+03 0.  0.
         13    1    1    2    0    0  0.13798111328E+02  0.74864535115E+01  0.67129436182E+02  0.68940606529E+02  0.10566000000E+00 0. -1.
        994    1    1    2    0    0 -0.11309038224E+02 -0.10418669481E+02  0.25595090675E+01  0.17190821419E+03  0.17120000000E+03 0.  0.
        998    1    1    2    0    0 -0.24890731048E+01  0.29322159691E+01  0.14303110510E+04  0.14303511793E+04  0.10000000000E+02 0. -1.
</event>
<event>
 5    1  0.1440459E-008  0.3790057E+03  0.7957747E-01  0.3455499E+00
         13   -1    0    0    0    0  0.00000000000E+00  0.00000000000E+00  0.14999999963E+04  0.15000000000E+04  0.10566000000E+00 0.  1.
        994   -1    0    0    0    0 -0.00000000000E+00 -0.00000000000E+00  0.11368683772E-12  0.17120000000E+03  0.17120000000E+03 0.  0.
         13    1    1    2    0    0 -0.17379476353E+02 -0.49255112139E+02  0.31258391863E+03  0.31691770165E+03  0.10566000000E+00 0.  1.
        994    1    1    2    0    0  0.14092284774E+02  0.19065504675E+02  0.65233907429E+01  0.17295687493E+03  0.17120000000E+03 0.  0.
        998    1    1    2    0    0  0.32871915790E+01  0.30189607464E+02  0.11808926869E+04  0.11813254234E+04  0.10000000000E+02 0.  0.
</event>
<event>
 5    1  0.1440459E-008  0.3787880E+03  0.7957747E-01  0.3456453E+00
         13   -1    0    0    0    0  0.00000000000E+00  0.00000000000E+00  0.14999999963E+04  0.15000000000E+04  0.10566000000E+00 0. -1.
        994   -1    0    0    0    0 -0.00000000000E+00 -0.00000000000E+00  0.11368683772E-12  0.17120000000E+03  0.17120000000E+03 0.  0.
         13    1    1    2    0    0  0.67617530477E+00 -0.26463650300E+02  0.72111778245E+02  0.76817326990E+02  0.10566000000E+00 0. -1.
        994    1    1    2    0    0 -0.18771662081E+02  0.16247355592E+02  0.68176718451E+01  0.17312501989E+03  0.17120000000E+03 0.  0.
        998    1    1    2    0    0  0.18095486777E+02  0.10216294708E+02  0.14210705462E+04  0.14212576531E+04  0.10000000000E+02 0. -1.
</event>
<event>
 5    1  0.1440459E-008  0.3836990E+03  0.7957747E-01  0.3435209E+00
         13   -1    0    0    0    0  0.00000000000E+00  0.00000000000E+00  0.14999999963E+04  0.15000000000E+04  0.10566000000E+00 0.  1.
        994   -1    0    0    0    0 -0.00000000000E+00 -0.00000000000E+00  0.11368683772E-12  0.17120000000E+03  0.17120000000E+03 0.  0.
         13    1    1    2    0    0  0.87528324219E+01 -0.91748470272E+01  0.33739138425E+02  0.36043453207E+02  0.10566000000E+00 0.  1.
        994    1    1    2    0    0 -0.82935767079E+01  0.13125655060E+02  0.30739776547E+01  0.17193008920E+03  0.17120000000E+03 0.  0.
        998    1    1    2    0    0 -0.45925571398E+00 -0.39508080325E+01  0.14631868802E+04  0.14632264576E+04  0.10000000000E+02 0.  1.
</event>
<event>
 5    1  0.1440459E-008  0.3837264E+03  0.7957747E-01  0.3435092E+00
         13   -1    0    0    0    0  0.00000000000E+00  0.00000000000E+00  0.14999999963E+04  0.15000000000E+04  0.10566000000E+00 0. -1.
        994   -1    0    0    0    0 -0.00000000000E+00 -0.00000000000E+00  0.11368683772E-12  0.17120000000E+03  0.17120000000E+03 0.  0.
         13    1    1    2    0    0 -0.60104825017E+01 -0.11847398223E+02  0.38302694784E+02  0.40541267078E+02  0.10566000000E+00 0. -1.
        994    1    1    2    0    0  0.71434182445E+01  0.68339113154E+01  0.25865856480E+01  0.17150469729E+03  0.17120000000E+03 0.  0.
        998    1    1    2    0    0 -0.11329357428E+01  0.50134869077E+01  0.14591107158E+04  0.14591540356E+04  0.10000000000E+02 0. -1.
</event>
<event>
 5    1  0.1440459E-008  0.3812997E+03  0.7957747E-01  0.3445519E+00
         13   -1    0    0    0    0  0.00000000000E+00  0.00000000000E+00  0.14999999963E+04  0.15000000000E+04  0.10566000000E+00 0.  1.
        994   -1    0    0    0    0 -0.00000000000E+00 -0.00000000000E+00  0.11368683772E-12  0.17120000000E+03  0.17120000000E+03 0.  0.
         13    1    1    2    0    0 -0.17981288970E+02 -0.29826786880E+02  0.17643586602E+03  0.17984045694E+03  0.10566000000E+00 0.  1.
        994    1    1    2    0    0  0.21889806785E+02  0.80168724876E+01  0.52894951676E+01  0.17286078978E+03  0.17120000000E+03 0.  0.
        998    1    1    2    0    0 -0.39085178143E+01  0.21809914393E+02  0.13182746351E+04  0.13184987533E+04  0.10000000000E+02 0.  1.
</event>
<event>
 5    1  0.1440459E-008  0.3694522E+03  0.7957747E-01  0.3498412E+00
         13   -1    0    0    0    0  0.00000000000E+00  0.00000000000E+00  0.14999999963E+04  0.15000000000E+04  0.10566000000E+00 0.  1.
        994   -1    0    0    0    0 -0.00000000000E+00 -0.00000000000E+00  0.11368683772E-12  0.17120000000E+03  0.17120000000E+03 0.  0.
         13    1    1    2    0    0  0.57865627219E+02  0.18811565998E+02  0.17215776493E+03  0.18259412099E+03  0.10566000000E+00 0.  1.
        994    1    1    2    0    0 -0.51625980941E+02 -0.27898908227E+02  0.21581353024E+02  0.18226021449E+03  0.17120000000E+03 0.  0.
        998    1    1    2    0    0 -0.62396462785E+01  0.90873422289E+01  0.13062608783E+04  0.13063456645E+04  0.10000000000E+02 0.  1.
</event>
<event>
 5    1  0.1440459E-008  0.3706839E+03  0.7957747E-01  0.3492754E+00
         13   -1    0    0    0    0  0.00000000000E+00  0.00000000000E+00  0.14999999963E+04  0.15000000000E+04  0.10566000000E+00 0. -1.
        994   -1    0    0    0    0 -0.00000000000E+00 -0.00000000000E+00  0.11368683772E-12  0.17120000000E+03  0.17120000000E+03 0.  0.
         13    1    1    2    0    0 -0.65608384100E+02  0.10581171355E+02  0.21500362885E+03  0.22503998053E+03  0.10566000000E+00 0. -1.
        994    1    1    2    0    0  0.61645814163E+02 -0.11483551270E+02  0.22600487422E+02  0.18371799146E+03  0.17120000000E+03 0.  0.
        998    1    1    2    0    0  0.39625699366E+01  0.90237991475E+00  0.12623958800E+04  0.12624420280E+04  0.10000000000E+02 0. -1.
</event>
<event>
 5    1  0.1440459E-008  0.3768143E+03  0.7957747E-01  0.3465148E+00
         13   -1    0    0    0    0  0.00000000000E+00  0.00000000000E+00  0.14999999963E+04  0.15000000000E+04  0.10566000000E+00 0.  1.
        994   -1    0    0    0    0 -0.00000000000E+00 -0.00000000000E+00  0.11368683772E-12  0.17120000000E+03  0.17120000000E+03 0.  0.
         13    1    1    2    0    0 -0.10072925595E+02  0.42037180073E+02  0.14427449156E+03  0.15061118291E+03  0.10566000000E+00 0.  1.
        994    1    1    2    0    0  0.61258103269E+01 -0.45424230865E+02  0.12881062014E+02  0.17769706824E+03  0.17120000000E+03 0.  0.
        998    1    1    2    0    0  0.39471152686E+01  0.33870507913E+01  0.13428444427E+04  0.13428917489E+04  0.10000000000E+02 0.  1.
</event>
<event>
 5    1  0.1440459E-008  0.3824258E+03  0.7957747E-01  0.3440664E+00
         13   -1    0    0    0    0  0.00000000000E+00  0.00000000000E+00  0.14999999963E+04  0.15000000000E+04  0.10566000000E+00 0. -1.
        994   -1    0    0    0    0 -0.00000000000E+00 -0.00000000000E+00  0.11368683772E-12  0.17120000000E+03  0.17120000000E+03 0.  0.
         13    1    1    2    0    0 -0.25470803989E+00  0.48567028039E+02  0.28568514986E+03  0.28978412155E+03  0.10566000000E+00 0. -1.
        994    1    1    2    0    0 -0.18642165012E+02 -0.63249801153E+02  0.17469664278E+02  0.18428970897E+03  0.17120000000E+03 0.  0.
        998    1    1    2    0    0  0.18896873052E+02  0.14682773113E+02  0.11968451821E+04  0.11971261695E+04  0.10000000000E+02 0. -1.
</event>
<event>
 5    1  0.1440459E-008  0.3828344E+03  0.7957747E-01  0.3438909E+00
         13   -1    0    0    0    0  0.00000000000E+00  0.00000000000E+00  0.14999999963E+04  0.15000000000E+04  0.10566000000E+00 0.  1.
        994   -1    0    0    0    0 -0.00000000000E+00 -0.00000000000E+00  0.11368683772E-12  0.17120000000E+03  0.17120000000E+03 0.  0.
         13    1    1    2    0    0  0.74753054188E+01  0.10706331942E+02  0.29920993482E+02  0.32646328274E+02  0.10566000000E+00 0.  1.
        994    1    1    2    0    0 -0.11515174591E+02 -0.97916399051E+01  0.34662027775E+01  0.17190093083E+03  0.17120000000E+03 0.  0.
        998    1    1    2    0    0  0.40398691720E+01 -0.91469203721E+00  0.14666128000E+04  0.14666527409E+04  0.10000000000E+02 0.  1.
</event>
<event>
 5    1  0.1440459E-008  0.3850649E+03  0.7957747E-01  0.3429397E+00
         13   -1    0    0    0    0  0.00000000000E+00  0.00000000000E+00  0.14999999963E+04  0.15000000000E+04  0.10566000000E+00 0.  1.
        994   -1    0    0    0    0 -0.00000000000E+00 -0.00000000000E+00  0.11368683772E-12  0.17120000000E+03  0.17120000000E+03 0.  0.
         13    1    1    2    0    0  0.97362571323E+01 -0.12994226204E+02  0.77990394755E+02  0.79662773336E+02  0.10566000000E+00 0.  1.
        994    1    1    2    0    0 -0.18420900079E+02  0.98600111894E+01  0.30345992553E+01  0.17249695120E+03  0.17120000000E+03 0.  0.
        998    1    1    2    0    0  0.86846429471E+01  0.31342150151E+01  0.14189750023E+04  0.14190402755E+04  0.10000000000E+02 0.  1.
</event>
<event>
 5    1  0.1440459E-008  0.3769816E+03  0.7957747E-01  0.3464408E+00
         13   -1    0    0    0    0  0.00000000000E+00  0.00000000000E+00  0.14999999963E+04  0.15000000000E+04  0.10566000000E+00 0.  1.
        994   -1    0    0    0    0 -0.00000000000E+00 -0.00000000000E+00  0.11368683772E-12  0.17120000000E+03  0.17120000000E+03 0.  0.
         13    1    1    2    0    0 -0.18976737407E+02  0.23781137164E+02  0.74750815057E+02  0.80705356472E+02  0.10566000000E+00 0.  1.
        994    1    1    2    0    0  0.15485082745E+02 -0.32529040709E+02  0.10059809277E+02  0.17523859746E+03  0.17120000000E+03 0.  0.
        998    1    1    2    0    0  0.34916546618E+01  0.87479035448E+01  0.14151893719E+04  0.14152560461E+04  0.10000000000E+02 0.  1.
</event>
<event>
 5    1  0.1440459E-008  0.3845333E+03  0.7957747E-01  0.3431654E+00
         13   -1    0    0    0    0  0.00000000000E+00  0.00000000000E+00  0.14999999963E+04  0.15000000000E+04  0.10566000000E+00 0.  1.
        994   -1    0    0    0    0 -0.00000000000E+00 -0.00000000000E+00  0.11368683772E-12  0.17120000000E+03  0.17120000000E+03 0.  0.
         13    1    1    2    0    0 -0.49968663033E+01  0.91676913841E+01  0.29263477368E+02  0.31070524776E+02  0.10566000000E+00 0.  1.
        994    1    1    2    0    0  0.49749759012E+01 -0.15112011426E+01  0.19510894148E+01  0.17129004893E+03  0.17120000000E+03 0.  0.
        998    1    1    2    0    0  0.21890402152E-01 -0.76564902415E+01  0.14687854295E+04  0.14688394263E+04  0.10000000000E+02 0.  1.
</event>
<event>
 5    1  0.1440459E-008  0.3796800E+03  0.7957747E-01  0.3452553E+00
         13   -1    0    0    0    0  0.00000000000E+00  0.00000000000E+00  0.14999999963E+04  0.15000000000E+04  0.10566000000E+00 0.  1.
        994   -1    0    0    0    0 -0.00000000000E+00 -0.00000000000E+00  0.11368683772E-12  0.17120000000E+03  0.17120000000E+03 0.  0.
         13    1    1    2    0    0 -0.37497961034E+01 -0.26625542843E+02  0.78601618393E+02  0.83073498064E+02  0.10566000000E+00 0.  1.
        994    1    1    2    0    0  0.10331588089E+02  0.26709491653E+02  0.70441566947E+01  0.17372161293E+03  0.17120000000E+03 0.  0.
        998    1    1    2    0    0 -0.65817919852E+01 -0.83948810078E-01  0.14143542212E+04  0.14144048890E+04  0.10000000000E+02 0.  1.
</event>
<event>
 5    1  0.1440459E-008  0.3684883E+03  0.7957747E-01  0.3502867E+00
         13   -1    0    0    0    0  0.00000000000E+00  0.00000000000E+00  0.14999999963E+04  0.15000000000E+04  0.10566000000E+00 0.  1.
        994   -1    0    0    0    0 -0.00000000000E+00 -0.00000000000E+00  0.11368683772E-12  0.17120000000E+03  0.17120000000E+03 0.  0.
         13    1    1    2    0    0 -0.21077268170E+02  0.75789572951E+02  0.41498925304E+03  0.42237945251E+03  0.10566000000E+00 0.  1.
        994    1    1    2    0    0  0.89531051320E+02  0.36782124619E+01  0.38513994306E+02  0.19703326154E+03  0.17120000000E+03 0.  0.
        998    1    1    2    0    0 -0.68453783150E+02 -0.79467785413E+02  0.10464967489E+04  0.10517872859E+04  0.10000000000E+02 0.  1.
</event>
<event>
 5    1  0.1440459E-008  0.3829576E+03  0.7957747E-01  0.3438381E+00
         13   -1    0    0    0    0  0.00000000000E+00  0.00000000000E+00  0.14999999963E+04  0.15000000000E+04  0.10566000000E+00 0.  1.
        994   -1    0    0    0    0 -0.00000000000E+00 -0.00000000000E+00  0.11368683772E-12  0.17120000000E+03  0.17120000000E+03 0.  0.
         13    1    1    2    0    0  0.49752799393E+01 -0.10971685967E+02  0.26463883996E+02  0.29077132315E+02  0.10566000000E+00 0.  1.
        994    1    1    2    0    0 -0.11763444357E+01  0.87905187901E+01  0.29079987317E+01  0.17145423140E+03  0.17120000000E+03 0.  0.
        998    1    1    2    0    0 -0.37989355035E+01  0.21811671769E+01  0.14706281136E+04  0.14706686363E+04  0.10000000000E+02 0.  1.
</event>
<event>
 5    1  0.1440459E-008  0.3832106E+03  0.7957747E-01  0.3437297E+00
         13   -1    0    0    0    0  0.00000000000E+00  0.00000000000E+00  0.14999999963E+04  0.15000000000E+04  0.10566000000E+00 0.  1.
        994   -1    0    0    0    0 -0.00000000000E+00 -0.00000000000E+00  0.11368683772E-12  0.17120000000E+03  0.17120000000E+03 0.  0.
         13    1    1    2    0    0 -0.54819714923E+01 -0.95018128667E+01  0.23336299104E+02  0.25786245928E+02  0.10566000000E+00 0.  1.
        994    1    1    2    0    0 -0.14595750468E+01  0.42686271877E+01  0.25884830850E+01  0.17127898815E+03  0.17120000000E+03 0.  0.
        998    1    1    2    0    0  0.69415465391E+01  0.52331856790E+01  0.14740752141E+04  0.14741347659E+04  0.10000000000E+02 0.  1.
</event>
<event>
 5    1  0.1440459E-008  0.3840261E+03  0.7957747E-01  0.3433813E+00
         13   -1    0    0    0    0  0.00000000000E+00  0.00000000000E+00  0.14999999963E+04  0.15000000000E+04  0.10566000000E+00 0.  1.
        994   -1    0    0    0    0 -0.00000000000E+00 -0.00000000000E+00  0.11368683772E-12  0.17120000000E+03  0.17120000000E+03 0.  0.
         13    1    1    2    0    0  0.12342749264E+02 -0.11848977952E+01  0.35741462294E+02  0.37831345907E+02  0.10566000000E+00 0.  1.
        994    1    1    2    0    0 -0.89907912501E+01 -0.38391336943E+00  0.23816581661E+01  0.17145289153E+03  0.17120000000E+03 0.  0.
        998    1    1    2    0    0 -0.33519580140E+01  0.15688111646E+01  0.14618768758E+04  0.14619157626E+04  0.10000000000E+02 0.  1.
</event>
<event>
 5    1  0.1440459E-008  0.3835557E+03  0.7957747E-01  0.3435821E+00
         13   -1    0    0    0    0  0.00000000000E+00  0.00000000000E+00  0.14999999963E+04  0.15000000000E+04  0.10566000000E+00 0.  1.
        994   -1    0    0    0    0 -0.00000000000E+00 -0.00000000000E+00  0.11368683772E-12  0.17120000000E+03  0.17120000000E+03 0.  0.
         13    1    1    2    0    0 -0.17093074876E+01  0.10883210183E+02  0.26418335678E+02  0.28623515158E+02  0.10566000000E+00 0.  1.
        994    1    1    2    0    0 -0.44145478271E+01  0.63730268590E+01  0.25474982969E+01  0.17139437987E+03  0.17120000000E+03 0.  0.
        998    1    1    2    0    0  0.61238553146E+01 -0.17256237042E+02  0.14710341623E+04  0.14711821050E+04  0.10000000000E+02 0.  1.
</event>
<event>
 5    1  0.1440459E-008  0.3794126E+03  0.7957747E-01  0.3453720E+00
         13   -1    0    0    0    0  0.00000000000E+00  0.00000000000E+00  0.14999999963E+04  0.15000000000E+04  0.10566000000E+00 0. -1.
        994   -1    0    0    0    0 -0.00000000000E+00 -0.00000000000E+00  0.11368683772E-12  0.17120000000E+03  0.17120000000E+03 0.  0.
         13    1    1    2    0    0 -0.17667655791E+02 -0.67828259004E+01  0.38029902705E+02  0.42478670555E+02  0.10566000000E+00 0. -1.
        994    1    1    2    0    0  0.16254727370E+02  0.77737925461E+01  0.55180767791E+01  0.17223396060E+03  0.17120000000E+03 0.  0.
        998    1    1    2    0    0  0.14129284205E+01 -0.99096664579E+00  0.14564520168E+04  0.14564873688E+04  0.10000000000E+02 0. -1.
</event>
<event>
 5    1  0.1440459E-008  0.3809774E+03  0.7957747E-01  0.3446914E+00
         13   -1    0    0    0    0  0.00000000000E+00  0.00000000000E+00  0.14999999963E+04  0.15000000000E+04  0.10566000000E+00 0. -1.
        994   -1    0    0    0    0 -0.00000000000E+00 -0.00000000000E+00  0.11368683772E-12  0.17120000000E+03  0.17120000000E+03 0.  0.
         13    1    1    2    0    0 -0.12345693870E+02 -0.14206438589E+02  0.50161184438E+02  0.53576064085E+02  0.10566000000E+00 0. -1.
        994    1    1    2    0    0 -0.71754347124E+01  0.32173285210E+01  0.38466355693E+01  0.17142367010E+03  0.17120000000E+03 0.  0.
        998    1    1    2    0    0  0.19521128582E+02  0.10989110068E+02  0.14459921763E+04  0.14462002658E+04  0.10000000000E+02 0. -1.
</event>
<event>
 5    1  0.1440459E-008  0.3818529E+03  0.7957747E-01  0.3443130E+00
         13   -1    0    0    0    0  0.00000000000E+00  0.00000000000E+00  0.14999999963E+04  0.15000000000E+04  0.10566000000E+00 0. -1.
        994   -1    0    0    0    0 -0.00000000000E+00 -0.00000000000E+00  0.11368683772E-12  0.17120000000E+03  0.17120000000E+03 0.  0.
         13    1    1    2    0    0 -0.26603509326E+02 -0.83276568622E+01  0.12794339146E+03  0.13094509980E+03  0.10566000000E+00 0. -1.
        994    1    1    2    0    0  0.16129072500E+02 -0.23315888881E+02  0.58759062202E+01  0.17363105692E+03  0.17120000000E+03 0.  0.
        998    1    1    2    0    0  0.10474436827E+02  0.31643545743E+02  0.13661806986E+04  0.13666238433E+04  0.10000000000E+02 0. -1.
</event>
<event>
 5    1  0.1440459E-008  0.3844853E+03  0.7957747E-01  0.3431858E+00
         13   -1    0    0    0    0  0.00000000000E+00  0.00000000000E+00  0.14999999963E+04  0.15000000000E+04  0.10566000000E+00 0.  1.
        994   -1    0    0    0    0 -0.00000000000E+00 -0.00000000000E+00  0.11368683772E-12  0.17120000000E+03  0.17120000000E+03 0.  0.
         13    1    1    2    0    0  0.75129171499E+01  0.91533451202E+01  0.40232689246E+02  0.41939338323E+02  0.10566000000E+00 0.  1.
        994    1    1    2    0    0  0.11668851792E+02  0.40579114543E+01  0.23888562880E+01  0.17166180525E+03  0.17120000000E+03 0.  0.
        998    1    1    2    0    0 -0.19181768942E+02 -0.13211256575E+02  0.14573784507E+04  0.14575988564E+04  0.10000000000E+02 0.  1.
</event>
<event>
 5    1  0.1440459E-008  0.3823778E+03  0.7957747E-01  0.3440870E+00
         13   -1    0    0    0    0  0.00000000000E+00  0.00000000000E+00  0.14999999963E+04  0.15000000000E+04  0.10566000000E+00 0.  1.
        994   -1    0    0    0    0 -0.00000000000E+00 -0.00000000000E+00  0.11368683772E-12  0.17120000000E+03  0.17120000000E+03 0.  0.
         13    1    1    2    0    0  0.63321082056E+01 -0.80178722015E+01  0.16599762941E+02  0.19492182092E+02  0.10566000000E+00 0.  1.
        994    1    1    2    0    0 -0.34069448929E+01  0.63347562609E+01  0.31092794977E+01  0.17137924037E+03  0.17120000000E+03 0.  0.
        998    1    1    2    0    0 -0.29251633126E+01  0.16831159406E+01  0.14802909538E+04  0.14803285775E+04  0.10000000000E+02 0.  1.
</event>
<event>
 5    1  0.1440459E-008  0.2396998E+03  0.7957747E-01  0.4449972E+00
         13   -1    0    0    0    0  0.00000000000E+00  0.00000000000E+00  0.14999999963E+04  0.15000000000E+04  0.10566000000E+00 0. -1.
        994   -1    0    0    0    0 -0.00000000000E+00 -0.00000000000E+00  0.11368683772E-12  0.17120000000E+03  0.17120000000E+03 0.  0.
         13    1    1    2    0    0 -0.17231660343E+03 -0.49057703270E+02  0.23866533116E+03  0.29843059751E+03  0.10566000000E+00 0. -1.
        994    1    1    2    0    0  0.13771833612E+03  0.32321428630E+02  0.16738078775E+03  0.27809491718E+03  0.17120000000E+03 0.  0.
        998    1    1    2    0    0  0.34598267306E+02  0.16736274639E+02  0.10939538774E+04  0.10946744853E+04  0.10000000000E+02 0. -1.
</event>
<event>
 5    1  0.1440459E-008  0.3804937E+03  0.7957747E-01  0.3449012E+00
         13   -1    0    0    0    0  0.00000000000E+00  0.00000000000E+00  0.14999999963E+04  0.15000000000E+04  0.10566000000E+00 0. -1.
        994   -1    0    0    0    0 -0.00000000000E+00 -0.00000000000E+00  0.11368683772E-12  0.17120000000E+03  0.17120000000E+03 0.  0.
         13    1    1    2    0    0  0.12876748614E+02 -0.44051191615E+02  0.23737227008E+03  0.24176832693E+03  0.10566000000E+00 0. -1.
        994    1    1    2    0    0 -0.82893693933E+01  0.41244649917E+02  0.98135864001E+01  0.17656608188E+03  0.17120000000E+03 0.  0.
        998    1    1    2    0    0 -0.45873792207E+01  0.28065416980E+01  0.12528141398E+04  0.12528655912E+04  0.10000000000E+02 0. -1.
</event>
<event>
 5    1  0.1440459E-008  0.3767928E+03  0.7957747E-01  0.3465243E+00
         13   -1    0    0    0    0  0.00000000000E+00  0.00000000000E+00  0.14999999963E+04  0.15000000000E+04  0.10566000000E+00 0. -1.
        994   -1    0    0    0    0 -0.00000000000E+00 -0.00000000000E+00  0.11368683772E-12  0.17120000000E+03  0.17120000000E+03 0.  0.
         13    1    1    2    0    0  0.35528439913E+02 -0.42489072023E+01  0.10603589196E+03  0.11191043206E+03  0.10566000000E+00 0. -1.
        994    1    1    2    0    0 -0.30403408118E+02 -0.17542079131E+02  0.99352183003E+01  0.17504353838E+03  0.17120000000E+03 0.  0.
        998    1    1    2    0    0 -0.51250317951E+01  0.21790986333E+02  0.13840288860E+04  0.13842460296E+04  0.10000000000E+02 0. -1.
</event>
<event>
 5    1  0.1440459E-008  0.3747143E+03  0.7957747E-01  0.3474502E+00
         13   -1    0    0    0    0  0.00000000000E+00  0.00000000000E+00  0.14999999963E+04  0.15000000000E+04  0.10566000000E+00 0. -1.
        994   -1    0    0    0    0 -0.00000000000E+00 -0.00000000000E+00  0.11368683772E-12  0.17120000000E+03  0.17120000000E+03 0.  0.
         13    1    1    2    0    0 -0.23786563328E+02 -0.15515583793E+02  0.56676399430E+02  0.63393685425E+02  0.10566000000E+00 0. -1.
        994    1    1    2    0    0  0.20699912465E+02  0.27958808246E-01  0.82847926979E+01  0.17264577883E+03  0.17120000000E+03 0.  0.
        998    1    1    2    0    0  0.30866508624E+01  0.15487624985E+02  0.14350388042E+04  0.14351605357E+04  0.10000000000E+02 0. -1.
</event>
<event>
 5    1  0.1440459E-008  0.3710175E+03  0.7957747E-01  0.3491228E+00
         13   -1    0    0    0    0  0.00000000000E+00  0.00000000000E+00  0.14999999963E+04  0.15000000000E+04  0.10566000000E+00 0.  1.
        994   -1    0    0    0    0 -0.00000000000E+00 -0.00000000000E+00  0.11368683772E-12  0.17120000000E+03  0.17120000000E+03 0.  0.
         13    1    1    2    0    0  0.14447376575E+02 -0.86741094614E+01  0.76693813085E+01  0.18514789724E+02  0.10566000000E+00 0.  1.
        994    1    1    2    0    0  0.12617951862E+02  0.20701410905E+00  0.12036757815E+02  0.17208596428E+03  0.17120000000E+03 0.  0.
        998    1    1    2    0    0 -0.27065328437E+02  0.84670953523E+01  0.14802938572E+04  0.14805992460E+04  0.10000000000E+02 0.  1.
</event>
<event>
 5    1  0.1440459E-008  0.3851622E+03  0.7957747E-01  0.3428985E+00
         13   -1    0    0    0    0  0.00000000000E+00  0.00000000000E+00  0.14999999963E+04  0.15000000000E+04  0.10566000000E+00 0. -1.
        994   -1    0    0    0    0 -0.00000000000E+00 -0.00000000000E+00  0.11368683772E-12  0.17120000000E+03  0.17120000000E+03 0.  0.
         13    1    1    2    0    0  0.12852072405E+02  0.11428072265E+02  0.91591977320E+02  0.93192693245E+02  0.10566000000E+00 0. -1.
        994    1    1    2    0    0 -0.11569749866E+02 -0.12095323209E+02  0.24710322824E+01  0.17203401395E+03  0.17120000000E+03 0.  0.
        998    1    1    2    0    0 -0.12823225396E+01  0.66725094415E+00  0.14059369867E+04  0.14059732928E+04  0.10000000000E+02 0. -1.
</event>
<event>
 5    1  0.1440459E-008  0.3778232E+03  0.7957747E-01  0.3460692E+00
         13   -1    0    0    0    0  0.00000000000E+00  0.00000000000E+00  0.14999999963E+04  0.15000000000E+04  0.10566000000E+00 0. -1.
        994   -1    0    0    0    0 -0.00000000000E+00 -0.00000000000E+00  0.11368683772E-12  0.17120000000E+03  0.17120000000E+03 0.  0.
         13    1    1    2    0    0  0.12475254246E+02  0.22707027694E+02  0.60980696262E+02  0.66256302008E+02  0.10566000000E+00 0. -1.
        994    1    1    2    0    0 -0.36829388205E+01 -0.22630420619E+02  0.70081382186E+01  0.17287062786E+03  0.17120000000E+03 0.  0.
        998    1    1    2    0    0 -0.87923154252E+01 -0.76607075196E-01  0.14320111618E+04  0.14320730701E+04  0.10000000000E+02 0. -1.
</event>
<event>
 5    1  0.1440459E-008  0.3775143E+03  0.7957747E-01  0.3462054E+00
         13   -1    0    0    0    0  0.00000000000E+00  0.00000000000E+00  0.14999999963E+04  0.15000000000E+04  0.10566000000E+00 0. -1.
        994   -1    0    0    0    0 -0.00000000000E+00 -0.00000000000E+00  0.11368683772E-12  0.17120000000E+03  0.17120000000E+03 0.  0.
         13    1    1    2    0    0  0.34296626559E+02  0.35022042406E+02  0.78232783595E+02  0.92321079070E+02  0.10566000000E+00 0. -1.
        994    1    1    2    0    0 -0.30058480006E+02  0.32696036048E+01  0.18258169456E+02  0.17480561570E+03  0.17120000000E+03 0.  0.
        998    1    1    2    0    0 -0.42381465533E+01 -0.38291646011E+02  0.14035090432E+04  0.14040733052E+04  0.10000000000E+02 0. -1.
</event>
<event>
 5    1  0.1440459E-008  0.3784864E+03  0.7957747E-01  0.3457776E+00
         13   -1    0    0    0    0  0.00000000000E+00  0.00000000000E+00  0.14999999963E+04  0.15000000000E+04  0.10566000000E+00 0.  1.
        994   -1    0    0    0    0 -0.00000000000E+00 -0.00000000000E+00  0.11368683772E-12  0.17120000000E+03  0.17120000000E+03 0.  0.
         13    1    1    2    0    0 -0.51495818111E+02  0.83520937699E+02  0.56468180854E+03  0.57314319535E+03  0.10566000000E+00 0.  1.
        994    1    1    2    0    0  0.91391994740E+02 -0.69837826902E+02  0.50717505989E+02  0.21239473671E+03  0.17120000000E+03 0.  0.
        998    1    1    2    0    0 -0.39896176629E+02 -0.13683110797E+02  0.88460068175E+03  0.88566206794E+03  0.10000000000E+02 0.  1.
</event>
<event>
 5    1  0.1440459E-008  0.3820405E+03  0.7957747E-01  0.3442321E+00
         13   -1    0    0    0    0  0.00000000000E+00  0.00000000000E+00  0.14999999963E+04  0.15000000000E+04  0.10566000000E+00 0. -1.
        994   -1    0    0    0    0 -0.00000000000E+00 -0.00000000000E+00  0.11368683772E-12  0.17120000000E+03  0.17120000000E+03 0.  0.
         13    1    1    2    0    0 -0.20792369819E+02  0.92991144132E+01  0.81987409983E+02  0.85092553912E+02  0.10566000000E+00 0. -1.
        994    1    1    2    0    0  0.13599108683E+02 -0.74071748359E+01  0.39032978160E+01  0.17194323985E+03  0.17120000000E+03 0.  0.
        998    1    1    2    0    0  0.71932611359E+01 -0.18919395773E+01  0.14141092885E+04  0.14141642062E+04  0.10000000000E+02 0. -1.
</event>
<event>
 5    1  0.1440459E-008  0.3727284E+03  0.7957747E-01  0.3483445E+00
         13   -1    0    0    0    0  0.00000000000E+00  0.00000000000E+00  0.14999999963E+04  0.15000000000E+04  0.10566000000E+00 0. -1.
        994   -1    0    0    0    0 -0.00000000000E+00 -0.00000000000E+00  0.11368683772E-12  0.17120000000E+03  0.17120000000E+03 0.  0.
         13    1    1    2    0    0 -0.87275883338E+02  0.47964672885E+02  0.47282523941E+03  0.48319913891E+03  0.10566000000E+00 0. -1.
        994    1    1    2    0    0  0.78610881302E+02 -0.41191440806E+02  0.35331621388E+02  0.19604634382E+03  0.17120000000E+03 0.  0.
        998    1    1    2    0    0  0.86650020359E+01 -0.67732320784E+01  0.99184313548E+03  0.99195451727E+03  0.10000000000E+02 0. -1.
</event>
<event>
 5    1  0.1440459E-008  0.3823564E+03  0.7957747E-01  0.3440962E+00
         13   -1    0    0    0    0  0.00000000000E+00  0.00000000000E+00  0.14999999963E+04  0.15000000000E+04  0.10566000000E+00 0.  1.
        994   -1    0    0    0    0 -0.00000000000E+00 -0.00000000000E+00  0.11368683772E-12  0.17120000000E+03  0.17120000000E+03 0.  0.
         13    1    1    2    0    0 -0.10373416132E+02 -0.24581860250E+01  0.18474552936E+02  0.21330042452E+02  0.10566000000E+00 0.  1.
        994    1    1    2    0    0 -0.26998021686E+00  0.39830413290E+01  0.30012345781E+01  0.17127283765E+03  0.17120000000E+03 0.  0.
        998    1    1    2    0    0  0.10643396349E+02 -0.15248553040E+01  0.14785242088E+04  0.14785971199E+04  0.10000000000E+02 0.  1.
</event>
<event>
 5    1  0.1440459E-008  0.3846373E+03  0.7957747E-01  0.3431212E+00
         13   -1    0    0    0    0  0.00000000000E+00  0.00000000000E+00  0.14999999963E+04  0.15000000000E+04  0.10566000000E+00 0.  1.
        994   -1    0    0    0    0 -0.00000000000E+00 -0.00000000000E+00  0.11368683772E-12  0.17120000000E+03  0.17120000000E+03 0.  0.
         13    1    1    2    0    0 -0.40892186292E+01 -0.11977278373E+02  0.47276550900E+02  0.48941396949E+02  0.10566000000E+00 0.  1.
        994    1    1    2    0    0 -0.23782649401E+01 -0.47658817551E+01  0.19037407439E+01  0.17129341494E+03  0.17120000000E+03 0.  0.
        998    1    1    2    0    0  0.64674835693E+01  0.16743160128E+02  0.14508197046E+04  0.14509651881E+04  0.10000000000E+02 0.  1.
</event>
<event>
 5    1  0.1440459E-008  0.3836914E+03  0.7957747E-01  0.3435241E+00
         13   -1    0    0    0    0  0.00000000000E+00  0.00000000000E+00  0.14999999963E+04  0.15000000000E+04  0.10566000000E+00 0. -1.
        994   -1    0    0    0    0 -0.00000000000E+00 -0.00000000000E+00  0.11368683772E-12  0.17120000000E+03  0.17120000000E+03 0.  0.
         13    1    1    2    0    0 -0.21697348806E+02  0.15132663739E+02  0.14257517949E+03  0.14500850123E+03  0.10566000000E+00 0. -1.
        994    1    1    2    0    0  0.20528419420E+02 -0.13620669390E+02  0.42882881825E+01  0.17301666987E+03  0.17120000000E+03 0.  0.
        998    1    1    2    0    0  0.11689293861E+01 -0.15119943492E+01  0.13531365286E+04  0.13531748289E+04  0.10000000000E+02 0.  0.
</event>
<event>
 5    1  0.1440459E-008  0.3842040E+03  0.7957747E-01  0.3433055E+00
         13   -1    0    0    0    0  0.00000000000E+00  0.00000000000E+00  0.14999999963E+04  0.15000000000E+04  0.10566000000E+00 0. -1.
        994   -1    0    0    0    0 -0.00000000000E+00 -0.00000000000E+00  0.11368683772E-12  0.17120000000E+03  0.17120000000E+03 0.  0.
         13    1    1    2    0    0 -0.12851541346E+02  0.15215016938E+02  0.10172083652E+03  0.10365229666E+03  0.10566000000E+00 0. -1.
        994    1    1    2    0    0  0.20939033302E+01 -0.70925853220E+01  0.22061932157E+01  0.17137385007E+03  0.17120000000E+03 0.  0.
        998    1    1    2    0    0  0.10757638016E+02 -0.81224316163E+01  0.13960729665E+04  0.13961738533E+04  0.10000000000E+02 0. -1.
</event>
<event>
 5    1  0.1440459E-008  0.3756422E+03  0.7957747E-01  0.3470355E+00
         13   -1    0    0    0    0  0.00000000000E+00  0.00000000000E+00  0.14999999963E+04  0.15000000000E+04  0.10566000000E+00 0. -1.
        994   -1    0    0    0    0 -0.00000000000E+00 -0.00000000000E+00  0.11368683772E-12  0.17120000000E+03  0.17120000000E+03 0.  0.
         13    1    1    2    0    0 -0.31783165395E+02  0.15030581172E+02  0.11502157461E+03  0.12027494237E+03  0.10566000000E+00 0. -1.
        994    1    1    2    0    0 -0.15497849536E+02  0.11930378621E+02  0.76478034247E+01  0.17248317649E+03  0.17120000000E+03 0.  0.
        998    1    1    2    0    0  0.47281014932E+02 -0.26960959793E+02  0.13773306182E+04  0.13784418811E+04  0.10000000000E+02 0. -1.
</event>
<event>
 5    1  0.1440459E-008  0.3761551E+03  0.7957747E-01  0.3468073E+00
         13   -1    0    0    0    0  0.00000000000E+00  0.00000000000E+00  0.14999999963E+04  0.15000000000E+04  0.10566000000E+00 0. -1.
        994   -1    0    0    0    0 -0.00000000000E+00 -0.00000000000E+00  0.11368683772E-12  0.17120000000E+03  0.17120000000E+03 0.  0.
         13    1    1    2    0    0  0.48663612636E+02 -0.44075885817E+02  0.12180367059E+03  0.13837259931E+03  0.10566000000E+00 0. -1.
        994    1    1    2    0    0 -0.63844823965E+02  0.68328247911E+02  0.46180685046E+02  0.20046697155E+03  0.17120000000E+03 0.  0.
        998    1    1    2    0    0  0.15181211329E+02 -0.24252362095E+02  0.13320156406E+04  0.13323604291E+04  0.10000000000E+02 0. -1.
</event>
<event>
 5    1  0.1440459E-008  0.3738673E+03  0.7957747E-01  0.3478304E+00
         13   -1    0    0    0    0  0.00000000000E+00  0.00000000000E+00  0.14999999963E+04  0.15000000000E+04  0.10566000000E+00 0. -1.
        994   -1    0    0    0    0 -0.00000000000E+00 -0.00000000000E+00  0.11368683772E-12  0.17120000000E+03  0.17120000000E+03 0.  0.
         13    1    1    2    0    0  0.24823140426E+02 -0.27874553519E+02  0.89237916714E+02  0.96729499006E+02  0.10566000000E+00 0. -1.
        994    1    1    2    0    0 -0.25865871242E+02  0.23440771478E+02  0.11430738024E+02  0.17509601604E+03  0.17120000000E+03 0.  0.
        998    1    1    2    0    0  0.10427308169E+01  0.44337820411E+01  0.13993313415E+04  0.13993744850E+04  0.10000000000E+02 0. -1.
</event>
<event>
 5    1  0.1440459E-008  0.2414767E+03  0.7957747E-01  0.4429045E+00
         13   -1    0    0    0    0  0.00000000000E+00  0.00000000000E+00  0.14999999963E+04  0.15000000000E+04  0.10566000000E+00 0. -1.
        994   -1    0    0    0    0 -0.00000000000E+00 -0.00000000000E+00  0.11368683772E-12  0.17120000000E+03  0.17120000000E+03 0.  0.
         13    1    1    2    0    0 -0.13080716580E+03 -0.34150411420E+02  0.95880523985E+02  0.16574031274E+03  0.10566000000E+00 0. -1.
        994    1    1    2    0    0 -0.52945692575E+02 -0.30982112650E+02  0.14858627987E+03  0.23484135120E+03  0.17120000000E+03 0.  0.
        998    1    1    2    0    0  0.18375285837E+03  0.65132524070E+02  0.12555331924E+04  0.12706183361E+04  0.10000000000E+02 0. -1.
</event>
<event>
 5    1  0.1440459E-008  0.3835402E+03  0.7957747E-01  0.3435887E+00
         13   -1    0    0    0    0  0.00000000000E+00  0.00000000000E+00  0.14999999963E+04  0.15000000000E+04  0.10566000000E+00 0. -1.
        994   -1    0    0    0    0 -0.00000000000E+00 -0.00000000000E+00  0.11368683772E-12  0.17120000000E+03  0.17120000000E+03 0.  0.
         13    1    1    2    0    0  0.11268098320E+02 -0.15717672943E+02  0.88258397565E+02  0.90352483017E+02  0.10566000000E+00 0. -1.
        994    1    1    2    0    0  0.48556381916E+01 -0.34779483422E+01  0.24745330309E+01  0.17132202620E+03  0.17120000000E+03 0.  0.
        998    1    1    2    0    0 -0.16123736511E+02  0.19195621285E+02  0.14092670657E+04  0.14095254908E+04  0.10000000000E+02 0. -1.
</event>
<event>
 5    1  0.1440459E-008  0.3888761E+03  0.7957747E-01  0.3413398E+00
         13   -1    0    0    0    0  0.00000000000E+00  0.00000000000E+00  0.14999999963E+04  0.15000000000E+04  0.10566000000E+00 0. -1.
        994   -1    0    0    0    0 -0.00000000000E+00 -0.00000000000E+00  0.11368683772E-12  0.17120000000E+03  0.17120000000E+03 0.  0.
         13    1    1    2    0    0 -0.22184073673E+02 -0.42266629289E+02  0.45936018483E+02  0.66247490777E+02  0.10566000000E+00 0. -1.
        994    1    1    2    0    0  0.12639356913E+02  0.31595604206E+02  0.25640793460E+02  0.17642257746E+03  0.17120000000E+03 0.  0.
        998    1    1    2    0    0  0.95447167598E+01  0.10671025083E+02  0.14284231843E+04  0.14285299318E+04  0.10000000000E+02 0. -1.
</event>
<event>
 5    1  0.1440459E-008  0.3834044E+03  0.7957747E-01  0.3436468E+00
         13   -1    0    0    0    0  0.00000000000E+00  0.00000000000E+00  0.14999999963E+04  0.15000000000E+04  0.10566000000E+00 0. -1.
        994   -1    0    0    0    0 -0.00000000000E+00 -0.00000000000E+00  0.11368683772E-12  0.17120000000E+03  0.17120000000E+03 0.  0.
         13    1    1    2    0    0 -0.12745928969E+02 -0.16715985458E+01  0.32360296353E+02  0.34820294241E+02  0.10566000000E+00 0. -1.
        994    1    1    2    0    0  0.16295220305E+02  0.19333363729E+01  0.33150371774E+01  0.17201657323E+03  0.17120000000E+03 0.  0.
        998    1    1    2    0    0 -0.35492913366E+01 -0.26173782717E+00  0.14643246627E+04  0.14643631325E+04  0.10000000000E+02 0. -1.
</event>
<event>
 5    1  0.1440459E-008  0.3819676E+03  0.7957747E-01  0.3442636E+00
         13   -1    0    0    0    0  0.00000000000E+00  0.00000000000E+00  0.14999999963E+04  0.15000000000E+04  0.10566000000E+00 0.  1.
        994   -1    0    0    0    0 -0.00000000000E+00 -0.00000000000E+00  0.11368683772E-12  0.17120000000E+03  0.17120000000E+03 0.  0.
         13    1    1    2    0    0 -0.91305008803E+01  0.69620348515E+01  0.19777844413E+02  0.22869417773E+02  0.10566000000E+00 0.  1.
        994    1    1    2    0    0  0.93677557036E+01  0.50272511470E+00  0.34355666858E+01  0.17149125546E+03  0.17120000000E+03 0.  0.
        998    1    1    2    0    0 -0.23725482330E+00 -0.74647599662E+01  0.14767865852E+04  0.14768393268E+04  0.10000000000E+02 0.  1.
</event>
<event>
 5    1  0.1440459E-008  0.3825749E+03  0.7957747E-01  0.3440023E+00
         13   -1    0    0    0    0  0.00000000000E+00  0.00000000000E+00  0.14999999963E+04  0.15000000000E+04  0.10566000000E+00 0.  1.
        994   -1    0    0    0    0 -0.00000000000E+00 -0.00000000000E+00  0.11368683772E-12  0.17120000000E+03  0.17120000000E+03 0.  0.
         13    1    1    2    0    0 -0.26910453240E+02 -0.14255247768E+02  0.14952235243E+03  0.15259203656E+03  0.10566000000E+00 0.  1.
        994    1    1    2    0    0  0.34736145007E+02 -0.19580115466E+01  0.68615735337E+01  0.17483407783E+03  0.17120000000E+03 0.  0.
        998    1    1    2    0    0 -0.78256917672E+01  0.16213259315E+02  0.13436160703E+04  0.13437738856E+04  0.10000000000E+02 0.  1.
</event>
<event>
 5    1  0.1440459E-008  0.3780391E+03  0.7957747E-01  0.3459741E+00
         13   -1    0    0    0    0  0.00000000000E+00  0.00000000000E+00  0.14999999963E+04  0.15000000000E+04  0.10566000000E+00 0. -1.
        994   -1    0    0    0    0 -0.00000000000E+00 -0.00000000000E+00  0.11368683772E-12  0.17120000000E+03  0.17120000000E+03 0.  0.
         13    1    1    2    0    0 -0.33973516570E+02 -0.60089555070E+02  0.27203241507E+03  0.28065388020E+03  0.10566000000E+00 0. -1.
        994    1    1    2    0    0  0.31259550721E+02  0.11078899385E+03  0.51094296574E+02  0.21253570950E+03  0.17120000000E+03 0.  0.
        998    1    1    2    0    0  0.27139658495E+01 -0.50699438778E+02  0.11768732846E+04  0.11780104103E+04  0.10000000000E+02 0. -1.
</event>
<event>
 5    1  0.1440459E-008  0.3848470E+03  0.7957747E-01  0.3430321E+00
         13   -1    0    0    0    0  0.00000000000E+00  0.00000000000E+00  0.14999999963E+04  0.15000000000E+04  0.10566000000E+00 0.  1.
        994   -1    0    0    0    0 -0.00000000000E+00 -0.00000000000E+00  0.11368683772E-12  0.17120000000E+03  0.17120000000E+03 0.  0.
         13    1    1    2    0    0  0.65825524099E+01  0.10873373932E+02  0.46711745703E+02  0.48410315095E+02  0.10566000000E+00 0.  1.
        994    1    1    2    0    0 -0.72168113055E+01 -0.78979299864E+01  0.20828134737E+01  0.17154660526E+03  0.17120000000E+03 0.  0.
        998    1    1    2    0    0  0.63425889562E+00 -0.29754439459E+01  0.14512054371E+04  0.14512430796E+04  0.10000000000E+02 0.  1.
</event>
<event>
 5    1  0.1440459E-008  0.3826495E+03  0.7957747E-01  0.3439702E+00
         13   -1    0    0    0    0  0.00000000000E+00  0.00000000000E+00  0.14999999963E+04  0.15000000000E+04  0.10566000000E+00 0. -1.
        994   -1    0    0    0    0 -0.00000000000E+00 -0.00000000000E+00  0.11368683772E-12  0.17120000000E+03  0.17120000000E+03 0.  0.
         13    1    1    2    0    0 -0.11214634937E+02  0.18714100043E+02  0.82512408462E+02  0.85348077257E+02  0.10566000000E+00 0. -1.
        994    1    1    2    0    0  0.51925829552E+01 -0.16910503802E+02  0.38393269382E+01  0.17215431591E+03  0.17120000000E+03 0.  0.
        998    1    1    2    0    0  0.60220519819E+01 -0.18035962411E+01  0.14136482609E+04  0.14136976068E+04  0.10000000000E+02 0. -1.
</event>
<event>
 5    1  0.1440459E-008  0.3766151E+03  0.7957747E-01  0.3466031E+00
         13   -1    0    0    0    0  0.00000000000E+00  0.00000000000E+00  0.14999999963E+04  0.15000000000E+04  0.10566000000E+00 0. -1.
        994   -1    0    0    0    0 -0.00000000000E+00 -0.00000000000E+00  0.11368683772E-12  0.17120000000E+03  0.17120000000E+03 0.  0.
         13    1    1    2    0    0  0.36559016724E+02 -0.96651477917E+02  0.42091097922E+03  0.43340989084E+03  0.10566000000E+00 0. -1.
        994    1    1    2    0    0  0.22402262804E+02  0.53082290070E+02  0.26458778724E+02  0.18256258617E+03  0.17120000000E+03 0.  0.
        998    1    1    2    0    0 -0.58961279529E+02  0.43569187847E+02  0.10526302383E+04  0.10552275230E+04  0.10000000000E+02 0. -1.
</event>
<event>
 5    1  0.1440459E-008  0.3912551E+03  0.7957747E-01  0.3403569E+00
         13   -1    0    0    0    0  0.00000000000E+00  0.00000000000E+00  0.14999999963E+04  0.15000000000E+04  0.10566000000E+00 0.  1.
        994   -1    0    0    0    0 -0.00000000000E+00 -0.00000000000E+00  0.11368683772E-12  0.17120000000E+03  0.17120000000E+03 0.  0.
         13    1    1    2    0    0 -0.15403764595E+01 -0.27506474032E+02  0.59195826785E+01  0.28178564485E+02  0.10566000000E+00 0.  1.
        994    1    1    2    0    0  0.88479045624E+00  0.63441568626E+02  0.38035496235E+02  0.18649867146E+03  0.17120000000E+03 0.  0.
        998    1    1    2    0    0  0.65558600324E+00 -0.35935094595E+02  0.14560449174E+04  0.14565227641E+04  0.10000000000E+02 0.  1.
</event>
<event>
 5    1  0.1440459E-008  0.3977756E+03  0.7957747E-01  0.3377233E+00
         13   -1    0    0    0    0  0.00000000000E+00  0.00000000000E+00  0.14999999963E+04  0.15000000000E+04  0.10566000000E+00 0. -1.
        994   -1    0    0    0    0 -0.00000000000E+00 -0.00000000000E+00  0.11368683772E-12  0.17120000000E+03  0.17120000000E+03 0.  0.
         13    1    1    2    0    0  0.22591934195E+02 -0.50685357633E+02  0.47099462136E+02  0.72785791653E+02  0.10566000000E+00 0. -1.
        994    1    1    2    0    0 -0.19678794958E+02  0.53485144603E+02  0.39165804397E+02  0.18463833811E+03  0.17120000000E+03 0.  0.
        998    1    1    2    0    0 -0.29131392364E+01 -0.27997869701E+01  0.14137347297E+04  0.14137758702E+04  0.10000000000E+02 0. -1.
</event>
<event>
 5    1  0.1440459E-008  0.3795037E+03  0.7957747E-01  0.3453322E+00
         13   -1    0    0    0    0  0.00000000000E+00  0.00000000000E+00  0.14999999963E+04  0.15000000000E+04  0.10566000000E+00 0. -1.
        994   -1    0    0    0    0 -0.00000000000E+00 -0.00000000000E+00  0.11368683772E-12  0.17120000000E+03  0.17120000000E+03 0.  0.
         13    1    1    2    0    0  0.72480700826E+01 -0.22155783668E+02  0.57614604393E+02  0.62151967573E+02  0.10566000000E+00 0. -1.
        994    1    1    2    0    0 -0.21358114150E+01  0.27636400954E+02  0.69608380250E+01  0.17356908024E+03  0.17120000000E+03 0.  0.
        998    1    1    2    0    0 -0.51122586676E+01 -0.54806172862E+01  0.14354245539E+04  0.14354789522E+04  0.10000000000E+02 0. -1.
</event>
<event>
 5    1  0.1440459E-008  0.2902439E+03  0.7957747E-01  0.3968228E+00
         13   -1    0    0    0    0  0.00000000000E+00  0.00000000000E+00  0.14999999963E+04  0.15000000000E+04  0.10566000000E+00 0.  1.
        994   -1    0    0    0    0 -0.00000000000E+00 -0.00000000000E+00  0.11368683772E-12  0.17120000000E+03  0.17120000000E+03 0.  0.
         13    1    1    2    0    0 -0.50567940284E+02  0.11427243987E+03  0.74655466747E+03  0.75694067785E+03  0.10566000000E+00 0.  1.
        994    1    1    2    0    0 -0.81040626762E+02 -0.12567105746E+03  0.10141767568E+03  0.24890918587E+03  0.17120000000E+03 0.  0.
        998    1    1    2    0    0  0.13160856705E+03  0.11398617593E+02  0.65202765313E+03  0.66535013628E+03  0.10000000000E+02 0.  1.
</event>
<event>
 5    1  0.1440459E-008  0.3701903E+03  0.7957747E-01  0.3495017E+00
         13   -1    0    0    0    0  0.00000000000E+00  0.00000000000E+00  0.14999999963E+04  0.15000000000E+04  0.10566000000E+00 0.  1.
        994   -1    0    0    0    0 -0.00000000000E+00 -0.00000000000E+00  0.11368683772E-12  0.17120000000E+03  0.17120000000E+03 0.  0.
         13    1    1    2    0    0 -0.79590537390E+02 -0.50340982460E+02  0.35553388126E+03  0.36779507888E+03  0.10566000000E+00 0.  1.
        994    1    1    2    0    0  0.82933958574E+02  0.49799960101E+02  0.42237374824E+02  0.20112561583E+03  0.17120000000E+03 0.  0.
        998    1    1    2    0    0 -0.33434211842E+01  0.54102235878E+00  0.11022287402E+04  0.11022793053E+04  0.10000000000E+02 0.  1.
</event>
<event>
 5    1  0.1440459E-008  0.3839694E+03  0.7957747E-01  0.3434055E+00
         13   -1    0    0    0    0  0.00000000000E+00  0.00000000000E+00  0.14999999963E+04  0.15000000000E+04  0.10566000000E+00 0. -1.
        994   -1    0    0    0    0 -0.00000000000E+00 -0.00000000000E+00  0.11368683772E-12  0.17120000000E+03  0.17120000000E+03 0.  0.
         13    1    1    2    0    0 -0.95945592822E+01  0.93611159376E+01  0.41952924012E+02  0.44042536900E+02  0.10566000000E+00 0. -1.
        994    1    1    2    0    0  0.44179055088E+01 -0.42774437183E+01  0.22674430777E+01  0.17132540883E+03  0.17120000000E+03 0.  0.
        998    1    1    2    0    0  0.51766537734E+01 -0.50836722193E+01  0.14557796292E+04  0.14558320543E+04  0.10000000000E+02 0. -1.
</event>
<event>
 5    1  0.1440459E-008  0.3816915E+03  0.7957747E-01  0.3443826E+00
         13   -1    0    0    0    0  0.00000000000E+00  0.00000000000E+00  0.14999999963E+04  0.15000000000E+04  0.10566000000E+00 0.  1.
        994   -1    0    0    0    0 -0.00000000000E+00 -0.00000000000E+00  0.11368683772E-12  0.17120000000E+03  0.17120000000E+03 0.  0.
         13    1    1    2    0    0  0.94341113809E+01 -0.30016838089E+02  0.15836673016E+03  0.16146221047E+03  0.10566000000E+00 0.  1.
        994    1    1    2    0    0 -0.13023237393E+02  0.74988815994E+01  0.40328104553E+01  0.17190561799E+03  0.17120000000E+03 0.  0.
        998    1    1    2    0    0  0.35891260118E+01  0.22517956490E+02  0.13376004557E+04  0.13378321715E+04  0.10000000000E+02 0.  1.
</event>
<event>
 5    1  0.1440459E-008  0.3854540E+03  0.7957747E-01  0.3427749E+00
         13   -1    0    0    0    0  0.00000000000E+00  0.00000000000E+00  0.14999999963E+04  0.15000000000E+04  0.10566000000E+00 0.  1.
        994   -1    0    0    0    0 -0.00000000000E+00 -0.00000000000E+00  0.11368683772E-12  0.17120000000E+03  0.17120000000E+03 0.  0.
         13    1    1    2    0    0 -0.87479604981E+01 -0.11007250040E+02  0.71657582699E+02  0.73024014466E+02  0.10566000000E+00 0.  1.
        994    1    1    2    0    0  0.28764195438E+01  0.71057223356E+01  0.15978783244E+01  0.17137899024E+03  0.17120000000E+03 0.  0.
        998    1    1    2    0    0  0.58715409543E+01  0.39015277044E+01  0.14267445353E+04  0.14267969953E+04  0.10000000000E+02 0.  1.
</event>
<event>
 5    1  0.1440459E-008  0.3818515E+03  0.7957747E-01  0.3443136E+00
         13   -1    0    0    0    0  0.00000000000E+00  0.00000000000E+00  0.14999999963E+04  0.15000000000E+04  0.10566000000E+00 0.  1.
        994   -1    0    0    0    0 -0.00000000000E+00 -0.00000000000E+00  0.11368683772E-12  0.17120000000E+03  0.17120000000E+03 0.  0.
         13    1    1    2    0    0  0.56112568676E+01  0.31693747673E+02  0.16297587068E+03  0.16612382560E+03  0.10566000000E+00 0.  1.
        994    1    1    2    0    0  0.24731332438E+01 -0.17840804073E+02  0.42800293535E+01  0.17219805263E+03  0.17120000000E+03 0.  0.
        998    1    1    2    0    0 -0.80843901114E+01 -0.13852943600E+02  0.13327440962E+04  0.13328781218E+04  0.10000000000E+02 0.  1.
</event>
<event>
 5    1  0.1440459E-008  0.3821353E+03  0.7957747E-01  0.3441913E+00
         13   -1    0    0    0    0  0.00000000000E+00  0.00000000000E+00  0.14999999963E+04  0.15000000000E+04  0.10566000000E+00 0.  1.
        994   -1    0    0    0    0 -0.00000000000E+00 -0.00000000000E+00  0.11368683772E-12  0.17120000000E+03  0.17120000000E+03 0.  0.
         13    1    1    2    0    0  0.61417737015E+01  0.24820049824E+02  0.10175926626E+03  0.10492242701E+03  0.10566000000E+00 0.  1.
        994    1    1    2    0    0 -0.42133328683E+01 -0.22035789643E+02  0.47317185271E+01  0.17272856556E+03  0.17120000000E+03 0.  0.
        998    1    1    2    0    0 -0.19284408331E+01 -0.27842601812E+01  0.13935090115E+04  0.13935490074E+04  0.10000000000E+02 0.  1.
</event>
<event>
 5    1  0.1440459E-008  0.3857268E+03  0.7957747E-01  0.3426596E+00
         13   -1    0    0    0    0  0.00000000000E+00  0.00000000000E+00  0.14999999963E+04  0.15000000000E+04  0.10566000000E+00 0.  1.
        994   -1    0    0    0    0 -0.00000000000E+00 -0.00000000000E+00  0.11368683772E-12  0.17120000000E+03  0.17120000000E+03 0.  0.
         13    1    1    2    0    0  0.10310384749E+02  0.76997637743E+01  0.66888211878E+02  0.68114862168E+02  0.10566000000E+00 0.  1.
        994    1    1    2    0    0 -0.49384039650E+01 -0.35906578370E+01  0.13920450856E+01  0.17131450157E+03  0.17120000000E+03 0.  0.
        998    1    1    2    0    0 -0.53719807837E+01 -0.41091059372E+01  0.14317197393E+04  0.14317706363E+04  0.10000000000E+02 0.  1.
</event>
<event>
 5    1  0.1440459E-008  0.3824312E+03  0.7957747E-01  0.3440640E+00
         13   -1    0    0    0    0  0.00000000000E+00  0.00000000000E+00  0.14999999963E+04  0.15000000000E+04  0.10566000000E+00 0. -1.
        994   -1    0    0    0    0 -0.00000000000E+00 -0.00000000000E+00  0.11368683772E-12  0.17120000000E+03  0.17120000000E+03 0.  0.
         13    1    1    2    0    0  0.54017295927E+01 -0.97042106144E+01  0.19789674048E+02  0.22693451681E+02  0.10566000000E+00 0. -1.
        994    1    1    2    0    0 -0.53963809609E+01  0.11156843903E+02  0.34204216320E+01  0.17168207646E+03  0.17120000000E+03 0.  0.
        998    1    1    2    0    0 -0.53486318612E-02 -0.14526332888E+01  0.14767899006E+04  0.14768244719E+04  0.10000000000E+02 0. -1.
</event>
<event>
 5    1  0.1440459E-008  0.3811391E+03  0.7957747E-01  0.3446214E+00
         13   -1    0    0    0    0  0.00000000000E+00  0.00000000000E+00  0.14999999963E+04  0.15000000000E+04  0.10566000000E+00 0. -1.
        994   -1    0    0    0    0 -0.00000000000E+00 -0.00000000000E+00  0.11368683772E-12  0.17120000000E+03  0.17120000000E+03 0.  0.
         13    1    1    2    0    0 -0.67867874559E+01 -0.10258391128E+02  0.19682840972E+02  0.23210352545E+02  0.10566000000E+00 0. -1.
        994    1    1    2    0    0  0.76880398465E+01  0.78714742179E+01  0.39625532821E+01  0.17159897404E+03  0.17120000000E+03 0.  0.
        998    1    1    2    0    0 -0.90125239059E+00  0.23869169097E+01  0.14763546020E+04  0.14763906734E+04  0.10000000000E+02 0. -1.
</event>
<event>
 5    1  0.1440459E-008  0.3846819E+03  0.7957747E-01  0.3431022E+00
         13   -1    0    0    0    0  0.00000000000E+00  0.00000000000E+00  0.14999999963E+04  0.15000000000E+04  0.10566000000E+00 0. -1.
        994   -1    0    0    0    0 -0.00000000000E+00 -0.00000000000E+00  0.11368683772E-12  0.17120000000E+03  0.17120000000E+03 0.  0.
         13    1    1    2    0    0  0.13355321263E+02  0.90114250979E+01  0.75220442619E+02  0.76926565893E+02  0.10566000000E+00 0. -1.
        994    1    1    2    0    0 -0.74514465783E+01  0.24346047975E+01  0.19904855349E+01  0.17139093730E+03  0.17120000000E+03 0.  0.
        998    1    1    2    0    0 -0.59038746852E+01 -0.11446029895E+02  0.14227890681E+04  0.14228824968E+04  0.10000000000E+02 0. -1.
</event>
<event>
 5    1  0.1440459E-008  0.3788316E+03  0.7957747E-01  0.3456262E+00
         13   -1    0    0    0    0  0.00000000000E+00  0.00000000000E+00  0.14999999963E+04  0.15000000000E+04  0.10566000000E+00 0.  1.
        994   -1    0    0    0    0 -0.00000000000E+00 -0.00000000000E+00  0.11368683772E-12  0.17120000000E+03  0.17120000000E+03 0.  0.
         13    1    1    2    0    0 -0.49643637765E+01  0.25238873116E+02  0.65442885201E+02  0.70316626848E+02  0.10566000000E+00 0.  1.
        994    1    1    2    0    0  0.55117146274E+01 -0.26398644497E+02  0.71685467074E+01  0.17345920411E+03  0.17120000000E+03 0.  0.
        998    1    1    2    0    0 -0.54735085090E+00  0.11597713811E+01  0.14273885644E+04  0.14274241690E+04  0.10000000000E+02 0.  1.
</event>
<event>
 5    1  0.1440459E-008  0.3786238E+03  0.7957747E-01  0.3457173E+00
         13   -1    0    0    0    0  0.00000000000E+00  0.00000000000E+00  0.14999999963E+04  0.15000000000E+04  0.10566000000E+00 0.  1.
        994   -1    0    0    0    0 -0.00000000000E+00 -0.00000000000E+00  0.11368683772E-12  0.17120000000E+03  0.17120000000E+03 0.  0.
         13    1    1    2    0    0 -0.14042391146E+02 -0.52841918225E+02  0.26439454051E+03  0.26998877993E+03  0.10566000000E+00 0.  1.
        994    1    1    2    0    0 -0.99938858943E-01  0.52547275977E+02  0.14158762411E+02  0.17964168991E+03  0.17120000000E+03 0.  0.
        998    1    1    2    0    0  0.14142330005E+02  0.29464224784E+00  0.12214466934E+04  0.12215695302E+04  0.10000000000E+02 0.  1.
</event>
<event>
 5    1  0.1440459E-008  0.3794713E+03  0.7957747E-01  0.3453464E+00
         13   -1    0    0    0    0  0.00000000000E+00  0.00000000000E+00  0.14999999963E+04  0.15000000000E+04  0.10566000000E+00 0.  1.
        994   -1    0    0    0    0 -0.00000000000E+00 -0.00000000000E+00  0.11368683772E-12  0.17120000000E+03  0.17120000000E+03 0.  0.
         13    1    1    2    0    0  0.92434516920E+00  0.43282650368E+02  0.18497156510E+03  0.18997034847E+03  0.10566000000E+00 0.  1.
        994    1    1    2    0    0  0.62549792607E+01 -0.45100924471E+02  0.11374468371E+02  0.17751629977E+03  0.17120000000E+03 0.  0.
        998    1    1    2    0    0 -0.71793244299E+01  0.18182741027E+01  0.13036539628E+04  0.13037133518E+04  0.10000000000E+02 0.  1.
</event>
<event>
 5    1  0.1440459E-008  0.3851520E+03  0.7957747E-01  0.3429028E+00
         13   -1    0    0    0    0  0.00000000000E+00  0.00000000000E+00  0.14999999963E+04  0.15000000000E+04  0.10566000000E+00 0.  1.
        994   -1    0    0    0    0 -0.00000000000E+00 -0.00000000000E+00  0.11368683772E-12  0.17120000000E+03  0.17120000000E+03 0.  0.
         13    1    1    2    0    0  0.21395321095E+01 -0.12195078285E+02  0.49797782690E+02  0.51314012287E+02  0.10566000000E+00 0.  1.
        994    1    1    2    0    0 -0.67094658842E+00  0.65784514726E+01  0.16984533224E+01  0.17133607599E+03  0.17120000000E+03 0.  0.
        998    1    1    2    0    0 -0.14685855211E+01  0.56166268123E+01  0.14485037603E+04  0.14485499117E+04  0.10000000000E+02 0.  1.
</event>
<event>
 5    1  0.1440459E-008  0.3797271E+03  0.7957747E-01  0.3452348E+00
         13   -1    0    0    0    0  0.00000000000E+00  0.00000000000E+00  0.14999999963E+04  0.15000000000E+04  0.10566000000E+00 0.  1.
        994   -1    0    0    0    0 -0.00000000000E+00 -0.00000000000E+00  0.11368683772E-12  0.17120000000E+03  0.17120000000E+03 0.  0.
         13    1    1    2    0    0  0.18746674251E+02  0.46229531541E+01  0.41203564557E+02  0.45503344796E+02  0.10566000000E+00 0.  1.
        994    1    1    2    0    0 -0.18160053760E+02 -0.34000560765E+01  0.54139416571E+01  0.17227913019E+03  0.17120000000E+03 0.  0.
        998    1    1    2    0    0 -0.58662049030E+00 -0.12228970777E+01  0.14533824901E+04  0.14534175250E+04  0.10000000000E+02 0.  1.
</event>
<event>
 5    1  0.1440459E-008  0.3755598E+03  0.7957747E-01  0.3470723E+00
         13   -1    0    0    0    0  0.00000000000E+00  0.00000000000E+00  0.14999999963E+04  0.15000000000E+04  0.10566000000E+00 0.  1.
        994   -1    0    0    0    0 -0.00000000000E+00 -0.00000000000E+00  0.11368683772E-12  0.17120000000E+03  0.17120000000E+03 0.  0.
         13    1    1    2    0    0 -0.10151809995E+02 -0.82852530453E+01  0.10471455072E+02  0.16774003683E+02  0.10566000000E+00 0.  1.
        994    1    1    2    0    0  0.11785222867E+02  0.70172323046E+01  0.70301084319E+01  0.17189239498E+03  0.17120000000E+03 0.  0.
        998    1    1    2    0    0 -0.16334128725E+01  0.12680207407E+01  0.14824984328E+04  0.14825336013E+04  0.10000000000E+02 0.  1.
</event>
<event>
 5    1  0.1440459E-008  0.3719491E+03  0.7957747E-01  0.3486981E+00
         13   -1    0    0    0    0  0.00000000000E+00  0.00000000000E+00  0.14999999963E+04  0.15000000000E+04  0.10566000000E+00 0.  1.
        994   -1    0    0    0    0 -0.00000000000E+00 -0.00000000000E+00  0.11368683772E-12  0.17120000000E+03  0.17120000000E+03 0.  0.
         13    1    1    2    0    0 -0.79642233713E+02  0.13752075217E+02  0.22802393195E+03  0.24192339628E+03  0.10566000000E+00 0.  1.
        994    1    1    2    0    0  0.79164145916E+02 -0.15704426520E+02  0.35269330972E+02  0.19252780765E+03  0.17120000000E+03 0.  0.
        998    1    1    2    0    0  0.47808779619E+00  0.19523513032E+01  0.12367067334E+04  0.12367487961E+04  0.10000000000E+02 0.  0.
</event>
<event>
 5    1  0.1440459E-008  0.3848843E+03  0.7957747E-01  0.3430163E+00
         13   -1    0    0    0    0  0.00000000000E+00  0.00000000000E+00  0.14999999963E+04  0.15000000000E+04  0.10566000000E+00 0. -1.
        994   -1    0    0    0    0 -0.00000000000E+00 -0.00000000000E+00  0.11368683772E-12  0.17120000000E+03  0.17120000000E+03 0.  0.
         13    1    1    2    0    0  0.26370701785E+01 -0.14198383281E+02  0.59770443545E+02  0.61490367640E+02  0.10566000000E+00 0. -1.
        994    1    1    2    0    0 -0.16513983724E+01  0.14914415142E+02  0.24287277506E+01  0.17187351633E+03  0.17120000000E+03 0.  0.
        998    1    1    2    0    0 -0.98567180611E+00 -0.71603186031E+00  0.14378008250E+04  0.14378361160E+04  0.10000000000E+02 0. -1.
</event>
<event>
 5    1  0.1440459E-008  0.3858993E+03  0.7957747E-01  0.3425867E+00
         13   -1    0    0    0    0  0.00000000000E+00  0.00000000000E+00  0.14999999963E+04  0.15000000000E+04  0.10566000000E+00 0. -1.
        994   -1    0    0    0    0 -0.00000000000E+00 -0.00000000000E+00  0.11368683772E-12  0.17120000000E+03  0.17120000000E+03 0.  0.
         13    1    1    2    0    0 -0.58460521259E+01  0.90675763221E+01  0.50322364816E+02  0.51465996838E+02  0.10566000000E+00 0. -1.
        994    1    1    2    0    0  0.16710097758E+01 -0.50515399141E+01  0.12771569652E+01  0.17128742353E+03  0.17120000000E+03 0.  0.
        998    1    1    2    0    0  0.41750423502E+01 -0.40160364079E+01  0.14484004745E+04  0.14484465796E+04  0.10000000000E+02 0. -1.
</event>
<event>
 5    1  0.1440459E-008  0.3854349E+03  0.7957747E-01  0.3427830E+00
         13   -1    0    0    0    0  0.00000000000E+00  0.00000000000E+00  0.14999999963E+04  0.15000000000E+04  0.10566000000E+00 0. -1.
        994   -1    0    0    0    0 -0.00000000000E+00 -0.00000000000E+00  0.11368683772E-12  0.17120000000E+03  0.17120000000E+03 0.  0.
         13    1    1    2    0    0  0.95384793878E+01  0.32056448270E+01  0.36052013198E+02  0.37430169215E+02  0.10566000000E+00 0. -1.
        994    1    1    2    0    0 -0.45104270392E+01 -0.42025670383E+01  0.15392014223E+01  0.17131787607E+03  0.17120000000E+03 0.  0.
        998    1    1    2    0    0 -0.50280523486E+01  0.99692221130E+00  0.14624087817E+04  0.14624519547E+04  0.10000000000E+02 0. -1.
</event>
<event>
 5    1  0.1440459E-008  0.4039703E+03  0.7957747E-01  0.3352997E+00
         13   -1    0    0    0    0  0.00000000000E+00  0.00000000000E+00  0.14999999963E+04  0.15000000000E+04  0.10566000000E+00 0.  1.
        994   -1    0    0    0    0 -0.00000000000E+00 -0.00000000000E+00  0.11368683772E-12  0.17120000000E+03  0.17120000000E+03 0.  0.
         13    1    1    2    0    0 -0.13046389590E+03  0.58444503561E+02  0.44072063678E+03  0.46332632018E+03  0.10566000000E+00 0.  1.
        994    1    1    2    0    0  0.30285965066E+02 -0.23528392084E+02  0.36047152703E+02  0.17910796222E+03  0.17120000000E+03 0.  0.
        998    1    1    2    0    0  0.10017793083E+03 -0.34916111476E+02  0.10232322068E+04  0.10287657176E+04  0.10000000000E+02 0. -1.
</event>
<event>
 5    1  0.1440459E-008  0.3841051E+03  0.7957747E-01  0.3433476E+00
         13   -1    0    0    0    0  0.00000000000E+00  0.00000000000E+00  0.14999999963E+04  0.15000000000E+04  0.10566000000E+00 0. -1.
        994   -1    0    0    0    0 -0.00000000000E+00 -0.00000000000E+00  0.11368683772E-12  0.17120000000E+03  0.17120000000E+03 0.  0.
         13    1    1    2    0    0  0.10325615672E+02 -0.15154994420E+02  0.83820971274E+02  0.85803604728E+02  0.10566000000E+00 0. -1.
        994    1    1    2    0    0 -0.17339726184E+00  0.68942252688E+01  0.22319497816E+01  0.17135338342E+03  0.17120000000E+03 0.  0.
        998    1    1    2    0    0 -0.10152218410E+02  0.82607691511E+01  0.14139470752E+04  0.14140430119E+04  0.10000000000E+02 0. -1.
</event>
<event>
 5    1  0.1440459E-008  0.3793553E+03  0.7957747E-01  0.3453971E+00
         13   -1    0    0    0    0  0.00000000000E+00  0.00000000000E+00  0.14999999963E+04  0.15000000000E+04  0.10566000000E+00 0. -1.
        994   -1    0    0    0    0 -0.00000000000E+00 -0.00000000000E+00  0.11368683772E-12  0.17120000000E+03  0.17120000000E+03 0.  0.
         13    1    1    2    0    0 -0.45706917130E+02 -0.50009875346E+02  0.40026145049E+03  0.40595486180E+03  0.10566000000E+00 0. -1.
        994    1    1    2    0    0  0.43283133681E+02  0.45100204696E+02  0.17662330068E+02  0.18310886387E+03  0.17120000000E+03 0.  0.
        998    1    1    2    0    0  0.24237834490E+01  0.49096706505E+01  0.10820762157E+04  0.10821362743E+04  0.10000000000E+02 0. -1.
</event>
<event>
 5    1  0.1440459E-008  0.3810924E+03  0.7957747E-01  0.3446416E+00
         13   -1    0    0    0    0  0.00000000000E+00  0.00000000000E+00  0.14999999963E+04  0.15000000000E+04  0.10566000000E+00 0. -1.
        994   -1    0    0    0    0 -0.00000000000E+00 -0.00000000000E+00  0.11368683772E-12  0.17120000000E+03  0.17120000000E+03 0.  0.
         13    1    1    2    0    0  0.18075813313E+02 -0.12936554641E+02  0.64259872681E+02  0.67995822474E+02  0.10566000000E+00 0. -1.
        994    1    1    2    0    0 -0.21827038885E+02  0.14138945101E+02  0.58387420281E+01  0.17326240303E+03  0.17120000000E+03 0.  0.
        998    1    1    2    0    0  0.37512255713E+01 -0.12023904606E+01  0.14299013816E+04  0.14299417745E+04  0.10000000000E+02 0. -1.
</event>
<event>
 5    1  0.1440459E-008  0.3839359E+03  0.7957747E-01  0.3434198E+00
         13   -1    0    0    0    0  0.00000000000E+00  0.00000000000E+00  0.14999999963E+04  0.15000000000E+04  0.10566000000E+00 0. -1.
        994   -1    0    0    0    0 -0.00000000000E+00 -0.00000000000E+00  0.11368683772E-12  0.17120000000E+03  0.17120000000E+03 0.  0.
         13    1    1    2    0    0 -0.10312459136E+02 -0.19378113533E+01  0.24500260051E+02  0.26652876634E+02  0.10566000000E+00 0. -1.
        994    1    1    2    0    0  0.10362710756E+02  0.44016794949E+01  0.25777969553E+01  0.17158917680E+03  0.17120000000E+03 0.  0.
        998    1    1    2    0    0 -0.50251619476E-01 -0.24638681416E+01  0.14729219393E+04  0.14729579466E+04  0.10000000000E+02 0. -1.
</event>
<event>
 5    1  0.1440459E-008  0.3830597E+03  0.7957747E-01  0.3437943E+00
         13   -1    0    0    0    0  0.00000000000E+00  0.00000000000E+00  0.14999999963E+04  0.15000000000E+04  0.10566000000E+00 0.  1.
        994   -1    0    0    0    0 -0.00000000000E+00 -0.00000000000E+00  0.11368683772E-12  0.17120000000E+03  0.17120000000E+03 0.  0.
         13    1    1    2    0    0  0.62176189884E+01 -0.11515279111E+02  0.31803151536E+02  0.34390580841E+02  0.10566000000E+00 0.  1.
        994    1    1    2    0    0 -0.40621958498E+01  0.10966877427E+02  0.30493220064E+01  0.17162608252E+03  0.17120000000E+03 0.  0.
        998    1    1    2    0    0 -0.21554231386E+01  0.54840168366E+00  0.14651475227E+04  0.14651833366E+04  0.10000000000E+02 0.  1.
</event>
<event>
 5    1  0.1440459E-008  0.3685318E+03  0.7957747E-01  0.3502666E+00
         13   -1    0    0    0    0  0.00000000000E+00  0.00000000000E+00  0.14999999963E+04  0.15000000000E+04  0.10566000000E+00 0. -1.
        994   -1    0    0    0    0 -0.00000000000E+00 -0.00000000000E+00  0.11368683772E-12  0.17120000000E+03  0.17120000000E+03 0.  0.
         13    1    1    2    0    0  0.11085141165E+03  0.42926206393E+01  0.35603096618E+03  0.37291355849E+03  0.10566000000E+00 0. -1.
        994    1    1    2    0    0 -0.14103847668E+03 -0.21411433855E+02  0.84694641002E+02  0.23839656797E+03  0.17120000000E+03 0.  0.
        998    1    1    2    0    0  0.30187065031E+02  0.17118813216E+02  0.10592743891E+04  0.10598898735E+04  0.10000000000E+02 0. -1.
</event>
<event>
 5    1  0.1440459E-008  0.3840174E+03  0.7957747E-01  0.3433850E+00
         13   -1    0    0    0    0  0.00000000000E+00  0.00000000000E+00  0.14999999963E+04  0.15000000000E+04  0.10566000000E+00 0.  1.
        994   -1    0    0    0    0 -0.00000000000E+00 -0.00000000000E+00  0.11368683772E-12  0.17120000000E+03  0.17120000000E+03 0.  0.
         13    1    1    2    0    0  0.12711010171E+02 -0.14763155130E+02  0.88371380109E+02  0.90493273316E+02  0.10566000000E+00 0.  1.
        994    1    1    2    0    0 -0.13266082539E+02  0.67212813960E+01  0.28487641942E+01  0.17186832177E+03  0.17120000000E+03 0.  0.
        998    1    1    2    0    0  0.55507236774E+00  0.80418737338E+01  0.14087798520E+04  0.14088384049E+04  0.10000000000E+02 0.  1.
</event>
<event>
 5    1  0.1440459E-008  0.3836950E+03  0.7957747E-01  0.3435226E+00
         13   -1    0    0    0    0  0.00000000000E+00  0.00000000000E+00  0.14999999963E+04  0.15000000000E+04  0.10566000000E+00 0. -1.
        994   -1    0    0    0    0 -0.00000000000E+00 -0.00000000000E+00  0.11368683772E-12  0.17120000000E+03  0.17120000000E+03 0.  0.
         13    1    1    2    0    0  0.84322799732E+01 -0.10493626339E+02  0.43010844849E+02  0.45068431057E+02  0.10566000000E+00 0. -1.
        994    1    1    2    0    0  0.11162049366E+02 -0.61550182403E+01  0.28162211015E+01  0.17169696182E+03  0.17120000000E+03 0.  0.
        998    1    1    2    0    0 -0.19594329339E+02  0.16648644580E+02  0.14541729303E+04  0.14544346071E+04  0.10000000000E+02 0. -1.
</event>
<event>
 5    1  0.1440459E-008  0.3846756E+03  0.7957747E-01  0.3431049E+00
         13   -1    0    0    0    0  0.00000000000E+00  0.00000000000E+00  0.14999999963E+04  0.15000000000E+04  0.10566000000E+00 0. -1.
        994   -1    0    0    0    0 -0.00000000000E+00 -0.00000000000E+00  0.11368683772E-12  0.17120000000E+03  0.17120000000E+03 0.  0.
         13    1    1    2    0    0  0.13119027300E+02 -0.55815088659E+01  0.73209215512E+02  0.74584599740E+02  0.10566000000E+00 0. -1.
        994    1    1    2    0    0  0.19443525816E+02 -0.26867063084E+02  0.54206630198E+01  0.17446694060E+03  0.17120000000E+03 0.  0.
        998    1    1    2    0    0 -0.32562553116E+02  0.32448571950E+02  0.14213701177E+04  0.14221484597E+04  0.10000000000E+02 0. -1.
</event>
<event>
 5    1  0.1440459E-008  0.3800370E+03  0.7957747E-01  0.3450997E+00
         13   -1    0    0    0    0  0.00000000000E+00  0.00000000000E+00  0.14999999963E+04  0.15000000000E+04  0.10566000000E+00 0.  1.
        994   -1    0    0    0    0 -0.00000000000E+00 -0.00000000000E+00  0.11368683772E-12  0.17120000000E+03  0.17120000000E+03 0.  0.
         13    1    1    2    0    0 -0.42888256549E+01 -0.20818929826E+02  0.53888610957E+02  0.57929400303E+02  0.10566000000E+00 0.  1.
        994    1    1    2    0    0  0.30680726626E+01  0.10979889692E+02  0.45490237369E+01  0.17163946127E+03  0.17120000000E+03 0.  0.
        998    1    1    2    0    0  0.12207529923E+01  0.98390401339E+01  0.14415623616E+04  0.14416311384E+04  0.10000000000E+02 0.  1.
</event>
<event>
 5    1  0.1440459E-008  0.3888219E+03  0.7957747E-01  0.3413623E+00
         13   -1    0    0    0    0  0.00000000000E+00  0.00000000000E+00  0.14999999963E+04  0.15000000000E+04  0.10566000000E+00 0.  1.
        994   -1    0    0    0    0 -0.00000000000E+00 -0.00000000000E+00  0.11368683772E-12  0.17120000000E+03  0.17120000000E+03 0.  0.
         13    1    1    2    0    0 -0.77132711195E+01  0.65759767184E+02  0.92801405784E+02  0.11399979654E+03  0.10566000000E+00 0.  1.
        994    1    1    2    0    0  0.34685753567E+01 -0.58216731104E+02  0.34111713649E+02  0.18404963408E+03  0.17120000000E+03 0.  0.
        998    1    1    2    0    0  0.42446957628E+01 -0.75430360799E+01  0.13730868768E+04  0.13731505694E+04  0.10000000000E+02 0.  1.
</event>
<event>
 5    1  0.1440459E-008  0.3854501E+03  0.7957747E-01  0.3427766E+00
         13   -1    0    0    0    0  0.00000000000E+00  0.00000000000E+00  0.14999999963E+04  0.15000000000E+04  0.10566000000E+00 0.  1.
        994   -1    0    0    0    0 -0.00000000000E+00 -0.00000000000E+00  0.11368683772E-12  0.17120000000E+03  0.17120000000E+03 0.  0.
         13    1    1    2    0    0 -0.14359735635E+02 -0.23536962955E+01  0.84581432030E+02  0.85824074140E+02  0.10566000000E+00 0.  1.
        994    1    1    2    0    0 -0.49105381637E+01  0.12704682558E+01  0.14913370551E+01  0.17128161478E+03  0.17120000000E+03 0.  0.
        998    1    1    2    0    0  0.19270273798E+02  0.10832280397E+01  0.14139272272E+04  0.14140943111E+04  0.10000000000E+02 0.  1.
</event>
<event>
 5    1  0.1440459E-008  0.3856462E+03  0.7957747E-01  0.3426936E+00
         13   -1    0    0    0    0  0.00000000000E+00  0.00000000000E+00  0.14999999963E+04  0.15000000000E+04  0.10566000000E+00 0.  1.
        994   -1    0    0    0    0 -0.00000000000E+00 -0.00000000000E+00  0.11368683772E-12  0.17120000000E+03  0.17120000000E+03 0.  0.
         13    1    1    2    0    0 -0.10699116768E+02  0.75747546531E+01  0.71478045799E+02  0.72670284181E+02  0.10566000000E+00 0.  1.
        994    1    1    2    0    0  0.12290228935E+01  0.49059633150E+01  0.13936179538E+01  0.17128035831E+03  0.17120000000E+03 0.  0.
        998    1    1    2    0    0  0.94700938747E+01 -0.12480717968E+02  0.14271283325E+04  0.14272493575E+04  0.10000000000E+02 0.  1.
</event>
<event>
 5    1  0.1440459E-008  0.3849258E+03  0.7957747E-01  0.3429987E+00
         13   -1    0    0    0    0  0.00000000000E+00  0.00000000000E+00  0.14999999963E+04  0.15000000000E+04  0.10566000000E+00 0.  1.
        994   -1    0    0    0    0 -0.00000000000E+00 -0.00000000000E+00  0.11368683772E-12  0.17120000000E+03  0.17120000000E+03 0.  0.
         13    1    1    2    0    0  0.16569329462E+02  0.17191068363E+01  0.96589522740E+02  0.98015534862E+02  0.10566000000E+00 0.  1.
        994    1    1    2    0    0  0.65750165032E+01  0.13164363754E+02  0.23795900612E+01  0.17184770515E+03  0.17120000000E+03 0.  0.
        998    1    1    2    0    0 -0.23144345965E+02 -0.14883470590E+02  0.14010308835E+04  0.14013367600E+04  0.10000000000E+02 0.  1.
</event>
<event>
 5    1  0.1440459E-008  0.3804514E+03  0.7957747E-01  0.3449195E+00
         13   -1    0    0    0    0  0.00000000000E+00  0.00000000000E+00  0.14999999963E+04  0.15000000000E+04  0.10566000000E+00 0. -1.
        994   -1    0    0    0    0 -0.00000000000E+00 -0.00000000000E+00  0.11368683772E-12  0.17120000000E+03  0.17120000000E+03 0.  0.
         13    1    1    2    0    0  0.12019351982E+02 -0.21141249008E+02  0.71519696092E+02  0.75541348444E+02  0.10566000000E+00 0. -1.
        994    1    1    2    0    0 -0.15029405438E+02  0.18982607573E+02  0.58646710183E+01  0.17300305426E+03  0.17120000000E+03 0.  0.
        998    1    1    2    0    0  0.30100534559E+01  0.21586414345E+01  0.14226156292E+04  0.14226555973E+04  0.10000000000E+02 0. -1.
</event>
<event>
 5    1  0.1440459E-008  0.3762406E+03  0.7957747E-01  0.3467693E+00
         13   -1    0    0    0    0  0.00000000000E+00  0.00000000000E+00  0.14999999963E+04  0.15000000000E+04  0.10566000000E+00 0.  1.
        994   -1    0    0    0    0 -0.00000000000E+00 -0.00000000000E+00  0.11368683772E-12  0.17120000000E+03  0.17120000000E+03 0.  0.
         13    1    1    2    0    0 -0.12574856081E+02  0.19571724995E+02  0.41632933606E+02  0.47691631860E+02  0.10566000000E+00 0.  1.
        994    1    1    2    0    0  0.62830370239E+01 -0.21316876435E+02  0.77166285885E+01  0.17280877331E+03  0.17120000000E+03 0.  0.
        998    1    1    2    0    0  0.62918190572E+01  0.17451514397E+01  0.14506504341E+04  0.14506995948E+04  0.10000000000E+02 0.  1.
</event>
<event>
 5    1  0.1440459E-008  0.3795305E+03  0.7957747E-01  0.3453205E+00
         13   -1    0    0    0    0  0.00000000000E+00  0.00000000000E+00  0.14999999963E+04  0.15000000000E+04  0.10566000000E+00 0. -1.
        994   -1    0    0    0    0 -0.00000000000E+00 -0.00000000000E+00  0.11368683772E-12  0.17120000000E+03  0.17120000000E+03 0.  0.
         13    1    1    2    0    0 -0.32027368024E+02  0.27555234160E+02  0.17941178420E+03  0.18431940404E+03  0.10566000000E+00 0. -1.
        994    1    1    2    0    0  0.29470245137E+02 -0.31438608993E+02  0.10612591082E+02  0.17685855527E+03  0.17120000000E+03 0.  0.
        998    1    1    2    0    0  0.25571228872E+01  0.38833748330E+01  0.13099756210E+04  0.13100220407E+04  0.10000000000E+02 0. -1.
</event>
<event>
 5    1  0.1440459E-008  0.3739495E+03  0.7957747E-01  0.3477934E+00
         13   -1    0    0    0    0  0.00000000000E+00  0.00000000000E+00  0.14999999963E+04  0.15000000000E+04  0.10566000000E+00 0.  1.
        994   -1    0    0    0    0 -0.00000000000E+00 -0.00000000000E+00  0.11368683772E-12  0.17120000000E+03  0.17120000000E+03 0.  0.
         13    1    1    2    0    0 -0.31630421611E+02  0.15633760332E+02  0.87996252707E+02  0.94806379996E+02  0.10566000000E+00 0.  1.
        994    1    1    2    0    0  0.17694081000E+02  0.15523683158E+02  0.91115529898E+01  0.17305064472E+03  0.17120000000E+03 0.  0.
        998    1    1    2    0    0  0.13936340610E+02 -0.31157443491E+02  0.14028921906E+04  0.14033429753E+04  0.10000000000E+02 0.  1.
</event>
<event>
 5    1  0.1440459E-008  0.3820377E+03  0.7957747E-01  0.3442334E+00
         13   -1    0    0    0    0  0.00000000000E+00  0.00000000000E+00  0.14999999963E+04  0.15000000000E+04  0.10566000000E+00 0. -1.
        994   -1    0    0    0    0 -0.00000000000E+00 -0.00000000000E+00  0.11368683772E-12  0.17120000000E+03  0.17120000000E+03 0.  0.
         13    1    1    2    0    0 -0.22270789404E+02  0.21216449362E+02  0.17600716847E+03  0.17867473325E+03  0.10566000000E+00 0. -1.
        994    1    1    2    0    0  0.60564361161E+01  0.71604500113E+01  0.34001599784E+01  0.17149038909E+03  0.17120000000E+03 0.  0.
        998    1    1    2    0    0  0.16214353288E+02 -0.28376899373E+02  0.13205926678E+04  0.13210348777E+04  0.10000000000E+02 0. -1.
</event>
<event>
 5    1  0.1440459E-008  0.3842484E+03  0.7957747E-01  0.3432866E+00
         13   -1    0    0    0    0  0.00000000000E+00  0.00000000000E+00  0.14999999963E+04  0.15000000000E+04  0.10566000000E+00 0. -1.
        994   -1    0    0    0    0 -0.00000000000E+00 -0.00000000000E+00  0.11368683772E-12  0.17120000000E+03  0.17120000000E+03 0.  0.
         13    1    1    2    0    0  0.78700345957E+00 -0.10924937876E+02  0.29802761760E+02  0.31751998593E+02  0.10566000000E+00 0. -1.
        994    1    1    2    0    0  0.34131843805E+01  0.45714330217E+01  0.21110864492E+01  0.17130803984E+03  0.17120000000E+03 0.  0.
        998    1    1    2    0    0 -0.42001878400E+01  0.63535048544E+01  0.14680861481E+04  0.14681399616E+04  0.10000000000E+02 0. -1.
</event>
<event>
 5    1  0.1440459E-008  0.3773132E+03  0.7957747E-01  0.3462941E+00
         13   -1    0    0    0    0  0.00000000000E+00  0.00000000000E+00  0.14999999963E+04  0.15000000000E+04  0.10566000000E+00 0.  1.
        994   -1    0    0    0    0 -0.00000000000E+00 -0.00000000000E+00  0.11368683772E-12  0.17120000000E+03  0.17120000000E+03 0.  0.
         13    1    1    2    0    0 -0.44341605708E+02 -0.62593595638E+00  0.20068990876E+03  0.20553106927E+03  0.10566000000E+00 0.  1.
        994    1    1    2    0    0  0.74714485039E+01 -0.17520853232E+02  0.67202506709E+01  0.17238736790E+03  0.17120000000E+03 0.  0.
        998    1    1    2    0    0  0.36870157204E+02  0.18146789188E+02  0.12925898368E+04  0.12932815628E+04  0.10000000000E+02 0.  1.
</event>
<event>
 5    1  0.1440459E-008  0.3968154E+03  0.7957747E-01  0.3381057E+00
         13   -1    0    0    0    0  0.00000000000E+00  0.00000000000E+00  0.14999999963E+04  0.15000000000E+04  0.10566000000E+00 0. -1.
        994   -1    0    0    0    0 -0.00000000000E+00 -0.00000000000E+00  0.11368683772E-12  0.17120000000E+03  0.17120000000E+03 0.  0.
         13    1    1    2    0    0  0.10068385792E+03 -0.43220064193E+02  0.19457836324E+03  0.22330688256E+03  0.10566000000E+00 0. -1.
        994    1    1    2    0    0 -0.99284604987E+02  0.43747559231E+02  0.72998713905E+02  0.21542872129E+03  0.17120000000E+03 0.  0.
        998    1    1    2    0    0 -0.13992529326E+01 -0.52749503794E+00  0.12324229191E+04  0.12324643961E+04  0.10000000000E+02 0.  0.
</event>
<event>
 5    1  0.1440459E-008  0.3841321E+03  0.7957747E-01  0.3433361E+00
         13   -1    0    0    0    0  0.00000000000E+00  0.00000000000E+00  0.14999999963E+04  0.15000000000E+04  0.10566000000E+00 0. -1.
        994   -1    0    0    0    0 -0.00000000000E+00 -0.00000000000E+00  0.11368683772E-12  0.17120000000E+03  0.17120000000E+03 0.  0.
         13    1    1    2    0    0  0.67826462491E+01 -0.17047703783E+02  0.74508021325E+02  0.76733857587E+02  0.10566000000E+00 0. -1.
        994    1    1    2    0    0  0.24942489578E+02  0.39899344650E+02  0.93979864490E+01  0.17779720931E+03  0.17120000000E+03 0.  0.
        998    1    1    2    0    0 -0.31725135827E+02 -0.22851640867E+02  0.14160939885E+04  0.14166689331E+04  0.10000000000E+02 0. -1.
</event>
<event>
 5    1  0.1440459E-008  0.3853230E+03  0.7957747E-01  0.3428304E+00
         13   -1    0    0    0    0  0.00000000000E+00  0.00000000000E+00  0.14999999963E+04  0.15000000000E+04  0.10566000000E+00 0.  1.
        994   -1    0    0    0    0 -0.00000000000E+00 -0.00000000000E+00  0.11368683772E-12  0.17120000000E+03  0.17120000000E+03 0.  0.
         13    1    1    2    0    0 -0.15725678516E+02 -0.88307193373E+01  0.10095646681E+03  0.10255485324E+03  0.10566000000E+00 0.  1.
        994    1    1    2    0    0  0.34485670489E+02 -0.11597799745E+02  0.58308677160E+01  0.17512055689E+03  0.17120000000E+03 0.  0.
        998    1    1    2    0    0 -0.18759991973E+02  0.20428519082E+02  0.13932126618E+04  0.13935245899E+04  0.10000000000E+02 0.  1.
</event>
<event>
 5    1  0.1440459E-008  0.3840846E+03  0.7957747E-01  0.3433564E+00
         13   -1    0    0    0    0  0.00000000000E+00  0.00000000000E+00  0.14999999963E+04  0.15000000000E+04  0.10566000000E+00 0.  1.
        994   -1    0    0    0    0 -0.00000000000E+00 -0.00000000000E+00  0.11368683772E-12  0.17120000000E+03  0.17120000000E+03 0.  0.
         13    1    1    2    0    0 -0.72660649093E+00 -0.10936005436E+02  0.28198466131E+02  0.30253740729E+02  0.10566000000E+00 0.  1.
        994    1    1    2    0    0 -0.83731855801E+01  0.83373024123E+01  0.25459495329E+01  0.17162617139E+03  0.17120000000E+03 0.  0.
        998    1    1    2    0    0  0.90997920710E+01  0.25987030240E+01  0.14692555806E+04  0.14693200879E+04  0.10000000000E+02 0.  1.
</event>
<event>
 5    1  0.1440459E-008  0.3736341E+03  0.7957747E-01  0.3479354E+00
         13   -1    0    0    0    0  0.00000000000E+00  0.00000000000E+00  0.14999999963E+04  0.15000000000E+04  0.10566000000E+00 0. -1.
        994   -1    0    0    0    0 -0.00000000000E+00 -0.00000000000E+00  0.11368683772E-12  0.17120000000E+03  0.17120000000E+03 0.  0.
         13    1    1    2    0    0  0.12884832882E+03  0.25834457282E+03  0.10134166535E+04  0.10537348504E+04  0.10566000000E+00 0. -1.
        994    1    1    2    0    0 -0.11690053000E+03 -0.26235915260E+03  0.36573228692E+03  0.49554778232E+03  0.17120000000E+03 0.  0.
        998    1    1    2    0    0 -0.11947798816E+02  0.40145797761E+01  0.12085105584E+03  0.12191736728E+03  0.10000000000E+02 0. -1.
</event>
<event>
 5    1  0.1440459E-008  0.3834320E+03  0.7957747E-01  0.3436350E+00
         13   -1    0    0    0    0  0.00000000000E+00  0.00000000000E+00  0.14999999963E+04  0.15000000000E+04  0.10566000000E+00 0. -1.
        994   -1    0    0    0    0 -0.00000000000E+00 -0.00000000000E+00  0.11368683772E-12  0.17120000000E+03  0.17120000000E+03 0.  0.
         13    1    1    2    0    0 -0.11710025290E+02  0.30867820103E+01  0.27691444891E+02  0.30223834959E+02  0.10566000000E+00 0. -1.
        994    1    1    2    0    0  0.23311630550E+02 -0.18095525861E+02  0.52946149124E+01  0.17380550372E+03  0.17120000000E+03 0.  0.
        998    1    1    2    0    0 -0.11601605260E+02  0.15008743851E+02  0.14670139365E+04  0.14671706613E+04  0.10000000000E+02 0. -1.
</event>
<event>
 5    1  0.1440459E-008  0.3805851E+03  0.7957747E-01  0.3448615E+00
         13   -1    0    0    0    0  0.00000000000E+00  0.00000000000E+00  0.14999999963E+04  0.15000000000E+04  0.10566000000E+00 0. -1.
        994   -1    0    0    0    0 -0.00000000000E+00 -0.00000000000E+00  0.11368683772E-12  0.17120000000E+03  0.17120000000E+03 0.  0.
         13    1    1    2    0    0 -0.36651657034E-01  0.12683756150E+02  0.17684967715E+02  0.21763461593E+02  0.10566000000E+00 0. -1.
        994    1    1    2    0    0 -0.59026685428E+01 -0.42439120344E+02  0.99879540477E+01  0.17676289106E+03  0.17120000000E+03 0.  0.
        998    1    1    2    0    0  0.59393201998E+01  0.29755364195E+02  0.14723270745E+04  0.14726736473E+04  0.10000000000E+02 0. -1.
</event>
<event>
 5    1  0.1440459E-008  0.3753898E+03  0.7957747E-01  0.3471481E+00
         13   -1    0    0    0    0  0.00000000000E+00  0.00000000000E+00  0.14999999963E+04  0.15000000000E+04  0.10566000000E+00 0. -1.
        994   -1    0    0    0    0 -0.00000000000E+00 -0.00000000000E+00  0.11368683772E-12  0.17120000000E+03  0.17120000000E+03 0.  0.
         13    1    1    2    0    0 -0.18642097497E+02  0.37667329570E+02  0.15561666107E+03  0.16119215826E+03  0.10566000000E+00 0. -1.
        994    1    1    2    0    0  0.96859051772E+01  0.76065152760E+01  0.69937547499E+01  0.17178483181E+03  0.17120000000E+03 0.  0.
        998    1    1    2    0    0  0.89561923201E+01 -0.45273844846E+02  0.13373895805E+04  0.13382230099E+04  0.10000000000E+02 0. -1.
</event>
<event>
 5    1  0.1440459E-008  0.3834453E+03  0.7957747E-01  0.3436293E+00
         13   -1    0    0    0    0  0.00000000000E+00  0.00000000000E+00  0.14999999963E+04  0.15000000000E+04  0.10566000000E+00 0.  1.
        994   -1    0    0    0    0 -0.00000000000E+00 -0.00000000000E+00  0.11368683772E-12  0.17120000000E+03  0.17120000000E+03 0.  0.
         13    1    1    2    0    0  0.21634066200E+02  0.12880940319E+02  0.15065123202E+03  0.15274081419E+03  0.10566000000E+00 0.  1.
        994    1    1    2    0    0 -0.24303992374E+01  0.65391452308E+01  0.25648666648E+01  0.17136127276E+03  0.17120000000E+03 0.  0.
        998    1    1    2    0    0 -0.19203666963E+02 -0.19420085550E+02  0.13467838976E+04  0.13470979131E+04  0.10000000000E+02 0.  1.
</event>
<event>
 5    1  0.1440459E-008  0.3846199E+03  0.7957747E-01  0.3431286E+00
         13   -1    0    0    0    0  0.00000000000E+00  0.00000000000E+00  0.14999999963E+04  0.15000000000E+04  0.10566000000E+00 0.  1.
        994   -1    0    0    0    0 -0.00000000000E+00 -0.00000000000E+00  0.11368683772E-12  0.17120000000E+03  0.17120000000E+03 0.  0.
         13    1    1    2    0    0  0.26933181576E+00 -0.14810568684E+02  0.63344641132E+02  0.65053671753E+02  0.10566000000E+00 0.  1.
        994    1    1    2    0    0 -0.59395969594E+01  0.10016932867E+01  0.19384299246E+01  0.17131689850E+03  0.17120000000E+03 0.  0.
        998    1    1    2    0    0  0.56702651437E+01  0.13808875397E+02  0.14347169252E+04  0.14348294297E+04  0.10000000000E+02 0.  1.
</event>
<event>
 5    1  0.1440459E-008  0.3823945E+03  0.7957747E-01  0.3440798E+00
         13   -1    0    0    0    0  0.00000000000E+00  0.00000000000E+00  0.14999999963E+04  0.15000000000E+04  0.10566000000E+00 0.  1.
        994   -1    0    0    0    0 -0.00000000000E+00 -0.00000000000E+00  0.11368683772E-12  0.17120000000E+03  0.17120000000E+03 0.  0.
         13    1    1    2    0    0 -0.10411364282E+02 -0.76439918592E+00  0.17226253179E+02  0.20142883978E+02  0.10566000000E+00 0.  1.
        994    1    1    2    0    0  0.11336371828E+02  0.56796464058E+01  0.34627016511E+01  0.17170382061E+03  0.17120000000E+03 0.  0.
        998    1    1    2    0    0 -0.92500754670E+00 -0.49152472199E+01  0.14793110414E+04  0.14793532954E+04  0.10000000000E+02 0.  1.
</event>
<event>
 5    1  0.1440459E-008  0.3833774E+03  0.7957747E-01  0.3436583E+00
         13   -1    0    0    0    0  0.00000000000E+00  0.00000000000E+00  0.14999999963E+04  0.15000000000E+04  0.10566000000E+00 0.  1.
        994   -1    0    0    0    0 -0.00000000000E+00 -0.00000000000E+00  0.11368683772E-12  0.17120000000E+03  0.17120000000E+03 0.  0.
         13    1    1    2    0    0 -0.26081751273E+01 -0.97779491966E+01  0.19508108811E+02  0.21976995732E+02  0.10566000000E+00 0.  1.
        994    1    1    2    0    0  0.27587326500E+01  0.16903022129E+02  0.34082126868E+01  0.17208828745E+03  0.17120000000E+03 0.  0.
        998    1    1    2    0    0 -0.15055752269E+00 -0.71250729328E+01  0.14770836748E+04  0.14771347168E+04  0.10000000000E+02 0.  1.
</event>
<event>
 5    1  0.1440459E-008  0.3774866E+03  0.7957747E-01  0.3462176E+00
         13   -1    0    0    0    0  0.00000000000E+00  0.00000000000E+00  0.14999999963E+04  0.15000000000E+04  0.10566000000E+00 0.  1.
        994   -1    0    0    0    0 -0.00000000000E+00 -0.00000000000E+00  0.11368683772E-12  0.17120000000E+03  0.17120000000E+03 0.  0.
         13    1    1    2    0    0  0.17896289421E+02  0.18679387677E+02  0.58425752219E+02  0.63896606995E+02  0.10566000000E+00 0.  1.
        994    1    1    2    0    0 -0.10470099824E+02 -0.22122495017E+02  0.74292214842E+01  0.17310014763E+03  0.17120000000E+03 0.  0.
        998    1    1    2    0    0 -0.74261895972E+01  0.34431073397E+01  0.14341450226E+04  0.14342032454E+04  0.10000000000E+02 0.  1.
</event>
<event>
 5    1  0.1440459E-008  0.3839317E+03  0.7957747E-01  0.3434216E+00
         13   -1    0    0    0    0  0.00000000000E+00  0.00000000000E+00  0.14999999963E+04  0.15000000000E+04  0.10566000000E+00 0.  1.
        994   -1    0    0    0    0 -0.00000000000E+00 -0.00000000000E+00  0.11368683772E-12  0.17120000000E+03  0.17120000000E+03 0.  0.
         13    1    1    2    0    0 -0.67150677859E+01  0.19915120158E+02  0.10673641692E+03  0.10878592743E+03  0.10566000000E+00 0.  1.
        994    1    1    2    0    0  0.32669991069E+01 -0.56974681257E+01  0.23038042076E+01  0.17134141922E+03  0.17120000000E+03 0.  0.
        998    1    1    2    0    0  0.34480686791E+01 -0.14217652032E+02  0.13909597752E+04  0.13910726534E+04  0.10000000000E+02 0.  1.
</event>
<event>
 5    1  0.1440459E-008  0.3798446E+03  0.7957747E-01  0.3451835E+00
         13   -1    0    0    0    0  0.00000000000E+00  0.00000000000E+00  0.14999999963E+04  0.15000000000E+04  0.10566000000E+00 0. -1.
        994   -1    0    0    0    0 -0.00000000000E+00 -0.00000000000E+00  0.11368683772E-12  0.17120000000E+03  0.17120000000E+03 0.  0.
         13    1    1    2    0    0  0.15387939670E+02  0.59344772696E+00  0.24167870212E+02  0.28657250079E+02  0.10566000000E+00 0. -1.
        994    1    1    2    0    0 -0.42092953468E+02  0.62059551414E+01  0.10290391234E+02  0.17670784579E+03  0.17120000000E+03 0.  0.
        998    1    1    2    0    0  0.26705013798E+02 -0.67994028683E+01  0.14655417348E+04  0.14658349041E+04  0.10000000000E+02 0. -1.
</event>
<event>
 5    1  0.1440459E-008  0.3760635E+03  0.7957747E-01  0.3468480E+00
         13   -1    0    0    0    0  0.00000000000E+00  0.00000000000E+00  0.14999999963E+04  0.15000000000E+04  0.10566000000E+00 0.  1.
        994   -1    0    0    0    0 -0.00000000000E+00 -0.00000000000E+00  0.11368683772E-12  0.17120000000E+03  0.17120000000E+03 0.  0.
         13    1    1    2    0    0  0.44959278219E+02  0.10979171268E+00  0.18295220192E+03  0.18839550978E+03  0.10566000000E+00 0.  1.
        994    1    1    2    0    0 -0.67185281573E+01 -0.42956498766E+01  0.63490324234E+01  0.17150318201E+03  0.17120000000E+03 0.  0.
        998    1    1    2    0    0 -0.38240750062E+02  0.41858581639E+01  0.13106987619E+04  0.13113013082E+04  0.10000000000E+02 0.  1.
</event>
<event>
 5    1  0.1440459E-008  0.3817885E+03  0.7957747E-01  0.3443408E+00
         13   -1    0    0    0    0  0.00000000000E+00  0.00000000000E+00  0.14999999963E+04  0.15000000000E+04  0.10566000000E+00 0. -1.
        994   -1    0    0    0    0 -0.00000000000E+00 -0.00000000000E+00  0.11368683772E-12  0.17120000000E+03  0.17120000000E+03 0.  0.
         13    1    1    2    0    0  0.98519817744E+01  0.82053609735E+01  0.24204762325E+02  0.27391078417E+02  0.10566000000E+00 0. -1.
        994    1    1    2    0    0 -0.85034479228E+01 -0.29841422274E+01  0.35029576437E+01  0.17147280963E+03  0.17120000000E+03 0.  0.
        998    1    1    2    0    0 -0.13485338516E+01 -0.52212187461E+01  0.14722922763E+04  0.14723361119E+04  0.10000000000E+02 0. -1.
</event>
<event>
 5    1  0.1440459E-008  0.3718175E+03  0.7957747E-01  0.3487580E+00
         13   -1    0    0    0    0  0.00000000000E+00  0.00000000000E+00  0.14999999963E+04  0.15000000000E+04  0.10566000000E+00 0.  1.
        994   -1    0    0    0    0 -0.00000000000E+00 -0.00000000000E+00  0.11368683772E-12  0.17120000000E+03  0.17120000000E+03 0.  0.
         13    1    1    2    0    0 -0.64741153396E+02  0.50984732319E+02  0.39673931445E+03  0.40520729839E+03  0.10566000000E+00 0.  1.
        994    1    1    2    0    0  0.32983348152E+02 -0.39012780396E+02  0.17343972296E+02  0.17949972608E+03  0.17120000000E+03 0.  0.
        998    1    1    2    0    0  0.31757805244E+02 -0.11971951923E+02  0.10859167095E+04  0.10864929755E+04  0.10000000000E+02 0.  1.
</event>
<event>
 5    1  0.1440459E-008  0.3830818E+03  0.7957747E-01  0.3437848E+00
         13   -1    0    0    0    0  0.00000000000E+00  0.00000000000E+00  0.14999999963E+04  0.15000000000E+04  0.10566000000E+00 0.  1.
        994   -1    0    0    0    0 -0.00000000000E+00 -0.00000000000E+00  0.11368683772E-12  0.17120000000E+03  0.17120000000E+03 0.  0.
         13    1    1    2    0    0  0.21789293047E+02 -0.27439870027E+02  0.20850098261E+03  0.21142466903E+03  0.10566000000E+00 0.  1.
        994    1    1    2    0    0 -0.19139976452E+02  0.28459941951E+02  0.64879074034E+01  0.17472217929E+03  0.17120000000E+03 0.  0.
        998    1    1    2    0    0 -0.26493165952E+01 -0.10200719243E+01  0.12850111063E+04  0.12850531517E+04  0.10000000000E+02 0.  0.
</event>
<event>
 5    1  0.1477067E-008  0.3863226E+03  0.7957747E-01  0.3424082E+00
         13   -1    0    0    0    0  0.00000000000E+00  0.00000000000E+00  0.14999999963E+04  0.15000000000E+04  0.10566000000E+00 0. -1.
        994   -1    0    0    0    0 -0.00000000000E+00 -0.00000000000E+00  0.11368683772E-12  0.17120000000E+03  0.17120000000E+03 0.  0.
         13    1    1    2    0    0 -0.70841181774E+01 -0.98050101750E+01  0.73037401750E+02  0.74032399483E+02  0.10566000000E+00 0. -1.
        994    1    1    2    0    0  0.17436091301E+02  0.39957327907E+01  0.20234109139E+01  0.17214388561E+03  0.17120000000E+03 0.  0.
        998    1    1    2    0    0 -0.10351973123E+02  0.58092773843E+01  0.14249391836E+04  0.14250237149E+04  0.10000000000E+02 0. -1.
</event>
<event>
 5    1  0.1440459E-008  0.3834090E+03  0.7957747E-01  0.3436448E+00
         13   -1    0    0    0    0  0.00000000000E+00  0.00000000000E+00  0.14999999963E+04  0.15000000000E+04  0.10566000000E+00 0.  1.
        994   -1    0    0    0    0 -0.00000000000E+00 -0.00000000000E+00  0.11368683772E-12  0.17120000000E+03  0.17120000000E+03 0.  0.
         13    1    1    2    0    0  0.24486051516E+02 -0.61943324278E+01  0.14801489178E+03  0.15015443991E+03  0.10566000000E+00 0.  1.
        994    1    1    2    0    0  0.27346307218E+01  0.13974750750E+02  0.30926890255E+01  0.17181902278E+03  0.17120000000E+03 0.  0.
        998    1    1    2    0    0 -0.27220682237E+02 -0.77804183224E+01  0.13488924155E+04  0.13492265373E+04  0.10000000000E+02 0.  1.
</event>
<event>
 5    1  0.1440459E-008  0.3724054E+03  0.7957747E-01  0.3484908E+00
         13   -1    0    0    0    0  0.00000000000E+00  0.00000000000E+00  0.14999999963E+04  0.15000000000E+04  0.10566000000E+00 0.  1.
        994   -1    0    0    0    0 -0.00000000000E+00 -0.00000000000E+00  0.11368683772E-12  0.17120000000E+03  0.17120000000E+03 0.  0.
         13    1    1    2    0    0  0.14623443049E+02  0.13740398627E+02  0.21822587662E+02  0.29645912659E+02  0.10566000000E+00 0.  1.
        994    1    1    2    0    0 -0.58798729454E+01 -0.11175262697E+02  0.85641658233E+01  0.17187857440E+03  0.17120000000E+03 0.  0.
        998    1    1    2    0    0 -0.87435701041E+01 -0.25651359300E+01  0.14696132428E+04  0.14696755129E+04  0.10000000000E+02 0.  1.
</event>
<event>
 5    1  0.1440459E-008  0.3803344E+03  0.7957747E-01  0.3449704E+00
         13   -1    0    0    0    0  0.00000000000E+00  0.00000000000E+00  0.14999999963E+04  0.15000000000E+04  0.10566000000E+00 0.  1.
        994   -1    0    0    0    0 -0.00000000000E+00 -0.00000000000E+00  0.11368683772E-12  0.17120000000E+03  0.17120000000E+03 0.  0.
         13    1    1    2    0    0 -0.52188543613E+01  0.89070727304E+01  0.11578923969E+02  0.15513059975E+02  0.10566000000E+00 0.  1.
        994    1    1    2    0    0  0.77801202940E+01 -0.95024971349E+01  0.44682419415E+01  0.17169808651E+03  0.17120000000E+03 0.  0.
        998    1    1    2    0    0 -0.25612659327E+01  0.59542440447E+00  0.14839528304E+04  0.14839888535E+04  0.10000000000E+02 0.  1.
</event>
<event>
 5    1  0.1440459E-008  0.3764731E+03  0.7957747E-01  0.3466661E+00
         13   -1    0    0    0    0  0.00000000000E+00  0.00000000000E+00  0.14999999963E+04  0.15000000000E+04  0.10566000000E+00 0. -1.
        994   -1    0    0    0    0 -0.00000000000E+00 -0.00000000000E+00  0.11368683772E-12  0.17120000000E+03  0.17120000000E+03 0.  0.
         13    1    1    2    0    0 -0.70152644962E+01 -0.13755240684E+02  0.17148697259E+01  0.15536168268E+02  0.10566000000E+00 0. -1.
        994    1    1    2    0    0  0.14484710457E+02  0.65560941830E+01  0.15308117629E+02  0.17261682326E+03  0.17120000000E+03 0.  0.
        998    1    1    2    0    0 -0.74694459612E+01  0.71991465009E+01  0.14829770089E+04  0.14830470085E+04  0.10000000000E+02 0. -1.
</event>
<event>
 5    1  0.1440459E-008  0.3806767E+03  0.7957747E-01  0.3448217E+00
         13   -1    0    0    0    0  0.00000000000E+00  0.00000000000E+00  0.14999999963E+04  0.15000000000E+04  0.10566000000E+00 0.  1.
        994   -1    0    0    0    0 -0.00000000000E+00 -0.00000000000E+00  0.11368683772E-12  0.17120000000E+03  0.17120000000E+03 0.  0.
         13    1    1    2    0    0  0.65378383924E+01  0.37643577924E+02  0.21338677702E+03  0.21678032674E+03  0.10566000000E+00 0.  1.
        994    1    1    2    0    0  0.88290923524E+01 -0.10415059840E+02  0.44139862616E+01  0.17180031903E+03  0.17120000000E+03 0.  0.
        998    1    1    2    0    0 -0.15366930745E+02 -0.27228518084E+02  0.12821992330E+04  0.12826193542E+04  0.10000000000E+02 0.  1.
</event>
<event>
 5    1  0.1440459E-008  0.3844304E+03  0.7957747E-01  0.3432092E+00
         13   -1    0    0    0    0  0.00000000000E+00  0.00000000000E+00  0.14999999963E+04  0.15000000000E+04  0.10566000000E+00 0. -1.
        994   -1    0    0    0    0 -0.00000000000E+00 -0.00000000000E+00  0.11368683772E-12  0.17120000000E+03  0.17120000000E+03 0.  0.
         13    1    1    2    0    0 -0.10127532417E+02 -0.60700623598E+01  0.35509764153E+02  0.37421478915E+02  0.10566000000E+00 0. -1.
        994    1    1    2    0    0  0.10069690705E+02  0.52693073273E+01  0.23388854018E+01  0.17159275817E+03  0.17120000000E+03 0.  0.
        998    1    1    2    0    0  0.57841711937E-01  0.80075503257E+00  0.14621513467E+04  0.14621857629E+04  0.10000000000E+02 0. -1.
</event>
<event>
 5    1  0.1440459E-008  0.3739980E+03  0.7957747E-01  0.3477716E+00
         13   -1    0    0    0    0  0.00000000000E+00  0.00000000000E+00  0.14999999963E+04  0.15000000000E+04  0.10566000000E+00 0. -1.
        994   -1    0    0    0    0 -0.00000000000E+00 -0.00000000000E+00  0.11368683772E-12  0.17120000000E+03  0.17120000000E+03 0.  0.
         13    1    1    2    0    0 -0.55804367241E+02  0.37076924771E+02  0.26764489656E+03  0.27590329387E+03  0.10566000000E+00 0. -1.
        994    1    1    2    0    0  0.52822297301E+02 -0.29287869007E+02  0.19740158771E+02  0.18261185129E+03  0.17120000000E+03 0.  0.
        998    1    1    2    0    0  0.29820699400E+01 -0.77890557641E+01  0.12126149410E+04  0.12126848548E+04  0.10000000000E+02 0. -1.
</event>
<event>
 5    1  0.1440459E-008  0.3841834E+03  0.7957747E-01  0.3433143E+00
         13   -1    0    0    0    0  0.00000000000E+00  0.00000000000E+00  0.14999999963E+04  0.15000000000E+04  0.10566000000E+00 0.  1.
        994   -1    0    0    0    0 -0.00000000000E+00 -0.00000000000E+00  0.11368683772E-12  0.17120000000E+03  0.17120000000E+03 0.  0.
         13    1    1    2    0    0  0.11340555812E+02  0.18506445348E+02  0.10422765338E+03  0.10646366337E+03  0.10566000000E+00 0.  1.
        994    1    1    2    0    0 -0.23462278426E+02 -0.18392630884E+02  0.49722169875E+01  0.17384743404E+03  0.17120000000E+03 0.  0.
        998    1    1    2    0    0  0.12121722613E+02 -0.11381446453E+00  0.13908001259E+04  0.13908889026E+04  0.10000000000E+02 0.  1.
</event>
<event>
 5    1  0.1440459E-008  0.3806297E+03  0.7957747E-01  0.3448421E+00
         13   -1    0    0    0    0  0.00000000000E+00  0.00000000000E+00  0.14999999963E+04  0.15000000000E+04  0.10566000000E+00 0. -1.
        994   -1    0    0    0    0 -0.00000000000E+00 -0.00000000000E+00  0.11368683772E-12  0.17120000000E+03  0.17120000000E+03 0.  0.
         13    1    1    2    0    0 -0.82681523287E+01 -0.75070316543E+01  0.14541379881E+02  0.18335232752E+02  0.10566000000E+00 0. -1.
        994    1    1    2    0    0  0.63808184442E+01  0.11881777337E+02  0.44226147905E+01  0.17178734237E+03  0.17120000000E+03 0.  0.
        998    1    1    2    0    0  0.18873338845E+01 -0.43747456830E+01  0.14810360016E+04  0.14810774249E+04  0.10000000000E+02 0. -1.
</event>
<event>
 5    1  0.1440459E-008  0.3835035E+03  0.7957747E-01  0.3436044E+00
         13   -1    0    0    0    0  0.00000000000E+00  0.00000000000E+00  0.14999999963E+04  0.15000000000E+04  0.10566000000E+00 0.  1.
        994   -1    0    0    0    0 -0.00000000000E+00 -0.00000000000E+00  0.11368683772E-12  0.17120000000E+03  0.17120000000E+03 0.  0.
         13    1    1    2    0    0 -0.10203790182E+02 -0.10915368902E+02  0.49340880543E+02  0.51553819152E+02  0.10566000000E+00 0.  1.
        994    1    1    2    0    0 -0.51317701408E+01  0.31574520404E+00  0.24623255051E+01  0.17129488552E+03  0.17120000000E+03 0.  0.
        998    1    1    2    0    0  0.15335560322E+02  0.10599623698E+02  0.14481967902E+04  0.14483512953E+04  0.10000000000E+02 0.  1.
</event>
<event>
 5    1  0.1440459E-008  0.3833176E+03  0.7957747E-01  0.3436839E+00
         13   -1    0    0    0    0  0.00000000000E+00  0.00000000000E+00  0.14999999963E+04  0.15000000000E+04  0.10566000000E+00 0.  1.
        994   -1    0    0    0    0 -0.00000000000E+00 -0.00000000000E+00  0.11368683772E-12  0.17120000000E+03  0.17120000000E+03 0.  0.
         13    1    1    2    0    0  0.18659613392E+02  0.24178277963E+01  0.66936710146E+02  0.69531010293E+02  0.10566000000E+00 0.  1.
        994    1    1    2    0    0 -0.23288757117E+02 -0.29737227935E+01  0.42925465656E+01  0.17285564842E+03  0.17120000000E+03 0.  0.
        998    1    1    2    0    0  0.46291437255E+01  0.55589499725E+00  0.14287707396E+04  0.14288133413E+04  0.10000000000E+02 0.  1.
</event>
<event>
 5    1  0.1440459E-008  0.3843145E+03  0.7957747E-01  0.3432585E+00
         13   -1    0    0    0    0  0.00000000000E+00  0.00000000000E+00  0.14999999963E+04  0.15000000000E+04  0.10566000000E+00 0.  1.
        994   -1    0    0    0    0 -0.00000000000E+00 -0.00000000000E+00  0.11368683772E-12  0.17120000000E+03  0.17120000000E+03 0.  0.
         13    1    1    2    0    0  0.16092428420E+02  0.58646933521E+01  0.92115084814E+02  0.93693974699E+02  0.10566000000E+00 0.  1.
        994    1    1    2    0    0  0.17282385354E+02  0.86206629293E+01  0.32012186007E+01  0.17231565359E+03  0.17120000000E+03 0.  0.
        998    1    1    2    0    0 -0.33374813774E+02 -0.14485356281E+02  0.14046836929E+04  0.14051903717E+04  0.10000000000E+02 0.  1.
</event>
<event>
 5    1  0.1440459E-008  0.3762396E+03  0.7957747E-01  0.3467697E+00
         13   -1    0    0    0    0  0.00000000000E+00  0.00000000000E+00  0.14999999963E+04  0.15000000000E+04  0.10566000000E+00 0. -1.
        994   -1    0    0    0    0 -0.00000000000E+00 -0.00000000000E+00  0.11368683772E-12  0.17120000000E+03  0.17120000000E+03 0.  0.
         13    1    1    2    0    0  0.13751813978E+02 -0.20139823480E+02  0.46659982077E+02  0.52648741380E+02  0.10566000000E+00 0. -1.
        994    1    1    2    0    0 -0.21505438165E+02  0.62397993526E+01  0.77426931540E+01  0.17283173396E+03  0.17120000000E+03 0.  0.
        998    1    1    2    0    0  0.77536241874E+01  0.13900024128E+02  0.14455973210E+04  0.14457195247E+04  0.10000000000E+02 0. -1.
</event>
<event>
 5    1  0.1440459E-008  0.3771443E+03  0.7957747E-01  0.3463688E+00
         13   -1    0    0    0    0  0.00000000000E+00  0.00000000000E+00  0.14999999963E+04  0.15000000000E+04  0.10566000000E+00 0.  1.
        994   -1    0    0    0    0 -0.00000000000E+00 -0.00000000000E+00  0.11368683772E-12  0.17120000000E+03  0.17120000000E+03 0.  0.
         13    1    1    2    0    0 -0.23515191924E+02  0.21786076619E+02  0.88472955549E+02  0.94101394322E+02  0.10566000000E+00 0.  1.
        994    1    1    2    0    0  0.17188794472E+02 -0.16567671507E+02  0.75074892373E+01  0.17301949251E+03  0.17120000000E+03 0.  0.
        998    1    1    2    0    0  0.63263974519E+01 -0.52184051121E+01  0.14040195515E+04  0.14040791132E+04  0.10000000000E+02 0.  1.
</event>
<event>
 5    1  0.1440459E-008  0.3714504E+03  0.7957747E-01  0.3489252E+00
         13   -1    0    0    0    0  0.00000000000E+00  0.00000000000E+00  0.14999999963E+04  0.15000000000E+04  0.10566000000E+00 0.  1.
        994   -1    0    0    0    0 -0.00000000000E+00 -0.00000000000E+00  0.11368683772E-12  0.17120000000E+03  0.17120000000E+03 0.  0.
         13    1    1    2    0    0  0.58080836894E+02 -0.86436166260E+02  0.45114850446E+03  0.46301142393E+03  0.10566000000E+00 0.  1.
        994    1    1    2    0    0 -0.46991812119E+02  0.89295251997E+02  0.44402325007E+02  0.20362435734E+03  0.17120000000E+03 0.  0.
        998    1    1    2    0    0 -0.11089024775E+02 -0.28590857378E+01  0.10044491668E+04  0.10045642187E+04  0.10000000000E+02 0. -1.
</event>
<event>
 5    1  0.1440459E-008  0.3786494E+03  0.7957747E-01  0.3457061E+00
         13   -1    0    0    0    0  0.00000000000E+00  0.00000000000E+00  0.14999999963E+04  0.15000000000E+04  0.10566000000E+00 0.  1.
        994   -1    0    0    0    0 -0.00000000000E+00 -0.00000000000E+00  0.11368683772E-12  0.17120000000E+03  0.17120000000E+03 0.  0.
         13    1    1    2    0    0  0.30541936039E+02  0.22540684574E+02  0.18843723179E+03  0.19222251119E+03  0.10566000000E+00 0.  1.
        994    1    1    2    0    0  0.21261354243E+02 -0.83498061561E+01  0.65705001505E+01  0.17284205483E+03  0.17120000000E+03 0.  0.
        998    1    1    2    0    0 -0.51803290282E+02 -0.14190878418E+02  0.13049922643E+04  0.13061354340E+04  0.10000000000E+02 0.  1.
</event>
<event>
 5    1  0.1440459E-008  0.3846461E+03  0.7957747E-01  0.3431175E+00
         13   -1    0    0    0    0  0.00000000000E+00  0.00000000000E+00  0.14999999963E+04  0.15000000000E+04  0.10566000000E+00 0.  1.
        994   -1    0    0    0    0 -0.00000000000E+00 -0.00000000000E+00  0.11368683772E-12  0.17120000000E+03  0.17120000000E+03 0.  0.
         13    1    1    2    0    0 -0.86557339844E+01  0.92176823969E+01  0.46944286977E+02  0.48617534321E+02  0.10566000000E+00 0.  1.
        994    1    1    2    0    0 -0.94944617921E+01 -0.37388130294E+01  0.21488571819E+01  0.17151729101E+03  0.17120000000E+03 0.  0.
        998    1    1    2    0    0  0.18150195777E+02 -0.54788693674E+01  0.14509068521E+04  0.14510651747E+04  0.10000000000E+02 0.  1.
</event>
<event>
 5    1  0.1440459E-008  0.3753809E+03  0.7957747E-01  0.3471521E+00
         13   -1    0    0    0    0  0.00000000000E+00  0.00000000000E+00  0.14999999963E+04  0.15000000000E+04  0.10566000000E+00 0.  1.
        994   -1    0    0    0    0 -0.00000000000E+00 -0.00000000000E+00  0.11368683772E-12  0.17120000000E+03  0.17120000000E+03 0.  0.
         13    1    1    2    0    0 -0.11404847140E+02  0.28808199528E+02  0.78066328988E+02  0.83990152899E+02  0.10566000000E+00 0.  1.
        994    1    1    2    0    0 -0.11855069424E+02 -0.16745678486E+01  0.69700359819E+01  0.17175962346E+03  0.17120000000E+03 0.  0.
        998    1    1    2    0    0  0.23259916564E+02 -0.27133631679E+02  0.14149636313E+04  0.14154502236E+04  0.10000000000E+02 0.  1.
</event>
<event>
 5    1  0.1440459E-008  0.3819120E+03  0.7957747E-01  0.3442875E+00
         13   -1    0    0    0    0  0.00000000000E+00  0.00000000000E+00  0.14999999963E+04  0.15000000000E+04  0.10566000000E+00 0.  1.
        994   -1    0    0    0    0 -0.00000000000E+00 -0.00000000000E+00  0.11368683772E-12  0.17120000000E+03  0.17120000000E+03 0.  0.
         13    1    1    2    0    0  0.40744262799E+02 -0.14010677099E+02  0.45065358196E+02  0.62348149108E+02  0.10566000000E+00 0.  1.
        994    1    1    2    0    0 -0.39918630850E+02  0.27192042464E+02  0.25943709170E+02  0.17976490288E+03  0.17120000000E+03 0.  0.
        998    1    1    2    0    0 -0.82563194869E+00 -0.13181365365E+02  0.14289909289E+04  0.14290869480E+04  0.10000000000E+02 0.  1.
</event>
<event>
 5    1  0.1440459E-008  0.3856908E+03  0.7957747E-01  0.3426748E+00
         13   -1    0    0    0    0  0.00000000000E+00  0.00000000000E+00  0.14999999963E+04  0.15000000000E+04  0.10566000000E+00 0.  1.
        994   -1    0    0    0    0 -0.00000000000E+00 -0.00000000000E+00  0.11368683772E-12  0.17120000000E+03  0.17120000000E+03 0.  0.
         13    1    1    2    0    0 -0.11768768268E+02  0.30176233299E+01  0.55978617852E+02  0.57281993486E+02  0.10566000000E+00 0.  1.
        994    1    1    2    0    0  0.12429866617E+02 -0.32373946793E+01  0.18291174618E+01  0.17169090826E+03  0.17120000000E+03 0.  0.
        998    1    1    2    0    0 -0.66109834920E+00  0.21977134946E+00  0.14421922610E+04  0.14422270983E+04  0.10000000000E+02 0.  1.
</event>
<event>
 5    1  0.1440459E-008  0.3782221E+03  0.7957747E-01  0.3458936E+00
         13   -1    0    0    0    0  0.00000000000E+00  0.00000000000E+00  0.14999999963E+04  0.15000000000E+04  0.10566000000E+00 0.  1.
        994   -1    0    0    0    0 -0.00000000000E+00 -0.00000000000E+00  0.11368683772E-12  0.17120000000E+03  0.17120000000E+03 0.  0.
         13    1    1    2    0    0  0.28989872283E+02 -0.43188852742E+02  0.24446075133E+03  0.24993351076E+03  0.10566000000E+00 0.  1.
        994    1    1    2    0    0 -0.28890295377E+02  0.30753821717E+02  0.11043823647E+02  0.17666876565E+03  0.17120000000E+03 0.  0.
        998    1    1    2    0    0 -0.99576905609E-01  0.12435031025E+02  0.12444954213E+04  0.12445977236E+04  0.10000000000E+02 0.  1.
</event>
<event>
 5    1  0.1440459E-008  0.3844487E+03  0.7957747E-01  0.3432014E+00
         13   -1    0    0    0    0  0.00000000000E+00  0.00000000000E+00  0.14999999963E+04  0.15000000000E+04  0.10566000000E+00 0. -1.
        994   -1    0    0    0    0 -0.00000000000E+00 -0.00000000000E+00  0.11368683772E-12  0.17120000000E+03  0.17120000000E+03 0.  0.
         13    1    1    2    0    0 -0.14238173674E+02  0.60885484632E+01  0.63855937248E+02  0.65706832962E+02  0.10566000000E+00 0. -1.
        994    1    1    2    0    0  0.61097852766E+01 -0.37134753012E+01  0.20725250024E+01  0.17136176567E+03  0.17120000000E+03 0.  0.
        998    1    1    2    0    0  0.81283883977E+01 -0.23750731620E+01  0.14340715340E+04  0.14341314014E+04  0.10000000000E+02 0. -1.
</event>
<event>
 5    1  0.1440459E-008  0.3018936E+03  0.7957747E-01  0.3882593E+00
         13   -1    0    0    0    0  0.00000000000E+00  0.00000000000E+00  0.14999999963E+04  0.15000000000E+04  0.10566000000E+00 0.  1.
        994   -1    0    0    0    0 -0.00000000000E+00 -0.00000000000E+00  0.11368683772E-12  0.17120000000E+03  0.17120000000E+03 0.  0.
         13    1    1    2    0    0  0.14181739166E+03 -0.12918875084E+03  0.63554245559E+03  0.66386454186E+03  0.10566000000E+00 0.  1.
        994    1    1    2    0    0 -0.14799624817E+03  0.12739543015E+03  0.16479099137E+03  0.30756787208E+03  0.17120000000E+03 0.  0.
        998    1    1    2    0    0  0.61788565086E+01  0.17933206811E+01  0.69966654932E+03  0.69976758606E+03  0.10000000000E+02 0.  0.
</event>
<event>
 5    1  0.1440459E-008  0.3774462E+03  0.7957747E-01  0.3462354E+00
         13   -1    0    0    0    0  0.00000000000E+00  0.00000000000E+00  0.14999999963E+04  0.15000000000E+04  0.10566000000E+00 0. -1.
        994   -1    0    0    0    0 -0.00000000000E+00 -0.00000000000E+00  0.11368683772E-12  0.17120000000E+03  0.17120000000E+03 0.  0.
         13    1    1    2    0    0 -0.33565419009E+01 -0.16841904942E+02  0.26176505068E+02  0.31307135245E+02  0.10566000000E+00 0. -1.
        994    1    1    2    0    0  0.18977049781E+02 -0.10660264926E+02  0.70267917640E+01  0.17272112051E+03  0.17120000000E+03 0.  0.
        998    1    1    2    0    0 -0.15620507880E+02  0.27502169868E+02  0.14667966994E+04  0.14671717442E+04  0.10000000000E+02 0. -1.
</event>
<event>
 5    1  0.1440459E-008  0.3840760E+03  0.7957747E-01  0.3433600E+00
         13   -1    0    0    0    0  0.00000000000E+00  0.00000000000E+00  0.14999999963E+04  0.15000000000E+04  0.10566000000E+00 0.  1.
        994   -1    0    0    0    0 -0.00000000000E+00 -0.00000000000E+00  0.11368683772E-12  0.17120000000E+03  0.17120000000E+03 0.  0.
         13    1    1    2    0    0 -0.13401828661E+02 -0.96138834511E+01  0.63734170466E+02  0.65833816656E+02  0.10566000000E+00 0.  1.
        994    1    1    2    0    0  0.13361137155E+02  0.44429138620E+01  0.27438128117E+01  0.17179996501E+03  0.17120000000E+03 0.  0.
        998    1    1    2    0    0  0.40691505692E-01  0.51709695891E+01  0.14335220130E+04  0.14335662183E+04  0.10000000000E+02 0.  0.
</event>
<event>
 5    1  0.1440459E-008  0.3706664E+03  0.7957747E-01  0.3492834E+00
         13   -1    0    0    0    0  0.00000000000E+00  0.00000000000E+00  0.14999999963E+04  0.15000000000E+04  0.10566000000E+00 0.  1.
        994   -1    0    0    0    0 -0.00000000000E+00 -0.00000000000E+00  0.11368683772E-12  0.17120000000E+03  0.17120000000E+03 0.  0.
         13    1    1    2    0    0 -0.22906127305E+02  0.58408059808E+00  0.18057096511E+02  0.29173647641E+02  0.10566000000E+00 0.  1.
        994    1    1    2    0    0  0.25471028773E+02 -0.15434865259E+00  0.13568391246E+02  0.17361549001E+03  0.17120000000E+03 0.  0.
        998    1    1    2    0    0 -0.25649014683E+01 -0.42973194549E+00  0.14683745085E+04  0.14684108623E+04  0.10000000000E+02 0.  1.
</event>
<event>
 5    1  0.1440459E-008  0.3782909E+03  0.7957747E-01  0.3458634E+00
         13   -1    0    0    0    0  0.00000000000E+00  0.00000000000E+00  0.14999999963E+04  0.15000000000E+04  0.10566000000E+00 0.  1.
        994   -1    0    0    0    0 -0.00000000000E+00 -0.00000000000E+00  0.11368683772E-12  0.17120000000E+03  0.17120000000E+03 0.  0.
         13    1    1    2    0    0 -0.35653171915E+02 -0.28430446109E+02  0.18346518154E+03  0.18904740923E+03  0.10566000000E+00 0.  1.
        994    1    1    2    0    0  0.31648649941E+02  0.32277569993E+02  0.11899297672E+02  0.17746693172E+03  0.17120000000E+03 0.  0.
        998    1    1    2    0    0  0.40045219734E+01 -0.38471238842E+01  0.13046355171E+04  0.13046856591E+04  0.10000000000E+02 0.  1.
</event>
<event>
 5    1  0.1440459E-008  0.3701623E+03  0.7957747E-01  0.3495145E+00
         13   -1    0    0    0    0  0.00000000000E+00  0.00000000000E+00  0.14999999963E+04  0.15000000000E+04  0.10566000000E+00 0.  1.
        994   -1    0    0    0    0 -0.00000000000E+00 -0.00000000000E+00  0.11368683772E-12  0.17120000000E+03  0.17120000000E+03 0.  0.
         13    1    1    2    0    0 -0.62468714507E+02 -0.62882985341E+02  0.48628172251E+03  0.49429397624E+03  0.10566000000E+00 0.  1.
        994    1    1    2    0    0  0.49580763585E+01  0.16617127847E+02  0.12077193024E+02  0.17249930449E+03  0.17120000000E+03 0.  0.
        998    1    1    2    0    0  0.57510638148E+02  0.46265857494E+02  0.10016410807E+04  0.10044067193E+04  0.10000000000E+02 0. -1.
</event>
<event>
 5    1  0.1440459E-008  0.3732444E+03  0.7957747E-01  0.3481112E+00
         13   -1    0    0    0    0  0.00000000000E+00  0.00000000000E+00  0.14999999963E+04  0.15000000000E+04  0.10566000000E+00 0. -1.
        994   -1    0    0    0    0 -0.00000000000E+00 -0.00000000000E+00  0.11368683772E-12  0.17120000000E+03  0.17120000000E+03 0.  0.
         13    1    1    2    0    0  0.14632963985E+02  0.83621631992E+00  0.10774496164E+02  0.18191311782E+02  0.10566000000E+00 0. -1.
        994    1    1    2    0    0 -0.11166760649E+02  0.89133123508E+01  0.82813867649E+01  0.17199466575E+03  0.17120000000E+03 0.  0.
        998    1    1    2    0    0 -0.34662033364E+01 -0.97495286707E+01  0.14809441133E+04  0.14810140225E+04  0.10000000000E+02 0. -1.
</event>
<event>
 5    1  0.1440459E-008  0.3787897E+03  0.7957747E-01  0.3456445E+00
         13   -1    0    0    0    0  0.00000000000E+00  0.00000000000E+00  0.14999999963E+04  0.15000000000E+04  0.10566000000E+00 0.  1.
        994   -1    0    0    0    0 -0.00000000000E+00 -0.00000000000E+00  0.11368683772E-12  0.17120000000E+03  0.17120000000E+03 0.  0.
         13    1    1    2    0    0 -0.44263345069E+02  0.30965693901E+02  0.91337142972E+02  0.10611598732E+03  0.10566000000E+00 0.  1.
        994    1    1    2    0    0 -0.74383885009E+00 -0.41353020824E+02  0.21860502578E+02  0.17747661029E+03  0.17120000000E+03 0.  0.
        998    1    1    2    0    0  0.45007183919E+02  0.10387326923E+02  0.13868023507E+04  0.13876074024E+04  0.10000000000E+02 0.  1.
</event>
<event>
 5    1  0.1440459E-008  0.3820773E+03  0.7957747E-01  0.3442163E+00
         13   -1    0    0    0    0  0.00000000000E+00  0.00000000000E+00  0.14999999963E+04  0.15000000000E+04  0.10566000000E+00 0. -1.
        994   -1    0    0    0    0 -0.00000000000E+00 -0.00000000000E+00  0.11368683772E-12  0.17120000000E+03  0.17120000000E+03 0.  0.
         13    1    1    2    0    0  0.81447063486E+01  0.10507123374E+02  0.28316293133E+02  0.31281935744E+02  0.10566000000E+00 0. -1.
        994    1    1    2    0    0  0.53492816568E+01 -0.40798647500E+01  0.32384881615E+01  0.17136273783E+03  0.17120000000E+03 0.  0.
        998    1    1    2    0    0 -0.13493988005E+02 -0.64272586240E+01  0.14684452150E+04  0.14685553264E+04  0.10000000000E+02 0. -1.
</event>
<event>
 5    1  0.1440459E-008  0.3832159E+03  0.7957747E-01  0.3437274E+00
         13   -1    0    0    0    0  0.00000000000E+00  0.00000000000E+00  0.14999999963E+04  0.15000000000E+04  0.10566000000E+00 0.  1.
        994   -1    0    0    0    0 -0.00000000000E+00 -0.00000000000E+00  0.11368683772E-12  0.17120000000E+03  0.17120000000E+03 0.  0.
         13    1    1    2    0    0 -0.30091276819E+02 -0.27661970570E+01  0.15158922071E+03  0.15457179492E+03  0.10566000000E+00 0.  1.
        994    1    1    2    0    0  0.40548127870E+02  0.22338137166E+01  0.79927144227E+01  0.17613195077E+03  0.17120000000E+03 0.  0.
        998    1    1    2    0    0 -0.10456851051E+02  0.53238334043E+00  0.13404180611E+04  0.13404962543E+04  0.10000000000E+02 0.  1.
</event>
<event>
 5    1  0.1440459E-008  0.3777268E+03  0.7957747E-01  0.3461117E+00
         13   -1    0    0    0    0  0.00000000000E+00  0.00000000000E+00  0.14999999963E+04  0.15000000000E+04  0.10566000000E+00 0.  1.
        994   -1    0    0    0    0 -0.00000000000E+00 -0.00000000000E+00  0.11368683772E-12  0.17120000000E+03  0.17120000000E+03 0.  0.
         13    1    1    2    0    0  0.13453793779E+01 -0.25259378806E+02  0.56375107592E+02  0.61790049226E+02  0.10566000000E+00 0.  1.
        994    1    1    2    0    0 -0.16147860735E+01  0.26683677607E+02  0.76958479283E+01  0.17344535814E+03  0.17120000000E+03 0.  0.
        998    1    1    2    0    0  0.26940669561E+00 -0.14242988007E+01  0.14359290408E+04  0.14359645926E+04  0.10000000000E+02 0.  1.
</event>
<event>
 5    1  0.1440459E-008  0.3787552E+03  0.7957747E-01  0.3456597E+00
         13   -1    0    0    0    0  0.00000000000E+00  0.00000000000E+00  0.14999999963E+04  0.15000000000E+04  0.10566000000E+00 0. -1.
        994   -1    0    0    0    0 -0.00000000000E+00 -0.00000000000E+00  0.11368683772E-12  0.17120000000E+03  0.17120000000E+03 0.  0.
         13    1    1    2    0    0 -0.11124588077E+02 -0.83023961621E+01  0.17899178476E+02  0.22651225046E+02  0.10566000000E+00 0. -1.
        994    1    1    2    0    0  0.86359654950E+01  0.15606200999E+02  0.58314496275E+01  0.17222537332E+03  0.17120000000E+03 0.  0.
        998    1    1    2    0    0  0.24886225825E+01 -0.73038048371E+01  0.14762693682E+04  0.14763234016E+04  0.10000000000E+02 0. -1.
</event>
<event>
 5    1  0.1440459E-008  0.3853559E+03  0.7957747E-01  0.3428164E+00
         13   -1    0    0    0    0  0.00000000000E+00  0.00000000000E+00  0.14999999963E+04  0.15000000000E+04  0.10566000000E+00 0. -1.
        994   -1    0    0    0    0 -0.00000000000E+00 -0.00000000000E+00  0.11368683772E-12  0.17120000000E+03  0.17120000000E+03 0.  0.
         13    1    1    2    0    0 -0.57630866871E+00  0.10104256754E+02  0.36191897081E+02  0.37580483161E+02  0.10566000000E+00 0. -1.
        994    1    1    2    0    0  0.44093742418E+01 -0.12763517676E+01  0.15227444797E+01  0.17126829948E+03  0.17120000000E+03 0.  0.
        998    1    1    2    0    0 -0.38330655731E+01 -0.88279049864E+01  0.14622853547E+04  0.14623512174E+04  0.10000000000E+02 0. -1.
</event>
<event>
 5    1  0.1440459E-008  0.3805998E+03  0.7957747E-01  0.3448551E+00
         13   -1    0    0    0    0  0.00000000000E+00  0.00000000000E+00  0.14999999963E+04  0.15000000000E+04  0.10566000000E+00 0. -1.
        994   -1    0    0    0    0 -0.00000000000E+00 -0.00000000000E+00  0.11368683772E-12  0.17120000000E+03  0.17120000000E+03 0.  0.
         13    1    1    2    0    0  0.15239098644E+02  0.10068588393E+02  0.41459856921E+02  0.45304939021E+02  0.10566000000E+00 0. -1.
        994    1    1    2    0    0 -0.15294354709E+02 -0.67285631601E+01  0.47626919924E+01  0.17207938309E+03  0.17120000000E+03 0.  0.
        998    1    1    2    0    0  0.55256065241E-01 -0.33400252326E+01  0.14537774474E+04  0.14538156779E+04  0.10000000000E+02 0. -1.
</event>
<event>
 5    1  0.1440459E-008  0.3852014E+03  0.7957747E-01  0.3428818E+00
         13   -1    0    0    0    0  0.00000000000E+00  0.00000000000E+00  0.14999999963E+04  0.15000000000E+04  0.10566000000E+00 0.  1.
        994   -1    0    0    0    0 -0.00000000000E+00 -0.00000000000E+00  0.11368683772E-12  0.17120000000E+03  0.17120000000E+03 0.  0.
         13    1    1    2    0    0 -0.13277204071E+02  0.28359283770E+01  0.58829378136E+02  0.60375769425E+02  0.10566000000E+00 0.  1.
        994    1    1    2    0    0  0.13235388415E+02 -0.81082086640E+00  0.21082623255E+01  0.17172570485E+03  0.17120000000E+03 0.  0.
        998    1    1    2    0    0  0.41815655974E-01 -0.20251075106E+01  0.14390623558E+04  0.14390985257E+04  0.10000000000E+02 0.  1.
</event>
<event>
 5    1  0.1440459E-008  0.3802150E+03  0.7957747E-01  0.3450223E+00
         13   -1    0    0    0    0  0.00000000000E+00  0.00000000000E+00  0.14999999963E+04  0.15000000000E+04  0.10566000000E+00 0. -1.
        994   -1    0    0    0    0 -0.00000000000E+00 -0.00000000000E+00  0.11368683772E-12  0.17120000000E+03  0.17120000000E+03 0.  0.
         13    1    1    2    0    0 -0.29996984671E+01  0.22721413986E+02  0.62326710576E+02  0.66407009116E+02  0.10566000000E+00 0. -1.
        994    1    1    2    0    0  0.20353094550E+01 -0.20150766524E+02  0.53961059585E+01  0.17247827062E+03  0.17120000000E+03 0.  0.
        998    1    1    2    0    0  0.96438901209E+00 -0.25706474621E+01  0.14322771797E+04  0.14323147203E+04  0.10000000000E+02 0. -1.
</event>
<event>
 5    1  0.1440459E-008  0.3737564E+03  0.7957747E-01  0.3478803E+00
         13   -1    0    0    0    0  0.00000000000E+00  0.00000000000E+00  0.14999999963E+04  0.15000000000E+04  0.10566000000E+00 0. -1.
        994   -1    0    0    0    0 -0.00000000000E+00 -0.00000000000E+00  0.11368683772E-12  0.17120000000E+03  0.17120000000E+03 0.  0.
         13    1    1    2    0    0  0.23111035539E+02  0.90422742434E+01  0.17969869407E+02  0.30640007469E+02  0.10566000000E+00 0. -1.
        994    1    1    2    0    0 -0.27986011905E+02 -0.75470738574E+00  0.15720612659E+02  0.17418485614E+03  0.17120000000E+03 0.  0.
        998    1    1    2    0    0  0.48749763666E+01 -0.82875668577E+01  0.14663095142E+04  0.14663751364E+04  0.10000000000E+02 0. -1.
</event>
<event>
 5    1  0.1440459E-008  0.2874169E+03  0.7957747E-01  0.3990159E+00
         13   -1    0    0    0    0  0.00000000000E+00  0.00000000000E+00  0.14999999963E+04  0.15000000000E+04  0.10566000000E+00 0.  1.
        994   -1    0    0    0    0 -0.00000000000E+00 -0.00000000000E+00  0.11368683772E-12  0.17120000000E+03  0.17120000000E+03 0.  0.
         13    1    1    2    0    0  0.50290103328E+02  0.22561008828E+03  0.37573490011E+03  0.44114139769E+03  0.10566000000E+00 0.  1.
        994    1    1    2    0    0 -0.49849789223E+02 -0.21869543284E+03  0.32378775312E+03  0.42948881580E+03  0.17120000000E+03 0.  0.
        998    1    1    2    0    0 -0.44031410521E+00 -0.69146554342E+01  0.80047734305E+03  0.80056978651E+03  0.10000000000E+02 0. -1.
</event>
<event>
 5    1  0.1440459E-008  0.3853454E+03  0.7957747E-01  0.3428209E+00
         13   -1    0    0    0    0  0.00000000000E+00  0.00000000000E+00  0.14999999963E+04  0.15000000000E+04  0.10566000000E+00 0. -1.
        994   -1    0    0    0    0 -0.00000000000E+00 -0.00000000000E+00  0.11368683772E-12  0.17120000000E+03  0.17120000000E+03 0.  0.
         13    1    1    2    0    0 -0.70527825234E+01 -0.74238166535E+01  0.32890319461E+02  0.34447627978E+02  0.10566000000E+00 0. -1.
        994    1    1    2    0    0  0.29540644970E+02  0.72252902400E+01  0.45027739478E+01  0.17393840720E+03  0.17120000000E+03 0.  0.
        998    1    1    2    0    0 -0.22487862447E+02  0.19852641351E+00  0.14626069029E+04  0.14628139648E+04  0.10000000000E+02 0. -1.
</event>
<event>
 5    1  0.1440459E-008  0.3849031E+03  0.7957747E-01  0.3430083E+00
         13   -1    0    0    0    0  0.00000000000E+00  0.00000000000E+00  0.14999999963E+04  0.15000000000E+04  0.10566000000E+00 0.  1.
        994   -1    0    0    0    0 -0.00000000000E+00 -0.00000000000E+00  0.11368683772E-12  0.17120000000E+03  0.17120000000E+03 0.  0.
         13    1    1    2    0    0 -0.12302055620E+02 -0.11392346327E+02  0.80464460998E+02  0.82192863285E+02  0.10566000000E+00 0.  1.
        994    1    1    2    0    0  0.15312485317E+02  0.80362585182E+01  0.26626473208E+01  0.17209178757E+03  0.17120000000E+03 0.  0.
        998    1    1    2    0    0 -0.30104296969E+01  0.33560878083E+01  0.14168728880E+04  0.14169153491E+04  0.10000000000E+02 0.  1.
</event>
<event>
 5    1  0.1440459E-008  0.3797663E+03  0.7957747E-01  0.3452177E+00
         13   -1    0    0    0    0  0.00000000000E+00  0.00000000000E+00  0.14999999963E+04  0.15000000000E+04  0.10566000000E+00 0. -1.
        994   -1    0    0    0    0 -0.00000000000E+00 -0.00000000000E+00  0.11368683772E-12  0.17120000000E+03  0.17120000000E+03 0.  0.
         13    1    1    2    0    0 -0.31070238476E+02  0.14770495361E+02  0.28169835063E+02  0.44464345533E+02  0.10566000000E+00 0. -1.
        994    1    1    2    0    0  0.44832915454E+02 -0.26075935184E+02  0.26002480957E+02  0.18076369580E+03  0.17120000000E+03 0.  0.
        998    1    1    2    0    0 -0.13762676978E+02  0.11305439823E+02  0.14458276803E+04  0.14459719587E+04  0.10000000000E+02 0. -1.
</event>
<event>
 5    1  0.1440459E-008  0.3794955E+03  0.7957747E-01  0.3453358E+00
         13   -1    0    0    0    0  0.00000000000E+00  0.00000000000E+00  0.14999999963E+04  0.15000000000E+04  0.10566000000E+00 0.  1.
        994   -1    0    0    0    0 -0.00000000000E+00 -0.00000000000E+00  0.11368683772E-12  0.17120000000E+03  0.17120000000E+03 0.  0.
         13    1    1    2    0    0  0.53074524045E+02  0.12800746076E+02  0.29097246743E+03  0.29605025277E+03  0.10566000000E+00 0.  1.
        994    1    1    2    0    0 -0.51423270707E+02  0.49652781049E+01  0.13377581866E+02  0.17932486290E+03  0.17120000000E+03 0.  0.
        998    1    1    2    0    0 -0.16512533387E+01 -0.17766024181E+02  0.11956499470E+04  0.11958248843E+04  0.10000000000E+02 0.  1.
</event>
<event>
 5    1  0.1440459E-008  0.3822999E+03  0.7957747E-01  0.3441205E+00
         13   -1    0    0    0    0  0.00000000000E+00  0.00000000000E+00  0.14999999963E+04  0.15000000000E+04  0.10566000000E+00 0. -1.
        994   -1    0    0    0    0 -0.00000000000E+00 -0.00000000000E+00  0.11368683772E-12  0.17120000000E+03  0.17120000000E+03 0.  0.
         13    1    1    2    0    0 -0.18714486867E+02  0.62631683314E+01  0.63281210609E+02  0.66287118481E+02  0.10566000000E+00 0. -1.
        994    1    1    2    0    0  0.15843414438E+02 -0.49098406941E+01  0.38899250010E+01  0.17204560975E+03  0.17120000000E+03 0.  0.
        998    1    1    2    0    0  0.28710724284E+01 -0.13533276373E+01  0.14328288607E+04  0.14328672718E+04  0.10000000000E+02 0. -1.
</event>
<event>
 5    1  0.1732843E-008  0.3856907E+03  0.7957747E-01  0.3426748E+00
         13   -1    0    0    0    0  0.00000000000E+00  0.00000000000E+00  0.14999999963E+04  0.15000000000E+04  0.10566000000E+00 0. -1.
        994   -1    0    0    0    0 -0.00000000000E+00 -0.00000000000E+00  0.11368683772E-12  0.17120000000E+03  0.17120000000E+03 0.  0.
         13    1    1    2    0    0  0.94573800384E+01 -0.10737873874E+02  0.76288794577E+02  0.77619168474E+02  0.10566000000E+00 0. -1.
        994    1    1    2    0    0 -0.10346533358E+02  0.11888076621E+02  0.21030164850E+01  0.17193673196E+03  0.17120000000E+03 0.  0.
        998    1    1    2    0    0  0.88915331921E+00 -0.11502027465E+01  0.14216081852E+04  0.14216440996E+04  0.10000000000E+02 0. -1.
</event>
<event>
 5    1  0.1440459E-008  0.3792994E+03  0.7957747E-01  0.3454215E+00
         13   -1    0    0    0    0  0.00000000000E+00  0.00000000000E+00  0.14999999963E+04  0.15000000000E+04  0.10566000000E+00 0. -1.
        994   -1    0    0    0    0 -0.00000000000E+00 -0.00000000000E+00  0.11368683772E-12  0.17120000000E+03  0.17120000000E+03 0.  0.
         13    1    1    2    0    0  0.16793163634E+03 -0.62574817793E+02  0.92674125762E+03  0.94390995971E+03  0.10566000000E+00 0. -1.
        994    1    1    2    0    0 -0.17422748060E+03  0.64418799397E+02  0.13043009882E+03  0.28429992506E+03  0.17120000000E+03 0.  0.
        998    1    1    2    0    0  0.62958442576E+01 -0.18439816042E+01  0.44282863984E+03  0.44299011523E+03  0.10000000000E+02 0.  1.
</event>
<event>
 5    1  0.1440459E-008  0.3769184E+03  0.7957747E-01  0.3464687E+00
         13   -1    0    0    0    0  0.00000000000E+00  0.00000000000E+00  0.14999999963E+04  0.15000000000E+04  0.10566000000E+00 0. -1.
        994   -1    0    0    0    0 -0.00000000000E+00 -0.00000000000E+00  0.11368683772E-12  0.17120000000E+03  0.17120000000E+03 0.  0.
         13    1    1    2    0    0 -0.21907216455E+01  0.99889254916E+01  0.65267205044E+01  0.12132070655E+02  0.10566000000E+00 0. -1.
        994    1    1    2    0    0 -0.23532449873E+01 -0.11048505931E+02  0.61279610523E+01  0.17168167972E+03  0.17120000000E+03 0.  0.
        998    1    1    2    0    0  0.45439666329E+01  0.10595804392E+01  0.14873453147E+04  0.14873862496E+04  0.10000000000E+02 0. -1.
</event>
<event>
 5    1  0.1440459E-008  0.3811813E+03  0.7957747E-01  0.3446031E+00
         13   -1    0    0    0    0  0.00000000000E+00  0.00000000000E+00  0.14999999963E+04  0.15000000000E+04  0.10566000000E+00 0.  1.
        994   -1    0    0    0    0 -0.00000000000E+00 -0.00000000000E+00  0.11368683772E-12  0.17120000000E+03  0.17120000000E+03 0.  0.
         13    1    1    2    0    0  0.22030152299E+02 -0.14964765634E+02  0.12486634115E+03  0.12767492368E+03  0.10566000000E+00 0.  1.
        994    1    1    2    0    0  0.99452861152E+01 -0.20642838525E+02  0.52883108804E+01  0.17280752799E+03  0.17120000000E+03 0.  0.
        998    1    1    2    0    0 -0.31975438414E+02  0.35607604159E+02  0.13698453443E+04  0.13707175483E+04  0.10000000000E+02 0.  1.
</event>
<event>
 5    1  0.1440459E-008  0.3834527E+03  0.7957747E-01  0.3436261E+00
         13   -1    0    0    0    0  0.00000000000E+00  0.00000000000E+00  0.14999999963E+04  0.15000000000E+04  0.10566000000E+00 0.  1.
        994   -1    0    0    0    0 -0.00000000000E+00 -0.00000000000E+00  0.11368683772E-12  0.17120000000E+03  0.17120000000E+03 0.  0.
         13    1    1    2    0    0  0.21777214794E+02  0.16229826231E+02  0.15147443821E+03  0.15389012619E+03  0.10566000000E+00 0.  1.
        994    1    1    2    0    0 -0.41053348292E+01 -0.24670675179E+02  0.44704542826E+01  0.17307489982E+03  0.17120000000E+03 0.  0.
        998    1    1    2    0    0 -0.17671879965E+02  0.84408489474E+01  0.13440551038E+04  0.13442349740E+04  0.10000000000E+02 0.  1.
</event>
<event>
 5    1  0.1440459E-008  0.3807846E+03  0.7957747E-01  0.3447749E+00
         13   -1    0    0    0    0  0.00000000000E+00  0.00000000000E+00  0.14999999963E+04  0.15000000000E+04  0.10566000000E+00 0. -1.
        994   -1    0    0    0    0 -0.00000000000E+00 -0.00000000000E+00  0.11368683772E-12  0.17120000000E+03  0.17120000000E+03 0.  0.
         13    1    1    2    0    0 -0.22205309865E+02 -0.30245088229E+01  0.76633448664E+01  0.23684624937E+02  0.10566000000E+00 0. -1.
        994    1    1    2    0    0  0.17941618047E+02  0.17528644516E+01  0.17940739791E+02  0.17307883850E+03  0.17120000000E+03 0.  0.
        998    1    1    2    0    0  0.42636918187E+01  0.12716443713E+01  0.14743959116E+04  0.14744365366E+04  0.10000000000E+02 0. -1.
</event>
<event>
 5    1  0.1440459E-008  0.3749751E+03  0.7957747E-01  0.3473334E+00
         13   -1    0    0    0    0  0.00000000000E+00  0.00000000000E+00  0.14999999963E+04  0.15000000000E+04  0.10566000000E+00 0. -1.
        994   -1    0    0    0    0 -0.00000000000E+00 -0.00000000000E+00  0.11368683772E-12  0.17120000000E+03  0.17120000000E+03 0.  0.
         13    1    1    2    0    0 -0.10007198808E+03  0.34479731255E+02  0.47166903109E+03  0.48339935945E+03  0.10566000000E+00 0. -1.
        994    1    1    2    0    0  0.72141082345E+02  0.52719781425E+02  0.42576322467E+02  0.19775210328E+03  0.17120000000E+03 0.  0.
        998    1    1    2    0    0  0.27930905732E+02 -0.87199512679E+02  0.98575464272E+03  0.99004853727E+03  0.10000000000E+02 0. -1.
</event>
<event>
 5    1  0.1440459E-008  0.3839025E+03  0.7957747E-01  0.3434340E+00
         13   -1    0    0    0    0  0.00000000000E+00  0.00000000000E+00  0.14999999963E+04  0.15000000000E+04  0.10566000000E+00 0.  1.
        994   -1    0    0    0    0 -0.00000000000E+00 -0.00000000000E+00  0.11368683772E-12  0.17120000000E+03  0.17120000000E+03 0.  0.
         13    1    1    2    0    0 -0.53564463070E+01 -0.10519901360E+02  0.31832078760E+02  0.33950732597E+02  0.10566000000E+00 0.  1.
        994    1    1    2    0    0  0.71279340583E+01  0.17067202121E+01  0.23533048476E+01  0.17137298031E+03  0.17120000000E+03 0.  0.
        998    1    1    2    0    0 -0.17714877512E+01  0.88131811481E+01  0.14658146127E+04  0.14658762871E+04  0.10000000000E+02 0.  1.
</event>
<event>
 5    1  0.1440459E-008  0.3847812E+03  0.7957747E-01  0.3430601E+00
         13   -1    0    0    0    0  0.00000000000E+00  0.00000000000E+00  0.14999999963E+04  0.15000000000E+04  0.10566000000E+00 0. -1.
        994   -1    0    0    0    0 -0.00000000000E+00 -0.00000000000E+00  0.11368683772E-12  0.17120000000E+03  0.17120000000E+03 0.  0.
         13    1    1    2    0    0  0.55255112998E+01  0.87422113389E+01  0.29873220691E+02  0.31612940590E+02  0.10566000000E+00 0. -1.
        994    1    1    2    0    0 -0.31119122549E+01 -0.11584900204E+02  0.22125119313E+01  0.17163399756E+03  0.17120000000E+03 0.  0.
        998    1    1    2    0    0 -0.24135990449E+01  0.28426888653E+01  0.14679142637E+04  0.14679530618E+04  0.10000000000E+02 0. -1.
</event>
<event>
 5    1  0.1440459E-008  0.3831752E+03  0.7957747E-01  0.3437448E+00
         13   -1    0    0    0    0  0.00000000000E+00  0.00000000000E+00  0.14999999963E+04  0.15000000000E+04  0.10566000000E+00 0.  1.
        994   -1    0    0    0    0 -0.00000000000E+00 -0.00000000000E+00  0.11368683772E-12  0.17120000000E+03  0.17120000000E+03 0.  0.
         13    1    1    2    0    0 -0.24454299958E+02  0.18924774043E+00  0.10411341801E+03  0.10694701293E+03  0.10566000000E+00 0.  1.
        994    1    1    2    0    0  0.34156279099E+02  0.22504418371E+02  0.80936161334E+01  0.17620455973E+03  0.17120000000E+03 0.  0.
        998    1    1    2    0    0 -0.97019791409E+01 -0.22693666112E+02  0.13877929621E+04  0.13880484273E+04  0.10000000000E+02 0.  1.
</event>
<event>
 5    1  0.1440459E-008  0.3843205E+03  0.7957747E-01  0.3432559E+00
         13   -1    0    0    0    0  0.00000000000E+00  0.00000000000E+00  0.14999999963E+04  0.15000000000E+04  0.10566000000E+00 0. -1.
        994   -1    0    0    0    0 -0.00000000000E+00 -0.00000000000E+00  0.11368683772E-12  0.17120000000E+03  0.17120000000E+03 0.  0.
         13    1    1    2    0    0  0.14260021723E+02  0.78708573241E+01  0.67085290545E+02  0.69034382638E+02  0.10566000000E+00 0. -1.
        994    1    1    2    0    0 -0.64594096633E+01 -0.10466057948E+02  0.24665894662E+01  0.17165892463E+03  0.17120000000E+03 0.  0.
        998    1    1    2    0    0 -0.78006120601E+01  0.25952006237E+01  0.14304481163E+04  0.14305066927E+04  0.10000000000E+02 0. -1.
</event>
<event>
 5    1  0.1440459E-008  0.3822873E+03  0.7957747E-01  0.3441259E+00
         13   -1    0    0    0    0  0.00000000000E+00  0.00000000000E+00  0.14999999963E+04  0.15000000000E+04  0.10566000000E+00 0. -1.
        994   -1    0    0    0    0 -0.00000000000E+00 -0.00000000000E+00  0.11368683772E-12  0.17120000000E+03  0.17120000000E+03 0.  0.
         13    1    1    2    0    0  0.59104376262E+01  0.18418796319E+02  0.68248521992E+02  0.70936994924E+02  0.10566000000E+00 0. -1.
        994    1    1    2    0    0  0.52391149070E+00  0.77399023370E+01  0.31826490589E+01  0.17140522112E+03  0.17120000000E+03 0.  0.
        998    1    1    2    0    0 -0.64343491169E+01 -0.26158698656E+02  0.14285688252E+04  0.14288577840E+04  0.10000000000E+02 0. -1.
</event>
<event>
 5    1  0.1440459E-008  0.3800692E+03  0.7957747E-01  0.3450857E+00
         13   -1    0    0    0    0  0.00000000000E+00  0.00000000000E+00  0.14999999963E+04  0.15000000000E+04  0.10566000000E+00 0. -1.
        994   -1    0    0    0    0 -0.00000000000E+00 -0.00000000000E+00  0.11368683772E-12  0.17120000000E+03  0.17120000000E+03 0.  0.
         13    1    1    2    0    0  0.44609851128E+02 -0.53257036477E+02  0.13162854042E+03  0.14883693954E+03  0.10566000000E+00 0. -1.
        994    1    1    2    0    0 -0.47919901851E+02  0.46692055386E+02  0.32774610219E+02  0.18670854320E+03  0.17120000000E+03 0.  0.
        998    1    1    2    0    0  0.33100507227E+01  0.65649810910E+01  0.13355968456E+04  0.13356545173E+04  0.10000000000E+02 0. -1.
</event>
<event>
 5    1  0.1440459E-008  0.3842152E+03  0.7957747E-01  0.3433007E+00
         13   -1    0    0    0    0  0.00000000000E+00  0.00000000000E+00  0.14999999963E+04  0.15000000000E+04  0.10566000000E+00 0. -1.
        994   -1    0    0    0    0 -0.00000000000E+00 -0.00000000000E+00  0.11368683772E-12  0.17120000000E+03  0.17120000000E+03 0.  0.
         13    1    1    2    0    0 -0.24624597009E+01 -0.13810118419E+02  0.50606841143E+02  0.52515203637E+02  0.10566000000E+00 0. -1.
        994    1    1    2    0    0 -0.11250221390E+02  0.23812751035E+01  0.24563771889E+01  0.17160335586E+03  0.17120000000E+03 0.  0.
        998    1    1    2    0    0  0.13712681091E+02  0.11428843316E+02  0.14469367779E+04  0.14470814405E+04  0.10000000000E+02 0. -1.
</event>
<event>
 5    1  0.1440459E-008  0.3736628E+03  0.7957747E-01  0.3479225E+00
         13   -1    0    0    0    0  0.00000000000E+00  0.00000000000E+00  0.14999999963E+04  0.15000000000E+04  0.10566000000E+00 0.  1.
        994   -1    0    0    0    0 -0.00000000000E+00 -0.00000000000E+00  0.11368683772E-12  0.17120000000E+03  0.17120000000E+03 0.  0.
         13    1    1    2    0    0 -0.54166597654E+01 -0.27105047485E+02  0.49364640867E+02  0.56576521050E+02  0.10566000000E+00 0.  1.
        994    1    1    2    0    0  0.14240469805E+01  0.15783937617E+02  0.82250855280E+01  0.17212859329E+03  0.17120000000E+03 0.  0.
        998    1    1    2    0    0  0.39926127849E+01  0.11321109868E+02  0.14424102699E+04  0.14424948857E+04  0.10000000000E+02 0.  1.
</event>
<event>
 5    1  0.1440459E-008  0.3735627E+03  0.7957747E-01  0.3479676E+00
         13   -1    0    0    0    0  0.00000000000E+00  0.00000000000E+00  0.14999999963E+04  0.15000000000E+04  0.10566000000E+00 0.  1.
        994   -1    0    0    0    0 -0.00000000000E+00 -0.00000000000E+00  0.11368683772E-12  0.17120000000E+03  0.17120000000E+03 0.  0.
         13    1    1    2    0    0 -0.42697500709E+01 -0.10397086519E+02  0.49582203797E+01  0.12285165327E+02  0.10566000000E+00 0.  1.
        994    1    1    2    0    0  0.71961918329E+01  0.17102905409E+02  0.85955743572E+01  0.17241699002E+03  0.17120000000E+03 0.  0.
        998    1    1    2    0    0 -0.29264417620E+01 -0.67058188900E+01  0.14864462015E+04  0.14864978446E+04  0.10000000000E+02 0.  1.
</event>
<event>
 5    1  0.1440459E-008  0.3857725E+03  0.7957747E-01  0.3426403E+00
         13   -1    0    0    0    0  0.00000000000E+00  0.00000000000E+00  0.14999999963E+04  0.15000000000E+04  0.10566000000E+00 0. -1.
        994   -1    0    0    0    0 -0.00000000000E+00 -0.00000000000E+00  0.11368683772E-12  0.17120000000E+03  0.17120000000E+03 0.  0.
         13    1    1    2    0    0  0.43818662483E+00 -0.11764160164E+02  0.57571458282E+02  0.58762840679E+02  0.10566000000E+00 0. -1.
        994    1    1    2    0    0 -0.52019661137E+01  0.37310347466E+01  0.13815549301E+01  0.17132521637E+03  0.17120000000E+03 0.  0.
        998    1    1    2    0    0  0.47637794889E+01  0.80331254170E+01  0.14410469831E+04  0.14411119429E+04  0.10000000000E+02 0. -1.
</event>
<event>
 5    1  0.1440459E-008  0.3831303E+03  0.7957747E-01  0.3437641E+00
         13   -1    0    0    0    0  0.00000000000E+00  0.00000000000E+00  0.14999999963E+04  0.15000000000E+04  0.10566000000E+00 0. -1.
        994   -1    0    0    0    0 -0.00000000000E+00 -0.00000000000E+00  0.11368683772E-12  0.17120000000E+03  0.17120000000E+03 0.  0.
         13    1    1    2    0    0 -0.20777870747E+02 -0.30917265712E+01  0.88572512498E+02  0.91029554652E+02  0.10566000000E+00 0. -1.
        994    1    1    2    0    0  0.80574476113E+01 -0.47414247719E+01  0.28505192862E+01  0.17147877137E+03  0.17120000000E+03 0.  0.
        998    1    1    2    0    0  0.12720423136E+02  0.78331513431E+01  0.14085769645E+04  0.14086916740E+04  0.10000000000E+02 0. -1.
</event>
<event>
 5    1  0.1440459E-008  0.3740654E+03  0.7957747E-01  0.3477413E+00
         13   -1    0    0    0    0  0.00000000000E+00  0.00000000000E+00  0.14999999963E+04  0.15000000000E+04  0.10566000000E+00 0.  1.
        994   -1    0    0    0    0 -0.00000000000E+00 -0.00000000000E+00  0.11368683772E-12  0.17120000000E+03  0.17120000000E+03 0.  0.
         13    1    1    2    0    0 -0.17284906878E+02  0.13566041789E+02  0.30470135983E+02  0.37566552231E+02  0.10566000000E+00 0.  1.
        994    1    1    2    0    0  0.15035869462E+02 -0.11365799142E+02  0.83717922534E+01  0.17243777332E+03  0.17120000000E+03 0.  0.
        998    1    1    2    0    0  0.22490374158E+01 -0.22002426472E+01  0.14611580680E+04  0.14611956745E+04  0.10000000000E+02 0.  1.
</event>
<event>
 5    1  0.1440459E-008  0.3800778E+03  0.7957747E-01  0.3450820E+00
         13   -1    0    0    0    0  0.00000000000E+00  0.00000000000E+00  0.14999999963E+04  0.15000000000E+04  0.10566000000E+00 0. -1.
        994   -1    0    0    0    0 -0.00000000000E+00 -0.00000000000E+00  0.11368683772E-12  0.17120000000E+03  0.17120000000E+03 0.  0.
         13    1    1    2    0    0  0.13574569885E+02  0.48683630210E+01  0.23461733982E+02  0.27539681035E+02  0.10566000000E+00 0. -1.
        994    1    1    2    0    0 -0.13691750829E+02 -0.32553795937E+01  0.47561107701E+01  0.17184330690E+03  0.17120000000E+03 0.  0.
        998    1    1    2    0    0  0.11718094418E+00 -0.16129834273E+01  0.14717821515E+04  0.14718170121E+04  0.10000000000E+02 0. -1.
</event>
<event>
 5    1  0.1440459E-008  0.3847647E+03  0.7957747E-01  0.3430671E+00
         13   -1    0    0    0    0  0.00000000000E+00  0.00000000000E+00  0.14999999963E+04  0.15000000000E+04  0.10566000000E+00 0. -1.
        994   -1    0    0    0    0 -0.00000000000E+00 -0.00000000000E+00  0.11368683772E-12  0.17120000000E+03  0.17120000000E+03 0.  0.
         13    1    1    2    0    0 -0.96715566937E+01  0.71993163901E+01  0.41091308497E+02  0.42823778014E+02  0.10566000000E+00 0. -1.
        994    1    1    2    0    0  0.61993743634E+01 -0.76931875849E+01  0.20683411312E+01  0.17149733354E+03  0.17120000000E+03 0.  0.
        998    1    1    2    0    0  0.34721823303E+01  0.49387119482E+00  0.14568403467E+04  0.14568788884E+04  0.10000000000E+02 0. -1.
</event>
<event>
 5    1  0.1440459E-008  0.3792990E+03  0.7957747E-01  0.3454217E+00
         13   -1    0    0    0    0  0.00000000000E+00  0.00000000000E+00  0.14999999963E+04  0.15000000000E+04  0.10566000000E+00 0. -1.
        994   -1    0    0    0    0 -0.00000000000E+00 -0.00000000000E+00  0.11368683772E-12  0.17120000000E+03  0.17120000000E+03 0.  0.
         13    1    1    2    0    0  0.24193690887E+01  0.42948892701E+02  0.19849782017E+03  0.20310553047E+03  0.10566000000E+00 0. -1.
        994    1    1    2    0    0  0.44104069789E+01 -0.29487812699E+02  0.74718703691E+01  0.17393749347E+03  0.17120000000E+03 0.  0.
        998    1    1    2    0    0 -0.68297760676E+01 -0.13461080002E+02  0.12940303057E+04  0.12941569761E+04  0.10000000000E+02 0. -1.
</event>
<event>
 5    1  0.1440459E-008  0.3801140E+03  0.7957747E-01  0.3450662E+00
         13   -1    0    0    0    0  0.00000000000E+00  0.00000000000E+00  0.14999999963E+04  0.15000000000E+04  0.10566000000E+00 0. -1.
        994   -1    0    0    0    0 -0.00000000000E+00 -0.00000000000E+00  0.11368683772E-12  0.17120000000E+03  0.17120000000E+03 0.  0.
         13    1    1    2    0    0  0.41810828994E+02  0.65178406563E+00  0.24013908182E+03  0.24375266158E+03  0.10566000000E+00 0. -1.
        994    1    1    2    0    0 -0.10133693743E+02  0.88970943584E+01  0.46834997192E+01  0.17179413612E+03  0.17120000000E+03 0.  0.
        998    1    1    2    0    0 -0.31677135251E+02 -0.95488784240E+01  0.12551774147E+04  0.12556532023E+04  0.10000000000E+02 0. -1.
</event>
<event>
 5    1  0.1440459E-008  0.3770620E+03  0.7957747E-01  0.3464052E+00
         13   -1    0    0    0    0  0.00000000000E+00  0.00000000000E+00  0.14999999963E+04  0.15000000000E+04  0.10566000000E+00 0. -1.
        994   -1    0    0    0    0 -0.00000000000E+00 -0.00000000000E+00  0.11368683772E-12  0.17120000000E+03  0.17120000000E+03 0.  0.
         13    1    1    2    0    0  0.12988427766E+02 -0.55272206286E+01  0.42179177393E+00  0.14122269508E+02  0.10566000000E+00 0. -1.
        994    1    1    2    0    0  0.23376472447E+02 -0.40165003294E+02  0.22505515628E+02  0.17881729555E+03  0.17120000000E+03 0.  0.
        998    1    1    2    0    0 -0.36364900213E+02  0.45692223922E+02  0.14770726889E+04  0.14782604349E+04  0.10000000000E+02 0. -1.
</event>
<event>
 5    1  0.1440459E-008  0.3767044E+03  0.7957747E-01  0.3465635E+00
         13   -1    0    0    0    0  0.00000000000E+00  0.00000000000E+00  0.14999999963E+04  0.15000000000E+04  0.10566000000E+00 0. -1.
        994   -1    0    0    0    0 -0.00000000000E+00 -0.00000000000E+00  0.11368683772E-12  0.17120000000E+03  0.17120000000E+03 0.  0.
         13    1    1    2    0    0 -0.88037424705E+01 -0.14181734297E+02  0.21411539428E+02  0.27149450342E+02  0.10566000000E+00 0. -1.
        994    1    1    2    0    0  0.70422743013E+01  0.11980510556E+02  0.64590843310E+01  0.17188451364E+03  0.17120000000E+03 0.  0.
        998    1    1    2    0    0  0.17614681693E+01  0.22012237413E+01  0.14721293725E+04  0.14721660360E+04  0.10000000000E+02 0. -1.
</event>
<event>
 5    1  0.1440459E-008  0.3813994E+03  0.7957747E-01  0.3445088E+00
         13   -1    0    0    0    0  0.00000000000E+00  0.00000000000E+00  0.14999999963E+04  0.15000000000E+04  0.10566000000E+00 0.  1.
        994   -1    0    0    0    0 -0.00000000000E+00 -0.00000000000E+00  0.11368683772E-12  0.17120000000E+03  0.17120000000E+03 0.  0.
         13    1    1    2    0    0 -0.24059603157E+02 -0.23799960474E+01  0.85574814552E+02  0.88924625020E+02  0.10566000000E+00 0.  1.
        994    1    1    2    0    0  0.11597878765E+02  0.14147955699E+01  0.38827814877E+01  0.17164215225E+03  0.17120000000E+03 0.  0.
        998    1    1    2    0    0  0.12461724391E+02  0.96520047748E+00  0.14105424002E+04  0.14106332227E+04  0.10000000000E+02 0.  1.
</event>
<event>
 5    1  0.1440459E-008  0.3729933E+03  0.7957747E-01  0.3482246E+00
         13   -1    0    0    0    0  0.00000000000E+00  0.00000000000E+00  0.14999999963E+04  0.15000000000E+04  0.10566000000E+00 0.  1.
        994   -1    0    0    0    0 -0.00000000000E+00 -0.00000000000E+00  0.11368683772E-12  0.17120000000E+03  0.17120000000E+03 0.  0.
         13    1    1    2    0    0  0.19139598178E+02  0.40235499192E+01  0.21856526641E+02  0.29329713487E+02  0.10566000000E+00 0.  1.
        994    1    1    2    0    0 -0.58708640024E+01 -0.75688656044E+01  0.80268888388E+01  0.17165554379E+03  0.17120000000E+03 0.  0.
        998    1    1    2    0    0 -0.13268734176E+02  0.35453156853E+01  0.14701165808E+04  0.14702147427E+04  0.10000000000E+02 0.  1.
</event>
<event>
 5    1  0.1440459E-008  0.3784860E+03  0.7957747E-01  0.3457777E+00
         13   -1    0    0    0    0  0.00000000000E+00  0.00000000000E+00  0.14999999963E+04  0.15000000000E+04  0.10566000000E+00 0.  1.
        994   -1    0    0    0    0 -0.00000000000E+00 -0.00000000000E+00  0.11368683772E-12  0.17120000000E+03  0.17120000000E+03 0.  0.
         13    1    1    2    0    0 -0.17642413575E+02  0.39589220597E+01  0.32492177183E+02  0.37184412901E+02  0.10566000000E+00 0.  1.
        994    1    1    2    0    0  0.22200196055E+01  0.66455997561E+01  0.50643239748E+01  0.17141814332E+03  0.17120000000E+03 0.  0.
        998    1    1    2    0    0  0.15422393970E+02 -0.10604521816E+02  0.14624434951E+04  0.14625974438E+04  0.10000000000E+02 0.  1.
</event>
<event>
 5    1  0.1440459E-008  0.3824015E+03  0.7957747E-01  0.3440768E+00
         13   -1    0    0    0    0  0.00000000000E+00  0.00000000000E+00  0.14999999963E+04  0.15000000000E+04  0.10566000000E+00 0.  1.
        994   -1    0    0    0    0 -0.00000000000E+00 -0.00000000000E+00  0.11368683772E-12  0.17120000000E+03  0.17120000000E+03 0.  0.
         13    1    1    2    0    0  0.30111205473E+01  0.24106616381E+02  0.95501366071E+02  0.98542974817E+02  0.10566000000E+00 0.  1.
        994    1    1    2    0    0 -0.10636352270E+01 -0.22880843887E+02  0.46677923094E+01  0.17278857781E+03  0.17120000000E+03 0.  0.
        998    1    1    2    0    0 -0.19474853203E+01 -0.12257724942E+01  0.13998308379E+04  0.13998684474E+04  0.10000000000E+02 0.  1.
</event>
<event>
 5    1  0.1440459E-008  0.3704260E+03  0.7957747E-01  0.3493935E+00
         13   -1    0    0    0    0  0.00000000000E+00  0.00000000000E+00  0.14999999963E+04  0.15000000000E+04  0.10566000000E+00 0. -1.
        994   -1    0    0    0    0 -0.00000000000E+00 -0.00000000000E+00  0.11368683772E-12  0.17120000000E+03  0.17120000000E+03 0.  0.
         13    1    1    2    0    0 -0.18803672298E+03 -0.21764858449E+02  0.74287690973E+03  0.76661439618E+03  0.10566000000E+00 0. -1.
        994    1    1    2    0    0  0.19324813463E+03  0.41192280119E+02  0.15890150681E+03  0.30594243632E+03  0.17120000000E+03 0.  0.
        998    1    1    2    0    0 -0.52114116532E+01 -0.19427421670E+02  0.59822157974E+03  0.59864316750E+03  0.10000000000E+02 0. -1.
</event>
<event>
 5    1  0.1440459E-008  0.3831606E+03  0.7957747E-01  0.3437511E+00
         13   -1    0    0    0    0  0.00000000000E+00  0.00000000000E+00  0.14999999963E+04  0.15000000000E+04  0.10566000000E+00 0. -1.
        994   -1    0    0    0    0 -0.00000000000E+00 -0.00000000000E+00  0.11368683772E-12  0.17120000000E+03  0.17120000000E+03 0.  0.
         13    1    1    2    0    0  0.46252937716E+01 -0.14153694930E+02  0.47807981625E+02  0.50073293219E+02  0.10566000000E+00 0. -1.
        994    1    1    2    0    0  0.22927873578E+02 -0.75760182895E+01  0.44775621539E+01  0.17295251372E+03  0.17120000000E+03 0.  0.
        998    1    1    2    0    0 -0.27553167349E+02  0.21729713219E+02  0.14477144525E+04  0.14481741931E+04  0.10000000000E+02 0. -1.
</event>
<event>
 5    1  0.1440459E-008  0.3714630E+03  0.7957747E-01  0.3489194E+00
         13   -1    0    0    0    0  0.00000000000E+00  0.00000000000E+00  0.14999999963E+04  0.15000000000E+04  0.10566000000E+00 0.  1.
        994   -1    0    0    0    0 -0.00000000000E+00 -0.00000000000E+00  0.11368683772E-12  0.17120000000E+03  0.17120000000E+03 0.  0.
         13    1    1    2    0    0  0.22397259561E+02  0.96228361750E+02  0.55427633497E+03  0.56301314506E+03  0.10566000000E+00 0.  1.
        994    1    1    2    0    0 -0.14748204462E+01 -0.27170991695E+02  0.14320748140E+02  0.17393953464E+03  0.17120000000E+03 0.  0.
        998    1    1    2    0    0 -0.20922439115E+02 -0.69057370055E+02  0.93140291317E+03  0.93424732029E+03  0.10000000000E+02 0. -1.
</event>
<event>
 5    1  0.1440459E-008  0.3849892E+03  0.7957747E-01  0.3429718E+00
         13   -1    0    0    0    0  0.00000000000E+00  0.00000000000E+00  0.14999999963E+04  0.15000000000E+04  0.10566000000E+00 0. -1.
        994   -1    0    0    0    0 -0.00000000000E+00 -0.00000000000E+00  0.11368683772E-12  0.17120000000E+03  0.17120000000E+03 0.  0.
         13    1    1    2    0    0 -0.32408937031E+01  0.14313457446E+02  0.67522138049E+02  0.69098688459E+02  0.10566000000E+00 0. -1.
        994    1    1    2    0    0  0.44338448807E+01 -0.49576437807E+01  0.17809862309E+01  0.17133840528E+03  0.17120000000E+03 0.  0.
        998    1    1    2    0    0 -0.11929511777E+01 -0.93558136649E+01  0.14306968720E+04  0.14307629063E+04  0.10000000000E+02 0. -1.
</event>
<event>
 5    1  0.1440459E-008  0.3694837E+03  0.7957747E-01  0.3498267E+00
         13   -1    0    0    0    0  0.00000000000E+00  0.00000000000E+00  0.14999999963E+04  0.15000000000E+04  0.10566000000E+00 0.  1.
        994   -1    0    0    0    0 -0.00000000000E+00 -0.00000000000E+00  0.11368683772E-12  0.17120000000E+03  0.17120000000E+03 0.  0.
         13    1    1    2    0    0  0.11310007946E+02  0.14524998108E+01  0.23577935592E+01  0.11644586294E+02  0.10566000000E+00 0.  1.
        994    1    1    2    0    0 -0.11621543145E+02  0.48499169383E+00  0.10007978765E+02  0.17188628544E+03  0.17120000000E+03 0.  0.
        998    1    1    2    0    0  0.31153519816E+00 -0.19374915046E+01  0.14876342240E+04  0.14876691283E+04  0.10000000000E+02 0.  1.
</event>
<event>
 5    1  0.1440459E-008  0.3859570E+03  0.7957747E-01  0.3425623E+00
         13   -1    0    0    0    0  0.00000000000E+00  0.00000000000E+00  0.14999999963E+04  0.15000000000E+04  0.10566000000E+00 0. -1.
        994   -1    0    0    0    0 -0.00000000000E+00 -0.00000000000E+00  0.11368683772E-12  0.17120000000E+03  0.17120000000E+03 0.  0.
         13    1    1    2    0    0  0.75064965300E+01 -0.11565628204E+02  0.74311872087E+02  0.75580266889E+02  0.10566000000E+00 0. -1.
        994    1    1    2    0    0  0.24450404206E+01  0.30168754580E+02  0.41650273316E+01  0.17390491491E+03  0.17120000000E+03 0.  0.
        998    1    1    2    0    0 -0.99515369506E+01 -0.18603126376E+02  0.14215230969E+04  0.14217148182E+04  0.10000000000E+02 0. -1.
</event>
<event>
 5    1  0.1440459E-008  0.3714741E+03  0.7957747E-01  0.3489144E+00
         13   -1    0    0    0    0  0.00000000000E+00  0.00000000000E+00  0.14999999963E+04  0.15000000000E+04  0.10566000000E+00 0. -1.
        994   -1    0    0    0    0 -0.00000000000E+00 -0.00000000000E+00  0.11368683772E-12  0.17120000000E+03  0.17120000000E+03 0.  0.
         13    1    1    2    0    0  0.77223631069E+02  0.15526836811E+03  0.98698740307E+03  0.10021057331E+04  0.10566000000E+00 0. -1.
        994    1    1    2    0    0 -0.69967954406E+02 -0.12780906814E+03  0.85497547002E+02  0.24052015110E+03  0.17120000000E+03 0.  0.
        998    1    1    2    0    0 -0.72556766630E+01 -0.27459299973E+02  0.42751504621E+03  0.42857411580E+03  0.10000000000E+02 0. -1.
</event>
<event>
 5    1  0.1440459E-008  0.3834851E+03  0.7957747E-01  0.3436123E+00
         13   -1    0    0    0    0  0.00000000000E+00  0.00000000000E+00  0.14999999963E+04  0.15000000000E+04  0.10566000000E+00 0.  1.
        994   -1    0    0    0    0 -0.00000000000E+00 -0.00000000000E+00  0.11368683772E-12  0.17120000000E+03  0.17120000000E+03 0.  0.
         13    1    1    2    0    0 -0.27970444514E+02 -0.63501985367E+00  0.16046364605E+03  0.16288444335E+03  0.10566000000E+00 0.  1.
        994    1    1    2    0    0  0.18993620307E+02 -0.22224571869E+01  0.35936430839E+01  0.17230220892E+03  0.17120000000E+03 0.  0.
        998    1    1    2    0    0  0.89768242068E+01  0.28574770405E+01  0.13359427071E+04  0.13360133477E+04  0.10000000000E+02 0.  1.
</event>
<event>
 5    1  0.1440459E-008  0.3744648E+03  0.7957747E-01  0.3475620E+00
         13   -1    0    0    0    0  0.00000000000E+00  0.00000000000E+00  0.14999999963E+04  0.15000000000E+04  0.10566000000E+00 0. -1.
        994   -1    0    0    0    0 -0.00000000000E+00 -0.00000000000E+00  0.11368683772E-12  0.17120000000E+03  0.17120000000E+03 0.  0.
         13    1    1    2    0    0  0.13468942879E+02  0.14863823811E+02  0.89774079850E+01  0.21976139304E+02  0.10566000000E+00 0. -1.
        994    1    1    2    0    0 -0.48709482755E+02  0.14356429464E+02  0.22535002466E+02  0.17998885275E+03  0.17120000000E+03 0.  0.
        998    1    1    2    0    0  0.35240539876E+02 -0.29220253275E+02  0.14684875858E+04  0.14692350079E+04  0.10000000000E+02 0. -1.
</event>
<event>
 5    1  0.1440459E-008  0.3712641E+03  0.7957747E-01  0.3490101E+00
         13   -1    0    0    0    0  0.00000000000E+00  0.00000000000E+00  0.14999999963E+04  0.15000000000E+04  0.10566000000E+00 0.  1.
        994   -1    0    0    0    0 -0.00000000000E+00 -0.00000000000E+00  0.11368683772E-12  0.17120000000E+03  0.17120000000E+03 0.  0.
         13    1    1    2    0    0  0.18631051607E+02 -0.56830546257E+01  0.18000814937E+02  0.26522701528E+02  0.10566000000E+00 0.  1.
        994    1    1    2    0    0 -0.19724076069E+02  0.91446729372E+01  0.10238715676E+02  0.17287838361E+03  0.17120000000E+03 0.  0.
        998    1    1    2    0    0  0.10930244615E+01 -0.34616183114E+01  0.14717604657E+04  0.14717989149E+04  0.10000000000E+02 0.  1.
</event>
<event>
 5    1  0.1440459E-008  0.3827370E+03  0.7957747E-01  0.3439327E+00
         13   -1    0    0    0    0  0.00000000000E+00  0.00000000000E+00  0.14999999963E+04  0.15000000000E+04  0.10566000000E+00 0.  1.
        994   -1    0    0    0    0 -0.00000000000E+00 -0.00000000000E+00  0.11368683772E-12  0.17120000000E+03  0.17120000000E+03 0.  0.
         13    1    1    2    0    0  0.46034413141E+01  0.31121722426E+02  0.17155449236E+03  0.17441533273E+03  0.10566000000E+00 0.  1.
        994    1    1    2    0    0  0.62223986755E+01 -0.24806336544E+02  0.49278008359E+01  0.17316984668E+03  0.17120000000E+03 0.  0.
        998    1    1    2    0    0 -0.10825839990E+02 -0.63153858823E+01  0.13235177031E+04  0.13236148206E+04  0.10000000000E+02 0.  1.
</event>
<event>
 5    1  0.1440459E-008  0.4137864E+03  0.7957747E-01  0.3316066E+00
         13   -1    0    0    0    0  0.00000000000E+00  0.00000000000E+00  0.14999999963E+04  0.15000000000E+04  0.10566000000E+00 0.  1.
        994   -1    0    0    0    0 -0.00000000000E+00 -0.00000000000E+00  0.11368683772E-12  0.17120000000E+03  0.17120000000E+03 0.  0.
         13    1    1    2    0    0 -0.13144091719E+03  0.29950251645E+02  0.26735459833E+03  0.29941981347E+03  0.10566000000E+00 0.  1.
        994    1    1    2    0    0  0.84392088182E+02  0.85300367691E+02  0.99075263827E+02  0.23135151864E+03  0.17120000000E+03 0.  0.
        998    1    1    2    0    0  0.47048829010E+02 -0.11525061934E+03  0.11335701341E+04  0.11404286679E+04  0.10000000000E+02 0.  1.
</event>
<event>
 5    1  0.1440459E-008  0.3832325E+03  0.7957747E-01  0.3437203E+00
         13   -1    0    0    0    0  0.00000000000E+00  0.00000000000E+00  0.14999999963E+04  0.15000000000E+04  0.10566000000E+00 0.  1.
        994   -1    0    0    0    0 -0.00000000000E+00 -0.00000000000E+00  0.11368683772E-12  0.17120000000E+03  0.17120000000E+03 0.  0.
         13    1    1    2    0    0 -0.61089875902E+01 -0.26509981802E+02  0.14483440154E+03  0.14736727554E+03  0.10566000000E+00 0.  1.
        994    1    1    2    0    0 -0.15349876174E+00  0.18512291967E+02  0.36446523406E+01  0.17223661633E+03  0.17120000000E+03 0.  0.
        998    1    1    2    0    0  0.62624863519E+01  0.79976898352E+01  0.13515209424E+04  0.13515961081E+04  0.10000000000E+02 0.  1.
</event>
<event>
 5    1  0.1440459E-008  0.3794595E+03  0.7957747E-01  0.3453515E+00
         13   -1    0    0    0    0  0.00000000000E+00  0.00000000000E+00  0.14999999963E+04  0.15000000000E+04  0.10566000000E+00 0.  1.
        994   -1    0    0    0    0 -0.00000000000E+00 -0.00000000000E+00  0.11368683772E-12  0.17120000000E+03  0.17120000000E+03 0.  0.
         13    1    1    2    0    0 -0.29991006138E+02  0.21564009225E+02  0.14775838075E+03  0.15230567024E+03  0.10566000000E+00 0.  1.
        994    1    1    2    0    0  0.23915825235E+02 -0.14392917758E+02  0.70198209007E+01  0.17360253646E+03  0.17120000000E+03 0.  0.
        998    1    1    2    0    0  0.60751809035E+01 -0.71710914672E+01  0.13452217946E+04  0.13452917933E+04  0.10000000000E+02 0.  1.
</event>
<event>
 5    1  0.1440459E-008  0.3820113E+03  0.7957747E-01  0.3442448E+00
         13   -1    0    0    0    0  0.00000000000E+00  0.00000000000E+00  0.14999999963E+04  0.15000000000E+04  0.10566000000E+00 0.  1.
        994   -1    0    0    0    0 -0.00000000000E+00 -0.00000000000E+00  0.11368683772E-12  0.17120000000E+03  0.17120000000E+03 0.  0.
         13    1    1    2    0    0  0.16872107044E+01 -0.26006313692E+02  0.13173093277E+03  0.13428411986E+03  0.10566000000E+00 0.  1.
        994    1    1    2    0    0  0.43690339666E+00 -0.13080924631E+02  0.36903798630E+01  0.17173922201E+03  0.17120000000E+03 0.  0.
        998    1    1    2    0    0 -0.21241141010E+01  0.39087238323E+02  0.13645786836E+04  0.13651766581E+04  0.10000000000E+02 0.  1.
</event>
<event>
 5    1  0.1440459E-008  0.3808960E+03  0.7957747E-01  0.3447266E+00
         13   -1    0    0    0    0  0.00000000000E+00  0.00000000000E+00  0.14999999963E+04  0.15000000000E+04  0.10566000000E+00 0. -1.
        994   -1    0    0    0    0 -0.00000000000E+00 -0.00000000000E+00  0.11368683772E-12  0.17120000000E+03  0.17120000000E+03 0.  0.
         13    1    1    2    0    0 -0.10090885733E+03  0.31137956050E+02  0.63134441666E+03  0.64011557817E+03  0.10566000000E+00 0. -1.
        994    1    1    2    0    0  0.13653175392E+03  0.13918884089E+01  0.68543478711E+02  0.22945697997E+03  0.17120000000E+03 0.  0.
        998    1    1    2    0    0 -0.35622896589E+02 -0.32529844459E+02  0.80011210090E+03  0.80162744187E+03  0.10000000000E+02 0. -1.
</event>
<event>
 5    1  0.1440459E-008  0.3846170E+03  0.7957747E-01  0.3431298E+00
         13   -1    0    0    0    0  0.00000000000E+00  0.00000000000E+00  0.14999999963E+04  0.15000000000E+04  0.10566000000E+00 0. -1.
        994   -1    0    0    0    0 -0.00000000000E+00 -0.00000000000E+00  0.11368683772E-12  0.17120000000E+03  0.17120000000E+03 0.  0.
         13    1    1    2    0    0 -0.11574088847E+02  0.14770194466E+02  0.10000971497E+03  0.10175496268E+03  0.10566000000E+00 0. -1.
        994    1    1    2    0    0  0.67391191625E+01 -0.39422383130E+01  0.20211564223E+01  0.17138985397E+03  0.17120000000E+03 0.  0.
        998    1    1    2    0    0  0.48349696849E+01 -0.10827956153E+02  0.13979691249E+04  0.13980551833E+04  0.10000000000E+02 0. -1.
</event>
<event>
 5    1  0.1440459E-008  0.3840956E+03  0.7957747E-01  0.3433517E+00
         13   -1    0    0    0    0  0.00000000000E+00  0.00000000000E+00  0.14999999963E+04  0.15000000000E+04  0.10566000000E+00 0. -1.
        994   -1    0    0    0    0 -0.00000000000E+00 -0.00000000000E+00  0.11368683772E-12  0.17120000000E+03  0.17120000000E+03 0.  0.
         13    1    1    2    0    0 -0.96479517188E+01 -0.93290136891E+01  0.46659749027E+02  0.48551589182E+02  0.10566000000E+00 0. -1.
        994    1    1    2    0    0 -0.22236122916E+02  0.11407698561E+02  0.41426193932E+01  0.17306409808E+03  0.17120000000E+03 0.  0.
        998    1    1    2    0    0  0.31884074635E+02 -0.20786848717E+01  0.14491976279E+04  0.14495843127E+04  0.10000000000E+02 0. -1.
</event>
<event>
 5    1  0.1440459E-008  0.3775627E+03  0.7957747E-01  0.3461840E+00
         13   -1    0    0    0    0  0.00000000000E+00  0.00000000000E+00  0.14999999963E+04  0.15000000000E+04  0.10566000000E+00 0. -1.
        994   -1    0    0    0    0 -0.00000000000E+00 -0.00000000000E+00  0.11368683772E-12  0.17120000000E+03  0.17120000000E+03 0.  0.
         13    1    1    2    0    0 -0.15965538074E+02  0.50249808801E+02  0.23132640822E+03  0.23725905672E+03  0.10566000000E+00 0. -1.
        994    1    1    2    0    0  0.13581773955E+02 -0.43168571808E+02  0.12301736037E+02  0.17750707841E+03  0.17120000000E+03 0.  0.
        998    1    1    2    0    0  0.23837641191E+01 -0.70812369932E+01  0.12563718520E+04  0.12564338649E+04  0.10000000000E+02 0. -1.
</event>
<event>
 5    1  0.1440459E-008  0.3747603E+03  0.7957747E-01  0.3474296E+00
         13   -1    0    0    0    0  0.00000000000E+00  0.00000000000E+00  0.14999999963E+04  0.15000000000E+04  0.10566000000E+00 0. -1.
        994   -1    0    0    0    0 -0.00000000000E+00 -0.00000000000E+00  0.11368683772E-12  0.17120000000E+03  0.17120000000E+03 0.  0.
         13    1    1    2    0    0 -0.18981262933E+02 -0.63016097908E+01  0.26055778703E+02  0.32846817142E+02  0.10566000000E+00 0. -1.
        994    1    1    2    0    0  0.20129759268E+02  0.71140693761E+01  0.83540736901E+01  0.17272824824E+03  0.17120000000E+03 0.  0.
        998    1    1    2    0    0 -0.11484963355E+01 -0.81245958527E+00  0.14655901439E+04  0.14656249346E+04  0.10000000000E+02 0. -1.
</event>
<event>
 5    1  0.1440459E-008  0.3704696E+03  0.7957747E-01  0.3493736E+00
         13   -1    0    0    0    0  0.00000000000E+00  0.00000000000E+00  0.14999999963E+04  0.15000000000E+04  0.10566000000E+00 0. -1.
        994   -1    0    0    0    0 -0.00000000000E+00 -0.00000000000E+00  0.11368683772E-12  0.17120000000E+03  0.17120000000E+03 0.  0.
         13    1    1    2    0    0 -0.75682696579E+02 -0.74520047510E+01  0.28477337578E+03  0.29475292984E+03  0.10566000000E+00 0. -1.
        994    1    1    2    0    0  0.59509340219E+02  0.21131764615E+02  0.22918933548E+02  0.18390929983E+03  0.17120000000E+03 0.  0.
        998    1    1    2    0    0  0.16173356360E+02 -0.13679759864E+02  0.11923076870E+04  0.11925377703E+04  0.10000000000E+02 0. -1.
</event>
<event>
 5    1  0.1440459E-008  0.3863253E+03  0.7957747E-01  0.3424071E+00
         13   -1    0    0    0    0  0.00000000000E+00  0.00000000000E+00  0.14999999963E+04  0.15000000000E+04  0.10566000000E+00 0. -1.
        994   -1    0    0    0    0 -0.00000000000E+00 -0.00000000000E+00  0.11368683772E-12  0.17120000000E+03  0.17120000000E+03 0.  0.
         13    1    1    2    0    0 -0.67257468729E+01  0.76935275271E+01  0.55488309680E+02  0.56421535888E+02  0.10566000000E+00 0. -1.
        994    1    1    2    0    0  0.55711357797E+01 -0.14294624620E+01  0.10819195657E+01  0.17130000428E+03  0.17120000000E+03 0.  0.
        998    1    1    2    0    0  0.11546110932E+01 -0.62640650651E+01  0.14434297670E+04  0.14434784598E+04  0.10000000000E+02 0. -1.
</event>
<event>
 5    1  0.1440459E-008  0.3696964E+03  0.7957747E-01  0.3497287E+00
         13   -1    0    0    0    0  0.00000000000E+00  0.00000000000E+00  0.14999999963E+04  0.15000000000E+04  0.10566000000E+00 0.  1.
        994   -1    0    0    0    0 -0.00000000000E+00 -0.00000000000E+00  0.11368683772E-12  0.17120000000E+03  0.17120000000E+03 0.  0.
         13    1    1    2    0    0 -0.65471067096E+02  0.87860672749E+02  0.59606156089E+03  0.60604896995E+03  0.10566000000E+00 0.  1.
        994    1    1    2    0    0  0.31293183480E+02 -0.64616438054E+02  0.27487143881E+02  0.18766867207E+03  0.17120000000E+03 0.  0.
        998    1    1    2    0    0  0.34177883616E+02 -0.23244234694E+02  0.87645129151E+03  0.87748235798E+03  0.10000000000E+02 0.  1.
</event>
<event>
 5    1  0.1440459E-008  0.3701986E+03  0.7957747E-01  0.3494978E+00
         13   -1    0    0    0    0  0.00000000000E+00  0.00000000000E+00  0.14999999963E+04  0.15000000000E+04  0.10566000000E+00 0. -1.
        994   -1    0    0    0    0 -0.00000000000E+00 -0.00000000000E+00  0.11368683772E-12  0.17120000000E+03  0.17120000000E+03 0.  0.
         13    1    1    2    0    0  0.24411220111E+02  0.60877035113E+02  0.19478235611E+03  0.20552882641E+03  0.10566000000E+00 0. -1.
        994    1    1    2    0    0 -0.62740287497E+02 -0.53919915930E+02  0.33198364384E+02  0.19301624907E+03  0.17120000000E+03 0.  0.
        998    1    1    2    0    0  0.38329067386E+02 -0.69571191824E+01  0.12720192758E+04  0.12726549245E+04  0.10000000000E+02 0. -1.
</event>
<event>
 5    1  0.1440459E-008  0.3814993E+03  0.7957747E-01  0.3444656E+00
         13   -1    0    0    0    0  0.00000000000E+00  0.00000000000E+00  0.14999999963E+04  0.15000000000E+04  0.10566000000E+00 0.  1.
        994   -1    0    0    0    0 -0.00000000000E+00 -0.00000000000E+00  0.11368683772E-12  0.17120000000E+03  0.17120000000E+03 0.  0.
         13    1    1    2    0    0 -0.21688685955E+02  0.15894220167E+02  0.83314339187E+02  0.87546077076E+02  0.10566000000E+00 0.  1.
        994    1    1    2    0    0  0.39623867883E+02 -0.55286719896E+02  0.18924555403E+02  0.18518707055E+03  0.17120000000E+03 0.  0.
        998    1    1    2    0    0 -0.17935181928E+02  0.39392499729E+02  0.13977611017E+04  0.13984668524E+04  0.10000000000E+02 0.  1.
</event>
<event>
 5    1  0.1440459E-008  0.3725021E+03  0.7957747E-01  0.3484470E+00
         13   -1    0    0    0    0  0.00000000000E+00  0.00000000000E+00  0.14999999963E+04  0.15000000000E+04  0.10566000000E+00 0.  1.
        994   -1    0    0    0    0 -0.00000000000E+00 -0.00000000000E+00  0.11368683772E-12  0.17120000000E+03  0.17120000000E+03 0.  0.
         13    1    1    2    0    0  0.70132093983E+02 -0.27657439632E+02  0.20389175403E+03  0.21738284914E+03  0.10566000000E+00 0.  1.
        994    1    1    2    0    0 -0.56976904650E+02  0.42946137968E+02  0.30446519678E+02  0.18795523135E+03  0.17120000000E+03 0.  0.
        998    1    1    2    0    0 -0.13155189332E+02 -0.15288698336E+02  0.12656617226E+04  0.12658619195E+04  0.10000000000E+02 0.  1.
</event>
<event>
 5    1  0.1440459E-008  0.3838623E+03  0.7957747E-01  0.3434512E+00
         13   -1    0    0    0    0  0.00000000000E+00  0.00000000000E+00  0.14999999963E+04  0.15000000000E+04  0.10566000000E+00 0.  1.
        994   -1    0    0    0    0 -0.00000000000E+00 -0.00000000000E+00  0.11368683772E-12  0.17120000000E+03  0.17120000000E+03 0.  0.
         13    1    1    2    0    0  0.13236584171E+02  0.72786478664E+01  0.54653449049E+02  0.56702703042E+02  0.10566000000E+00 0.  1.
        994    1    1    2    0    0  0.67980874607E+01 -0.88072202151E+01  0.26047128738E+01  0.17158090118E+03  0.17120000000E+03 0.  0.
        998    1    1    2    0    0 -0.20034671632E+02  0.15285723487E+01  0.14427418344E+04  0.14429163958E+04  0.10000000000E+02 0.  1.
</event>
<event>
 5    1  0.1440459E-008  0.3711869E+03  0.7957747E-01  0.3490454E+00
         13   -1    0    0    0    0  0.00000000000E+00  0.00000000000E+00  0.14999999963E+04  0.15000000000E+04  0.10566000000E+00 0.  1.
        994   -1    0    0    0    0 -0.00000000000E+00 -0.00000000000E+00  0.11368683772E-12  0.17120000000E+03  0.17120000000E+03 0.  0.
         13    1    1    2    0    0  0.13050889171E+03 -0.27351470217E+02  0.57489216950E+03  0.59015395573E+03  0.10566000000E+00 0.  1.
        994    1    1    2    0    0 -0.13621440975E+03  0.17305431578E+02  0.76666710362E+02  0.23246734795E+03  0.17120000000E+03 0.  0.
        998    1    1    2    0    0  0.57055180417E+01  0.10046038639E+02  0.84844111641E+03  0.84857869632E+03  0.10000000000E+02 0.  1.
</event>
<event>
 5    1  0.1440459E-008  0.3716344E+03  0.7957747E-01  0.3488413E+00
         13   -1    0    0    0    0  0.00000000000E+00  0.00000000000E+00  0.14999999963E+04  0.15000000000E+04  0.10566000000E+00 0. -1.
        994   -1    0    0    0    0 -0.00000000000E+00 -0.00000000000E+00  0.11368683772E-12  0.17120000000E+03  0.17120000000E+03 0.  0.
         13    1    1    2    0    0  0.16755529772E+02 -0.35766930765E+02  0.84776112167E+02  0.93525512415E+02  0.10566000000E+00 0. -1.
        994    1    1    2    0    0 -0.14304090311E+02  0.37828320680E+02  0.14061869836E+02  0.17647312835E+03  0.17120000000E+03 0.  0.
        998    1    1    2    0    0 -0.24514394613E+01 -0.20613899147E+01  0.14011620143E+04  0.14012013592E+04  0.10000000000E+02 0. -1.
</event>
<event>
 5    1  0.1440459E-008  0.3798853E+03  0.7957747E-01  0.3451658E+00
         13   -1    0    0    0    0  0.00000000000E+00  0.00000000000E+00  0.14999999963E+04  0.15000000000E+04  0.10566000000E+00 0. -1.
        994   -1    0    0    0    0 -0.00000000000E+00 -0.00000000000E+00  0.11368683772E-12  0.17120000000E+03  0.17120000000E+03 0.  0.
         13    1    1    2    0    0 -0.55012658617E+02  0.10657888153E+03  0.69022844329E+03  0.70057174200E+03  0.10566000000E+00 0. -1.
        994    1    1    2    0    0  0.66021130503E+02 -0.11671449878E+03  0.66875851272E+02  0.22751457839E+03  0.17120000000E+03 0.  0.
        998    1    1    2    0    0 -0.11008471886E+02  0.10135617252E+02  0.74289570171E+03  0.74311367960E+03  0.10000000000E+02 0. -1.
</event>
<event>
 5    1  0.1440459E-008  0.3722196E+03  0.7957747E-01  0.3485752E+00
         13   -1    0    0    0    0  0.00000000000E+00  0.00000000000E+00  0.14999999963E+04  0.15000000000E+04  0.10566000000E+00 0.  1.
        994   -1    0    0    0    0 -0.00000000000E+00 -0.00000000000E+00  0.11368683772E-12  0.17120000000E+03  0.17120000000E+03 0.  0.
         13    1    1    2    0    0  0.22747887622E+02 -0.56587862723E+02  0.29893238747E+03  0.30509053745E+03  0.10566000000E+00 0.  1.
        994    1    1    2    0    0  0.19950809587E+02  0.52189463364E+01  0.95741365468E+01  0.17270314501E+03  0.17120000000E+03 0.  0.
        998    1    1    2    0    0 -0.42698697209E+02  0.51368916387E+02  0.11914934723E+04  0.11934063175E+04  0.10000000000E+02 0.  1.
</event>
<event>
 5    1  0.1440459E-008  0.3837901E+03  0.7957747E-01  0.3434820E+00
         13   -1    0    0    0    0  0.00000000000E+00  0.00000000000E+00  0.14999999963E+04  0.15000000000E+04  0.10566000000E+00 0.  1.
        994   -1    0    0    0    0 -0.00000000000E+00 -0.00000000000E+00  0.11368683772E-12  0.17120000000E+03  0.17120000000E+03 0.  0.
         13    1    1    2    0    0  0.93921271359E+01  0.13253176523E+02  0.60883347021E+02  0.63013108546E+02  0.10566000000E+00 0.  1.
        994    1    1    2    0    0  0.60932111556E+00 -0.46749547831E+01  0.23053877688E+01  0.17128041712E+03  0.17120000000E+03 0.  0.
        998    1    1    2    0    0 -0.10001448251E+02 -0.85782217403E+01  0.14368112615E+04  0.14369064743E+04  0.10000000000E+02 0.  1.
</event>
<event>
 5    1  0.1440459E-008  0.3822787E+03  0.7957747E-01  0.3441296E+00
         13   -1    0    0    0    0  0.00000000000E+00  0.00000000000E+00  0.14999999963E+04  0.15000000000E+04  0.10566000000E+00 0. -1.
        994   -1    0    0    0    0 -0.00000000000E+00 -0.00000000000E+00  0.11368683772E-12  0.17120000000E+03  0.17120000000E+03 0.  0.
         13    1    1    2    0    0  0.28311956563E+02  0.15561510374E+02  0.18164534106E+03  0.18449598527E+03  0.10566000000E+00 0. -1.
        994    1    1    2    0    0 -0.94851278661E+01 -0.10857612348E+02  0.36772096040E+01  0.17184532949E+03  0.17120000000E+03 0.  0.
        998    1    1    2    0    0 -0.18826828697E+02 -0.47038980258E+01  0.13146774456E+04  0.13148586852E+04  0.10000000000E+02 0.  1.
</event>
<event>
 5    1  0.1440459E-008  0.3928781E+03  0.7957747E-01  0.3396932E+00
         13   -1    0    0    0    0  0.00000000000E+00  0.00000000000E+00  0.14999999963E+04  0.15000000000E+04  0.10566000000E+00 0.  1.
        994   -1    0    0    0    0 -0.00000000000E+00 -0.00000000000E+00  0.11368683772E-12  0.17120000000E+03  0.17120000000E+03 0.  0.
         13    1    1    2    0    0  0.12134199119E+03  0.43972190486E+02  0.23512901569E+03  0.26822210488E+03  0.10566000000E+00 0.  1.
        994    1    1    2    0    0 -0.16543333854E+03 -0.31456439136E+02  0.14170424066E+03  0.27883190077E+03  0.17120000000E+03 0.  0.
        998    1    1    2    0    0  0.44091347352E+02 -0.12515751349E+02  0.11231667399E+04  0.11241459944E+04  0.10000000000E+02 0. -1.
</event>
<event>
 5    1  0.1440459E-008  0.3860640E+03  0.7957747E-01  0.3425172E+00
         13   -1    0    0    0    0  0.00000000000E+00  0.00000000000E+00  0.14999999963E+04  0.15000000000E+04  0.10566000000E+00 0. -1.
        994   -1    0    0    0    0 -0.00000000000E+00 -0.00000000000E+00  0.11368683772E-12  0.17120000000E+03  0.17120000000E+03 0.  0.
         13    1    1    2    0    0 -0.10285117295E+03 -0.95250618759E+02  0.40824400929E+03  0.43164131688E+03  0.10566000000E+00 0. -1.
        994    1    1    2    0    0  0.86315586130E+02  0.75776040919E+02  0.70421075531E+02  0.21785535721E+03  0.17120000000E+03 0.  0.
        998    1    1    2    0    0  0.16535586824E+02  0.19474577841E+02  0.10213349115E+04  0.10217033259E+04  0.10000000000E+02 0. -1.
</event>
<event>
 5    1  0.1440459E-008  0.3768232E+03  0.7957747E-01  0.3465109E+00
         13   -1    0    0    0    0  0.00000000000E+00  0.00000000000E+00  0.14999999963E+04  0.15000000000E+04  0.10566000000E+00 0. -1.
        994   -1    0    0    0    0 -0.00000000000E+00 -0.00000000000E+00  0.11368683772E-12  0.17120000000E+03  0.17120000000E+03 0.  0.
         13    1    1    2    0    0 -0.15902403533E+01  0.14570918402E+02  0.16354643615E+02  0.21961922941E+02  0.10566000000E+00 0. -1.
        994    1    1    2    0    0  0.39286544551E+01 -0.60931811978E+01  0.59230568966E+01  0.17145577793E+03  0.17120000000E+03 0.  0.
        998    1    1    2    0    0 -0.23384141018E+01 -0.84777372044E+01  0.14777222958E+04  0.14777822991E+04  0.10000000000E+02 0. -1.
</event>
<event>
 5    1  0.1440459E-008  0.3851440E+03  0.7957747E-01  0.3429062E+00
         13   -1    0    0    0    0  0.00000000000E+00  0.00000000000E+00  0.14999999963E+04  0.15000000000E+04  0.10566000000E+00 0.  1.
        994   -1    0    0    0    0 -0.00000000000E+00 -0.00000000000E+00  0.11368683772E-12  0.17120000000E+03  0.17120000000E+03 0.  0.
         13    1    1    2    0    0  0.10943981264E+02  0.56195941280E+01  0.45474289313E+02  0.47109157460E+02  0.10566000000E+00 0.  1.
        994    1    1    2    0    0 -0.17709028393E+02 -0.10186489067E+02  0.29318396204E+01  0.17243958342E+03  0.17120000000E+03 0.  0.
        998    1    1    2    0    0  0.67650471286E+01  0.45668949389E+01  0.14515938673E+04  0.14516512591E+04  0.10000000000E+02 0.  1.
</event>
<event>
 5    1  0.1440459E-008  0.3775111E+03  0.7957747E-01  0.3462068E+00
         13   -1    0    0    0    0  0.00000000000E+00  0.00000000000E+00  0.14999999963E+04  0.15000000000E+04  0.10566000000E+00 0.  1.
        994   -1    0    0    0    0 -0.00000000000E+00 -0.00000000000E+00  0.11368683772E-12  0.17120000000E+03  0.17120000000E+03 0.  0.
         13    1    1    2    0    0  0.37261948339E+00 -0.30172010878E+02  0.86214989504E+02  0.91342896084E+02  0.10566000000E+00 0.  1.
        994    1    1    2    0    0  0.96785303632E+01  0.84488409964E+01  0.59513783620E+01  0.17178450387E+03  0.17120000000E+03 0.  0.
        998    1    1    2    0    0 -0.10051149847E+02  0.21723169882E+02  0.14078336284E+04  0.14080726001E+04  0.10000000000E+02 0.  1.
</event>
<event>
 5    1  0.1440459E-008  0.3822131E+03  0.7957747E-01  0.3441579E+00
         13   -1    0    0    0    0  0.00000000000E+00  0.00000000000E+00  0.14999999963E+04  0.15000000000E+04  0.10566000000E+00 0. -1.
        994   -1    0    0    0    0 -0.00000000000E+00 -0.00000000000E+00  0.11368683772E-12  0.17120000000E+03  0.17120000000E+03 0.  0.
         13    1    1    2    0    0  0.12733199849E+02  0.87215211181E+01  0.38040211020E+02  0.41052017338E+02  0.10566000000E+00 0. -1.
        994    1    1    2    0    0 -0.96279515544E+01 -0.84648756883E+01  0.35657690092E+01  0.17171635414E+03  0.17120000000E+03 0.  0.
        998    1    1    2    0    0 -0.31052482942E+01 -0.25664542977E+00  0.14583940162E+04  0.14584316285E+04  0.10000000000E+02 0.  0.
</event>
<event>
 5    1  0.1440459E-008  0.3730428E+03  0.7957747E-01  0.3482023E+00
         13   -1    0    0    0    0  0.00000000000E+00  0.00000000000E+00  0.14999999963E+04  0.15000000000E+04  0.10566000000E+00 0.  1.
        994   -1    0    0    0    0 -0.00000000000E+00 -0.00000000000E+00  0.11368683772E-12  0.17120000000E+03  0.17120000000E+03 0.  0.
         13    1    1    2    0    0  0.66395005845E+02 -0.75326464806E+02  0.52428922278E+03  0.53381792157E+03  0.10566000000E+00 0.  1.
        994    1    1    2    0    0 -0.87436693504E+02  0.34941892551E+02  0.38661842497E+02  0.19917401761E+03  0.17120000000E+03 0.  0.
        998    1    1    2    0    0  0.21041687659E+02  0.40384572255E+02  0.93704893100E+03  0.93820806082E+03  0.10000000000E+02 0.  1.
</event>
<event>
 5    1  0.1440459E-008  0.3745880E+03  0.7957747E-01  0.3475068E+00
         13   -1    0    0    0    0  0.00000000000E+00  0.00000000000E+00  0.14999999963E+04  0.15000000000E+04  0.10566000000E+00 0.  1.
        994   -1    0    0    0    0 -0.00000000000E+00 -0.00000000000E+00  0.11368683772E-12  0.17120000000E+03  0.17120000000E+03 0.  0.
         13    1    1    2    0    0  0.15378387895E+02  0.36152199068E+02  0.10353479432E+03  0.11073816465E+03  0.10566000000E+00 0.  1.
        994    1    1    2    0    0 -0.19984478668E+02 -0.32140576722E+02  0.11781852308E+02  0.17572890514E+03  0.17120000000E+03 0.  0.
        998    1    1    2    0    0  0.46060907724E+01 -0.40116223458E+01  0.13846833497E+04  0.13847329302E+04  0.10000000000E+02 0.  0.
</event>
<event>
 5    1  0.1440459E-008  0.3744111E+03  0.7957747E-01  0.3475861E+00
         13   -1    0    0    0    0  0.00000000000E+00  0.00000000000E+00  0.14999999963E+04  0.15000000000E+04  0.10566000000E+00 0.  1.
        994   -1    0    0    0    0 -0.00000000000E+00 -0.00000000000E+00  0.11368683772E-12  0.17120000000E+03  0.17120000000E+03 0.  0.
         13    1    1    2    0    0  0.91611800255E+00 -0.39612141643E+02  0.12114566632E+03  0.12746075737E+03  0.10566000000E+00 0.  1.
        994    1    1    2    0    0 -0.20460654369E+02  0.26982261327E+01  0.84334761321E+01  0.17264553953E+03  0.17120000000E+03 0.  0.
        998    1    1    2    0    0  0.19544536366E+02  0.36913915510E+02  0.13704208538E+04  0.13710937031E+04  0.10000000000E+02 0.  1.
</event>
<event>
 5    1  0.1440459E-008  0.3781020E+03  0.7957747E-01  0.3459465E+00
         13   -1    0    0    0    0  0.00000000000E+00  0.00000000000E+00  0.14999999963E+04  0.15000000000E+04  0.10566000000E+00 0.  1.
        994   -1    0    0    0    0 -0.00000000000E+00 -0.00000000000E+00  0.11368683772E-12  0.17120000000E+03  0.17120000000E+03 0.  0.
         13    1    1    2    0    0  0.57085012015E+02  0.53316549472E+02  0.40623450574E+03  0.41367600590E+03  0.10566000000E+00 0.  1.
        994    1    1    2    0    0 -0.44120393324E+02 -0.78564240038E+02  0.32911879304E+02  0.19624367689E+03  0.17120000000E+03 0.  0.
        998    1    1    2    0    0 -0.12964618691E+02  0.25247690565E+02  0.10608536112E+04  0.10612803172E+04  0.10000000000E+02 0.  1.
</event>
<event>
 5    1  0.1440459E-008  0.3847887E+03  0.7957747E-01  0.3430569E+00
         13   -1    0    0    0    0  0.00000000000E+00  0.00000000000E+00  0.14999999963E+04  0.15000000000E+04  0.10566000000E+00 0. -1.
        994   -1    0    0    0    0 -0.00000000000E+00 -0.00000000000E+00  0.11368683772E-12  0.17120000000E+03  0.17120000000E+03 0.  0.
         13    1    1    2    0    0  0.76572835988E+01  0.13507642165E+02  0.69656312392E+02  0.71365982156E+02  0.10566000000E+00 0. -1.
        994    1    1    2    0    0 -0.60954680796E+01 -0.75383128525E+01  0.20444441798E+01  0.17148644449E+03  0.17120000000E+03 0.  0.
        998    1    1    2    0    0 -0.15618155192E+01 -0.59693293124E+01  0.14282992397E+04  0.14283475734E+04  0.10000000000E+02 0. -1.
</event>
<event>
 5    1  0.1440459E-008  0.3791791E+03  0.7957747E-01  0.3454741E+00
         13   -1    0    0    0    0  0.00000000000E+00  0.00000000000E+00  0.14999999963E+04  0.15000000000E+04  0.10566000000E+00 0. -1.
        994   -1    0    0    0    0 -0.00000000000E+00 -0.00000000000E+00  0.11368683772E-12  0.17120000000E+03  0.17120000000E+03 0.  0.
         13    1    1    2    0    0  0.89434254824E+01 -0.13513745488E+02  0.26577941964E+02  0.31128834536E+02  0.10566000000E+00 0. -1.
        994    1    1    2    0    0 -0.12938390469E+02  0.11618843235E+02  0.55623975029E+01  0.17217078652E+03  0.17120000000E+03 0.  0.
        998    1    1    2    0    0  0.39949649867E+01  0.18949022529E+01  0.14678596568E+04  0.14679003789E+04  0.10000000000E+02 0. -1.
</event>
<event>
 5    1  0.1440459E-008  0.3827085E+03  0.7957747E-01  0.3439449E+00
         13   -1    0    0    0    0  0.00000000000E+00  0.00000000000E+00  0.14999999963E+04  0.15000000000E+04  0.10566000000E+00 0.  1.
        994   -1    0    0    0    0 -0.00000000000E+00 -0.00000000000E+00  0.11368683772E-12  0.17120000000E+03  0.17120000000E+03 0.  0.
         13    1    1    2    0    0 -0.17793755716E+02  0.62102686196E+00  0.62681037293E+02  0.65160778211E+02  0.10566000000E+00 0.  1.
        994    1    1    2    0    0 -0.10272880241E+02 -0.12082033553E+02  0.36058780470E+01  0.17197078228E+03  0.17120000000E+03 0.  0.
        998    1    1    2    0    0  0.28066635956E+02  0.11461006691E+02  0.14337130809E+04  0.14340684395E+04  0.10000000000E+02 0.  1.
</event>
<event>
 5    1  0.1440459E-008  0.3827440E+03  0.7957747E-01  0.3439297E+00
         13   -1    0    0    0    0  0.00000000000E+00  0.00000000000E+00  0.14999999963E+04  0.15000000000E+04  0.10566000000E+00 0. -1.
        994   -1    0    0    0    0 -0.00000000000E+00 -0.00000000000E+00  0.11368683772E-12  0.17120000000E+03  0.17120000000E+03 0.  0.
         13    1    1    2    0    0 -0.14154027633E+02  0.37562375420E+01  0.39624682774E+02  0.42244200403E+02  0.10566000000E+00 0. -1.
        994    1    1    2    0    0  0.23812107313E+01  0.10659378991E+02  0.31496354029E+01  0.17157695862E+03  0.17120000000E+03 0.  0.
        998    1    1    2    0    0  0.11772816902E+02 -0.14415616533E+02  0.14572256781E+04  0.14573788410E+04  0.10000000000E+02 0. -1.
</event>
<event>
 5    1  0.1440459E-008  0.3753821E+03  0.7957747E-01  0.3471516E+00
         13   -1    0    0    0    0  0.00000000000E+00  0.00000000000E+00  0.14999999963E+04  0.15000000000E+04  0.10566000000E+00 0. -1.
        994   -1    0    0    0    0 -0.00000000000E+00 -0.00000000000E+00  0.11368683772E-12  0.17120000000E+03  0.17120000000E+03 0.  0.
         13    1    1    2    0    0 -0.29932195755E+02  0.73104497931E+01  0.73363731258E+02  0.79571522840E+02  0.10566000000E+00 0. -1.
        994    1    1    2    0    0  0.75836582409E+01 -0.11328234803E+02  0.71137740866E+01  0.17188916940E+03  0.17120000000E+03 0.  0.
        998    1    1    2    0    0  0.22348537514E+02  0.40177850099E+01  0.14195224909E+04  0.14197393078E+04  0.10000000000E+02 0. -1.
</event>
<event>
 5    1  0.1440459E-008  0.3819724E+03  0.7957747E-01  0.3442615E+00
         13   -1    0    0    0    0  0.00000000000E+00  0.00000000000E+00  0.14999999963E+04  0.15000000000E+04  0.10566000000E+00 0. -1.
        994   -1    0    0    0    0 -0.00000000000E+00 -0.00000000000E+00  0.11368683772E-12  0.17120000000E+03  0.17120000000E+03 0.  0.
         13    1    1    2    0    0 -0.15697398365E+02 -0.10033576898E+02  0.52429651493E+02  0.55641356027E+02  0.10566000000E+00 0. -1.
        994    1    1    2    0    0  0.16703461821E+02  0.10827256717E+02  0.44579024424E+01  0.17241098578E+03  0.17120000000E+03 0.  0.
        998    1    1    2    0    0 -0.10060634560E+01 -0.79367981969E+00  0.14431124423E+04  0.14431476582E+04  0.10000000000E+02 0. -1.
</event>
<event>
 5    1  0.1440459E-008  0.3854602E+03  0.7957747E-01  0.3427723E+00
         13   -1    0    0    0    0  0.00000000000E+00  0.00000000000E+00  0.14999999963E+04  0.15000000000E+04  0.10566000000E+00 0. -1.
        994   -1    0    0    0    0 -0.00000000000E+00 -0.00000000000E+00  0.11368683772E-12  0.17120000000E+03  0.17120000000E+03 0.  0.
         13    1    1    2    0    0  0.74105634030E+01 -0.11873764446E+02  0.68996805640E+02  0.70402223577E+02  0.10566000000E+00 0. -1.
        994    1    1    2    0    0 -0.79495210208E+01  0.88482379338E+01  0.18665763831E+01  0.17162287233E+03  0.17120000000E+03 0.  0.
        998    1    1    2    0    0  0.53895761777E+00  0.30255265118E+01  0.14291366143E+04  0.14291749041E+04  0.10000000000E+02 0. -1.
</event>
<event>
 5    1  0.1440459E-008  0.3854849E+03  0.7957747E-01  0.3427618E+00
         13   -1    0    0    0    0  0.00000000000E+00  0.00000000000E+00  0.14999999963E+04  0.15000000000E+04  0.10566000000E+00 0.  1.
        994   -1    0    0    0    0 -0.00000000000E+00 -0.00000000000E+00  0.11368683772E-12  0.17120000000E+03  0.17120000000E+03 0.  0.
         13    1    1    2    0    0 -0.15119885341E+02 -0.13727472008E+01  0.87594310105E+02  0.88900335739E+02  0.10566000000E+00 0.  1.
        994    1    1    2    0    0  0.33229147081E+01  0.41966529802E+01  0.14836914661E+01  0.17129009019E+03  0.17120000000E+03 0.  0.
        998    1    1    2    0    0  0.11796970633E+02 -0.28239057794E+01  0.14109219947E+04  0.14110095741E+04  0.10000000000E+02 0.  1.
</event>
<event>
 5    1  0.1440459E-008  0.3827851E+03  0.7957747E-01  0.3439120E+00
         13   -1    0    0    0    0  0.00000000000E+00  0.00000000000E+00  0.14999999963E+04  0.15000000000E+04  0.10566000000E+00 0. -1.
        994   -1    0    0    0    0 -0.00000000000E+00 -0.00000000000E+00  0.11368683772E-12  0.17120000000E+03  0.17120000000E+03 0.  0.
         13    1    1    2    0    0  0.25799501825E+02 -0.13566982589E+02  0.16969953295E+03  0.17218484241E+03  0.10566000000E+00 0. -1.
        994    1    1    2    0    0 -0.86200123933E+01 -0.32602529697E+01  0.30151856623E+01  0.17147438645E+03  0.17120000000E+03 0.  0.
        998    1    1    2    0    0 -0.17179489432E+02  0.16827235559E+02  0.13272852777E+04  0.13275407711E+04  0.10000000000E+02 0. -1.
</event>
<event>
 5    1  0.1440459E-008  0.3771344E+03  0.7957747E-01  0.3463732E+00
         13   -1    0    0    0    0  0.00000000000E+00  0.00000000000E+00  0.14999999963E+04  0.15000000000E+04  0.10566000000E+00 0. -1.
        994   -1    0    0    0    0 -0.00000000000E+00 -0.00000000000E+00  0.11368683772E-12  0.17120000000E+03  0.17120000000E+03 0.  0.
         13    1    1    2    0    0 -0.10180283660E+02 -0.31904680280E+02  0.91712419255E+02  0.97635678974E+02  0.10566000000E+00 0. -1.
        994    1    1    2    0    0  0.23851601096E+02  0.30994829462E+02  0.10766334533E+02  0.17594013836E+03  0.17120000000E+03 0.  0.
        998    1    1    2    0    0 -0.13671317437E+02  0.90985081781E+00  0.13975212425E+04  0.13976241827E+04  0.10000000000E+02 0. -1.
</event>
<event>
 5    1  0.1440459E-008  0.3760685E+03  0.7957747E-01  0.3468458E+00
         13   -1    0    0    0    0  0.00000000000E+00  0.00000000000E+00  0.14999999963E+04  0.15000000000E+04  0.10566000000E+00 0.  1.
        994   -1    0    0    0    0 -0.00000000000E+00 -0.00000000000E+00  0.11368683772E-12  0.17120000000E+03  0.17120000000E+03 0.  0.
         13    1    1    2    0    0 -0.82628798565E+01  0.20467971264E+02  0.36169909281E+02  0.42373181762E+02  0.10566000000E+00 0.  1.
        994    1    1    2    0    0  0.70814347113E+01 -0.24246751138E+02  0.82951355682E+01  0.17325213110E+03  0.17120000000E+03 0.  0.
        998    1    1    2    0    0  0.11814451452E+01  0.37787798731E+01  0.14555349514E+04  0.14555746871E+04  0.10000000000E+02 0.  1.
</event>
<event>
 5    1  0.1440459E-008  0.3795161E+03  0.7957747E-01  0.3453268E+00
         13   -1    0    0    0    0  0.00000000000E+00  0.00000000000E+00  0.14999999963E+04  0.15000000000E+04  0.10566000000E+00 0. -1.
        994   -1    0    0    0    0 -0.00000000000E+00 -0.00000000000E+00  0.11368683772E-12  0.17120000000E+03  0.17120000000E+03 0.  0.
         13    1    1    2    0    0 -0.16254762872E+02 -0.64645340266E+00  0.28014278090E+02  0.32395156412E+02  0.10566000000E+00 0. -1.
        994    1    1    2    0    0  0.17029113520E+02 -0.14439717445E+02  0.60484759037E+01  0.17275566621E+03  0.17120000000E+03 0.  0.
        998    1    1    2    0    0 -0.77435064825E+00  0.15086170848E+02  0.14659372423E+04  0.14660491774E+04  0.10000000000E+02 0. -1.
</event>
<event>
 5    1  0.1440459E-008  0.3847932E+03  0.7957747E-01  0.3430550E+00
         13   -1    0    0    0    0  0.00000000000E+00  0.00000000000E+00  0.14999999963E+04  0.15000000000E+04  0.10566000000E+00 0. -1.
        994   -1    0    0    0    0 -0.00000000000E+00 -0.00000000000E+00  0.11368683772E-12  0.17120000000E+03  0.17120000000E+03 0.  0.
         13    1    1    2    0    0 -0.13662968983E+02 -0.69870814648E+01  0.71638026263E+02  0.73263319606E+02  0.10566000000E+00 0. -1.
        994    1    1    2    0    0  0.48969733078E+01 -0.55885025990E+01  0.19145736356E+01  0.17137186846E+03  0.17120000000E+03 0.  0.
        998    1    1    2    0    0  0.87659956756E+01  0.12575584064E+02  0.14264473964E+04  0.14265648119E+04  0.10000000000E+02 0. -1.
</event>
<event>
 5    1  0.1440459E-008  0.3729182E+03  0.7957747E-01  0.3482586E+00
         13   -1    0    0    0    0  0.00000000000E+00  0.00000000000E+00  0.14999999963E+04  0.15000000000E+04  0.10566000000E+00 0.  1.
        994   -1    0    0    0    0 -0.00000000000E+00 -0.00000000000E+00  0.11368683772E-12  0.17120000000E+03  0.17120000000E+03 0.  0.
         13    1    1    2    0    0  0.31025968730E+02 -0.74648427882E+02  0.33854336278E+03  0.34806122761E+03  0.10566000000E+00 0.  1.
        994    1    1    2    0    0 -0.21379874451E+02  0.72472083160E+02  0.27556003967E+02  0.18915093239E+03  0.17120000000E+03 0.  0.
        998    1    1    2    0    0 -0.96460942783E+01  0.21763447221E+01  0.11339006295E+04  0.11339878400E+04  0.10000000000E+02 0.  1.
</event>
<event>
 5    1  0.1440459E-008  0.3811962E+03  0.7957747E-01  0.3445966E+00
         13   -1    0    0    0    0  0.00000000000E+00  0.00000000000E+00  0.14999999963E+04  0.15000000000E+04  0.10566000000E+00 0.  1.
        994   -1    0    0    0    0 -0.00000000000E+00 -0.00000000000E+00  0.11368683772E-12  0.17120000000E+03  0.17120000000E+03 0.  0.
         13    1    1    2    0    0  0.19148053599E+02  0.46571048184E+02  0.65935818501E+02  0.82964171852E+02  0.10566000000E+00 0.  1.
        994    1    1    2    0    0 -0.11787003228E+02 -0.48623338594E+02  0.26152630853E+02  0.18026802989E+03  0.17120000000E+03 0.  0.
        998    1    1    2    0    0 -0.73610503706E+01  0.20522904098E+01  0.14079115469E+04  0.14079677983E+04  0.10000000000E+02 0.  1.
</event>
<event>
 5    1  0.1440459E-008  0.3752669E+03  0.7957747E-01  0.3472030E+00
         13   -1    0    0    0    0  0.00000000000E+00  0.00000000000E+00  0.14999999963E+04  0.15000000000E+04  0.10566000000E+00 0.  1.
        994   -1    0    0    0    0 -0.00000000000E+00 -0.00000000000E+00  0.11368683772E-12  0.17120000000E+03  0.17120000000E+03 0.  0.
         13    1    1    2    0    0 -0.55836195698E+02  0.23234527584E+02  0.27915342535E+03  0.28562942788E+03  0.10566000000E+00 0.  1.
        994    1    1    2    0    0  0.28327483863E+02 -0.19878039018E+02  0.10619698619E+02  0.17498514444E+03  0.17120000000E+03 0.  0.
        998    1    1    2    0    0  0.27508711835E+02 -0.33564885664E+01  0.12102268723E+04  0.12105854277E+04  0.10000000000E+02 0.  1.
</event>
<event>
 5    1  0.1440459E-008  0.3725750E+03  0.7957747E-01  0.3484140E+00
         13   -1    0    0    0    0  0.00000000000E+00  0.00000000000E+00  0.14999999963E+04  0.15000000000E+04  0.10566000000E+00 0. -1.
        994   -1    0    0    0    0 -0.00000000000E+00 -0.00000000000E+00  0.11368683772E-12  0.17120000000E+03  0.17120000000E+03 0.  0.
         13    1    1    2    0    0  0.70051921827E+02 -0.85611721467E+02  0.57667511799E+03  0.58718893167E+03  0.10566000000E+00 0. -1.
        994    1    1    2    0    0 -0.54481635280E+02  0.74198911658E+02  0.37553998661E+02  0.19797340703E+03  0.17120000000E+03 0.  0.
        998    1    1    2    0    0 -0.15570286547E+02  0.11412809809E+02  0.88577087963E+03  0.88603766131E+03  0.10000000000E+02 0. -1.
</event>
<event>
 5    1  0.1440459E-008  0.3826036E+03  0.7957747E-01  0.3439900E+00
         13   -1    0    0    0    0  0.00000000000E+00  0.00000000000E+00  0.14999999963E+04  0.15000000000E+04  0.10566000000E+00 0. -1.
        994   -1    0    0    0    0 -0.00000000000E+00 -0.00000000000E+00  0.11368683772E-12  0.17120000000E+03  0.17120000000E+03 0.  0.
         13    1    1    2    0    0 -0.23830222912E+02 -0.55358520882E+01  0.11224378676E+03  0.11487908431E+03  0.10566000000E+00 0. -1.
        994    1    1    2    0    0  0.47824900390E+01  0.11035821125E+01  0.29044427233E+01  0.17129496750E+03  0.17120000000E+03 0.  0.
        998    1    1    2    0    0  0.19047732873E+02  0.44322699758E+01  0.13848517668E+04  0.13850259482E+04  0.10000000000E+02 0. -1.
</event>
<event>
 5    1  0.1440459E-008  0.3804027E+03  0.7957747E-01  0.3449407E+00
         13   -1    0    0    0    0  0.00000000000E+00  0.00000000000E+00  0.14999999963E+04  0.15000000000E+04  0.10566000000E+00 0. -1.
        994   -1    0    0    0    0 -0.00000000000E+00 -0.00000000000E+00  0.11368683772E-12  0.17120000000E+03  0.17120000000E+03 0.  0.
         13    1    1    2    0    0 -0.10832668718E+02 -0.40259244494E+01  0.15281025199E+02  0.19159219045E+02  0.10566000000E+00 0. -1.
        994    1    1    2    0    0  0.62559058783E+01  0.94989291323E+01  0.43620006409E+01  0.17163284378E+03  0.17120000000E+03 0.  0.
        998    1    1    2    0    0  0.45767628394E+01 -0.54730046829E+01  0.14803569704E+04  0.14804079372E+04  0.10000000000E+02 0. -1.
</event>
<event>
 5    1  0.1440459E-008  0.3843333E+03  0.7957747E-01  0.3432505E+00
         13   -1    0    0    0    0  0.00000000000E+00  0.00000000000E+00  0.14999999963E+04  0.15000000000E+04  0.10566000000E+00 0. -1.
        994   -1    0    0    0    0 -0.00000000000E+00 -0.00000000000E+00  0.11368683772E-12  0.17120000000E+03  0.17120000000E+03 0.  0.
         13    1    1    2    0    0 -0.22193613607E+02  0.16304476486E+02  0.16429936967E+03  0.16659137576E+03  0.10566000000E+00 0. -1.
        994    1    1    2    0    0  0.22479630777E+00 -0.67856401034E+02  0.17287387103E+02  0.18496711991E+03  0.17120000000E+03 0.  0.
        998    1    1    2    0    0  0.21968817299E+02  0.51551924548E+02  0.13184132395E+04  0.13196415043E+04  0.10000000000E+02 0. -1.
</event>
<event>
 5    1  0.1440459E-008  0.3773158E+03  0.7957747E-01  0.3462930E+00
         13   -1    0    0    0    0  0.00000000000E+00  0.00000000000E+00  0.14999999963E+04  0.15000000000E+04  0.10566000000E+00 0. -1.
        994   -1    0    0    0    0 -0.00000000000E+00 -0.00000000000E+00  0.11368683772E-12  0.17120000000E+03  0.17120000000E+03 0.  0.
         13    1    1    2    0    0  0.21480113633E+02  0.64223278187E+02  0.22719802567E+03  0.23707589243E+03  0.10566000000E+00 0. -1.
        994    1    1    2    0    0 -0.31929346657E+01  0.47859916060E+02  0.23162433841E+02  0.17929502151E+03  0.17120000000E+03 0.  0.
        998    1    1    2    0    0 -0.18287178967E+02 -0.11208319425E+03  0.12496395368E+04  0.12548290861E+04  0.10000000000E+02 0. -1.
</event>
<event>
 5    1  0.1440459E-008  0.3765435E+03  0.7957747E-01  0.3466348E+00
         13   -1    0    0    0    0  0.00000000000E+00  0.00000000000E+00  0.14999999963E+04  0.15000000000E+04  0.10566000000E+00 0. -1.
        994   -1    0    0    0    0 -0.00000000000E+00 -0.00000000000E+00  0.11368683772E-12  0.17120000000E+03  0.17120000000E+03 0.  0.
         13    1    1    2    0    0  0.25518988599E+02 -0.48905916078E+02  0.25548420266E+03  0.26137175895E+03  0.10566000000E+00 0. -1.
        994    1    1    2    0    0 -0.12513080958E+02  0.29649465230E+02  0.93984178619E+01  0.17445182212E+03  0.17120000000E+03 0.  0.
        998    1    1    2    0    0 -0.13005907641E+02  0.19256450848E+02  0.12351173758E+04  0.12353764189E+04  0.10000000000E+02 0. -1.
</event>
<event>
 5    1  0.1440459E-008  0.3852223E+03  0.7957747E-01  0.3428730E+00
         13   -1    0    0    0    0  0.00000000000E+00  0.00000000000E+00  0.14999999963E+04  0.15000000000E+04  0.10566000000E+00 0. -1.
        994   -1    0    0    0    0 -0.00000000000E+00 -0.00000000000E+00  0.11368683772E-12  0.17120000000E+03  0.17120000000E+03 0.  0.
         13    1    1    2    0    0  0.11051002578E+02 -0.15050532767E+01  0.40179107621E+02  0.41698461562E+02  0.10566000000E+00 0. -1.
        994    1    1    2    0    0 -0.11068544695E+02  0.12178180330E+00  0.19225500513E+01  0.17156824797E+03  0.17120000000E+03 0.  0.
        998    1    1    2    0    0  0.17542116482E-01  0.13832714734E+01  0.14578983386E+04  0.14579332905E+04  0.10000000000E+02 0. -1.
</event>
<event>
 5    1  0.1440459E-008  0.3832349E+03  0.7957747E-01  0.3437193E+00
         13   -1    0    0    0    0  0.00000000000E+00  0.00000000000E+00  0.14999999963E+04  0.15000000000E+04  0.10566000000E+00 0.  1.
        994   -1    0    0    0    0 -0.00000000000E+00 -0.00000000000E+00  0.11368683772E-12  0.17120000000E+03  0.17120000000E+03 0.  0.
         13    1    1    2    0    0 -0.68888708651E+01  0.95826394437E+01  0.28763553082E+02  0.31090781116E+02  0.10566000000E+00 0.  1.
        994    1    1    2    0    0 -0.79476837197E+01  0.68147328170E+01  0.28716229049E+01  0.17154385002E+03  0.17120000000E+03 0.  0.
        998    1    1    2    0    0  0.14836554585E+02 -0.16397372261E+02  0.14683648203E+04  0.14685653689E+04  0.10000000000E+02 0.  1.
</event>
<event>
 5    1  0.1440459E-008  0.3810799E+03  0.7957747E-01  0.3446470E+00
         13   -1    0    0    0    0  0.00000000000E+00  0.00000000000E+00  0.14999999963E+04  0.15000000000E+04  0.10566000000E+00 0.  1.
        994   -1    0    0    0    0 -0.00000000000E+00 -0.00000000000E+00  0.11368683772E-12  0.17120000000E+03  0.17120000000E+03 0.  0.
         13    1    1    2    0    0 -0.44339735417E+02 -0.93070908551E+01  0.24401305535E+03  0.24818343301E+03  0.10566000000E+00 0.  1.
        994    1    1    2    0    0  0.43269147481E+02  0.75081501453E+01  0.10040038987E+02  0.17702777699E+03  0.17120000000E+03 0.  0.
        998    1    1    2    0    0  0.10705879367E+01  0.17989407098E+01  0.12459469019E+04  0.12459887900E+04  0.10000000000E+02 0.  0.
</event>
<event>
 5    1  0.1440459E-008  0.3692759E+03  0.7957747E-01  0.3499225E+00
         13   -1    0    0    0    0  0.00000000000E+00  0.00000000000E+00  0.14999999963E+04  0.15000000000E+04  0.10566000000E+00 0. -1.
        994   -1    0    0    0    0 -0.00000000000E+00 -0.00000000000E+00  0.11368683772E-12  0.17120000000E+03  0.17120000000E+03 0.  0.
         13    1    1    2    0    0 -0.10948607601E+03  0.44147892399E+01  0.54094189956E+03  0.55192829341E+03  0.10566000000E+00 0. -1.
        994    1    1    2    0    0  0.68997509160E+02  0.39803303431E+01  0.27403619244E+02  0.18664645094E+03  0.17120000000E+03 0.  0.
        998    1    1    2    0    0  0.40488566852E+02 -0.83951195831E+01  0.93165447747E+03  0.93262525565E+03  0.10000000000E+02 0. -1.
</event>
<event>
 5    1  0.1440459E-008  0.3835821E+03  0.7957747E-01  0.3435708E+00
         13   -1    0    0    0    0  0.00000000000E+00  0.00000000000E+00  0.14999999963E+04  0.15000000000E+04  0.10566000000E+00 0. -1.
        994   -1    0    0    0    0 -0.00000000000E+00 -0.00000000000E+00  0.11368683772E-12  0.17120000000E+03  0.17120000000E+03 0.  0.
         13    1    1    2    0    0 -0.85755067318E+01  0.18810660530E+02  0.85780820779E+02  0.88236844021E+02  0.10566000000E+00 0. -1.
        994    1    1    2    0    0  0.86111393797E+01 -0.20908080514E+02  0.40268036857E+01  0.17273376827E+03  0.17120000000E+03 0.  0.
        998    1    1    2    0    0 -0.35632647889E-01  0.20974199845E+01  0.14101923718E+04  0.14102293877E+04  0.10000000000E+02 0. -1.
</event>
<event>
 5    1  0.1440459E-008  0.3848129E+03  0.7957747E-01  0.3430466E+00
         13   -1    0    0    0    0  0.00000000000E+00  0.00000000000E+00  0.14999999963E+04  0.15000000000E+04  0.10566000000E+00 0. -1.
        994   -1    0    0    0    0 -0.00000000000E+00 -0.00000000000E+00  0.11368683772E-12  0.17120000000E+03  0.17120000000E+03 0.  0.
         13    1    1    2    0    0 -0.82810138247E+01 -0.16129658190E+02  0.10379149454E+03  0.10536330750E+03  0.10566000000E+00 0. -1.
        994    1    1    2    0    0  0.52004493015E+01 -0.16512869489E+01  0.18210383956E+01  0.17129660710E+03  0.17120000000E+03 0.  0.
        998    1    1    2    0    0  0.30805645232E+01  0.17780945138E+02  0.13943874633E+04  0.13945400854E+04  0.10000000000E+02 0. -1.
</event>
<event>
 5    1  0.1440459E-008  0.3760580E+03  0.7957747E-01  0.3468504E+00
         13   -1    0    0    0    0  0.00000000000E+00  0.00000000000E+00  0.14999999963E+04  0.15000000000E+04  0.10566000000E+00 0.  1.
        994   -1    0    0    0    0 -0.00000000000E+00 -0.00000000000E+00  0.11368683772E-12  0.17120000000E+03  0.17120000000E+03 0.  0.
         13    1    1    2    0    0 -0.62328821920E+02  0.21197261228E+01  0.12838330184E+03  0.14272931947E+03  0.10566000000E+00 0.  1.
        994    1    1    2    0    0  0.48012999984E+02 -0.12725982069E+02  0.23044119876E+02  0.17974334549E+03  0.17120000000E+03 0.  0.
        998    1    1    2    0    0  0.14315821936E+02  0.10606255946E+02  0.13485725746E+04  0.13487273350E+04  0.10000000000E+02 0.  1.
</event>
<event>
 5    1  0.1440459E-008  0.3857222E+03  0.7957747E-01  0.3426615E+00
         13   -1    0    0    0    0  0.00000000000E+00  0.00000000000E+00  0.14999999963E+04  0.15000000000E+04  0.10566000000E+00 0. -1.
        994   -1    0    0    0    0 -0.00000000000E+00 -0.00000000000E+00  0.11368683772E-12  0.17120000000E+03  0.17120000000E+03 0.  0.
         13    1    1    2    0    0 -0.80332116346E+01  0.63745056690E+01  0.40041172395E+02  0.41333684357E+02  0.10566000000E+00 0. -1.
        994    1    1    2    0    0  0.94968010820E+01 -0.10196797754E+02  0.19092873284E+01  0.17177674259E+03  0.17120000000E+03 0.  0.
        998    1    1    2    0    0 -0.14635894474E+01  0.38222920845E+01  0.14580495366E+04  0.14580895731E+04  0.10000000000E+02 0. -1.
</event>
<event>
 5    1  0.1440459E-008  0.3801114E+03  0.7957747E-01  0.3450673E+00
         13   -1    0    0    0    0  0.00000000000E+00  0.00000000000E+00  0.14999999963E+04  0.15000000000E+04  0.10566000000E+00 0. -1.
        994   -1    0    0    0    0 -0.00000000000E+00 -0.00000000000E+00  0.11368683772E-12  0.17120000000E+03  0.17120000000E+03 0.  0.
         13    1    1    2    0    0  0.10564438122E+02  0.13701932145E+02  0.34362679973E+02  0.38472785658E+02  0.10566000000E+00 0. -1.
        994    1    1    2    0    0 -0.89823794081E+01 -0.16350589990E+02  0.52407500516E+01  0.17229315249E+03  0.17120000000E+03 0.  0.
        998    1    1    2    0    0 -0.15820587141E+01  0.26486578446E+01  0.14603965663E+04  0.14604340619E+04  0.10000000000E+02 0. -1.
</event>
<event>
 5    1  0.1440459E-008  0.3878440E+03  0.7957747E-01  0.3417699E+00
         13   -1    0    0    0    0  0.00000000000E+00  0.00000000000E+00  0.14999999963E+04  0.15000000000E+04  0.10566000000E+00 0. -1.
        994   -1    0    0    0    0 -0.00000000000E+00 -0.00000000000E+00  0.11368683772E-12  0.17120000000E+03  0.17120000000E+03 0.  0.
         13    1    1    2    0    0 -0.73991731574E+01  0.59158549707E+02  0.71277285193E+02  0.92924401076E+02  0.10566000000E+00 0. -1.
        994    1    1    2    0    0  0.13286605363E+02 -0.76599566330E+02  0.43625298342E+02  0.19301977645E+03  0.17120000000E+03 0.  0.
        998    1    1    2    0    0 -0.58874322060E+01  0.17441016623E+02  0.13850974127E+04  0.13852558225E+04  0.10000000000E+02 0. -1.
</event>
<event>
 5    1  0.1440459E-008  0.3853540E+03  0.7957747E-01  0.3428172E+00
         13   -1    0    0    0    0  0.00000000000E+00  0.00000000000E+00  0.14999999963E+04  0.15000000000E+04  0.10566000000E+00 0.  1.
        994   -1    0    0    0    0 -0.00000000000E+00 -0.00000000000E+00  0.11368683772E-12  0.17120000000E+03  0.17120000000E+03 0.  0.
         13    1    1    2    0    0  0.13643221731E+02  0.10656975449E+02  0.98334089087E+02  0.99846446434E+02  0.10566000000E+00 0.  1.
        994    1    1    2    0    0 -0.11524855839E+02 -0.13240962048E+02  0.24673680685E+01  0.17211529067E+03  0.17120000000E+03 0.  0.
        998    1    1    2    0    0 -0.21183658918E+01  0.25839865990E+01  0.13991985391E+04  0.13992382629E+04  0.10000000000E+02 0.  0.
</event>
<event>
 5    1  0.1440459E-008  0.3854835E+03  0.7957747E-01  0.3427624E+00
         13   -1    0    0    0    0  0.00000000000E+00  0.00000000000E+00  0.14999999963E+04  0.15000000000E+04  0.10566000000E+00 0.  1.
        994   -1    0    0    0    0 -0.00000000000E+00 -0.00000000000E+00  0.11368683772E-12  0.17120000000E+03  0.17120000000E+03 0.  0.
         13    1    1    2    0    0  0.12077223349E+02 -0.37172766164E+01  0.51908684818E+02  0.53424715187E+02  0.10566000000E+00 0.  1.
        994    1    1    2    0    0 -0.28236330747E+02 -0.28497271764E+01  0.40393030364E+01  0.17358331512E+03  0.17120000000E+03 0.  0.
        998    1    1    2    0    0  0.16159107398E+02  0.65670037928E+01  0.14440520084E+04  0.14441919697E+04  0.10000000000E+02 0.  1.
</event>
<event>
 5    1  0.1440459E-008  0.3732108E+03  0.7957747E-01  0.3481264E+00
         13   -1    0    0    0    0  0.00000000000E+00  0.00000000000E+00  0.14999999963E+04  0.15000000000E+04  0.10566000000E+00 0.  1.
        994   -1    0    0    0    0 -0.00000000000E+00 -0.00000000000E+00  0.11368683772E-12  0.17120000000E+03  0.17120000000E+03 0.  0.
         13    1    1    2    0    0  0.23366144869E+02  0.19247888484E+02  0.55954504638E+02  0.63618988442E+02  0.10566000000E+00 0.  1.
        994    1    1    2    0    0 -0.22825720866E+02 -0.15900082929E+02  0.10251329010E+02  0.17374796665E+03  0.17120000000E+03 0.  0.
        998    1    1    2    0    0 -0.54042400285E+00 -0.33478055545E+01  0.14337941626E+04  0.14338330449E+04  0.10000000000E+02 0.  1.
</event>
<event>
 5    1  0.1440459E-008  0.3687740E+03  0.7957747E-01  0.3501545E+00
         13   -1    0    0    0    0  0.00000000000E+00  0.00000000000E+00  0.14999999963E+04  0.15000000000E+04  0.10566000000E+00 0. -1.
        994   -1    0    0    0    0 -0.00000000000E+00 -0.00000000000E+00  0.11368683772E-12  0.17120000000E+03  0.17120000000E+03 0.  0.
         13    1    1    2    0    0 -0.99896866871E+00  0.54042270605E+02  0.13502574115E+03  0.14544252091E+03  0.10566000000E+00 0. -1.
        994    1    1    2    0    0 -0.10078137412E+02 -0.48713488851E+02  0.18553561803E+02  0.17924354244E+03  0.17120000000E+03 0.  0.
        998    1    1    2    0    0  0.11077106081E+02 -0.53287817536E+01  0.13464206933E+04  0.13465139367E+04  0.10000000000E+02 0. -1.
</event>
<event>
 5    1  0.1440459E-008  0.3830339E+03  0.7957747E-01  0.3438054E+00
         13   -1    0    0    0    0  0.00000000000E+00  0.00000000000E+00  0.14999999963E+04  0.15000000000E+04  0.10566000000E+00 0.  1.
        994   -1    0    0    0    0 -0.00000000000E+00 -0.00000000000E+00  0.11368683772E-12  0.17120000000E+03  0.17120000000E+03 0.  0.
         13    1    1    2    0    0 -0.17518018275E+02  0.14026175601E+02  0.59770152735E+01  0.23223919606E+02  0.10566000000E+00 0.  1.
        994    1    1    2    0    0  0.18767036803E+02 -0.15437826767E+02  0.20170571169E+02  0.17408854100E+03  0.17120000000E+03 0.  0.
        998    1    1    2    0    0 -0.12490185277E+01  0.14116511665E+01  0.14738524098E+04  0.14738875394E+04  0.10000000000E+02 0.  1.
</event>
<event>
 5    1  0.1440459E-008  0.3818060E+03  0.7957747E-01  0.3443332E+00
         13   -1    0    0    0    0  0.00000000000E+00  0.00000000000E+00  0.14999999963E+04  0.15000000000E+04  0.10566000000E+00 0.  1.
        994   -1    0    0    0    0 -0.00000000000E+00 -0.00000000000E+00  0.11368683772E-12  0.17120000000E+03  0.17120000000E+03 0.  0.
         13    1    1    2    0    0  0.20784736331E+02  0.16874394728E+02  0.12625664509E+03  0.12906394560E+03  0.10566000000E+00 0.  1.
        994    1    1    2    0    0  0.89748492597E+01 -0.40513432795E+01  0.35465207617E+01  0.17151961728E+03  0.17120000000E+03 0.  0.
        998    1    1    2    0    0 -0.29759585591E+02 -0.12823051448E+02  0.13701968304E+04  0.13706164371E+04  0.10000000000E+02 0.  1.
</event>
<event>
 5    1  0.1440459E-008  0.3831755E+03  0.7957747E-01  0.3437447E+00
         13   -1    0    0    0    0  0.00000000000E+00  0.00000000000E+00  0.14999999963E+04  0.15000000000E+04  0.10566000000E+00 0.  1.
        994   -1    0    0    0    0 -0.00000000000E+00 -0.00000000000E+00  0.11368683772E-12  0.17120000000E+03  0.17120000000E+03 0.  0.
         13    1    1    2    0    0 -0.29416946696E+02  0.12988730073E+02  0.17478499391E+03  0.17771851091E+03  0.10566000000E+00 0.  1.
        994    1    1    2    0    0  0.32722485847E+02 -0.16958601855E+02  0.70454639959E+01  0.17526389765E+03  0.17120000000E+03 0.  0.
        998    1    1    2    0    0 -0.33055391502E+01  0.39698717819E+01  0.13181695384E+04  0.13182175914E+04  0.10000000000E+02 0.  1.
</event>
<event>
 5    1  0.1440459E-008  0.3731687E+03  0.7957747E-01  0.3481454E+00
         13   -1    0    0    0    0  0.00000000000E+00  0.00000000000E+00  0.14999999963E+04  0.15000000000E+04  0.10566000000E+00 0. -1.
        994   -1    0    0    0    0 -0.00000000000E+00 -0.00000000000E+00  0.11368683772E-12  0.17120000000E+03  0.17120000000E+03 0.  0.
         13    1    1    2    0    0  0.13359301587E+02  0.25635192771E+02  0.53806832460E+02  0.61080442293E+02  0.10566000000E+00 0. -1.
        994    1    1    2    0    0  0.63984503270E+01 -0.11517254324E+02  0.82160764648E+01  0.17190267952E+03  0.17120000000E+03 0.  0.
        998    1    1    2    0    0 -0.19757751914E+02 -0.14117938447E+02  0.14379770874E+04  0.14382168782E+04  0.10000000000E+02 0. -1.
</event>
<event>
 5    1  0.1440459E-008  0.3786616E+03  0.7957747E-01  0.3457007E+00
         13   -1    0    0    0    0  0.00000000000E+00  0.00000000000E+00  0.14999999963E+04  0.15000000000E+04  0.10566000000E+00 0.  1.
        994   -1    0    0    0    0 -0.00000000000E+00 -0.00000000000E+00  0.11368683772E-12  0.17120000000E+03  0.17120000000E+03 0.  0.
         13    1    1    2    0    0  0.42116968331E+02  0.14241943975E+02  0.17760652492E+03  0.18308675770E+03  0.10566000000E+00 0.  1.
        994    1    1    2    0    0 -0.44824768993E+02 -0.15649118895E+02  0.12416789932E+02  0.17809483853E+03  0.17120000000E+03 0.  0.
        998    1    1    2    0    0  0.27078006627E+01  0.14071749202E+01  0.13099766814E+04  0.13100184038E+04  0.10000000000E+02 0.  0.
</event>
<event>
 5    1  0.1440459E-008  0.3811577E+03  0.7957747E-01  0.3446133E+00
         13   -1    0    0    0    0  0.00000000000E+00  0.00000000000E+00  0.14999999963E+04  0.15000000000E+04  0.10566000000E+00 0.  1.
        994   -1    0    0    0    0 -0.00000000000E+00 -0.00000000000E+00  0.11368683772E-12  0.17120000000E+03  0.17120000000E+03 0.  0.
         13    1    1    2    0    0  0.22692577343E+02  0.12281087204E+02  0.94958839550E+02  0.98402086066E+02  0.10566000000E+00 0.  1.
        994    1    1    2    0    0 -0.17232881936E+02  0.79874130987E+01  0.47522420609E+01  0.17231597370E+03  0.17120000000E+03 0.  0.
        998    1    1    2    0    0 -0.54596954066E+01 -0.20268500303E+02  0.14002889147E+04  0.14004819402E+04  0.10000000000E+02 0.  1.
</event>
<event>
 5    1  0.1440459E-008  0.3764624E+03  0.7957747E-01  0.3466708E+00
         13   -1    0    0    0    0  0.00000000000E+00  0.00000000000E+00  0.14999999963E+04  0.15000000000E+04  0.10566000000E+00 0. -1.
        994   -1    0    0    0    0 -0.00000000000E+00 -0.00000000000E+00  0.11368683772E-12  0.17120000000E+03  0.17120000000E+03 0.  0.
         13    1    1    2    0    0 -0.48861677513E+02 -0.31237652913E+02  0.34143600805E+03  0.34632616598E+03  0.10566000000E+00 0. -1.
        994    1    1    2    0    0  0.42797481144E+01  0.14958982655E+02  0.67489414008E+01  0.17203800631E+03  0.17120000000E+03 0.  0.
        998    1    1    2    0    0  0.44581929399E+02  0.16278670257E+02  0.11518150468E+04  0.11528358277E+04  0.10000000000E+02 0. -1.
</event>
<event>
 5    1  0.1440459E-008  0.3819702E+03  0.7957747E-01  0.3442624E+00
         13   -1    0    0    0    0  0.00000000000E+00  0.00000000000E+00  0.14999999963E+04  0.15000000000E+04  0.10566000000E+00 0. -1.
        994   -1    0    0    0    0 -0.00000000000E+00 -0.00000000000E+00  0.11368683772E-12  0.17120000000E+03  0.17120000000E+03 0.  0.
         13    1    1    2    0    0  0.86779395167E+01  0.18846894127E+02  0.73764009949E+02  0.76626708009E+02  0.10566000000E+00 0. -1.
        994    1    1    2    0    0  0.17454973615E+02 -0.34822839967E+01  0.41947991154E+01  0.17217386197E+03  0.17120000000E+03 0.  0.
        998    1    1    2    0    0 -0.26132913132E+02 -0.15364610130E+02  0.14220411872E+04  0.14223994300E+04  0.10000000000E+02 0. -1.
</event>
<event>
 5    1  0.1440459E-008  0.3012797E+03  0.7957747E-01  0.3886925E+00
         13   -1    0    0    0    0  0.00000000000E+00  0.00000000000E+00  0.14999999963E+04  0.15000000000E+04  0.10566000000E+00 0.  1.
        994   -1    0    0    0    0 -0.00000000000E+00 -0.00000000000E+00  0.11368683772E-12  0.17120000000E+03  0.17120000000E+03 0.  0.
         13    1    1    2    0    0 -0.82226641851E+02 -0.12076828768E+03  0.87516727121E+03  0.88727896611E+03  0.10566000000E+00 0.  1.
        994    1    1    2    0    0  0.59242030324E+02  0.35071912266E+01  0.38224016661E+02  0.18518216436E+03  0.17120000000E+03 0.  0.
        998    1    1    2    0    0  0.22984611528E+02  0.11726109645E+03  0.58660870841E+03  0.59873886953E+03  0.10000000000E+02 0.  1.
</event>
<event>
 5    1  0.1440459E-008  0.3797558E+03  0.7957747E-01  0.3452222E+00
         13   -1    0    0    0    0  0.00000000000E+00  0.00000000000E+00  0.14999999963E+04  0.15000000000E+04  0.10566000000E+00 0.  1.
        994   -1    0    0    0    0 -0.00000000000E+00 -0.00000000000E+00  0.11368683772E-12  0.17120000000E+03  0.17120000000E+03 0.  0.
         13    1    1    2    0    0  0.27089495229E+02  0.47462612917E+01  0.83894517108E+02  0.88287422166E+02  0.10566000000E+00 0.  1.
        994    1    1    2    0    0 -0.27398257716E+02  0.72042124152E+01  0.69461674227E+01  0.17366707933E+03  0.17120000000E+03 0.  0.
        998    1    1    2    0    0  0.30876248703E+00 -0.11950473707E+02  0.14091593117E+04  0.14092454985E+04  0.10000000000E+02 0.  1.
</event>
<event>
 5    1  0.1721628E-008  0.3857280E+03  0.7957747E-01  0.3426590E+00
         13   -1    0    0    0    0  0.00000000000E+00  0.00000000000E+00  0.14999999963E+04  0.15000000000E+04  0.10566000000E+00 0. -1.
        994   -1    0    0    0    0 -0.00000000000E+00 -0.00000000000E+00  0.11368683772E-12  0.17120000000E+03  0.17120000000E+03 0.  0.
         13    1    1    2    0    0  0.95396105929E+01 -0.30109294070E+01  0.38401325010E+02  0.39683029026E+02  0.10566000000E+00 0. -1.
        994    1    1    2    0    0 -0.12103004600E+02  0.37451789188E+01  0.17959166123E+01  0.17167753028E+03  0.17120000000E+03 0.  0.
        998    1    1    2    0    0  0.25633940075E+01 -0.73424951181E+00  0.14598027547E+04  0.14598394407E+04  0.10000000000E+02 0. -1.
</event>
<event>
 5    1  0.1440459E-008  0.3789337E+03  0.7957747E-01  0.3455815E+00
         13   -1    0    0    0    0  0.00000000000E+00  0.00000000000E+00  0.14999999963E+04  0.15000000000E+04  0.10566000000E+00 0.  1.
        994   -1    0    0    0    0 -0.00000000000E+00 -0.00000000000E+00  0.11368683772E-12  0.17120000000E+03  0.17120000000E+03 0.  0.
         13    1    1    2    0    0  0.23491101078E+02  0.10637604811E+02  0.66035135373E+02  0.70891753637E+02  0.10566000000E+00 0.  1.
        994    1    1    2    0    0 -0.27310896055E+02 -0.95974178310E+01  0.74887491572E+01  0.17379159023E+03  0.17120000000E+03 0.  0.
        998    1    1    2    0    0  0.38197949768E+01 -0.10401869799E+01  0.14264761117E+04  0.14265166561E+04  0.10000000000E+02 0.  1.
</event>
<event>
 5    1  0.1440459E-008  0.3844163E+03  0.7957747E-01  0.3432151E+00
         13   -1    0    0    0    0  0.00000000000E+00  0.00000000000E+00  0.14999999963E+04  0.15000000000E+04  0.10566000000E+00 0. -1.
        994   -1    0    0    0    0 -0.00000000000E+00 -0.00000000000E+00  0.11368683772E-12  0.17120000000E+03  0.17120000000E+03 0.  0.
         13    1    1    2    0    0  0.12409871739E+02 -0.11630284250E+02  0.75327786983E+02  0.77224057677E+02  0.10566000000E+00 0. -1.
        994    1    1    2    0    0 -0.94699246698E+01  0.52197927961E+01  0.23055443149E+01  0.17155664151E+03  0.17120000000E+03 0.  0.
        998    1    1    2    0    0 -0.29399470687E+01  0.64104914542E+01  0.14223666650E+04  0.14224193008E+04  0.10000000000E+02 0. -1.
</event>
<event>
 5    1  0.1440459E-008  0.3846311E+03  0.7957747E-01  0.3431238E+00
         13   -1    0    0    0    0  0.00000000000E+00  0.00000000000E+00  0.14999999963E+04  0.15000000000E+04  0.10566000000E+00 0.  1.
        994   -1    0    0    0    0 -0.00000000000E+00 -0.00000000000E+00  0.11368683772E-12  0.17120000000E+03  0.17120000000E+03 0.  0.
         13    1    1    2    0    0 -0.13644313401E+02 -0.59327015333E-01  0.48349757424E+02  0.50238242553E+02  0.10566000000E+00 0.  1.
        994    1    1    2    0    0  0.19790365462E+02  0.42585590654E+01  0.31638283078E+01  0.17242170310E+03  0.17120000000E+03 0.  0.
        998    1    1    2    0    0 -0.61460520613E+01 -0.41992320501E+01  0.14484864105E+04  0.14485400543E+04  0.10000000000E+02 0.  1.
</event>
<event>
 5    1  0.1440459E-008  0.3815967E+03  0.7957747E-01  0.3444236E+00
         13   -1    0    0    0    0  0.00000000000E+00  0.00000000000E+00  0.14999999963E+04  0.15000000000E+04  0.10566000000E+00 0. -1.
        994   -1    0    0    0    0 -0.00000000000E+00 -0.00000000000E+00  0.11368683772E-12  0.17120000000E+03  0.17120000000E+03 0.  0.
         13    1    1    2    0    0  0.43672813186E+02 -0.88140079768E+01  0.17127259313E+03  0.17697263537E+03  0.10566000000E+00 0. -1.
        994    1    1    2    0    0 -0.11475449238E+03 -0.23038064851E+02  0.50310722667E+02  0.21340092495E+03  0.17120000000E+03 0.  0.
        998    1    1    2    0    0  0.71081679189E+02  0.31852072828E+02  0.12784166805E+04  0.12808264397E+04  0.10000000000E+02 0. -1.
</event>
<event>
 5    1  0.1440459E-008  0.3840902E+03  0.7957747E-01  0.3433540E+00
         13   -1    0    0    0    0  0.00000000000E+00  0.00000000000E+00  0.14999999963E+04  0.15000000000E+04  0.10566000000E+00 0.  1.
        994   -1    0    0    0    0 -0.00000000000E+00 -0.00000000000E+00  0.11368683772E-12  0.17120000000E+03  0.17120000000E+03 0.  0.
         13    1    1    2    0    0 -0.14531265563E+02 -0.10752082631E+02  0.84721363124E+02  0.86628433516E+02  0.10566000000E+00 0.  1.
        994    1    1    2    0    0  0.55825969734E+01 -0.88591942342E+01  0.24442499058E+01  0.17153735765E+03  0.17120000000E+03 0.  0.
        998    1    1    2    0    0  0.89486685897E+01  0.19611276865E+02  0.14128343832E+04  0.14130342088E+04  0.10000000000E+02 0.  1.
</event>
<event>
 5    1  0.1440459E-008  0.3845350E+03  0.7957747E-01  0.3431647E+00
         13   -1    0    0    0    0  0.00000000000E+00  0.00000000000E+00  0.14999999963E+04  0.15000000000E+04  0.10566000000E+00 0. -1.
        994   -1    0    0    0    0 -0.00000000000E+00 -0.00000000000E+00  0.11368683772E-12  0.17120000000E+03  0.17120000000E+03 0.  0.
         13    1    1    2    0    0 -0.19814922334E+02 -0.14542145355E+02  0.14616087105E+03  0.14821307813E+03  0.10566000000E+00 0. -1.
        994    1    1    2    0    0  0.13541818501E+02  0.27206893251E+02  0.49090863299E+01  0.17394578183E+03  0.17120000000E+03 0.  0.
        998    1    1    2    0    0  0.62731038327E+01 -0.12664747895E+02  0.13489300389E+04  0.13490411400E+04  0.10000000000E+02 0. -1.
</event>
<event>
 5    1  0.1440459E-008  0.3850420E+03  0.7957747E-01  0.3429494E+00
         13   -1    0    0    0    0  0.00000000000E+00  0.00000000000E+00  0.14999999963E+04  0.15000000000E+04  0.10566000000E+00 0.  1.
        994   -1    0    0    0    0 -0.00000000000E+00 -0.00000000000E+00  0.11368683772E-12  0.17120000000E+03  0.17120000000E+03 0.  0.
         13    1    1    2    0    0 -0.11685578405E+02 -0.10108465587E+02  0.77840707698E+02  0.79359440258E+02  0.10566000000E+00 0.  1.
        994    1    1    2    0    0  0.64754834740E+01 -0.22949436474E+01  0.17645146424E+01  0.17134687673E+03  0.17120000000E+03 0.  0.
        998    1    1    2    0    0  0.52100949310E+01  0.12403409234E+02  0.14203947739E+04  0.14204936830E+04  0.10000000000E+02 0.  1.
</event>
<event>
 5    1  0.1440459E-008  0.3820542E+03  0.7957747E-01  0.3442262E+00
         13   -1    0    0    0    0  0.00000000000E+00  0.00000000000E+00  0.14999999963E+04  0.15000000000E+04  0.10566000000E+00 0.  1.
        994   -1    0    0    0    0 -0.00000000000E+00 -0.00000000000E+00  0.11368683772E-12  0.17120000000E+03  0.17120000000E+03 0.  0.
         13    1    1    2    0    0  0.45478854653E+01 -0.16611609954E+02  0.45656791733E+02  0.48797363072E+02  0.10566000000E+00 0.  1.
        994    1    1    2    0    0 -0.11609366449E+02  0.14907615415E+02  0.42860897368E+01  0.17229284649E+03  0.17120000000E+03 0.  0.
        998    1    1    2    0    0  0.70614809835E+01  0.17039945391E+01  0.14500571148E+04  0.14501097904E+04  0.10000000000E+02 0.  1.
</event>
<event>
 5    1  0.1440459E-008  0.3794498E+03  0.7957747E-01  0.3453557E+00
         13   -1    0    0    0    0  0.00000000000E+00  0.00000000000E+00  0.14999999963E+04  0.15000000000E+04  0.10566000000E+00 0.  1.
        994   -1    0    0    0    0 -0.00000000000E+00 -0.00000000000E+00  0.11368683772E-12  0.17120000000E+03  0.17120000000E+03 0.  0.
         13    1    1    2    0    0 -0.27537788638E+01 -0.55663143559E+02  0.28613643806E+03  0.29151336367E+03  0.10566000000E+00 0.  1.
        994    1    1    2    0    0 -0.12271887283E+01  0.55667536845E+02  0.14865189524E+02  0.18063995823E+03  0.17120000000E+03 0.  0.
        998    1    1    2    0    0  0.39809675921E+01 -0.43932858981E-02  0.11989983687E+04  0.11990466781E+04  0.10000000000E+02 0.  1.
</event>
<event>
 5    1  0.1440459E-008  0.3810681E+03  0.7957747E-01  0.3446521E+00
         13   -1    0    0    0    0  0.00000000000E+00  0.00000000000E+00  0.14999999963E+04  0.15000000000E+04  0.10566000000E+00 0. -1.
        994   -1    0    0    0    0 -0.00000000000E+00 -0.00000000000E+00  0.11368683772E-12  0.17120000000E+03  0.17120000000E+03 0.  0.
         13    1    1    2    0    0  0.31395629031E+02 -0.12088003649E+02  0.19942569302E+03  0.20224347593E+03  0.10566000000E+00 0. -1.
        994    1    1    2    0    0  0.14330236242E+02  0.10352206464E+02  0.46367139822E+01  0.17217277069E+03  0.17120000000E+03 0.  0.
        998    1    1    2    0    0 -0.45725865273E+02  0.17357971847E+01  0.12959375893E+04  0.12967837534E+04  0.10000000000E+02 0. -1.
</event>
<event>
 5    1  0.1440459E-008  0.3764918E+03  0.7957747E-01  0.3466578E+00
         13   -1    0    0    0    0  0.00000000000E+00  0.00000000000E+00  0.14999999963E+04  0.15000000000E+04  0.10566000000E+00 0.  1.
        994   -1    0    0    0    0 -0.00000000000E+00 -0.00000000000E+00  0.11368683772E-12  0.17120000000E+03  0.17120000000E+03 0.  0.
         13    1    1    2    0    0 -0.76748543258E+01  0.17759753575E+02  0.29031421902E+02  0.34887631872E+02  0.10566000000E+00 0.  1.
        994    1    1    2    0    0 -0.11565608043E+00 -0.16883889071E+02  0.68794183768E+01  0.17216807336E+03  0.17120000000E+03 0.  0.
        998    1    1    2    0    0  0.77905104063E+01 -0.87586450379E+00  0.14640891560E+04  0.14641442948E+04  0.10000000000E+02 0.  1.
</event>
<event>
 5    1  0.1440459E-008  0.3808636E+03  0.7957747E-01  0.3447407E+00
         13   -1    0    0    0    0  0.00000000000E+00  0.00000000000E+00  0.14999999963E+04  0.15000000000E+04  0.10566000000E+00 0. -1.
        994   -1    0    0    0    0 -0.00000000000E+00 -0.00000000000E+00  0.11368683772E-12  0.17120000000E+03  0.17120000000E+03 0.  0.
         13    1    1    2    0    0 -0.20723170494E+01 -0.12184196204E+02  0.19419484156E+02  0.23019050024E+02  0.10566000000E+00 0. -1.
        994    1    1    2    0    0 -0.20857212831E+01  0.36479448341E+01  0.37567038087E+01  0.17129276271E+03  0.17120000000E+03 0.  0.
        998    1    1    2    0    0  0.41580383325E+01  0.85362513699E+01  0.14768238083E+04  0.14768881873E+04  0.10000000000E+02 0. -1.
</event>
<event>
 5    1  0.1440459E-008  0.3776095E+03  0.7957747E-01  0.3461634E+00
         13   -1    0    0    0    0  0.00000000000E+00  0.00000000000E+00  0.14999999963E+04  0.15000000000E+04  0.10566000000E+00 0. -1.
        994   -1    0    0    0    0 -0.00000000000E+00 -0.00000000000E+00  0.11368683772E-12  0.17120000000E+03  0.17120000000E+03 0.  0.
         13    1    1    2    0    0 -0.55170013294E+02  0.54769615764E+02  0.42366207355E+03  0.43073542332E+03  0.10566000000E+00 0. -1.
        994    1    1    2    0    0  0.53072063840E+02 -0.50380806638E+02  0.23606158968E+02  0.18767408020E+03  0.17120000000E+03 0.  0.
        998    1    1    2    0    0  0.20979494532E+01 -0.43888091266E+01  0.10527317638E+04  0.10527904965E+04  0.10000000000E+02 0. -1.
</event>
<event>
 5    1  0.1440459E-008  0.3855549E+03  0.7957747E-01  0.3427322E+00
         13   -1    0    0    0    0  0.00000000000E+00  0.00000000000E+00  0.14999999963E+04  0.15000000000E+04  0.10566000000E+00 0.  1.
        994   -1    0    0    0    0 -0.00000000000E+00 -0.00000000000E+00  0.11368683772E-12  0.17120000000E+03  0.17120000000E+03 0.  0.
         13    1    1    2    0    0  0.13956924247E+02  0.79128094208E+01  0.90577862497E+02  0.91987872168E+02  0.10566000000E+00 0.  1.
        994    1    1    2    0    0 -0.15268164242E+02 -0.73704614741E+01  0.22990550450E+01  0.17205280060E+03  0.17120000000E+03 0.  0.
        998    1    1    2    0    0  0.13112399952E+01 -0.54234794672E+00  0.14071230787E+04  0.14071593272E+04  0.10000000000E+02 0.  0.
</event>
<event>
 5    1  0.1440459E-008  0.3810022E+03  0.7957747E-01  0.3446806E+00
         13   -1    0    0    0    0  0.00000000000E+00  0.00000000000E+00  0.14999999963E+04  0.15000000000E+04  0.10566000000E+00 0. -1.
        994   -1    0    0    0    0 -0.00000000000E+00 -0.00000000000E+00  0.11368683772E-12  0.17120000000E+03  0.17120000000E+03 0.  0.
         13    1    1    2    0    0 -0.97482991459E+01 -0.10778736610E+02  0.28329892063E+02  0.31840295971E+02  0.10566000000E+00 0. -1.
        994    1    1    2    0    0  0.69125821421E+01 -0.26152539376E+01  0.38101178866E+01  0.17140180963E+03  0.17120000000E+03 0.  0.
        998    1    1    2    0    0  0.28357170037E+01  0.13393990548E+02  0.14678599863E+04  0.14679578944E+04  0.10000000000E+02 0. -1.
</event>
<event>
 5    1  0.1440459E-008  0.3807525E+03  0.7957747E-01  0.3447889E+00
         13   -1    0    0    0    0  0.00000000000E+00  0.00000000000E+00  0.14999999963E+04  0.15000000000E+04  0.10566000000E+00 0. -1.
        994   -1    0    0    0    0 -0.00000000000E+00 -0.00000000000E+00  0.11368683772E-12  0.17120000000E+03  0.17120000000E+03 0.  0.
         13    1    1    2    0    0  0.63117962254E+01 -0.12417392366E+02  0.25205751351E+02  0.28798810218E+02  0.10566000000E+00 0. -1.
        994    1    1    2    0    0  0.11935820313E+02  0.37126984699E+01  0.42749767044E+01  0.17170894957E+03  0.17120000000E+03 0.  0.
        998    1    1    2    0    0 -0.18247616538E+02  0.87046938963E+01  0.14705192682E+04  0.14706922402E+04  0.10000000000E+02 0. -1.
</event>
<event>
 5    1  0.1440459E-008  0.3857328E+03  0.7957747E-01  0.3426570E+00
         13   -1    0    0    0    0  0.00000000000E+00  0.00000000000E+00  0.14999999963E+04  0.15000000000E+04  0.10566000000E+00 0.  1.
        994   -1    0    0    0    0 -0.00000000000E+00 -0.00000000000E+00  0.11368683772E-12  0.17120000000E+03  0.17120000000E+03 0.  0.
         13    1    1    2    0    0  0.89350254124E+01  0.95600976663E+01  0.69103774890E+02  0.70331877656E+02  0.10566000000E+00 0.  1.
        994    1    1    2    0    0 -0.45478600364E+01 -0.49470163169E+01  0.14149240840E+01  0.17133767248E+03  0.17120000000E+03 0.  0.
        998    1    1    2    0    0 -0.43871653761E+01 -0.46130813494E+01  0.14294812973E+04  0.14295304499E+04  0.10000000000E+02 0.  1.
</event>
<event>
 5    1  0.1440459E-008  0.3767571E+03  0.7957747E-01  0.3465402E+00
         13   -1    0    0    0    0  0.00000000000E+00  0.00000000000E+00  0.14999999963E+04  0.15000000000E+04  0.10566000000E+00 0. -1.
        994   -1    0    0    0    0 -0.00000000000E+00 -0.00000000000E+00  0.11368683772E-12  0.17120000000E+03  0.17120000000E+03 0.  0.
         13    1    1    2    0    0 -0.45045600356E+02  0.41832682396E+02  0.30711427308E+03  0.31320642925E+03  0.10566000000E+00 0. -1.
        994    1    1    2    0    0  0.12000655563E+02 -0.50855834979E+02  0.15061734355E+02  0.17962913886E+03  0.17120000000E+03 0.  0.
        998    1    1    2    0    0  0.33044944793E+02  0.90231525827E+01  0.11778239888E+04  0.11783644319E+04  0.10000000000E+02 0. -1.
</event>
<event>
 5    1  0.1807386E-008  0.3851519E+03  0.7957747E-01  0.3429028E+00
         13   -1    0    0    0    0  0.00000000000E+00  0.00000000000E+00  0.14999999963E+04  0.15000000000E+04  0.10566000000E+00 0. -1.
        994   -1    0    0    0    0 -0.00000000000E+00 -0.00000000000E+00  0.11368683772E-12  0.17120000000E+03  0.17120000000E+03 0.  0.
         13    1    1    2    0    0  0.77810825698E+01 -0.76102893568E+01  0.37087935100E+02  0.38652138932E+02  0.10566000000E+00 0. -1.
        994    1    1    2    0    0 -0.97608161567E+01  0.77018037433E+01  0.20630677502E+01  0.17166329707E+03  0.17120000000E+03 0.  0.
        998    1    1    2    0    0  0.19797335868E+01 -0.91514386497E-01  0.14608489934E+04  0.14608845640E+04  0.10000000000E+02 0. -1.
</event>
<event>
 5    1  0.1440459E-008  0.3811998E+03  0.7957747E-01  0.3445951E+00
         13   -1    0    0    0    0  0.00000000000E+00  0.00000000000E+00  0.14999999963E+04  0.15000000000E+04  0.10566000000E+00 0. -1.
        994   -1    0    0    0    0 -0.00000000000E+00 -0.00000000000E+00  0.11368683772E-12  0.17120000000E+03  0.17120000000E+03 0.  0.
         13    1    1    2    0    0 -0.35733782275E+02 -0.35493892671E+00  0.17414761544E+03  0.17777635474E+03  0.10566000000E+00 0. -1.
        994    1    1    2    0    0  0.25160207082E+02  0.21929923777E+01  0.56554544064E+01  0.17314522633E+03  0.17120000000E+03 0.  0.
        998    1    1    2    0    0  0.10573575194E+02 -0.18380534510E+01  0.13201969264E+04  0.13202784189E+04  0.10000000000E+02 0. -1.
</event>
<event>
 5    1  0.1440459E-008  0.3794554E+03  0.7957747E-01  0.3453533E+00
         13   -1    0    0    0    0  0.00000000000E+00  0.00000000000E+00  0.14999999963E+04  0.15000000000E+04  0.10566000000E+00 0. -1.
        994   -1    0    0    0    0 -0.00000000000E+00 -0.00000000000E+00  0.11368683772E-12  0.17120000000E+03  0.17120000000E+03 0.  0.
         13    1    1    2    0    0  0.12639753173E+02  0.75177393071E+01  0.22838508167E+02  0.27164101014E+02  0.10566000000E+00 0. -1.
        994    1    1    2    0    0 -0.71625205885E+01 -0.38613937726E+01  0.46300641965E+01  0.17145579476E+03  0.17120000000E+03 0.  0.
        998    1    1    2    0    0 -0.54772325841E+01 -0.36563455345E+01  0.14725314239E+04  0.14725801042E+04  0.10000000000E+02 0. -1.
</event>
<event>
 5    1  0.1440459E-008  0.3840406E+03  0.7957747E-01  0.3433751E+00
         13   -1    0    0    0    0  0.00000000000E+00  0.00000000000E+00  0.14999999963E+04  0.15000000000E+04  0.10566000000E+00 0.  1.
        994   -1    0    0    0    0 -0.00000000000E+00 -0.00000000000E+00  0.11368683772E-12  0.17120000000E+03  0.17120000000E+03 0.  0.
         13    1    1    2    0    0  0.21082451859E+02  0.40370837461E+01  0.97701473992E+02  0.10003177998E+03  0.10566000000E+00 0.  1.
        994    1    1    2    0    0 -0.29055620703E+02 -0.52339097950E+01  0.49879121878E+01  0.17379856781E+03  0.17120000000E+03 0.  0.
        998    1    1    2    0    0  0.79731688435E+01  0.11968260489E+01  0.13973106101E+04  0.13973696522E+04  0.10000000000E+02 0.  1.
</event>
<event>
 5    1  0.1440459E-008  0.3825634E+03  0.7957747E-01  0.3440072E+00
         13   -1    0    0    0    0  0.00000000000E+00  0.00000000000E+00  0.14999999963E+04  0.15000000000E+04  0.10566000000E+00 0. -1.
        994   -1    0    0    0    0 -0.00000000000E+00 -0.00000000000E+00  0.11368683772E-12  0.17120000000E+03  0.17120000000E+03 0.  0.
         13    1    1    2    0    0 -0.21053607971E+02  0.11307395985E+02  0.87844347090E+02  0.91037091849E+02  0.10566000000E+00 0. -1.
        994    1    1    2    0    0  0.34010263180E+02 -0.15164060588E+02  0.74548999888E+01  0.17536151878E+03  0.17120000000E+03 0.  0.
        998    1    1    2    0    0 -0.12956655209E+02  0.38566646030E+01  0.14047007492E+04  0.14048013894E+04  0.10000000000E+02 0. -1.
</event>
<event>
 5    1  0.1440459E-008  0.3742721E+03  0.7957747E-01  0.3476485E+00
         13   -1    0    0    0    0  0.00000000000E+00  0.00000000000E+00  0.14999999963E+04  0.15000000000E+04  0.10566000000E+00 0. -1.
        994   -1    0    0    0    0 -0.00000000000E+00 -0.00000000000E+00  0.11368683772E-12  0.17120000000E+03  0.17120000000E+03 0.  0.
         13    1    1    2    0    0 -0.14171090007E+02 -0.17904449858E+02  0.33412063851E+02  0.40469325315E+02  0.10566000000E+00 0. -1.
        994    1    1    2    0    0  0.11513322634E+02  0.20126037662E+02  0.88871028479E+01  0.17299142923E+03  0.17120000000E+03 0.  0.
        998    1    1    2    0    0  0.26577673722E+01 -0.22215878048E+01  0.14577008296E+04  0.14577392455E+04  0.10000000000E+02 0. -1.
</event>
<event>
 5    1  0.1440459E-008  0.3777407E+03  0.7957747E-01  0.3461055E+00
         13   -1    0    0    0    0  0.00000000000E+00  0.00000000000E+00  0.14999999963E+04  0.15000000000E+04  0.10566000000E+00 0.  1.
        994   -1    0    0    0    0 -0.00000000000E+00 -0.00000000000E+00  0.11368683772E-12  0.17120000000E+03  0.17120000000E+03 0.  0.
         13    1    1    2    0    0  0.10585749974E+03  0.26225873083E+02  0.60409757243E+03  0.61386276549E+03  0.10566000000E+00 0.  1.
        994    1    1    2    0    0 -0.10638300406E+03 -0.55797904963E+02  0.55533997170E+02  0.21638903529E+03  0.17120000000E+03 0.  0.
        998    1    1    2    0    0  0.52550432480E+00  0.29572031880E+02  0.84036842668E+03  0.84094819923E+03  0.10000000000E+02 0.  1.
</event>
<event>
 5    1  0.1440459E-008  0.3826859E+03  0.7957747E-01  0.3439546E+00
         13   -1    0    0    0    0  0.00000000000E+00  0.00000000000E+00  0.14999999963E+04  0.15000000000E+04  0.10566000000E+00 0. -1.
        994   -1    0    0    0    0 -0.00000000000E+00 -0.00000000000E+00  0.11368683772E-12  0.17120000000E+03  0.17120000000E+03 0.  0.
         13    1    1    2    0    0  0.31255056114E+02  0.10849889098E+02  0.18542860925E+03  0.18835705169E+03  0.10566000000E+00 0. -1.
        994    1    1    2    0    0 -0.22583077770E+02 -0.13763200215E+02  0.51044221384E+01  0.17330584585E+03  0.17120000000E+03 0.  0.
        998    1    1    2    0    0 -0.86719783448E+01  0.29133111172E+01  0.13094669649E+04  0.13095371025E+04  0.10000000000E+02 0.  0.
</event>
<event>
 5    1  0.1440459E-008  0.3842020E+03  0.7957747E-01  0.3433064E+00
         13   -1    0    0    0    0  0.00000000000E+00  0.00000000000E+00  0.14999999963E+04  0.15000000000E+04  0.10566000000E+00 0. -1.
        994   -1    0    0    0    0 -0.00000000000E+00 -0.00000000000E+00  0.11368683772E-12  0.17120000000E+03  0.17120000000E+03 0.  0.
         13    1    1    2    0    0  0.73574035702E+01  0.10262952715E+02  0.38358669281E+02  0.40383886127E+02  0.10566000000E+00 0. -1.
        994    1    1    2    0    0 -0.83187670439E+01 -0.82451968962E+01  0.24792900989E+01  0.17161809938E+03  0.17120000000E+03 0.  0.
        998    1    1    2    0    0  0.96136347375E+00 -0.20177558191E+01  0.14591620369E+04  0.14591980145E+04  0.10000000000E+02 0. -1.
</event>
<event>
 5    1  0.1440459E-008  0.3801750E+03  0.7957747E-01  0.3450397E+00
         13   -1    0    0    0    0  0.00000000000E+00  0.00000000000E+00  0.14999999963E+04  0.15000000000E+04  0.10566000000E+00 0. -1.
        994   -1    0    0    0    0 -0.00000000000E+00 -0.00000000000E+00  0.11368683772E-12  0.17120000000E+03  0.17120000000E+03 0.  0.
         13    1    1    2    0    0  0.42195361364E+01 -0.19887051747E+02  0.48306147768E+02  0.52409869191E+02  0.10566000000E+00 0. -1.
        994    1    1    2    0    0 -0.76996968192E+01  0.19124073283E+02  0.54661082747E+01  0.17252342986E+03  0.17120000000E+03 0.  0.
        998    1    1    2    0    0  0.34801606828E+01  0.76297846402E+00  0.14462277402E+04  0.14462667010E+04  0.10000000000E+02 0. -1.
</event>
<event>
 5    1  0.1440459E-008  0.3842034E+03  0.7957747E-01  0.3433058E+00
         13   -1    0    0    0    0  0.00000000000E+00  0.00000000000E+00  0.14999999963E+04  0.15000000000E+04  0.10566000000E+00 0. -1.
        994   -1    0    0    0    0 -0.00000000000E+00 -0.00000000000E+00  0.11368683772E-12  0.17120000000E+03  0.17120000000E+03 0.  0.
         13    1    1    2    0    0 -0.11709554687E+02  0.19264625846E+02  0.11739181755E+03  0.11953697952E+03  0.10566000000E+00 0. -1.
        994    1    1    2    0    0  0.13685544070E+02 -0.17722488353E+02  0.36810343965E+01  0.17269733850E+03  0.17120000000E+03 0.  0.
        998    1    1    2    0    0 -0.19759893822E+01 -0.15421374929E+01  0.13789271443E+04  0.13789656820E+04  0.10000000000E+02 0. -1.
</event>
<event>
 5    1  0.1440459E-008  0.3767156E+03  0.7957747E-01  0.3465585E+00
         13   -1    0    0    0    0  0.00000000000E+00  0.00000000000E+00  0.14999999963E+04  0.15000000000E+04  0.10566000000E+00 0. -1.
        994   -1    0    0    0    0 -0.00000000000E+00 -0.00000000000E+00  0.11368683772E-12  0.17120000000E+03  0.17120000000E+03 0.  0.
         13    1    1    2    0    0  0.43211788608E+02 -0.70809057763E+01  0.25097875504E+03  0.25476998361E+03  0.10566000000E+00 0. -1.
        994    1    1    2    0    0  0.30536399415E+02  0.30918621439E+01  0.89906683249E+01  0.17416171628E+03  0.17120000000E+03 0.  0.
        998    1    1    2    0    0 -0.73748188023E+02  0.39890436325E+01  0.12400305729E+04  0.12422683001E+04  0.10000000000E+02 0. -1.
</event>
<event>
 5    1  0.1440459E-008  0.3831273E+03  0.7957747E-01  0.3437653E+00
         13   -1    0    0    0    0  0.00000000000E+00  0.00000000000E+00  0.14999999963E+04  0.15000000000E+04  0.10566000000E+00 0. -1.
        994   -1    0    0    0    0 -0.00000000000E+00 -0.00000000000E+00  0.11368683772E-12  0.17120000000E+03  0.17120000000E+03 0.  0.
         13    1    1    2    0    0 -0.27740298998E+02  0.12516803162E+02  0.16140496403E+03  0.16424910389E+03  0.10566000000E+00 0. -1.
        994    1    1    2    0    0  0.25103738422E+02 -0.21478297364E+02  0.61826846965E+01  0.17446827944E+03  0.17120000000E+03 0.  0.
        998    1    1    2    0    0  0.26365605766E+01  0.89614942017E+01  0.13324123476E+04  0.13324826167E+04  0.10000000000E+02 0. -1.
</event>
<event>
 5    1  0.1440459E-008  0.3689146E+03  0.7957747E-01  0.3500894E+00
         13   -1    0    0    0    0  0.00000000000E+00  0.00000000000E+00  0.14999999963E+04  0.15000000000E+04  0.10566000000E+00 0.  1.
        994   -1    0    0    0    0 -0.00000000000E+00 -0.00000000000E+00  0.11368683772E-12  0.17120000000E+03  0.17120000000E+03 0.  0.
         13    1    1    2    0    0  0.19244275381E+03  0.16645257158E+03  0.11107664210E+04  0.11395361887E+04  0.10566000000E+00 0.  1.
        994    1    1    2    0    0 -0.21950952819E+03 -0.13949542128E+03  0.29262428464E+03  0.42729593666E+03  0.17120000000E+03 0.  0.
        998    1    1    2    0    0  0.27066774384E+02 -0.26957150297E+02  0.96609290602E+02  0.10436787465E+03  0.10000000000E+02 0.  1.
</event>
<event>
 5    1  0.1440459E-008  0.3846487E+03  0.7957747E-01  0.3431164E+00
         13   -1    0    0    0    0  0.00000000000E+00  0.00000000000E+00  0.14999999963E+04  0.15000000000E+04  0.10566000000E+00 0. -1.
        994   -1    0    0    0    0 -0.00000000000E+00 -0.00000000000E+00  0.11368683772E-12  0.17120000000E+03  0.17120000000E+03 0.  0.
         13    1    1    2    0    0  0.10182707511E+02  0.56416753528E+01  0.38134672193E+02  0.39872050617E+02  0.10566000000E+00 0. -1.
        994    1    1    2    0    0 -0.20198534900E+00 -0.55964766933E+01  0.19079306829E+01  0.17130219365E+03  0.17120000000E+03 0.  0.
        998    1    1    2    0    0 -0.99807221618E+01 -0.45198659490E-01  0.14599573934E+04  0.14600257557E+04  0.10000000000E+02 0. -1.
</event>
<event>
 5    1  0.1440459E-008  0.4268436E+03  0.7957747E-01  0.3269534E+00
         13   -1    0    0    0    0  0.00000000000E+00  0.00000000000E+00  0.14999999963E+04  0.15000000000E+04  0.10566000000E+00 0.  1.
        994   -1    0    0    0    0 -0.00000000000E+00 -0.00000000000E+00  0.11368683772E-12  0.17120000000E+03  0.17120000000E+03 0.  0.
         13    1    1    2    0    0  0.11396785520E+03 -0.43334167898E+02  0.16453019174E+03  0.20478456310E+03  0.10566000000E+00 0.  1.
        994    1    1    2    0    0 -0.65483929138E+02  0.24125787460E+02  0.66709813687E+02  0.19654474767E+03  0.17120000000E+03 0.  0.
        998    1    1    2    0    0 -0.48483926063E+02  0.19208380438E+02  0.12687599909E+04  0.12698706892E+04  0.10000000000E+02 0.  1.
</event>
<event>
 5    1  0.1440459E-008  0.3786252E+03  0.7957747E-01  0.3457167E+00
         13   -1    0    0    0    0  0.00000000000E+00  0.00000000000E+00  0.14999999963E+04  0.15000000000E+04  0.10566000000E+00 0.  1.
        994   -1    0    0    0    0 -0.00000000000E+00 -0.00000000000E+00  0.11368683772E-12  0.17120000000E+03  0.17120000000E+03 0.  0.
         13    1    1    2    0    0 -0.17069641395E+02  0.18470974221E+02  0.60889142463E+02  0.65879043557E+02  0.10566000000E+00 0.  1.
        994    1    1    2    0    0  0.15374984902E+02 -0.23673016310E+02  0.75091952138E+01  0.17367391823E+03  0.17120000000E+03 0.  0.
        998    1    1    2    0    0  0.16946564932E+01  0.52020420889E+01  0.14316016586E+04  0.14316470382E+04  0.10000000000E+02 0.  1.
</event>
<event>
 5    1  0.1440459E-008  0.3689844E+03  0.7957747E-01  0.3500571E+00
         13   -1    0    0    0    0  0.00000000000E+00  0.00000000000E+00  0.14999999963E+04  0.15000000000E+04  0.10566000000E+00 0.  1.
        994   -1    0    0    0    0 -0.00000000000E+00 -0.00000000000E+00  0.11368683772E-12  0.17120000000E+03  0.17120000000E+03 0.  0.
         13    1    1    2    0    0  0.69330649488E+01  0.94417955670E+01  0.16784645745E+01  0.11833989204E+02  0.10566000000E+00 0.  1.
        994    1    1    2    0    0 -0.12350473934E+02 -0.13201132524E+02  0.11542067956E+02  0.17253829557E+03  0.17120000000E+03 0.  0.
        998    1    1    2    0    0  0.54174089852E+01  0.37593369572E+01  0.14867794637E+04  0.14868277152E+04  0.10000000000E+02 0.  1.
</event>
<event>
 5    1  0.1440459E-008  0.3778154E+03  0.7957747E-01  0.3460726E+00
         13   -1    0    0    0    0  0.00000000000E+00  0.00000000000E+00  0.14999999963E+04  0.15000000000E+04  0.10566000000E+00 0. -1.
        994   -1    0    0    0    0 -0.00000000000E+00 -0.00000000000E+00  0.11368683772E-12  0.17120000000E+03  0.17120000000E+03 0.  0.
         13    1    1    2    0    0 -0.47960999137E+02  0.47055496708E+01  0.21525817240E+03  0.22058669857E+03  0.10566000000E+00 0. -1.
        994    1    1    2    0    0  0.29264684332E+02 -0.21136348687E+02  0.96406225570E+01  0.17522998770E+03  0.17120000000E+03 0.  0.
        998    1    1    2    0    0  0.18696314805E+02  0.16430799016E+02  0.12751012013E+04  0.12753833137E+04  0.10000000000E+02 0. -1.
</event>
<event>
 5    1  0.1440459E-008  0.3811576E+03  0.7957747E-01  0.3446134E+00
         13   -1    0    0    0    0  0.00000000000E+00  0.00000000000E+00  0.14999999963E+04  0.15000000000E+04  0.10566000000E+00 0. -1.
        994   -1    0    0    0    0 -0.00000000000E+00 -0.00000000000E+00  0.11368683772E-12  0.17120000000E+03  0.17120000000E+03 0.  0.
         13    1    1    2    0    0 -0.20448896021E+02  0.12918230772E+02  0.98980015816E+01  0.26134644327E+02  0.10566000000E+00 0. -1.
        994    1    1    2    0    0  0.85282368022E+01 -0.23244400905E+02  0.19198426873E+02  0.17404324920E+03  0.17120000000E+03 0.  0.
        998    1    1    2    0    0  0.11920659219E+02  0.10326170133E+02  0.14709035678E+04  0.14710221065E+04  0.10000000000E+02 0. -1.
</event>
<event>
 5    1  0.1440459E-008  0.3862328E+03  0.7957747E-01  0.3424460E+00
         13   -1    0    0    0    0  0.00000000000E+00  0.00000000000E+00  0.14999999963E+04  0.15000000000E+04  0.10566000000E+00 0. -1.
        994   -1    0    0    0    0 -0.00000000000E+00 -0.00000000000E+00  0.11368683772E-12  0.17120000000E+03  0.17120000000E+03 0.  0.
         13    1    1    2    0    0 -0.98201717400E+01  0.38305022697E+01  0.60528008673E+02  0.61439071596E+02  0.10566000000E+00 0. -1.
        994    1    1    2    0    0  0.14204280520E+01  0.14599135112E+02  0.17243496900E+01  0.17183586862E+03  0.17120000000E+03 0.  0.
        998    1    1    2    0    0  0.83997436881E+01 -0.18429637382E+02  0.14377476379E+04  0.14379250598E+04  0.10000000000E+02 0. -1.
</event>
<event>
 5    1  0.1440459E-008  0.3846831E+03  0.7957747E-01  0.3431017E+00
         13   -1    0    0    0    0  0.00000000000E+00  0.00000000000E+00  0.14999999963E+04  0.15000000000E+04  0.10566000000E+00 0.  1.
        994   -1    0    0    0    0 -0.00000000000E+00 -0.00000000000E+00  0.11368683772E-12  0.17120000000E+03  0.17120000000E+03 0.  0.
         13    1    1    2    0    0  0.13728604300E+02  0.67952525043E+00  0.50651389015E+02  0.52483432660E+02  0.10566000000E+00 0.  1.
        994    1    1    2    0    0 -0.17390728814E+02  0.15008738985E+02  0.35266712344E+01  0.17277030157E+03  0.17120000000E+03 0.  0.
        998    1    1    2    0    0  0.36621245140E+01 -0.15688264236E+02  0.14458219360E+04  0.14459462658E+04  0.10000000000E+02 0.  1.
</event>
<event>
 5    1  0.1440459E-008  0.3850855E+03  0.7957747E-01  0.3429310E+00
         13   -1    0    0    0    0  0.00000000000E+00  0.00000000000E+00  0.14999999963E+04  0.15000000000E+04  0.10566000000E+00 0.  1.
        994   -1    0    0    0    0 -0.00000000000E+00 -0.00000000000E+00  0.11368683772E-12  0.17120000000E+03  0.17120000000E+03 0.  0.
         13    1    1    2    0    0 -0.13791220332E+02 -0.59622455356E+01  0.72804849829E+02  0.74339111191E+02  0.10566000000E+00 0.  1.
        994    1    1    2    0    0  0.80535974521E+01 -0.21000174095E+01  0.18154870551E+01  0.17141180385E+03  0.17120000000E+03 0.  0.
        998    1    1    2    0    0  0.57376228801E+01  0.80622629450E+01  0.14253796594E+04  0.14254490850E+04  0.10000000000E+02 0.  1.
</event>
<event>
 5    1  0.1440459E-008  0.3826081E+03  0.7957747E-01  0.3439880E+00
         13   -1    0    0    0    0  0.00000000000E+00  0.00000000000E+00  0.14999999963E+04  0.15000000000E+04  0.10566000000E+00 0.  1.
        994   -1    0    0    0    0 -0.00000000000E+00 -0.00000000000E+00  0.11368683772E-12  0.17120000000E+03  0.17120000000E+03 0.  0.
         13    1    1    2    0    0  0.27145061509E+02 -0.73248512211E+00  0.14279734652E+03  0.14535640418E+03  0.10566000000E+00 0.  1.
        994    1    1    2    0    0 -0.44042667300E+01 -0.17428654824E+02  0.38941297368E+01  0.17218524856E+03  0.17120000000E+03 0.  0.
        998    1    1    2    0    0 -0.22740794779E+02  0.18161139946E+02  0.13533085200E+04  0.13536583473E+04  0.10000000000E+02 0.  1.
</event>
<event>
 5    1  0.1440459E-008  0.3830334E+03  0.7957747E-01  0.3438056E+00
         13   -1    0    0    0    0  0.00000000000E+00  0.00000000000E+00  0.14999999963E+04  0.15000000000E+04  0.10566000000E+00 0.  1.
        994   -1    0    0    0    0 -0.00000000000E+00 -0.00000000000E+00  0.11368683772E-12  0.17120000000E+03  0.17120000000E+03 0.  0.
         13    1    1    2    0    0 -0.10409917534E+02  0.23349956600E+02  0.13209614919E+03  0.13454735468E+03  0.10566000000E+00 0.  1.
        994    1    1    2    0    0  0.18372262792E+02 -0.38370619131E+00  0.37281573886E+01  0.17222376848E+03  0.17120000000E+03 0.  0.
        998    1    1    2    0    0 -0.79623452583E+01 -0.22966250408E+02  0.13641756897E+04  0.13644288768E+04  0.10000000000E+02 0.  1.
</event>
<event>
 5    1  0.1440459E-008  0.3835535E+03  0.7957747E-01  0.3435830E+00
         13   -1    0    0    0    0  0.00000000000E+00  0.00000000000E+00  0.14999999963E+04  0.15000000000E+04  0.10566000000E+00 0. -1.
        994   -1    0    0    0    0 -0.00000000000E+00 -0.00000000000E+00  0.11368683772E-12  0.17120000000E+03  0.17120000000E+03 0.  0.
         13    1    1    2    0    0 -0.19205283183E+02 -0.13751077872E+02  0.12718770082E+03  0.12936250403E+03  0.10566000000E+00 0. -1.
        994    1    1    2    0    0  0.86108146477E+01 -0.37229997720E+01  0.26408359194E+01  0.17147717303E+03  0.17120000000E+03 0.  0.
        998    1    1    2    0    0  0.10594468535E+02  0.17474077644E+02  0.13701714595E+04  0.13703603229E+04  0.10000000000E+02 0. -1.
</event>
<event>
 5    1  0.1440459E-008  0.3809232E+03  0.7957747E-01  0.3447148E+00
         13   -1    0    0    0    0  0.00000000000E+00  0.00000000000E+00  0.14999999963E+04  0.15000000000E+04  0.10566000000E+00 0. -1.
        994   -1    0    0    0    0 -0.00000000000E+00 -0.00000000000E+00  0.11368683772E-12  0.17120000000E+03  0.17120000000E+03 0.  0.
         13    1    1    2    0    0  0.35245451095E+02 -0.20502097187E+02  0.22905858700E+03  0.23265946199E+03  0.10566000000E+00 0. -1.
        994    1    1    2    0    0 -0.25679563791E+02 -0.69835924225E+00  0.58703093029E+01  0.17321613156E+03  0.17120000000E+03 0.  0.
        998    1    1    2    0    0 -0.95658873044E+01  0.21200456429E+02  0.12650711000E+04  0.12653244064E+04  0.10000000000E+02 0. -1.
</event>
<event>
 5    1  0.1440459E-008  0.3907948E+03  0.7957747E-01  0.3405461E+00
         13   -1    0    0    0    0  0.00000000000E+00  0.00000000000E+00  0.14999999963E+04  0.15000000000E+04  0.10566000000E+00 0.  1.
        994   -1    0    0    0    0 -0.00000000000E+00 -0.00000000000E+00  0.11368683772E-12  0.17120000000E+03  0.17120000000E+03 0.  0.
         13    1    1    2    0    0  0.13247389588E+02  0.21399588707E+02  0.44317823431E+01  0.25555578384E+02  0.10566000000E+00 0.  1.
        994    1    1    2    0    0 -0.84629020452E+01 -0.23178301642E+02  0.24688795710E+02  0.17472215375E+03  0.17120000000E+03 0.  0.
        998    1    1    2    0    0 -0.47844875433E+01  0.17787129344E+01  0.14708794182E+04  0.14709222679E+04  0.10000000000E+02 0.  1.
</event>
<event>
 5    1  0.1440459E-008  0.3844591E+03  0.7957747E-01  0.3431969E+00
         13   -1    0    0    0    0  0.00000000000E+00  0.00000000000E+00  0.14999999963E+04  0.15000000000E+04  0.10566000000E+00 0. -1.
        994   -1    0    0    0    0 -0.00000000000E+00 -0.00000000000E+00  0.11368683772E-12  0.17120000000E+03  0.17120000000E+03 0.  0.
         13    1    1    2    0    0  0.17349527197E+02  0.14136349879E+02  0.13405190836E+03  0.13590720282E+03  0.10566000000E+00 0. -1.
        994    1    1    2    0    0 -0.38117944667E+01 -0.13970422749E+02  0.25900626461E+01  0.17183087881E+03  0.17120000000E+03 0.  0.
        998    1    1    2    0    0 -0.13537732730E+02 -0.16592712946E+00  0.13633580253E+04  0.13634619184E+04  0.10000000000E+02 0. -1.
</event>
<event>
 5    1  0.1440459E-008  0.3879458E+03  0.7957747E-01  0.3417274E+00
         13   -1    0    0    0    0  0.00000000000E+00  0.00000000000E+00  0.14999999963E+04  0.15000000000E+04  0.10566000000E+00 0.  1.
        994   -1    0    0    0    0 -0.00000000000E+00 -0.00000000000E+00  0.11368683772E-12  0.17120000000E+03  0.17120000000E+03 0.  0.
         13    1    1    2    0    0  0.78925291873E+02  0.30199594493E+02  0.20881827776E+03  0.22526939760E+03  0.10566000000E+00 0.  1.
        994    1    1    2    0    0  0.22262069741E+02 -0.51943885040E+02  0.32782322913E+02  0.18324270146E+03  0.17120000000E+03 0.  0.
        998    1    1    2    0    0 -0.10118736161E+03  0.21744290547E+02  0.12583993956E+04  0.12626879009E+04  0.10000000000E+02 0.  1.
</event>
<event>
 5    1  0.1440459E-008  0.3746630E+03  0.7957747E-01  0.3474731E+00
         13   -1    0    0    0    0  0.00000000000E+00  0.00000000000E+00  0.14999999963E+04  0.15000000000E+04  0.10566000000E+00 0.  1.
        994   -1    0    0    0    0 -0.00000000000E+00 -0.00000000000E+00  0.11368683772E-12  0.17120000000E+03  0.17120000000E+03 0.  0.
         13    1    1    2    0    0 -0.12535162463E+02  0.19636283076E+02  0.36398606491E+02  0.43215548470E+02  0.10566000000E+00 0.  1.
        994    1    1    2    0    0  0.88486863182E+01 -0.18121418465E+02  0.82370936806E+01  0.17258034294E+03  0.17120000000E+03 0.  0.
        998    1    1    2    0    0  0.36864761448E+01 -0.15148646107E+01  0.14553642961E+04  0.14554041086E+04  0.10000000000E+02 0.  1.
</event>
<event>
 5    1  0.1440459E-008  0.3859512E+03  0.7957747E-01  0.3425648E+00
         13   -1    0    0    0    0  0.00000000000E+00  0.00000000000E+00  0.14999999963E+04  0.15000000000E+04  0.10566000000E+00 0. -1.
        994   -1    0    0    0    0 -0.00000000000E+00 -0.00000000000E+00  0.11368683772E-12  0.17120000000E+03  0.17120000000E+03 0.  0.
         13    1    1    2    0    0  0.36479638282E+01 -0.12111235935E+02  0.74434795372E+02  0.75501917870E+02  0.10566000000E+00 0. -1.
        994    1    1    2    0    0 -0.10013160815E+02 -0.23916447794E+01  0.15061646269E+01  0.17151586482E+03  0.17120000000E+03 0.  0.
        998    1    1    2    0    0  0.63651969871E+01  0.14502880715E+02  0.14240590363E+04  0.14241822173E+04  0.10000000000E+02 0. -1.
</event>
<event>
 5    1  0.1440459E-008  0.3784654E+03  0.7957747E-01  0.3457868E+00
         13   -1    0    0    0    0  0.00000000000E+00  0.00000000000E+00  0.14999999963E+04  0.15000000000E+04  0.10566000000E+00 0. -1.
        994   -1    0    0    0    0 -0.00000000000E+00 -0.00000000000E+00  0.11368683772E-12  0.17120000000E+03  0.17120000000E+03 0.  0.
         13    1    1    2    0    0 -0.52488383627E+01  0.99142031734E+01  0.10891273599E+02  0.15635623856E+02  0.10566000000E+00 0. -1.
        994    1    1    2    0    0  0.12486662449E+02  0.97231536062E+01  0.57517860973E+01  0.17202610121E+03  0.17120000000E+03 0.  0.
        998    1    1    2    0    0 -0.72378240860E+01 -0.19637356780E+02  0.14833569366E+04  0.14835382749E+04  0.10000000000E+02 0. -1.
</event>
<event>
 5    1  0.1440459E-008  0.3849795E+03  0.7957747E-01  0.3429759E+00
         13   -1    0    0    0    0  0.00000000000E+00  0.00000000000E+00  0.14999999963E+04  0.15000000000E+04  0.10566000000E+00 0.  1.
        994   -1    0    0    0    0 -0.00000000000E+00 -0.00000000000E+00  0.11368683772E-12  0.17120000000E+03  0.17120000000E+03 0.  0.
         13    1    1    2    0    0  0.17418848542E+02  0.32683975406E+00  0.87861797328E+02  0.89572482954E+02  0.10566000000E+00 0.  1.
        994    1    1    2    0    0 -0.18368821510E+02 -0.14170561536E+01  0.27574251968E+01  0.17221052536E+03  0.17120000000E+03 0.  0.
        998    1    1    2    0    0  0.94997296751E+00  0.10902163995E+01  0.14093807738E+04  0.14094169917E+04  0.10000000000E+02 0.  1.
</event>
<event>
 5    1  0.1440459E-008  0.3836260E+03  0.7957747E-01  0.3435521E+00
         13   -1    0    0    0    0  0.00000000000E+00  0.00000000000E+00  0.14999999963E+04  0.15000000000E+04  0.10566000000E+00 0.  1.
        994   -1    0    0    0    0 -0.00000000000E+00 -0.00000000000E+00  0.11368683772E-12  0.17120000000E+03  0.17120000000E+03 0.  0.
         13    1    1    2    0    0  0.22044592710E+02 -0.48956930218E+01  0.11387717915E+03  0.11609459493E+03  0.10566000000E+00 0.  1.
        994    1    1    2    0    0 -0.91290871774E+01 -0.11028126236E+01  0.25932203329E+01  0.17146638510E+03  0.17120000000E+03 0.  0.
        998    1    1    2    0    0 -0.12915505533E+02  0.59985056453E+01  0.13835295968E+04  0.13836390200E+04  0.10000000000E+02 0.  1.
</event>
<event>
 5    1  0.1440459E-008  0.3834294E+03  0.7957747E-01  0.3436361E+00
         13   -1    0    0    0    0  0.00000000000E+00  0.00000000000E+00  0.14999999963E+04  0.15000000000E+04  0.10566000000E+00 0. -1.
        994   -1    0    0    0    0 -0.00000000000E+00 -0.00000000000E+00  0.11368683772E-12  0.17120000000E+03  0.17120000000E+03 0.  0.
         13    1    1    2    0    0 -0.21315897315E+02  0.74903155161E+01  0.99000062054E+02  0.10154553538E+03  0.10566000000E+00 0. -1.
        994    1    1    2    0    0  0.21850542762E+02 -0.85885953725E+01  0.42360578939E+01  0.17285425762E+03  0.17120000000E+03 0.  0.
        998    1    1    2    0    0 -0.53464544683E+00  0.10982798564E+01  0.13967638763E+04  0.13968002070E+04  0.10000000000E+02 0. -1.
</event>
<event>
 5    1  0.1440459E-008  0.3852072E+03  0.7957747E-01  0.3428794E+00
         13   -1    0    0    0    0  0.00000000000E+00  0.00000000000E+00  0.14999999963E+04  0.15000000000E+04  0.10566000000E+00 0.  1.
        994   -1    0    0    0    0 -0.00000000000E+00 -0.00000000000E+00  0.11368683772E-12  0.17120000000E+03  0.17120000000E+03 0.  0.
         13    1    1    2    0    0  0.11785949615E+02 -0.97104819509E+01  0.88961942135E+02  0.90263172892E+02  0.10566000000E+00 0.  1.
        994    1    1    2    0    0 -0.17335598747E+02 -0.32120582868E+02  0.59179775935E+01  0.17514770135E+03  0.17120000000E+03 0.  0.
        998    1    1    2    0    0  0.55496491319E+01  0.41831064819E+02  0.14051200765E+04  0.14057891258E+04  0.10000000000E+02 0.  1.
</event>
<event>
 5    1  0.1440459E-008  0.3779580E+03  0.7957747E-01  0.3460098E+00
         13   -1    0    0    0    0  0.00000000000E+00  0.00000000000E+00  0.14999999963E+04  0.15000000000E+04  0.10566000000E+00 0.  1.
        994   -1    0    0    0    0 -0.00000000000E+00 -0.00000000000E+00  0.11368683772E-12  0.17120000000E+03  0.17120000000E+03 0.  0.
         13    1    1    2    0    0  0.11948697858E+02 -0.11553584462E+03  0.59319891765E+03  0.60446362160E+03  0.10566000000E+00 0.  1.
        994    1    1    2    0    0 -0.31183309497E+01  0.35177773534E+02  0.19708964774E+02  0.17591214578E+03  0.17120000000E+03 0.  0.
        998    1    1    2    0    0 -0.88303669079E+01  0.80358071088E+02  0.88709211385E+03  0.89082423262E+03  0.10000000000E+02 0. -1.
</event>
<event>
 5    1  0.1440459E-008  0.3810059E+03  0.7957747E-01  0.3446790E+00
         13   -1    0    0    0    0  0.00000000000E+00  0.00000000000E+00  0.14999999963E+04  0.15000000000E+04  0.10566000000E+00 0.  1.
        994   -1    0    0    0    0 -0.00000000000E+00 -0.00000000000E+00  0.11368683772E-12  0.17120000000E+03  0.17120000000E+03 0.  0.
         13    1    1    2    0    0 -0.88534529146E+01 -0.74840259320E+01  0.19142455292E+02  0.22379433221E+02  0.10566000000E+00 0.  1.
        994    1    1    2    0    0 -0.34469572291E+02 -0.13408338987E+02  0.81974440907E+01  0.17534130448E+03  0.17120000000E+03 0.  0.
        998    1    1    2    0    0  0.43323025205E+02  0.20892364919E+02  0.14726600969E+04  0.14734792623E+04  0.10000000000E+02 0.  1.
</event>
<event>
 5    1  0.1440459E-008  0.3813559E+03  0.7957747E-01  0.3445276E+00
         13   -1    0    0    0    0  0.00000000000E+00  0.00000000000E+00  0.14999999963E+04  0.15000000000E+04  0.10566000000E+00 0. -1.
        994   -1    0    0    0    0 -0.00000000000E+00 -0.00000000000E+00  0.11368683772E-12  0.17120000000E+03  0.17120000000E+03 0.  0.
         13    1    1    2    0    0  0.98387905142E+01 -0.22788224355E+02  0.87428612240E+02  0.90883872993E+02  0.10566000000E+00 0. -1.
        994    1    1    2    0    0 -0.11863783560E+02  0.13320159988E+02  0.45098689342E+01  0.17218581515E+03  0.17120000000E+03 0.  0.
        998    1    1    2    0    0  0.20249930458E+01  0.94680643664E+01  0.14080615151E+04  0.14081303119E+04  0.10000000000E+02 0. -1.
</event>
<event>
 5    1  0.2059510E-008  0.3863047E+03  0.7957747E-01  0.3424158E+00
         13   -1    0    0    0    0  0.00000000000E+00  0.00000000000E+00  0.14999999963E+04  0.15000000000E+04  0.10566000000E+00 0. -1.
        994   -1    0    0    0    0 -0.00000000000E+00 -0.00000000000E+00  0.11368683772E-12  0.17120000000E+03  0.17120000000E+03 0.  0.
         13    1    1    2    0    0 -0.50199181870E+00 -0.10797667506E+02  0.59111975718E+02  0.60092249556E+02  0.10566000000E+00 0. -1.
        994    1    1    2    0    0 -0.14444907054E+01  0.10184463843E+02  0.13303543801E+01  0.17151390527E+03  0.17120000000E+03 0.  0.
        998    1    1    2    0    0  0.19464825241E+01  0.61320366305E+00  0.14395576662E+04  0.14395938452E+04  0.10000000000E+02 0. -1.
</event>
<event>
 5    1  0.1440459E-008  0.3777942E+03  0.7957747E-01  0.3460820E+00
         13   -1    0    0    0    0  0.00000000000E+00  0.00000000000E+00  0.14999999963E+04  0.15000000000E+04  0.10566000000E+00 0. -1.
        994   -1    0    0    0    0 -0.00000000000E+00 -0.00000000000E+00  0.11368683772E-12  0.17120000000E+03  0.17120000000E+03 0.  0.
         13    1    1    2    0    0 -0.27987084949E+02  0.26626250598E+02  0.13855276354E+03  0.14383710785E+03  0.10566000000E+00 0. -1.
        994    1    1    2    0    0  0.12423943697E+02 -0.23495140516E+02  0.76331451047E+01  0.17341880206E+03  0.17120000000E+03 0.  0.
        998    1    1    2    0    0  0.15563141252E+02 -0.31311100822E+01  0.13538140876E+04  0.13539440901E+04  0.10000000000E+02 0. -1.
</event>
<event>
 5    1  0.1440459E-008  0.3819554E+03  0.7957747E-01  0.3442688E+00
         13   -1    0    0    0    0  0.00000000000E+00  0.00000000000E+00  0.14999999963E+04  0.15000000000E+04  0.10566000000E+00 0. -1.
        994   -1    0    0    0    0 -0.00000000000E+00 -0.00000000000E+00  0.11368683772E-12  0.17120000000E+03  0.17120000000E+03 0.  0.
         13    1    1    2    0    0  0.97190349135E+01 -0.24835615434E+02  0.10788331085E+03  0.11113094690E+03  0.10566000000E+00 0. -1.
        994    1    1    2    0    0 -0.10020849301E+02  0.20077486043E+02  0.48235341917E+01  0.17273166863E+03  0.17120000000E+03 0.  0.
        998    1    1    2    0    0  0.30181438741E+00  0.47581293914E+01  0.13872931512E+04  0.13873373845E+04  0.10000000000E+02 0. -1.
</event>
<event>
 5    1  0.1440459E-008  0.3857437E+03  0.7957747E-01  0.3426524E+00
         13   -1    0    0    0    0  0.00000000000E+00  0.00000000000E+00  0.14999999963E+04  0.15000000000E+04  0.10566000000E+00 0.  1.
        994   -1    0    0    0    0 -0.00000000000E+00 -0.00000000000E+00  0.11368683772E-12  0.17120000000E+03  0.17120000000E+03 0.  0.
         13    1    1    2    0    0 -0.60824216528E+01  0.11652233509E+02  0.66993264964E+02  0.68270631412E+02  0.10566000000E+00 0.  1.
        994    1    1    2    0    0 -0.42106946632E+00 -0.14815696798E+02  0.19824082405E+01  0.17185183186E+03  0.17120000000E+03 0.  0.
        998    1    1    2    0    0  0.65034911191E+01  0.31634632896E+01  0.14310243231E+04  0.14310775367E+04  0.10000000000E+02 0.  1.
</event>
<event>
 5    1  0.1440459E-008  0.3833962E+03  0.7957747E-01  0.3436503E+00
         13   -1    0    0    0    0  0.00000000000E+00  0.00000000000E+00  0.14999999963E+04  0.15000000000E+04  0.10566000000E+00 0.  1.
        994   -1    0    0    0    0 -0.00000000000E+00 -0.00000000000E+00  0.11368683772E-12  0.17120000000E+03  0.17120000000E+03 0.  0.
         13    1    1    2    0    0  0.20546671743E+02 -0.41144698528E+01  0.89375515983E+02  0.91799175395E+02  0.10566000000E+00 0.  1.
        994    1    1    2    0    0 -0.14162449992E+02  0.15612487036E+00  0.30919088915E+01  0.17181268657E+03  0.17120000000E+03 0.  0.
        998    1    1    2    0    0 -0.63842217511E+01  0.39583449824E+01  0.14075325714E+04  0.14075881380E+04  0.10000000000E+02 0.  1.
</event>
<event>
 5    1  0.1440459E-008  0.3796410E+03  0.7957747E-01  0.3452723E+00
         13   -1    0    0    0    0  0.00000000000E+00  0.00000000000E+00  0.14999999963E+04  0.15000000000E+04  0.10566000000E+00 0. -1.
        994   -1    0    0    0    0 -0.00000000000E+00 -0.00000000000E+00  0.11368683772E-12  0.17120000000E+03  0.17120000000E+03 0.  0.
         13    1    1    2    0    0  0.54317363447E+02 -0.28175836612E+01  0.27243166793E+03  0.27780809852E+03  0.10566000000E+00 0. -1.
        994    1    1    2    0    0 -0.58559823443E+02 -0.60331262881E+01  0.16002222231E+02  0.18174477338E+03  0.17120000000E+03 0.  0.
        998    1    1    2    0    0  0.42424599961E+01  0.88507099494E+01  0.12115661061E+04  0.12116471281E+04  0.10000000000E+02 0. -1.
</event>
<event>
 5    1  0.1440459E-008  0.3850284E+03  0.7957747E-01  0.3429552E+00
         13   -1    0    0    0    0  0.00000000000E+00  0.00000000000E+00  0.14999999963E+04  0.15000000000E+04  0.10566000000E+00 0.  1.
        994   -1    0    0    0    0 -0.00000000000E+00 -0.00000000000E+00  0.11368683772E-12  0.17120000000E+03  0.17120000000E+03 0.  0.
         13    1    1    2    0    0 -0.17470546200E+02  0.23661205640E+01  0.10228219357E+03  0.10379054290E+03  0.10566000000E+00 0.  1.
        994    1    1    2    0    0  0.42119176532E+01  0.29975117875E+01  0.17039338987E+01  0.17128651061E+03  0.17120000000E+03 0.  0.
        998    1    1    2    0    0  0.13258628547E+02 -0.53636323516E+01  0.13960138688E+04  0.13961229465E+04  0.10000000000E+02 0.  1.
</event>
<event>
 5    1  0.1440459E-008  0.3856437E+03  0.7957747E-01  0.3426947E+00
         13   -1    0    0    0    0  0.00000000000E+00  0.00000000000E+00  0.14999999963E+04  0.15000000000E+04  0.10566000000E+00 0. -1.
        994   -1    0    0    0    0 -0.00000000000E+00 -0.00000000000E+00  0.11368683772E-12  0.17120000000E+03  0.17120000000E+03 0.  0.
         13    1    1    2    0    0  0.72722301453E+01 -0.10621134905E+02  0.70764634493E+02  0.71925923678E+02  0.10566000000E+00 0. -1.
        994    1    1    2    0    0 -0.12519145189E+01 -0.76723770660E+01  0.15092392485E+01  0.17138305185E+03  0.17120000000E+03 0.  0.
        998    1    1    2    0    0 -0.60203156264E+01  0.18293511971E+02  0.14277261225E+04  0.14278910245E+04  0.10000000000E+02 0. -1.
</event>
<event>
 5    1  0.2453466E-008  0.3861013E+03  0.7957747E-01  0.3425015E+00
         13   -1    0    0    0    0  0.00000000000E+00  0.00000000000E+00  0.14999999963E+04  0.15000000000E+04  0.10566000000E+00 0.  1.
        994   -1    0    0    0    0 -0.00000000000E+00 -0.00000000000E+00  0.11368683772E-12  0.17120000000E+03  0.17120000000E+03 0.  0.
         13    1    1    2    0    0  0.74379546674E+01 -0.72761022013E+01  0.51317102040E+02  0.52361445346E+02  0.10566000000E+00 0.  1.
        994    1    1    2    0    0 -0.35590740768E+01  0.34461160228E+01  0.11647688218E+01  0.17127562410E+03  0.17120000000E+03 0.  0.
        998    1    1    2    0    0 -0.38788805907E+01  0.38299861785E+01  0.14475181254E+04  0.14475629306E+04  0.10000000000E+02 0.  1.
</event>
<event>
 5    1  0.1440459E-008  0.3837823E+03  0.7957747E-01  0.3434853E+00
         13   -1    0    0    0    0  0.00000000000E+00  0.00000000000E+00  0.14999999963E+04  0.15000000000E+04  0.10566000000E+00 0. -1.
        994   -1    0    0    0    0 -0.00000000000E+00 -0.00000000000E+00  0.11368683772E-12  0.17120000000E+03  0.17120000000E+03 0.  0.
         13    1    1    2    0    0  0.10740103176E+02 -0.10302760343E+02  0.47462527542E+02  0.49741324587E+02  0.10566000000E+00 0. -1.
        994    1    1    2    0    0 -0.11742537411E+02  0.11703156542E+02  0.31438894883E+01  0.17202957623E+03  0.17120000000E+03 0.  0.
        998    1    1    2    0    0  0.10024342350E+01 -0.14003961986E+01  0.14493935792E+04  0.14494290992E+04  0.10000000000E+02 0. -1.
</event>
<event>
 5    1  0.1440459E-008  0.3723342E+03  0.7957747E-01  0.3485232E+00
         13   -1    0    0    0    0  0.00000000000E+00  0.00000000000E+00  0.14999999963E+04  0.15000000000E+04  0.10566000000E+00 0. -1.
        994   -1    0    0    0    0 -0.00000000000E+00 -0.00000000000E+00  0.11368683772E-12  0.17120000000E+03  0.17120000000E+03 0.  0.
         13    1    1    2    0    0  0.24939319173E+02  0.23761783699E+02  0.72125858353E+02  0.79929610362E+02  0.10566000000E+00 0. -1.
        994    1    1    2    0    0 -0.13562607627E+02 -0.92079053232E+01  0.89763736859E+01  0.17221714529E+03  0.17120000000E+03 0.  0.
        998    1    1    2    0    0 -0.11376711546E+02 -0.14553878375E+02  0.14188977642E+04  0.14190532444E+04  0.10000000000E+02 0. -1.
</event>
<event>
 5    1  0.1440459E-008  0.3836474E+03  0.7957747E-01  0.3435429E+00
         13   -1    0    0    0    0  0.00000000000E+00  0.00000000000E+00  0.14999999963E+04  0.15000000000E+04  0.10566000000E+00 0. -1.
        994   -1    0    0    0    0 -0.00000000000E+00 -0.00000000000E+00  0.11368683772E-12  0.17120000000E+03  0.17120000000E+03 0.  0.
         13    1    1    2    0    0  0.16498530377E+02  0.15505670267E+02  0.10726685509E+03  0.10963036386E+03  0.10566000000E+00 0. -1.
        994    1    1    2    0    0 -0.14481722099E+02 -0.11806525583E+02  0.34571714184E+01  0.17225128840E+03  0.17120000000E+03 0.  0.
        998    1    1    2    0    0 -0.20168082777E+01 -0.36991446846E+01  0.13892759698E+04  0.13893183477E+04  0.10000000000E+02 0. -1.
</event>
<event>
 5    1  0.1440459E-008  0.3844369E+03  0.7957747E-01  0.3432064E+00
         13   -1    0    0    0    0  0.00000000000E+00  0.00000000000E+00  0.14999999963E+04  0.15000000000E+04  0.10566000000E+00 0. -1.
        994   -1    0    0    0    0 -0.00000000000E+00 -0.00000000000E+00  0.11368683772E-12  0.17120000000E+03  0.17120000000E+03 0.  0.
         13    1    1    2    0    0 -0.10900178933E+02  0.88317364428E+01  0.51730950724E+02  0.53599588583E+02  0.10566000000E+00 0. -1.
        994    1    1    2    0    0  0.30633591252E+01 -0.81011135609E+01  0.21571377824E+01  0.17143250991E+03  0.17120000000E+03 0.  0.
        998    1    1    2    0    0  0.78368198081E+01 -0.73062288189E+00  0.14461119078E+04  0.14461679015E+04  0.10000000000E+02 0. -1.
</event>
<event>
 5    1  0.1440459E-008  0.3778384E+03  0.7957747E-01  0.3460625E+00
         13   -1    0    0    0    0  0.00000000000E+00  0.00000000000E+00  0.14999999963E+04  0.15000000000E+04  0.10566000000E+00 0.  1.
        994   -1    0    0    0    0 -0.00000000000E+00 -0.00000000000E+00  0.11368683772E-12  0.17120000000E+03  0.17120000000E+03 0.  0.
         13    1    1    2    0    0  0.11136291506E+02 -0.11135668149E+02  0.22133051262E+02  0.27164374019E+02  0.10566000000E+00 0.  1.
        994    1    1    2    0    0 -0.22760414218E+01 -0.21552268036E+01  0.52614090992E+01  0.17130950876E+03  0.17120000000E+03 0.  0.
        998    1    1    2    0    0 -0.88602500839E+01  0.13290894953E+02  0.14726055359E+04  0.14727261172E+04  0.10000000000E+02 0.  1.
</event>
<event>
 5    1  0.1440459E-008  0.4091839E+03  0.7957747E-01  0.3333163E+00
         13   -1    0    0    0    0  0.00000000000E+00  0.00000000000E+00  0.14999999963E+04  0.15000000000E+04  0.10566000000E+00 0. -1.
        994   -1    0    0    0    0 -0.00000000000E+00 -0.00000000000E+00  0.11368683772E-12  0.17120000000E+03  0.17120000000E+03 0.  0.
         13    1    1    2    0    0  0.58260455139E+02 -0.68489064059E+02  0.10090544904E+03  0.13515529342E+03  0.10566000000E+00 0. -1.
        994    1    1    2    0    0 -0.64233278774E+02  0.74364962188E+02  0.73885379727E+02  0.21077132405E+03  0.17120000000E+03 0.  0.
        998    1    1    2    0    0  0.59728236345E+01 -0.58758981283E+01  0.13252091675E+04  0.13252733825E+04  0.10000000000E+02 0. -1.
</event>
<event>
 5    1  0.1440459E-008  0.3799022E+03  0.7957747E-01  0.3451584E+00
         13   -1    0    0    0    0  0.00000000000E+00  0.00000000000E+00  0.14999999963E+04  0.15000000000E+04  0.10566000000E+00 0. -1.
        994   -1    0    0    0    0 -0.00000000000E+00 -0.00000000000E+00  0.11368683772E-12  0.17120000000E+03  0.17120000000E+03 0.  0.
         13    1    1    2    0    0 -0.32604516419E+02 -0.44695268853E+02  0.28697353809E+03  0.29225766761E+03  0.10566000000E+00 0. -1.
        994    1    1    2    0    0  0.36678087186E+02  0.46238292803E+02  0.15919795129E+02  0.18178597767E+03  0.17120000000E+03 0.  0.
        998    1    1    2    0    0 -0.40735707668E+01 -0.15430239507E+01  0.11971066631E+04  0.11971563547E+04  0.10000000000E+02 0.  0.
</event>
<event>
 5    1  0.1444872E-008  0.3855750E+03  0.7957747E-01  0.3427237E+00
         13   -1    0    0    0    0  0.00000000000E+00  0.00000000000E+00  0.14999999963E+04  0.15000000000E+04  0.10566000000E+00 0.  1.
        994   -1    0    0    0    0 -0.00000000000E+00 -0.00000000000E+00  0.11368683772E-12  0.17120000000E+03  0.17120000000E+03 0.  0.
         13    1    1    2    0    0 -0.12064309078E+02 -0.15201527313E+01  0.55247267873E+02  0.56569693205E+02  0.10566000000E+00 0.  1.
        994    1    1    2    0    0  0.82825031893E+01  0.10837412138E+00  0.15701713902E+01  0.17140745912E+03  0.17120000000E+03 0.  0.
        998    1    1    2    0    0  0.37818058892E+01  0.14117786099E+01  0.14431825570E+04  0.14432228477E+04  0.10000000000E+02 0.  1.
</event>
<event>
 5    1  0.1440459E-008  0.3824178E+03  0.7957747E-01  0.3440698E+00
         13   -1    0    0    0    0  0.00000000000E+00  0.00000000000E+00  0.14999999963E+04  0.15000000000E+04  0.10566000000E+00 0.  1.
        994   -1    0    0    0    0 -0.00000000000E+00 -0.00000000000E+00  0.11368683772E-12  0.17120000000E+03  0.17120000000E+03 0.  0.
         13    1    1    2    0    0 -0.15362004322E+02 -0.13316590631E+02  0.71191728344E+02  0.74037801908E+02  0.10566000000E+00 0.  1.
        994    1    1    2    0    0  0.27562670861E+01  0.11252353637E+02  0.33628542870E+01  0.17162447745E+03  0.17120000000E+03 0.  0.
        998    1    1    2    0    0  0.12605737236E+02  0.20642369941E+01  0.14254454136E+04  0.14255377206E+04  0.10000000000E+02 0.  1.
</event>
<event>
 5    1  0.1440459E-008  0.3863011E+03  0.7957747E-01  0.3424173E+00
         13   -1    0    0    0    0  0.00000000000E+00  0.00000000000E+00  0.14999999963E+04  0.15000000000E+04  0.10566000000E+00 0. -1.
        994   -1    0    0    0    0 -0.00000000000E+00 -0.00000000000E+00  0.11368683772E-12  0.17120000000E+03  0.17120000000E+03 0.  0.
         13    1    1    2    0    0  0.55415289859E+01  0.84533467874E+01  0.60590983185E+02  0.61428381248E+02  0.10566000000E+00 0. -1.
        994    1    1    2    0    0 -0.88089136813E+01  0.17717717056E+02  0.22687487819E+01  0.17235458125E+03  0.17120000000E+03 0.  0.
        998    1    1    2    0    0  0.32673846955E+01 -0.26171063843E+02  0.14371402643E+04  0.14374170375E+04  0.10000000000E+02 0. -1.
</event>
<event>
 5    1  0.1440459E-008  0.3707689E+03  0.7957747E-01  0.3492365E+00
         13   -1    0    0    0    0  0.00000000000E+00  0.00000000000E+00  0.14999999963E+04  0.15000000000E+04  0.10566000000E+00 0. -1.
        994   -1    0    0    0    0 -0.00000000000E+00 -0.00000000000E+00  0.11368683772E-12  0.17120000000E+03  0.17120000000E+03 0.  0.
         13    1    1    2    0    0  0.18886306972E+02  0.47865714521E+02  0.11544028501E+03  0.12638943700E+03  0.10566000000E+00 0. -1.
        994    1    1    2    0    0 -0.39886973221E+02 -0.12611693019E+02  0.17505692699E+02  0.17710424814E+03  0.17120000000E+03 0.  0.
        998    1    1    2    0    0  0.21000666249E+02 -0.35254021502E+02  0.13670540186E+04  0.13677063149E+04  0.10000000000E+02 0. -1.
</event>
<event>
 5    1  0.1440459E-008  0.3820245E+03  0.7957747E-01  0.3442390E+00
         13   -1    0    0    0    0  0.00000000000E+00  0.00000000000E+00  0.14999999963E+04  0.15000000000E+04  0.10566000000E+00 0.  1.
        994   -1    0    0    0    0 -0.00000000000E+00 -0.00000000000E+00  0.11368683772E-12  0.17120000000E+03  0.17120000000E+03 0.  0.
         13    1    1    2    0    0  0.30704677400E+02  0.88818273153E+01  0.16436153669E+03  0.16744070586E+03  0.10566000000E+00 0.  1.
        994    1    1    2    0    0 -0.16669683870E+02 -0.60992164617E+01  0.41616431923E+01  0.17216805184E+03  0.17120000000E+03 0.  0.
        998    1    1    2    0    0 -0.14034993530E+02 -0.27826108536E+01  0.13314768164E+04  0.13315912423E+04  0.10000000000E+02 0.  1.
</event>
<event>
 5    1  0.1440459E-008  0.3778733E+03  0.7957747E-01  0.3460471E+00
         13   -1    0    0    0    0  0.00000000000E+00  0.00000000000E+00  0.14999999963E+04  0.15000000000E+04  0.10566000000E+00 0. -1.
        994   -1    0    0    0    0 -0.00000000000E+00 -0.00000000000E+00  0.11368683772E-12  0.17120000000E+03  0.17120000000E+03 0.  0.
         13    1    1    2    0    0  0.65834015270E+01 -0.11907911720E+02  0.15450191126E+02  0.20587838815E+02  0.10566000000E+00 0. -1.
        994    1    1    2    0    0 -0.51379988169E+00  0.12349319959E+02  0.57250176484E+01  0.17174104204E+03  0.17120000000E+03 0.  0.
        998    1    1    2    0    0 -0.60696016453E+01 -0.44140823829E+00  0.14788247875E+04  0.14788711191E+04  0.10000000000E+02 0. -1.
</event>
<event>
 5    1  0.1440459E-008  0.3849480E+03  0.7957747E-01  0.3429893E+00
         13   -1    0    0    0    0  0.00000000000E+00  0.00000000000E+00  0.14999999963E+04  0.15000000000E+04  0.10566000000E+00 0. -1.
        994   -1    0    0    0    0 -0.00000000000E+00 -0.00000000000E+00  0.11368683772E-12  0.17120000000E+03  0.17120000000E+03 0.  0.
         13    1    1    2    0    0  0.42865118342E+00  0.15084520971E+02  0.66439613219E+02  0.68131929985E+02  0.10566000000E+00 0. -1.
        994    1    1    2    0    0 -0.41242770693E+01 -0.15245046836E+02  0.24767774469E+01  0.17194474560E+03  0.17120000000E+03 0.  0.
        998    1    1    2    0    0  0.36956258858E+01  0.16052586499E+00  0.14310836056E+04  0.14311233244E+04  0.10000000000E+02 0. -1.
</event>
<event>
 5    1  0.1440459E-008  0.3812751E+03  0.7957747E-01  0.3445625E+00
         13   -1    0    0    0    0  0.00000000000E+00  0.00000000000E+00  0.14999999963E+04  0.15000000000E+04  0.10566000000E+00 0. -1.
        994   -1    0    0    0    0 -0.00000000000E+00 -0.00000000000E+00  0.11368683772E-12  0.17120000000E+03  0.17120000000E+03 0.  0.
         13    1    1    2    0    0  0.12168985654E+02  0.12569217849E+02  0.43804102285E+02  0.47168633542E+02  0.10566000000E+00 0. -1.
        994    1    1    2    0    0  0.87315162987E+01 -0.14227905714E+02  0.44190602048E+01  0.17206870945E+03  0.17120000000E+03 0.  0.
        998    1    1    2    0    0 -0.20900501952E+02  0.16586878657E+01  0.14517768338E+04  0.14519626570E+04  0.10000000000E+02 0. -1.
</event>
<event>
 5    1  0.1440459E-008  0.3836124E+03  0.7957747E-01  0.3435578E+00
         13   -1    0    0    0    0  0.00000000000E+00  0.00000000000E+00  0.14999999963E+04  0.15000000000E+04  0.10566000000E+00 0.  1.
        994   -1    0    0    0    0 -0.00000000000E+00 -0.00000000000E+00  0.11368683772E-12  0.17120000000E+03  0.17120000000E+03 0.  0.
         13    1    1    2    0    0  0.13064510202E+02 -0.91725158320E+01  0.55793526542E+02  0.58032277583E+02  0.10566000000E+00 0.  1.
        994    1    1    2    0    0 -0.63808999551E+01 -0.90204362425E-01  0.24551588715E+01  0.17133648714E+03  0.17120000000E+03 0.  0.
        998    1    1    2    0    0 -0.66836102473E+01  0.92627201945E+01  0.14417513109E+04  0.14418312353E+04  0.10000000000E+02 0.  1.
</event>
<event>
 5    1  0.1440459E-008  0.3857979E+03  0.7957747E-01  0.3426295E+00
         13   -1    0    0    0    0  0.00000000000E+00  0.00000000000E+00  0.14999999963E+04  0.15000000000E+04  0.10566000000E+00 0. -1.
        994   -1    0    0    0    0 -0.00000000000E+00 -0.00000000000E+00  0.11368683772E-12  0.17120000000E+03  0.17120000000E+03 0.  0.
         13    1    1    2    0    0 -0.11264421931E+02  0.72674933977E+01  0.73634457472E+02  0.74844827162E+02  0.10566000000E+00 0. -1.
        994    1    1    2    0    0  0.79716630337E+01 -0.32432220657E+01  0.14774879843E+01  0.17142254482E+03  0.17120000000E+03 0.  0.
        998    1    1    2    0    0  0.32927588973E+01 -0.40242713320E+01  0.14248880508E+04  0.14249326280E+04  0.10000000000E+02 0. -1.
</event>
<event>
 5    1  0.1440459E-008  0.3788659E+03  0.7957747E-01  0.3456112E+00
         13   -1    0    0    0    0  0.00000000000E+00  0.00000000000E+00  0.14999999963E+04  0.15000000000E+04  0.10566000000E+00 0.  1.
        994   -1    0    0    0    0 -0.00000000000E+00 -0.00000000000E+00  0.11368683772E-12  0.17120000000E+03  0.17120000000E+03 0.  0.
         13    1    1    2    0    0 -0.21288188674E+02 -0.21345634506E+02  0.10573626617E+03  0.10994995333E+03  0.10566000000E+00 0.  1.
        994    1    1    2    0    0  0.35860610562E+01 -0.77543636531E+01  0.49516791686E+01  0.17148454483E+03  0.17120000000E+03 0.  0.
        998    1    1    2    0    0  0.17702127618E+02  0.29099998159E+02  0.13893120509E+04  0.13897655018E+04  0.10000000000E+02 0.  1.
</event>
<event>
 5    1  0.1440459E-008  0.3850058E+03  0.7957747E-01  0.3429648E+00
         13   -1    0    0    0    0  0.00000000000E+00  0.00000000000E+00  0.14999999963E+04  0.15000000000E+04  0.10566000000E+00 0. -1.
        994   -1    0    0    0    0 -0.00000000000E+00 -0.00000000000E+00  0.11368683772E-12  0.17120000000E+03  0.17120000000E+03 0.  0.
         13    1    1    2    0    0  0.42582811851E+01 -0.15871176444E+02  0.77888153035E+02  0.79602781030E+02  0.10566000000E+00 0. -1.
        994    1    1    2    0    0 -0.49408798369E+00  0.20602457330E+02  0.30251882347E+01  0.17246245138E+03  0.17120000000E+03 0.  0.
        998    1    1    2    0    0 -0.37641932015E+01 -0.47312808861E+01  0.14190866550E+04  0.14191347676E+04  0.10000000000E+02 0. -1.
</event>
<event>
 5    1  0.1440459E-008  0.3819186E+03  0.7957747E-01  0.3442847E+00
         13   -1    0    0    0    0  0.00000000000E+00  0.00000000000E+00  0.14999999963E+04  0.15000000000E+04  0.10566000000E+00 0.  1.
        994   -1    0    0    0    0 -0.00000000000E+00 -0.00000000000E+00  0.11368683772E-12  0.17120000000E+03  0.17120000000E+03 0.  0.
         13    1    1    2    0    0 -0.64630785479E+01 -0.10593473883E+02  0.24138215411E+02  0.27141438438E+02  0.10566000000E+00 0.  1.
        994    1    1    2    0    0  0.16861689193E+01 -0.78460486259E+01  0.33817239501E+01  0.17142135136E+03  0.17120000000E+03 0.  0.
        998    1    1    2    0    0  0.47769096286E+01  0.18439522509E+02  0.14724800569E+04  0.14726372102E+04  0.10000000000E+02 0.  1.
</event>
<event>
 5    1  0.1440459E-008  0.2809037E+03  0.7957747E-01  0.4042546E+00
         13   -1    0    0    0    0  0.00000000000E+00  0.00000000000E+00  0.14999999963E+04  0.15000000000E+04  0.10566000000E+00 0.  1.
        994   -1    0    0    0    0 -0.00000000000E+00 -0.00000000000E+00  0.11368683772E-12  0.17120000000E+03  0.17120000000E+03 0.  0.
         13    1    1    2    0    0 -0.40583914249E+02  0.16796120139E+03  0.57184108148E+03  0.59737781421E+03  0.10566000000E+00 0.  1.
        994    1    1    2    0    0  0.80841383050E+01 -0.13768417965E+03  0.95120450676E+02  0.23954044910E+03  0.17120000000E+03 0.  0.
        998    1    1    2    0    0  0.32499775944E+02 -0.30277021739E+02  0.83303846412E+03  0.83428173669E+03  0.10000000000E+02 0.  1.
</event>
<event>
 5    1  0.1440459E-008  0.3849141E+03  0.7957747E-01  0.3430037E+00
         13   -1    0    0    0    0  0.00000000000E+00  0.00000000000E+00  0.14999999963E+04  0.15000000000E+04  0.10566000000E+00 0.  1.
        994   -1    0    0    0    0 -0.00000000000E+00 -0.00000000000E+00  0.11368683772E-12  0.17120000000E+03  0.17120000000E+03 0.  0.
         13    1    1    2    0    0  0.14114432479E+02  0.94088153219E+01  0.92726310266E+02  0.94265172728E+02  0.10566000000E+00 0.  1.
        994    1    1    2    0    0 -0.54035295875E+01  0.61019273399E+01  0.18913613597E+01  0.17140434329E+03  0.17120000000E+03 0.  0.
        998    1    1    2    0    0 -0.87109028920E+01 -0.15510742662E+02  0.14053823247E+04  0.14055304840E+04  0.10000000000E+02 0.  1.
</event>
<event>
 5    1  0.1440459E-008  0.3692271E+03  0.7957747E-01  0.3499451E+00
         13   -1    0    0    0    0  0.00000000000E+00  0.00000000000E+00  0.14999999963E+04  0.15000000000E+04  0.10566000000E+00 0.  1.
        994   -1    0    0    0    0 -0.00000000000E+00 -0.00000000000E+00  0.11368683772E-12  0.17120000000E+03  0.17120000000E+03 0.  0.
         13    1    1    2    0    0 -0.22285934910E+02  0.34019995802E+01  0.20041287691E+02  0.30164563188E+02  0.10566000000E+00 0.  1.
        994    1    1    2    0    0  0.87762910889E+01  0.50632872743E+01  0.10888692535E+02  0.17184488293E+03  0.17120000000E+03 0.  0.
        998    1    1    2    0    0  0.13509643821E+02 -0.84652868546E+01  0.14690700161E+04  0.14691905539E+04  0.10000000000E+02 0.  1.
</event>
<event>
 5    1  0.1440459E-008  0.3769838E+03  0.7957747E-01  0.3464398E+00
         13   -1    0    0    0    0  0.00000000000E+00  0.00000000000E+00  0.14999999963E+04  0.15000000000E+04  0.10566000000E+00 0.  1.
        994   -1    0    0    0    0 -0.00000000000E+00 -0.00000000000E+00  0.11368683772E-12  0.17120000000E+03  0.17120000000E+03 0.  0.
         13    1    1    2    0    0 -0.27234912798E+02  0.28149031375E+02  0.14226672349E+03  0.14755995466E+03  0.10566000000E+00 0.  1.
        994    1    1    2    0    0  0.91817883690E+01 -0.70097034809E+01  0.61142360786E+01  0.17169818014E+03  0.17120000000E+03 0.  0.
        998    1    1    2    0    0  0.18053124429E+02 -0.21139327894E+02  0.13516190367E+04  0.13519418652E+04  0.10000000000E+02 0.  1.
</event>
<event>
 5    1  0.1440459E-008  0.3814128E+03  0.7957747E-01  0.3445030E+00
         13   -1    0    0    0    0  0.00000000000E+00  0.00000000000E+00  0.14999999963E+04  0.15000000000E+04  0.10566000000E+00 0. -1.
        994   -1    0    0    0    0 -0.00000000000E+00 -0.00000000000E+00  0.11368683772E-12  0.17120000000E+03  0.17120000000E+03 0.  0.
         13    1    1    2    0    0 -0.20324657689E+03  0.49510547840E+02  0.11160325300E+04  0.11354686630E+04  0.10566000000E+00 0. -1.
        994    1    1    2    0    0  0.19980740646E+03 -0.63380523181E+02  0.16691284287E+03  0.31797708645E+03  0.17120000000E+03 0.  0.
        998    1    1    2    0    0  0.34391704307E+01  0.13869975340E+02  0.21705462337E+03  0.21775425056E+03  0.10000000000E+02 0. -1.
</event>
<event>
 5    1  0.1440459E-008  0.3852605E+03  0.7957747E-01  0.3428568E+00
         13   -1    0    0    0    0  0.00000000000E+00  0.00000000000E+00  0.14999999963E+04  0.15000000000E+04  0.10566000000E+00 0.  1.
        994   -1    0    0    0    0 -0.00000000000E+00 -0.00000000000E+00  0.11368683772E-12  0.17120000000E+03  0.17120000000E+03 0.  0.
         13    1    1    2    0    0 -0.24797883086E+00 -0.10642273550E+02  0.37741459954E+02  0.39214135759E+02  0.10566000000E+00 0.  1.
        994    1    1    2    0    0  0.36209774213E-02  0.70938172247E+01  0.16662427000E+01  0.17135500757E+03  0.17120000000E+03 0.  0.
        998    1    1    2    0    0  0.24435785344E+00  0.35484563252E+01  0.14605922936E+04  0.14606308567E+04  0.10000000000E+02 0.  0.
</event>
<event>
 5    1  0.1440459E-008  0.3784345E+03  0.7957747E-01  0.3458004E+00
         13   -1    0    0    0    0  0.00000000000E+00  0.00000000000E+00  0.14999999963E+04  0.15000000000E+04  0.10566000000E+00 0.  1.
        994   -1    0    0    0    0 -0.00000000000E+00 -0.00000000000E+00  0.11368683772E-12  0.17120000000E+03  0.17120000000E+03 0.  0.
         13    1    1    2    0    0  0.54981684705E+02  0.78279761296E+01  0.24541933175E+03  0.25162456641E+03  0.10566000000E+00 0.  1.
        994    1    1    2    0    0 -0.61854110486E+02 -0.20407838300E+02  0.19316187832E+02  0.18418731216E+03  0.17120000000E+03 0.  0.
        998    1    1    2    0    0  0.68724257815E+01  0.12579862170E+02  0.12352644767E+04  0.12353881214E+04  0.10000000000E+02 0.  1.
</event>
<event>
 5    1  0.1440459E-008  0.3780807E+03  0.7957747E-01  0.3459558E+00
         13   -1    0    0    0    0  0.00000000000E+00  0.00000000000E+00  0.14999999963E+04  0.15000000000E+04  0.10566000000E+00 0.  1.
        994   -1    0    0    0    0 -0.00000000000E+00 -0.00000000000E+00  0.11368683772E-12  0.17120000000E+03  0.17120000000E+03 0.  0.
         13    1    1    2    0    0  0.91302869972E+02 -0.75427050736E+02  0.66491634302E+03  0.67538078772E+03  0.10566000000E+00 0.  1.
        994    1    1    2    0    0 -0.11618238918E+03  0.58824589938E+02  0.64460908324E+02  0.22455139421E+03  0.17120000000E+03 0.  0.
        998    1    1    2    0    0  0.24879519210E+02  0.16602460798E+02  0.77062274494E+03  0.77126781807E+03  0.10000000000E+02 0.  1.
</event>
<event>
 5    1  0.1440459E-008  0.3046213E+03  0.7957747E-01  0.3863569E+00
         13   -1    0    0    0    0  0.00000000000E+00  0.00000000000E+00  0.14999999963E+04  0.15000000000E+04  0.10566000000E+00 0.  1.
        994   -1    0    0    0    0 -0.00000000000E+00 -0.00000000000E+00  0.11368683772E-12  0.17120000000E+03  0.17120000000E+03 0.  0.
         13    1    1    2    0    0 -0.81352363817E+02 -0.24738106869E+03  0.66519753085E+03  0.71435521028E+03  0.10566000000E+00 0.  1.
        994    1    1    2    0    0  0.56797171844E+02  0.17024545167E+03  0.20499930677E+03  0.32178189558E+03  0.17120000000E+03 0.  0.
        998    1    1    2    0    0  0.24555191973E+02  0.77135617019E+02  0.62980315865E+03  0.63506289414E+03  0.10000000000E+02 0. -1.
</event>
<event>
 5    1  0.1440459E-008  0.3858625E+03  0.7957747E-01  0.3426022E+00
         13   -1    0    0    0    0  0.00000000000E+00  0.00000000000E+00  0.14999999963E+04  0.15000000000E+04  0.10566000000E+00 0.  1.
        994   -1    0    0    0    0 -0.00000000000E+00 -0.00000000000E+00  0.11368683772E-12  0.17120000000E+03  0.17120000000E+03 0.  0.
         13    1    1    2    0    0  0.10265800756E+02 -0.35981844896E+01  0.53677117996E+02  0.54768401083E+02  0.10566000000E+00 0.  1.
        994    1    1    2    0    0  0.25757023434E+01 -0.51518370649E+01  0.13113115402E+01  0.17130188325E+03  0.17120000000E+03 0.  0.
        998    1    1    2    0    0 -0.12841503099E+02  0.87500215545E+01  0.14450115667E+04  0.14451297157E+04  0.10000000000E+02 0.  1.
</event>
<event>
 5    1  0.1440459E-008  0.3839664E+03  0.7957747E-01  0.3434068E+00
         13   -1    0    0    0    0  0.00000000000E+00  0.00000000000E+00  0.14999999963E+04  0.15000000000E+04  0.10566000000E+00 0.  1.
        994   -1    0    0    0    0 -0.00000000000E+00 -0.00000000000E+00  0.11368683772E-12  0.17120000000E+03  0.17120000000E+03 0.  0.
         13    1    1    2    0    0 -0.75216463773E+01  0.72314957297E+01  0.25738936535E+02  0.27773615406E+02  0.10566000000E+00 0.  1.
        994    1    1    2    0    0  0.44471905108E+01  0.96995004271E+01  0.25199567243E+01  0.17155071552E+03  0.17120000000E+03 0.  0.
        998    1    1    2    0    0  0.30744558665E+01 -0.16930996157E+02  0.14717411030E+04  0.14718756691E+04  0.10000000000E+02 0.  1.
</event>
<event>
 5    1  0.1440459E-008  0.3861132E+03  0.7957747E-01  0.3424965E+00
         13   -1    0    0    0    0  0.00000000000E+00  0.00000000000E+00  0.14999999963E+04  0.15000000000E+04  0.10566000000E+00 0.  1.
        994   -1    0    0    0    0 -0.00000000000E+00 -0.00000000000E+00  0.11368683772E-12  0.17120000000E+03  0.17120000000E+03 0.  0.
         13    1    1    2    0    0  0.11079552532E+02  0.35542527480E+01  0.62223787155E+02  0.63302448996E+02  0.10566000000E+00 0.  1.
        994    1    1    2    0    0 -0.10009013519E+02 -0.39438469837E+01  0.14577909955E+01  0.17154387029E+03  0.17120000000E+03 0.  0.
        998    1    1    2    0    0 -0.10705390133E+01  0.38959423563E+00  0.14363184181E+04  0.14363536807E+04  0.10000000000E+02 0.  1.
</event>
<event>
 5    1  0.1440459E-008  0.3700107E+03  0.7957747E-01  0.3495842E+00
         13   -1    0    0    0    0  0.00000000000E+00  0.00000000000E+00  0.14999999963E+04  0.15000000000E+04  0.10566000000E+00 0. -1.
        994   -1    0    0    0    0 -0.00000000000E+00 -0.00000000000E+00  0.11368683772E-12  0.17120000000E+03  0.17120000000E+03 0.  0.
         13    1    1    2    0    0  0.60624520337E+01 -0.94546820172E+01  0.24632923303E+01  0.11498839500E+02  0.10566000000E+00 0. -1.
        994    1    1    2    0    0 -0.70834296897E+01  0.10497561987E+02  0.98181437416E+01  0.17194827632E+03  0.17120000000E+03 0.  0.
        998    1    1    2    0    0  0.10209776561E+01 -0.10428799699E+01  0.14877185602E+04  0.14877528842E+04  0.10000000000E+02 0. -1.
</event>
<event>
 5    1  0.1440459E-008  0.3856387E+03  0.7957747E-01  0.3426968E+00
         13   -1    0    0    0    0  0.00000000000E+00  0.00000000000E+00  0.14999999963E+04  0.15000000000E+04  0.10566000000E+00 0. -1.
        994   -1    0    0    0    0 -0.00000000000E+00 -0.00000000000E+00  0.11368683772E-12  0.17120000000E+03  0.17120000000E+03 0.  0.
         13    1    1    2    0    0 -0.65906945486E+01 -0.10008897200E+02  0.53953374739E+02  0.55268373303E+02  0.10566000000E+00 0. -1.
        994    1    1    2    0    0  0.17234277380E+01  0.12216898172E+02  0.18130798520E+01  0.17165357574E+03  0.17120000000E+03 0.  0.
        998    1    1    2    0    0  0.48672668106E+01 -0.22080009715E+01  0.14442335417E+04  0.14442780510E+04  0.10000000000E+02 0. -1.
</event>
<event>
 5    1  0.1440459E-008  0.3802069E+03  0.7957747E-01  0.3450258E+00
         13   -1    0    0    0    0  0.00000000000E+00  0.00000000000E+00  0.14999999963E+04  0.15000000000E+04  0.10566000000E+00 0. -1.
        994   -1    0    0    0    0 -0.00000000000E+00 -0.00000000000E+00  0.11368683772E-12  0.17120000000E+03  0.17120000000E+03 0.  0.
         13    1    1    2    0    0  0.38835312553E+02 -0.16608551161E+02  0.22969216332E+03  0.23354341465E+03  0.10566000000E+00 0. -1.
        994    1    1    2    0    0 -0.26489394286E+02 -0.11745792121E+02  0.68387921854E+01  0.17376956212E+03  0.17120000000E+03 0.  0.
        998    1    1    2    0    0 -0.12345918266E+02  0.28354343283E+02  0.12634690408E+04  0.12638870232E+04  0.10000000000E+02 0. -1.
</event>
<event>
 5    1  0.1440459E-008  0.3754096E+03  0.7957747E-01  0.3471393E+00
         13   -1    0    0    0    0  0.00000000000E+00  0.00000000000E+00  0.14999999963E+04  0.15000000000E+04  0.10566000000E+00 0. -1.
        994   -1    0    0    0    0 -0.00000000000E+00 -0.00000000000E+00  0.11368683772E-12  0.17120000000E+03  0.17120000000E+03 0.  0.
         13    1    1    2    0    0  0.66647266055E+02  0.66296407811E+02  0.51511314662E+03  0.52362069931E+03  0.10566000000E+00 0. -1.
        994    1    1    2    0    0 -0.63438348845E+02 -0.51042763301E+02  0.29316882728E+02  0.19182989184E+03  0.17120000000E+03 0.  0.
        998    1    1    2    0    0 -0.32089172094E+01 -0.15253644510E+02  0.95556996693E+03  0.95574940886E+03  0.10000000000E+02 0. -1.
</event>
<event>
 5    1  0.1440459E-008  0.3838203E+03  0.7957747E-01  0.3434691E+00
         13   -1    0    0    0    0  0.00000000000E+00  0.00000000000E+00  0.14999999963E+04  0.15000000000E+04  0.10566000000E+00 0.  1.
        994   -1    0    0    0    0 -0.00000000000E+00 -0.00000000000E+00  0.11368683772E-12  0.17120000000E+03  0.17120000000E+03 0.  0.
         13    1    1    2    0    0  0.10460678497E+02  0.19075920089E+02  0.96777153786E+02  0.99192465343E+02  0.10566000000E+00 0.  1.
        994    1    1    2    0    0 -0.99701709883E+01 -0.26237464030E+02  0.48220751843E+01  0.17355258926E+03  0.17120000000E+03 0.  0.
        998    1    1    2    0    0 -0.49050750853E+00  0.71615439407E+01  0.13984007673E+04  0.13984549454E+04  0.10000000000E+02 0.  1.
</event>
<event>
 5    1  0.1440459E-008  0.3842793E+03  0.7957747E-01  0.3432735E+00
         13   -1    0    0    0    0  0.00000000000E+00  0.00000000000E+00  0.14999999963E+04  0.15000000000E+04  0.10566000000E+00 0. -1.
        994   -1    0    0    0    0 -0.00000000000E+00 -0.00000000000E+00  0.11368683772E-12  0.17120000000E+03  0.17120000000E+03 0.  0.
         13    1    1    2    0    0 -0.61275670183E+01 -0.12255141720E+02  0.50556602481E+02  0.52380500137E+02  0.10566000000E+00 0. -1.
        994    1    1    2    0    0 -0.73661617271E+01 -0.25856261950E+01  0.21893160467E+01  0.17139188693E+03  0.17120000000E+03 0.  0.
        998    1    1    2    0    0  0.13493728745E+02  0.14840767915E+02  0.14472540778E+04  0.14474276129E+04  0.10000000000E+02 0. -1.
</event>
<event>
 5    1  0.1440459E-008  0.3945437E+03  0.7957747E-01  0.3390178E+00
         13   -1    0    0    0    0  0.00000000000E+00  0.00000000000E+00  0.14999999963E+04  0.15000000000E+04  0.10566000000E+00 0. -1.
        994   -1    0    0    0    0 -0.00000000000E+00 -0.00000000000E+00  0.11368683772E-12  0.17120000000E+03  0.17120000000E+03 0.  0.
         13    1    1    2    0    0 -0.11585581631E+03 -0.30025022081E+01  0.28453116955E+03  0.30722887690E+03  0.10566000000E+00 0. -1.
        994    1    1    2    0    0  0.59061868693E+02 -0.23117310368E+02  0.40130949564E+02  0.18692952545E+03  0.17120000000E+03 0.  0.
        998    1    1    2    0    0  0.56793947619E+02  0.26119812576E+02  0.11753378772E+04  0.11770415977E+04  0.10000000000E+02 0. -1.
</event>
<event>
 5    1  0.1440459E-008  0.3851827E+03  0.7957747E-01  0.3428898E+00
         13   -1    0    0    0    0  0.00000000000E+00  0.00000000000E+00  0.14999999963E+04  0.15000000000E+04  0.10566000000E+00 0. -1.
        994   -1    0    0    0    0 -0.00000000000E+00 -0.00000000000E+00  0.11368683772E-12  0.17120000000E+03  0.17120000000E+03 0.  0.
         13    1    1    2    0    0 -0.84632688475E+01 -0.81765535906E+01  0.48634902524E+02  0.50038463763E+02  0.10566000000E+00 0. -1.
        994    1    1    2    0    0 -0.37299915466E+01 -0.43808592674E+01  0.16482910029E+01  0.17130458729E+03  0.17120000000E+03 0.  0.
        998    1    1    2    0    0  0.12193260394E+02  0.12557412858E+02  0.14497168028E+04  0.14498569489E+04  0.10000000000E+02 0. -1.
</event>
<event>
 5    1  0.1440459E-008  0.3831588E+03  0.7957747E-01  0.3437519E+00
         13   -1    0    0    0    0  0.00000000000E+00  0.00000000000E+00  0.14999999963E+04  0.15000000000E+04  0.10566000000E+00 0.  1.
        994   -1    0    0    0    0 -0.00000000000E+00 -0.00000000000E+00  0.11368683772E-12  0.17120000000E+03  0.17120000000E+03 0.  0.
         13    1    1    2    0    0 -0.23080021742E+02  0.54597299991E+01  0.13893233323E+03  0.14094218827E+03  0.10566000000E+00 0.  1.
        994    1    1    2    0    0 -0.16468037814E+02 -0.34498685654E+01  0.34841697851E+01  0.17206009794E+03  0.17120000000E+03 0.  0.
        998    1    1    2    0    0  0.39548059556E+02 -0.20098614338E+01  0.13575834933E+04  0.13581977138E+04  0.10000000000E+02 0.  1.
</event>
<event>
 5    1  0.1440459E-008  0.3697233E+03  0.7957747E-01  0.3497164E+00
         13   -1    0    0    0    0  0.00000000000E+00  0.00000000000E+00  0.14999999963E+04  0.15000000000E+04  0.10566000000E+00 0. -1.
        994   -1    0    0    0    0 -0.00000000000E+00 -0.00000000000E+00  0.11368683772E-12  0.17120000000E+03  0.17120000000E+03 0.  0.
         13    1    1    2    0    0  0.33446247516E+02 -0.14582757998E+01  0.55996024848E+02  0.65240662198E+02  0.10566000000E+00 0. -1.
        994    1    1    2    0    0 -0.21060419151E+02  0.18710059729E+02  0.12165309944E+02  0.17392826785E+03  0.17120000000E+03 0.  0.
        998    1    1    2    0    0 -0.12385828365E+02 -0.17251783929E+02  0.14318386615E+04  0.14320310700E+04  0.10000000000E+02 0. -1.
</event>
<event>
 5    1  0.1440459E-008  0.3887759E+03  0.7957747E-01  0.3413814E+00
         13   -1    0    0    0    0  0.00000000000E+00  0.00000000000E+00  0.14999999963E+04  0.15000000000E+04  0.10566000000E+00 0.  1.
        994   -1    0    0    0    0 -0.00000000000E+00 -0.00000000000E+00  0.11368683772E-12  0.17120000000E+03  0.17120000000E+03 0.  0.
         13    1    1    2    0    0  0.60176965541E+02 -0.51858149968E+02  0.15735212723E+03  0.17626751830E+03  0.10566000000E+00 0.  1.
        994    1    1    2    0    0 -0.26511515696E+02  0.53225393433E+01  0.23976371471E+02  0.17497284440E+03  0.17120000000E+03 0.  0.
        998    1    1    2    0    0 -0.33665449845E+02  0.46535610625E+02  0.13186714976E+04  0.13199596373E+04  0.10000000000E+02 0.  1.
</event>
<event>
 5    1  0.1440459E-008  0.3814594E+03  0.7957747E-01  0.3444828E+00
         13   -1    0    0    0    0  0.00000000000E+00  0.00000000000E+00  0.14999999963E+04  0.15000000000E+04  0.10566000000E+00 0. -1.
        994   -1    0    0    0    0 -0.00000000000E+00 -0.00000000000E+00  0.11368683772E-12  0.17120000000E+03  0.17120000000E+03 0.  0.
         13    1    1    2    0    0  0.22594176904E+02  0.75021400363E+01  0.79514963726E+02  0.83002527404E+02  0.10566000000E+00 0. -1.
        994    1    1    2    0    0 -0.20656801609E+02 -0.65117404400E+01  0.49604494442E+01  0.17263589509E+03  0.17120000000E+03 0.  0.
        998    1    1    2    0    0 -0.19373752952E+01 -0.99039959627E+00  0.14155245831E+04  0.14155615775E+04  0.10000000000E+02 0. -1.
</event>
<event>
 5    1  0.1440459E-008  0.3743167E+03  0.7957747E-01  0.3476284E+00
         13   -1    0    0    0    0  0.00000000000E+00  0.00000000000E+00  0.14999999963E+04  0.15000000000E+04  0.10566000000E+00 0. -1.
        994   -1    0    0    0    0 -0.00000000000E+00 -0.00000000000E+00  0.11368683772E-12  0.17120000000E+03  0.17120000000E+03 0.  0.
         13    1    1    2    0    0  0.64931374384E+01 -0.21526358262E+02  0.32631854811E+02  0.39628197616E+02  0.10566000000E+00 0. -1.
        994    1    1    2    0    0 -0.46741567425E+01  0.19961346238E+02  0.84633198828E+01  0.17263073558E+03  0.17120000000E+03 0.  0.
        998    1    1    2    0    0 -0.18189806958E+01  0.15650120236E+01  0.14589048216E+04  0.14589410668E+04  0.10000000000E+02 0. -1.
</event>
<event>
 5    1  0.1440459E-008  0.3804296E+03  0.7957747E-01  0.3449290E+00
         13   -1    0    0    0    0  0.00000000000E+00  0.00000000000E+00  0.14999999963E+04  0.15000000000E+04  0.10566000000E+00 0. -1.
        994   -1    0    0    0    0 -0.00000000000E+00 -0.00000000000E+00  0.11368683772E-12  0.17120000000E+03  0.17120000000E+03 0.  0.
         13    1    1    2    0    0  0.53890256778E+02  0.12705979268E+02  0.31893415793E+03  0.32370451023E+03  0.10566000000E+00 0. -1.
        994    1    1    2    0    0 -0.47638782825E+02 -0.29186503266E+02  0.14407106196E+02  0.18066076030E+03  0.17120000000E+03 0.  0.
        998    1    1    2    0    0 -0.62514739539E+01  0.16480523998E+02  0.11666587322E+04  0.11668347295E+04  0.10000000000E+02 0.  1.
</event>
<event>
 5    1  0.1440459E-008  0.3873855E+03  0.7957747E-01  0.3419618E+00
         13   -1    0    0    0    0  0.00000000000E+00  0.00000000000E+00  0.14999999963E+04  0.15000000000E+04  0.10566000000E+00 0. -1.
        994   -1    0    0    0    0 -0.00000000000E+00 -0.00000000000E+00  0.11368683772E-12  0.17120000000E+03  0.17120000000E+03 0.  0.
         13    1    1    2    0    0 -0.84035022665E+01 -0.58888446985E+02  0.75007351708E+02  0.95731823407E+02  0.10566000000E+00 0. -1.
        994    1    1    2    0    0  0.88250963947E+01  0.62507928697E+02  0.35443743470E+02  0.18587851524E+03  0.17120000000E+03 0.  0.
        998    1    1    2    0    0 -0.42159412823E+00 -0.36194817121E+01  0.13895489011E+04  0.13895896614E+04  0.10000000000E+02 0. -1.
</event>
<event>
 5    1  0.1440459E-008  0.3810817E+03  0.7957747E-01  0.3446462E+00
         13   -1    0    0    0    0  0.00000000000E+00  0.00000000000E+00  0.14999999963E+04  0.15000000000E+04  0.10566000000E+00 0. -1.
        994   -1    0    0    0    0 -0.00000000000E+00 -0.00000000000E+00  0.11368683772E-12  0.17120000000E+03  0.17120000000E+03 0.  0.
         13    1    1    2    0    0  0.90952664117E+01  0.62692966473E+01  0.15215874528E+02  0.18803243157E+02  0.10566000000E+00 0. -1.
        994    1    1    2    0    0 -0.12783892477E+02 -0.76664019488E+01  0.43286279214E+01  0.17190223572E+03  0.17120000000E+03 0.  0.
        998    1    1    2    0    0  0.36886260655E+01  0.13971053016E+01  0.14804554938E+04  0.14804945211E+04  0.10000000000E+02 0. -1.
</event>
<event>
 5    1  0.1440459E-008  0.3818436E+03  0.7957747E-01  0.3443170E+00
         13   -1    0    0    0    0  0.00000000000E+00  0.00000000000E+00  0.14999999963E+04  0.15000000000E+04  0.10566000000E+00 0. -1.
        994   -1    0    0    0    0 -0.00000000000E+00 -0.00000000000E+00  0.11368683772E-12  0.17120000000E+03  0.17120000000E+03 0.  0.
         13    1    1    2    0    0 -0.61007690919E+02 -0.44665992447E+02  0.17335807220E+03  0.18912964229E+03  0.10566000000E+00 0. -1.
        994    1    1    2    0    0  0.27183792473E+02  0.78127931889E+01  0.20267497878E+02  0.17470034282E+03  0.17120000000E+03 0.  0.
        998    1    1    2    0    0  0.33823898446E+02  0.36853199259E+02  0.13063744262E+04  0.13073700149E+04  0.10000000000E+02 0. -1.
</event>
<event>
 5    1  0.1532631E-008  0.3864503E+03  0.7957747E-01  0.3423545E+00
         13   -1    0    0    0    0  0.00000000000E+00  0.00000000000E+00  0.14999999963E+04  0.15000000000E+04  0.10566000000E+00 0.  1.
        994   -1    0    0    0    0 -0.00000000000E+00 -0.00000000000E+00  0.11368683772E-12  0.17120000000E+03  0.17120000000E+03 0.  0.
         13    1    1    2    0    0  0.85868729264E+00 -0.99737126486E+01  0.54418792159E+02  0.55331983445E+02  0.10566000000E+00 0.  1.
        994    1    1    2    0    0 -0.19905662497E+01  0.10600003304E+02  0.12926462085E+01  0.17154426064E+03  0.17120000000E+03 0.  0.
        998    1    1    2    0    0  0.11318789570E+01 -0.62629065513E+00  0.14442885579E+04  0.14443237559E+04  0.10000000000E+02 0.  0.
</event>
<event>
 5    1  0.1440459E-008  0.3799303E+03  0.7957747E-01  0.3451462E+00
         13   -1    0    0    0    0  0.00000000000E+00  0.00000000000E+00  0.14999999963E+04  0.15000000000E+04  0.10566000000E+00 0. -1.
        994   -1    0    0    0    0 -0.00000000000E+00 -0.00000000000E+00  0.11368683772E-12  0.17120000000E+03  0.17120000000E+03 0.  0.
         13    1    1    2    0    0  0.71228506122E+01  0.10779651953E+02  0.17322617748E+02  0.21610648920E+02  0.10566000000E+00 0. -1.
        994    1    1    2    0    0 -0.55656461953E+02  0.30365115692E+01  0.14627583910E+02  0.18063850191E+03  0.17120000000E+03 0.  0.
        998    1    1    2    0    0  0.48533611341E+02 -0.13816163522E+02  0.14680497946E+04  0.14689508492E+04  0.10000000000E+02 0. -1.
</event>
<event>
 5    1  0.1440459E-008  0.3744727E+03  0.7957747E-01  0.3475584E+00
         13   -1    0    0    0    0  0.00000000000E+00  0.00000000000E+00  0.14999999963E+04  0.15000000000E+04  0.10566000000E+00 0. -1.
        994   -1    0    0    0    0 -0.00000000000E+00 -0.00000000000E+00  0.11368683772E-12  0.17120000000E+03  0.17120000000E+03 0.  0.
         13    1    1    2    0    0  0.91595389736E+01  0.34726293472E+02  0.87233408396E+02  0.94337115267E+02  0.10566000000E+00 0. -1.
        994    1    1    2    0    0  0.64765587143E+01 -0.33959659320E+02  0.11030549977E+02  0.17500376369E+03  0.17120000000E+03 0.  0.
        998    1    1    2    0    0 -0.15636097688E+02 -0.76663415188E+00  0.14017360379E+04  0.14018591210E+04  0.10000000000E+02 0. -1.
</event>
<event>
 5    1  0.1499715E-008  0.3851757E+03  0.7957747E-01  0.3428927E+00
         13   -1    0    0    0    0  0.00000000000E+00  0.00000000000E+00  0.14999999963E+04  0.15000000000E+04  0.10566000000E+00 0. -1.
        994   -1    0    0    0    0 -0.00000000000E+00 -0.00000000000E+00  0.11368683772E-12  0.17120000000E+03  0.17120000000E+03 0.  0.
         13    1    1    2    0    0  0.10434441510E+02 -0.68353391477E+01  0.48767381286E+02  0.50337541382E+02  0.10566000000E+00 0. -1.
        994    1    1    2    0    0 -0.11778846703E+02  0.83225017190E+01  0.22268987476E+01  0.17182084956E+03  0.17120000000E+03 0.  0.
        998    1    1    2    0    0  0.13444051929E+01 -0.14871625714E+01  0.14490057162E+04  0.14490416091E+04  0.10000000000E+02 0. -1.
</event>
<event>
 5    1  0.1440459E-008  0.3792459E+03  0.7957747E-01  0.3454449E+00
         13   -1    0    0    0    0  0.00000000000E+00  0.00000000000E+00  0.14999999963E+04  0.15000000000E+04  0.10566000000E+00 0. -1.
        994   -1    0    0    0    0 -0.00000000000E+00 -0.00000000000E+00  0.11368683772E-12  0.17120000000E+03  0.17120000000E+03 0.  0.
         13    1    1    2    0    0  0.61101233422E+01 -0.11199206351E+02  0.16203357554E+02  0.20623185744E+02  0.10566000000E+00 0. -1.
        994    1    1    2    0    0 -0.21622936698E+01  0.59066363477E+01  0.46468847809E+01  0.17137852084E+03  0.17120000000E+03 0.  0.
        998    1    1    2    0    0 -0.39478296725E+01  0.52925700038E+01  0.14791497539E+04  0.14791982934E+04  0.10000000000E+02 0. -1.
</event>
<event>
 5    1  0.1440459E-008  0.3815133E+03  0.7957747E-01  0.3444596E+00
         13   -1    0    0    0    0  0.00000000000E+00  0.00000000000E+00  0.14999999963E+04  0.15000000000E+04  0.10566000000E+00 0. -1.
        994   -1    0    0    0    0 -0.00000000000E+00 -0.00000000000E+00  0.11368683772E-12  0.17120000000E+03  0.17120000000E+03 0.  0.
         13    1    1    2    0    0 -0.61860475560E+02 -0.12085560446E+03  0.81083489193E+03  0.82212287931E+03  0.10566000000E+00 0. -1.
        994    1    1    2    0    0  0.49716747672E+02  0.14763752250E+03  0.88814345801E+02  0.24792341775E+03  0.17120000000E+03 0.  0.
        998    1    1    2    0    0  0.12143727887E+02 -0.26781918037E+02  0.60035075855E+03  0.60115370294E+03  0.10000000000E+02 0. -1.
</event>
<event>
 5    1  0.1440459E-008  0.3796631E+03  0.7957747E-01  0.3452627E+00
         13   -1    0    0    0    0  0.00000000000E+00  0.00000000000E+00  0.14999999963E+04  0.15000000000E+04  0.10566000000E+00 0.  1.
        994   -1    0    0    0    0 -0.00000000000E+00 -0.00000000000E+00  0.11368683772E-12  0.17120000000E+03  0.17120000000E+03 0.  0.
         13    1    1    2    0    0 -0.22435444121E+02 -0.10173006353E+02  0.72545372426E+02  0.76613846240E+02  0.10566000000E+00 0.  1.
        994    1    1    2    0    0  0.17119782523E+01  0.57204399213E+01  0.44226359665E+01  0.17136118000E+03  0.17120000000E+03 0.  0.
        998    1    1    2    0    0  0.20723465869E+02  0.44525664314E+01  0.14230319879E+04  0.14232249738E+04  0.10000000000E+02 0.  1.
</event>
<event>
 5    1  0.1440459E-008  0.3821143E+03  0.7957747E-01  0.3442004E+00
         13   -1    0    0    0    0  0.00000000000E+00  0.00000000000E+00  0.14999999963E+04  0.15000000000E+04  0.10566000000E+00 0.  1.
        994   -1    0    0    0    0 -0.00000000000E+00 -0.00000000000E+00  0.11368683772E-12  0.17120000000E+03  0.17120000000E+03 0.  0.
         13    1    1    2    0    0 -0.19111931456E+02  0.60327304019E+01  0.67411663297E+02  0.70327827157E+02  0.10566000000E+00 0.  1.
        994    1    1    2    0    0  0.17819524633E+01 -0.61768203819E+01  0.32068670228E+01  0.17135067102E+03  0.17120000000E+03 0.  0.
        998    1    1    2    0    0  0.17329978993E+02  0.14408997997E+00  0.14293814660E+04  0.14295215018E+04  0.10000000000E+02 0.  1.
</event>
<event>
 5    1  0.1440459E-008  0.3964967E+03  0.7957747E-01  0.3382330E+00
         13   -1    0    0    0    0  0.00000000000E+00  0.00000000000E+00  0.14999999963E+04  0.15000000000E+04  0.10566000000E+00 0. -1.
        994   -1    0    0    0    0 -0.00000000000E+00 -0.00000000000E+00  0.11368683772E-12  0.17120000000E+03  0.17120000000E+03 0.  0.
         13    1    1    2    0    0  0.34450547730E+02 -0.49513964018E+02  0.61320601680E+02  0.86015697557E+02  0.10566000000E+00 0. -1.
        994    1    1    2    0    0 -0.29733649145E+02  0.39952070061E+02  0.35335645660E+02  0.18176442349E+03  0.17120000000E+03 0.  0.
        998    1    1    2    0    0 -0.47168985851E+01  0.95618939577E+01  0.14033437489E+04  0.14034198789E+04  0.10000000000E+02 0. -1.
</event>
<event>
 5    1  0.1440459E-008  0.3804228E+03  0.7957747E-01  0.3449319E+00
         13   -1    0    0    0    0  0.00000000000E+00  0.00000000000E+00  0.14999999963E+04  0.15000000000E+04  0.10566000000E+00 0.  1.
        994   -1    0    0    0    0 -0.00000000000E+00 -0.00000000000E+00  0.11368683772E-12  0.17120000000E+03  0.17120000000E+03 0.  0.
         13    1    1    2    0    0  0.14873657775E+01 -0.32140303857E+02  0.13825166092E+03  0.14194627258E+03  0.10566000000E+00 0.  1.
        994    1    1    2    0    0 -0.34986186629E+01  0.10003844744E+02  0.42948844462E+01  0.17158147707E+03  0.17120000000E+03 0.  0.
        998    1    1    2    0    0  0.20112528855E+01  0.22136459112E+02  0.13574534509E+04  0.13576722503E+04  0.10000000000E+02 0.  1.
</event>
<event>
 5    1  0.1440459E-008  0.3814777E+03  0.7957747E-01  0.3444749E+00
         13   -1    0    0    0    0  0.00000000000E+00  0.00000000000E+00  0.14999999963E+04  0.15000000000E+04  0.10566000000E+00 0. -1.
        994   -1    0    0    0    0 -0.00000000000E+00 -0.00000000000E+00  0.11368683772E-12  0.17120000000E+03  0.17120000000E+03 0.  0.
         13    1    1    2    0    0  0.23781340001E+02  0.11641916695E+02  0.99172589137E+02  0.10264648049E+03  0.10566000000E+00 0. -1.
        994    1    1    2    0    0 -0.20945356566E+02 -0.68033176790E+01  0.50041376167E+01  0.17268316214E+03  0.17120000000E+03 0.  0.
        998    1    1    2    0    0 -0.28359834348E+01 -0.48385990162E+01  0.13958232695E+04  0.13958703574E+04  0.10000000000E+02 0. -1.
</event>
<event>
 5    1  0.1440459E-008  0.3844421E+03  0.7957747E-01  0.3432042E+00
         13   -1    0    0    0    0  0.00000000000E+00  0.00000000000E+00  0.14999999963E+04  0.15000000000E+04  0.10566000000E+00 0. -1.
        994   -1    0    0    0    0 -0.00000000000E+00 -0.00000000000E+00  0.11368683772E-12  0.17120000000E+03  0.17120000000E+03 0.  0.
         13    1    1    2    0    0  0.16225571969E+02  0.35072226900E+01  0.68366447547E+02  0.70353053317E+02  0.10566000000E+00 0. -1.
        994    1    1    2    0    0 -0.19326448932E+02 -0.26137478401E+01  0.31614851834E+01  0.17233623616E+03  0.17120000000E+03 0.  0.
        998    1    1    2    0    0  0.31008769626E+01 -0.89347484988E+00  0.14284720635E+04  0.14285107105E+04  0.10000000000E+02 0. -1.
</event>
<event>
 5    1  0.1440459E-008  0.3731597E+03  0.7957747E-01  0.3481494E+00
         13   -1    0    0    0    0  0.00000000000E+00  0.00000000000E+00  0.14999999963E+04  0.15000000000E+04  0.10566000000E+00 0.  1.
        994   -1    0    0    0    0 -0.00000000000E+00 -0.00000000000E+00  0.11368683772E-12  0.17120000000E+03  0.17120000000E+03 0.  0.
         13    1    1    2    0    0  0.12556798059E+02  0.18615371790E+02  0.30038300521E+02  0.37503545254E+02  0.10566000000E+00 0.  1.
        994    1    1    2    0    0 -0.90189011929E+01 -0.10662097861E+02  0.82941237864E+01  0.17196875704E+03  0.17120000000E+03 0.  0.
        998    1    1    2    0    0 -0.35378968664E+01 -0.79532739291E+01  0.14616675720E+04  0.14617276977E+04  0.10000000000E+02 0.  1.
</event>
<event>
 5    1  0.1440459E-008  0.3855425E+03  0.7957747E-01  0.3427375E+00
         13   -1    0    0    0    0  0.00000000000E+00  0.00000000000E+00  0.14999999963E+04  0.15000000000E+04  0.10566000000E+00 0. -1.
        994   -1    0    0    0    0 -0.00000000000E+00 -0.00000000000E+00  0.11368683772E-12  0.17120000000E+03  0.17120000000E+03 0.  0.
         13    1    1    2    0    0  0.82966634924E+01 -0.10920165732E+02  0.67768484105E+02  0.69142340477E+02  0.10566000000E+00 0. -1.
        994    1    1    2    0    0 -0.85602700842E+01  0.93481659094E+01  0.18886809851E+01  0.17167898400E+03  0.17120000000E+03 0.  0.
        998    1    1    2    0    0  0.26360659185E+00  0.15719998226E+01  0.14303428312E+04  0.14303786755E+04  0.10000000000E+02 0. -1.
</event>
<event>
 5    1  0.1440459E-008  0.3818403E+03  0.7957747E-01  0.3443185E+00
         13   -1    0    0    0    0  0.00000000000E+00  0.00000000000E+00  0.14999999963E+04  0.15000000000E+04  0.10566000000E+00 0.  1.
        994   -1    0    0    0    0 -0.00000000000E+00 -0.00000000000E+00  0.11368683772E-12  0.17120000000E+03  0.17120000000E+03 0.  0.
         13    1    1    2    0    0  0.33238530840E+01  0.95633524561E+01  0.14052141468E+02  0.17319917823E+02  0.10566000000E+00 0.  1.
        994    1    1    2    0    0 -0.69083781411E+01 -0.21977849708E+02  0.49725960452E+01  0.17281469347E+03  0.17120000000E+03 0.  0.
        998    1    1    2    0    0  0.35845250571E+01  0.12414497252E+02  0.14809752588E+04  0.14810653887E+04  0.10000000000E+02 0.  1.
</event>
<event>
 5    1  0.1440459E-008  0.3721216E+03  0.7957747E-01  0.3486197E+00
         13   -1    0    0    0    0  0.00000000000E+00  0.00000000000E+00  0.14999999963E+04  0.15000000000E+04  0.10566000000E+00 0. -1.
        994   -1    0    0    0    0 -0.00000000000E+00 -0.00000000000E+00  0.11368683772E-12  0.17120000000E+03  0.17120000000E+03 0.  0.
         13    1    1    2    0    0 -0.22067874731E+02  0.71009403650E+02  0.39313098485E+03  0.40010162323E+03  0.10566000000E+00 0. -1.
        994    1    1    2    0    0 -0.28234546081E+02 -0.36459525548E+02  0.15499115838E+02  0.17797794579E+03  0.17120000000E+03 0.  0.
        998    1    1    2    0    0  0.50302420812E+02 -0.34549878102E+02  0.10913698956E+04  0.10931204310E+04  0.10000000000E+02 0. -1.
</event>
<event>
 5    1  0.1505004E-008  0.3860253E+03  0.7957747E-01  0.3425335E+00
         13   -1    0    0    0    0  0.00000000000E+00  0.00000000000E+00  0.14999999963E+04  0.15000000000E+04  0.10566000000E+00 0. -1.
        994   -1    0    0    0    0 -0.00000000000E+00 -0.00000000000E+00  0.11368683772E-12  0.17120000000E+03  0.17120000000E+03 0.  0.
         13    1    1    2    0    0 -0.10742077357E+02  0.31092321582E+01  0.54286187805E+02  0.55426175234E+02  0.10566000000E+00 0. -1.
        994    1    1    2    0    0  0.11322336275E+02 -0.80867562950E+01  0.17567528662E+01  0.17177344704E+03  0.17120000000E+03 0.  0.
        998    1    1    2    0    0 -0.58025891796E+00  0.49775241368E+01  0.14439570556E+04  0.14440003777E+04  0.10000000000E+02 0. -1.
</event>
<event>
 5    1  0.1440459E-008  0.3754786E+03  0.7957747E-01  0.3471085E+00
         13   -1    0    0    0    0  0.00000000000E+00  0.00000000000E+00  0.14999999963E+04  0.15000000000E+04  0.10566000000E+00 0. -1.
        994   -1    0    0    0    0 -0.00000000000E+00 -0.00000000000E+00  0.11368683772E-12  0.17120000000E+03  0.17120000000E+03 0.  0.
         13    1    1    2    0    0  0.42850103251E+02  0.34317968168E+02  0.29672809469E+03  0.30176386071E+03  0.10566000000E+00 0. -1.
        994    1    1    2    0    0 -0.45057388572E+01  0.46942552896E+01  0.65768554331E+01  0.17144979657E+03  0.17120000000E+03 0.  0.
        998    1    1    2    0    0 -0.38344364394E+02 -0.39012223458E+02  0.11966950462E+04  0.11979863427E+04  0.10000000000E+02 0. -1.
</event>
<event>
 5    1  0.1440459E-008  0.3850011E+03  0.7957747E-01  0.3429668E+00
         13   -1    0    0    0    0  0.00000000000E+00  0.00000000000E+00  0.14999999963E+04  0.15000000000E+04  0.10566000000E+00 0. -1.
        994   -1    0    0    0    0 -0.00000000000E+00 -0.00000000000E+00  0.11368683772E-12  0.17120000000E+03  0.17120000000E+03 0.  0.
         13    1    1    2    0    0  0.49157563463E+01 -0.18021933941E+02  0.88645370126E+02  0.90592315194E+02  0.10566000000E+00 0. -1.
        994    1    1    2    0    0 -0.17791055820E+02  0.35110497303E+02  0.67412558987E+01  0.17579577133E+03  0.17120000000E+03 0.  0.
        998    1    1    2    0    0  0.12875299474E+02 -0.17088563362E+02  0.14046133703E+04  0.14048119135E+04  0.10000000000E+02 0. -1.
</event>
<event>
 5    1  0.1440459E-008  0.3830098E+03  0.7957747E-01  0.3438157E+00
         13   -1    0    0    0    0  0.00000000000E+00  0.00000000000E+00  0.14999999963E+04  0.15000000000E+04  0.10566000000E+00 0. -1.
        994   -1    0    0    0    0 -0.00000000000E+00 -0.00000000000E+00  0.11368683772E-12  0.17120000000E+03  0.17120000000E+03 0.  0.
         13    1    1    2    0    0  0.18190572566E+02 -0.20207163819E+02  0.13305344016E+03  0.13580300255E+03  0.10566000000E+00 0. -1.
        994    1    1    2    0    0 -0.18794376697E+02  0.14902816342E+02  0.45281087769E+01  0.17293139189E+03  0.17120000000E+03 0.  0.
        998    1    1    2    0    0  0.60380413062E+00  0.53043474772E+01  0.13624184473E+04  0.13624656056E+04  0.10000000000E+02 0. -1.
</event>
<event>
 5    1  0.1440459E-008  0.3794189E+03  0.7957747E-01  0.3453693E+00
         13   -1    0    0    0    0  0.00000000000E+00  0.00000000000E+00  0.14999999963E+04  0.15000000000E+04  0.10566000000E+00 0.  1.
        994   -1    0    0    0    0 -0.00000000000E+00 -0.00000000000E+00  0.11368683772E-12  0.17120000000E+03  0.17120000000E+03 0.  0.
         13    1    1    2    0    0 -0.54981594041E+02 -0.17736294912E+03  0.98876401918E+03  0.10060491480E+04  0.10566000000E+00 0.  1.
        994    1    1    2    0    0  0.61876115472E+02  0.17663555078E+03  0.13241171965E+03  0.28613121984E+03  0.17120000000E+03 0.  0.
        998    1    1    2    0    0 -0.68945214309E+01  0.72739833746E+00  0.37882425745E+03  0.37901963216E+03  0.10000000000E+02 0. -1.
</event>
<event>
 5    1  0.1440459E-008  0.3804257E+03  0.7957747E-01  0.3449307E+00
         13   -1    0    0    0    0  0.00000000000E+00  0.00000000000E+00  0.14999999963E+04  0.15000000000E+04  0.10566000000E+00 0. -1.
        994   -1    0    0    0    0 -0.00000000000E+00 -0.00000000000E+00  0.11368683772E-12  0.17120000000E+03  0.17120000000E+03 0.  0.
         13    1    1    2    0    0 -0.16058435203E+02 -0.12797487055E+02  0.52377582467E+02  0.56258966621E+02  0.10566000000E+00 0. -1.
        994    1    1    2    0    0  0.13784044072E+02  0.40670262087E+01  0.46081772731E+01  0.17186394581E+03  0.17120000000E+03 0.  0.
        998    1    1    2    0    0  0.22743911316E+01  0.87304608464E+01  0.14430142365E+04  0.14430770876E+04  0.10000000000E+02 0. -1.
</event>
<event>
 5    1  0.1440459E-008  0.3782374E+03  0.7957747E-01  0.3458869E+00
         13   -1    0    0    0    0  0.00000000000E+00  0.00000000000E+00  0.14999999963E+04  0.15000000000E+04  0.10566000000E+00 0. -1.
        994   -1    0    0    0    0 -0.00000000000E+00 -0.00000000000E+00  0.11368683772E-12  0.17120000000E+03  0.17120000000E+03 0.  0.
         13    1    1    2    0    0 -0.52649514614E+01  0.25544204838E+02  0.64901868640E+02  0.69946335370E+02  0.10566000000E+00 0. -1.
        994    1    1    2    0    0  0.81015636475E+01 -0.18908522679E+02  0.64497267642E+01  0.17255204009E+03  0.17120000000E+03 0.  0.
        998    1    1    2    0    0 -0.28366121861E+01 -0.66356821590E+01  0.14286484009E+04  0.14287016245E+04  0.10000000000E+02 0. -1.
</event>
<event>
 5    1  0.1440459E-008  0.3840151E+03  0.7957747E-01  0.3433860E+00
         13   -1    0    0    0    0  0.00000000000E+00  0.00000000000E+00  0.14999999963E+04  0.15000000000E+04  0.10566000000E+00 0.  1.
        994   -1    0    0    0    0 -0.00000000000E+00 -0.00000000000E+00  0.11368683772E-12  0.17120000000E+03  0.17120000000E+03 0.  0.
         13    1    1    2    0    0  0.15337134185E+02  0.15056909245E+02  0.94473357590E+02  0.96887381321E+02  0.10566000000E+00 0.  1.
        994    1    1    2    0    0 -0.21108390885E+02 -0.27801743712E+02  0.61503681141E+01  0.17483068423E+03  0.17120000000E+03 0.  0.
        998    1    1    2    0    0  0.57712567005E+01  0.12744834467E+02  0.13993762706E+04  0.13994819345E+04  0.10000000000E+02 0.  1.
</event>
<event>
 5    1  0.1440459E-008  0.3763831E+03  0.7957747E-01  0.3467060E+00
         13   -1    0    0    0    0  0.00000000000E+00  0.00000000000E+00  0.14999999963E+04  0.15000000000E+04  0.10566000000E+00 0. -1.
        994   -1    0    0    0    0 -0.00000000000E+00 -0.00000000000E+00  0.11368683772E-12  0.17120000000E+03  0.17120000000E+03 0.  0.
         13    1    1    2    0    0  0.31246862914E+02  0.60969268157E+02  0.30775503000E+03  0.31528841996E+03  0.10566000000E+00 0. -1.
        994    1    1    2    0    0 -0.39952145189E+02 -0.58175444901E+02  0.23011840560E+02  0.18659994936E+03  0.17120000000E+03 0.  0.
        998    1    1    2    0    0  0.87052822748E+01 -0.27938232559E+01  0.11692331257E+04  0.11693116307E+04  0.10000000000E+02 0. -1.
</event>
<event>
 5    1  0.1440459E-008  0.3869466E+03  0.7957747E-01  0.3421458E+00
         13   -1    0    0    0    0  0.00000000000E+00  0.00000000000E+00  0.14999999963E+04  0.15000000000E+04  0.10566000000E+00 0. -1.
        994   -1    0    0    0    0 -0.00000000000E+00 -0.00000000000E+00  0.11368683772E-12  0.17120000000E+03  0.17120000000E+03 0.  0.
         13    1    1    2    0    0  0.35762709021E+02  0.25707330432E+02  0.42318469412E+02  0.61079474554E+02  0.10566000000E+00 0. -1.
        994    1    1    2    0    0 -0.63036463907E+01 -0.16429589593E+02  0.21348951614E+02  0.17342112071E+03  0.17120000000E+03 0.  0.
        998    1    1    2    0    0 -0.29459062630E+02 -0.92777408388E+01  0.14363325753E+04  0.14366994047E+04  0.10000000000E+02 0. -1.
</event>
<event>
 5    1  0.1440459E-008  0.3837056E+03  0.7957747E-01  0.3435180E+00
         13   -1    0    0    0    0  0.00000000000E+00  0.00000000000E+00  0.14999999963E+04  0.15000000000E+04  0.10566000000E+00 0.  1.
        994   -1    0    0    0    0 -0.00000000000E+00 -0.00000000000E+00  0.11368683772E-12  0.17120000000E+03  0.17120000000E+03 0.  0.
         13    1    1    2    0    0  0.25110510805E+03 -0.77461119223E+02  0.10804539558E+04  0.11119508812E+04  0.10566000000E+00 0.  1.
        994    1    1    2    0    0 -0.25596087506E+03  0.77310048609E+02  0.29242167498E+03  0.43163953616E+03  0.17120000000E+03 0.  0.
        998    1    1    2    0    0  0.48557670100E+01  0.15107061370E+00  0.12712436547E+03  0.12760958268E+03  0.10000000000E+02 0.  0.
</event>
<event>
 5    1  0.1440459E-008  0.3846446E+03  0.7957747E-01  0.3431181E+00
         13   -1    0    0    0    0  0.00000000000E+00  0.00000000000E+00  0.14999999963E+04  0.15000000000E+04  0.10566000000E+00 0. -1.
        994   -1    0    0    0    0 -0.00000000000E+00 -0.00000000000E+00  0.11368683772E-12  0.17120000000E+03  0.17120000000E+03 0.  0.
         13    1    1    2    0    0  0.94368071516E+01  0.15567937219E+02  0.92343804364E+02  0.94121216349E+02  0.10566000000E+00 0. -1.
        994    1    1    2    0    0  0.67221717788E+01 -0.16686673742E+02  0.28729435496E+01  0.17216656609E+03  0.17120000000E+03 0.  0.
        998    1    1    2    0    0 -0.16158978930E+02  0.11187365233E+01  0.14047832484E+04  0.14049122176E+04  0.10000000000E+02 0. -1.
</event>
<event>
 5    1  0.1440459E-008  0.3737960E+03  0.7957747E-01  0.3478625E+00
         13   -1    0    0    0    0  0.00000000000E+00  0.00000000000E+00  0.14999999963E+04  0.15000000000E+04  0.10566000000E+00 0.  1.
        994   -1    0    0    0    0 -0.00000000000E+00 -0.00000000000E+00  0.11368683772E-12  0.17120000000E+03  0.17120000000E+03 0.  0.
         13    1    1    2    0    0 -0.20875263150E+02  0.75323446624E+02  0.20758460757E+03  0.22181248541E+03  0.10566000000E+00 0.  1.
        994    1    1    2    0    0  0.18451780051E+02 -0.67940462103E+02  0.30736102396E+02  0.18764467104E+03  0.17120000000E+03 0.  0.
        998    1    1    2    0    0  0.24234830988E+01 -0.73829845212E+01  0.12616792863E+04  0.12617428436E+04  0.10000000000E+02 0.  1.
</event>
<event>
 5    1  0.1440459E-008  0.3856411E+03  0.7957747E-01  0.3426958E+00
         13   -1    0    0    0    0  0.00000000000E+00  0.00000000000E+00  0.14999999963E+04  0.15000000000E+04  0.10566000000E+00 0.  1.
        994   -1    0    0    0    0 -0.00000000000E+00 -0.00000000000E+00  0.11368683772E-12  0.17120000000E+03  0.17120000000E+03 0.  0.
         13    1    1    2    0    0  0.13380338492E+02 -0.28460425809E+00  0.64042668444E+02  0.65426210369E+02  0.10566000000E+00 0.  1.
        994    1    1    2    0    0 -0.19052317574E+02  0.22506705141E+01  0.25210110966E+01  0.17229002240E+03  0.17120000000E+03 0.  0.
        998    1    1    2    0    0  0.56719790825E+01 -0.19660662560E+01  0.14334363167E+04  0.14334837672E+04  0.10000000000E+02 0.  1.
</event>
<event>
 5    1  0.1440459E-008  0.3825969E+03  0.7957747E-01  0.3439928E+00
         13   -1    0    0    0    0  0.00000000000E+00  0.00000000000E+00  0.14999999963E+04  0.15000000000E+04  0.10566000000E+00 0.  1.
        994   -1    0    0    0    0 -0.00000000000E+00 -0.00000000000E+00  0.11368683772E-12  0.17120000000E+03  0.17120000000E+03 0.  0.
         13    1    1    2    0    0  0.63143315151E+01 -0.24494062883E+02  0.10886127513E+03  0.11176143470E+03  0.10566000000E+00 0.  1.
        994    1    1    2    0    0 -0.70409634736E+01  0.19186681155E+02  0.42136459179E+01  0.17246709458E+03  0.17120000000E+03 0.  0.
        998    1    1    2    0    0  0.72663195859E+00  0.53073817281E+01  0.13869250752E+04  0.13869714707E+04  0.10000000000E+02 0.  1.
</event>
<event>
 5    1  0.1440459E-008  0.3856976E+03  0.7957747E-01  0.3426719E+00
         13   -1    0    0    0    0  0.00000000000E+00  0.00000000000E+00  0.14999999963E+04  0.15000000000E+04  0.10566000000E+00 0.  1.
        994   -1    0    0    0    0 -0.00000000000E+00 -0.00000000000E+00  0.11368683772E-12  0.17120000000E+03  0.17120000000E+03 0.  0.
         13    1    1    2    0    0 -0.93594647246E+01  0.70869128542E+01  0.56878807012E+02  0.58077825070E+02  0.10566000000E+00 0.  1.
        994    1    1    2    0    0  0.46187538337E+01  0.55593386588E+01  0.14556363133E+01  0.17135868233E+03  0.17120000000E+03 0.  0.
        998    1    1    2    0    0  0.47407108908E+01 -0.12646251513E+02  0.14416655530E+04  0.14417634926E+04  0.10000000000E+02 0.  1.
</event>
<event>
 5    1  0.1440459E-008  0.3731523E+03  0.7957747E-01  0.3481528E+00
         13   -1    0    0    0    0  0.00000000000E+00  0.00000000000E+00  0.14999999963E+04  0.15000000000E+04  0.10566000000E+00 0.  1.
        994   -1    0    0    0    0 -0.00000000000E+00 -0.00000000000E+00  0.11368683772E-12  0.17120000000E+03  0.17120000000E+03 0.  0.
         13    1    1    2    0    0 -0.28924906070E+02  0.33883758900E+02  0.12970726532E+03  0.13714497858E+03  0.10566000000E+00 0.  1.
        994    1    1    2    0    0  0.40763351404E+02  0.38349200909E+01  0.13386402081E+02  0.17653609600E+03  0.17120000000E+03 0.  0.
        998    1    1    2    0    0 -0.11838445334E+02 -0.37718678991E+02  0.13569063289E+04  0.13575189254E+04  0.10000000000E+02 0.  1.
</event>
<event>
 5    1  0.1440459E-008  0.3705380E+03  0.7957747E-01  0.3493422E+00
         13   -1    0    0    0    0  0.00000000000E+00  0.00000000000E+00  0.14999999963E+04  0.15000000000E+04  0.10566000000E+00 0. -1.
        994   -1    0    0    0    0 -0.00000000000E+00 -0.00000000000E+00  0.11368683772E-12  0.17120000000E+03  0.17120000000E+03 0.  0.
         13    1    1    2    0    0  0.44521366777E+02  0.73063312350E+01  0.81669579047E+02  0.93303086131E+02  0.10566000000E+00 0. -1.
        994    1    1    2    0    0 -0.46672844762E+02 -0.91524416382E+01  0.19189166072E+02  0.17871705492E+03  0.17120000000E+03 0.  0.
        998    1    1    2    0    0  0.21514779845E+01  0.18461104032E+01  0.13991412512E+04  0.13991798589E+04  0.10000000000E+02 0. -1.
</event>
<event>
 5    1  0.1440459E-008  0.3728320E+03  0.7957747E-01  0.3482976E+00
         13   -1    0    0    0    0  0.00000000000E+00  0.00000000000E+00  0.14999999963E+04  0.15000000000E+04  0.10566000000E+00 0. -1.
        994   -1    0    0    0    0 -0.00000000000E+00 -0.00000000000E+00  0.11368683772E-12  0.17120000000E+03  0.17120000000E+03 0.  0.
         13    1    1    2    0    0  0.89931448975E+02  0.27193109770E+02  0.40051410529E+03  0.41138630316E+03  0.10566000000E+00 0. -1.
        994    1    1    2    0    0 -0.94692589306E+02 -0.18928214168E+02  0.40434632826E+02  0.20067227834E+03  0.17120000000E+03 0.  0.
        998    1    1    2    0    0  0.47611403309E+01 -0.82648956015E+01  0.10590512582E+04  0.10591414185E+04  0.10000000000E+02 0. -1.
</event>
<event>
 5    1  0.1440459E-008  0.3823632E+03  0.7957747E-01  0.3440933E+00
         13   -1    0    0    0    0  0.00000000000E+00  0.00000000000E+00  0.14999999963E+04  0.15000000000E+04  0.10566000000E+00 0. -1.
        994   -1    0    0    0    0 -0.00000000000E+00 -0.00000000000E+00  0.11368683772E-12  0.17120000000E+03  0.17120000000E+03 0.  0.
         13    1    1    2    0    0 -0.47974212554E+01  0.10643160645E+02  0.21805480397E+02  0.24734232525E+02  0.10566000000E+00 0. -1.
        994    1    1    2    0    0  0.65155535582E+01 -0.94136203226E+01  0.33798153642E+01  0.17161565149E+03  0.17120000000E+03 0.  0.
        998    1    1    2    0    0 -0.17181323028E+01 -0.12295403221E+01  0.14748147005E+04  0.14748501160E+04  0.10000000000E+02 0. -1.
</event>
<event>
 5    1  0.1440459E-008  0.3794317E+03  0.7957747E-01  0.3453637E+00
         13   -1    0    0    0    0  0.00000000000E+00  0.00000000000E+00  0.14999999963E+04  0.15000000000E+04  0.10566000000E+00 0. -1.
        994   -1    0    0    0    0 -0.00000000000E+00 -0.00000000000E+00  0.11368683772E-12  0.17120000000E+03  0.17120000000E+03 0.  0.
         13    1    1    2    0    0 -0.10085323410E+02 -0.62929175400E+01  0.13956787173E+02  0.18333511166E+02  0.10566000000E+00 0. -1.
        994    1    1    2    0    0  0.98011486059E+01  0.64535427204E+01  0.48816560127E+01  0.17167114287E+03  0.17120000000E+03 0.  0.
        998    1    1    2    0    0  0.28417480375E+00 -0.16062518037E+00  0.14811615531E+04  0.14811953460E+04  0.10000000000E+02 0. -1.
</event>
<event>
 5    1  0.1440459E-008  0.3739560E+03  0.7957747E-01  0.3477905E+00
         13   -1    0    0    0    0  0.00000000000E+00  0.00000000000E+00  0.14999999963E+04  0.15000000000E+04  0.10566000000E+00 0. -1.
        994   -1    0    0    0    0 -0.00000000000E+00 -0.00000000000E+00  0.11368683772E-12  0.17120000000E+03  0.17120000000E+03 0.  0.
         13    1    1    2    0    0 -0.53115899644E+02  0.28414937846E+03  0.10326489817E+04  0.10723460722E+04  0.10566000000E+00 0. -1.
        994    1    1    2    0    0  0.46264128402E+02 -0.27634834292E+03  0.34733282663E+03  0.47797312547E+03  0.17120000000E+03 0.  0.
        998    1    1    2    0    0  0.68517712415E+01 -0.78010355399E+01  0.12001818798E+03  0.12088080233E+03  0.10000000000E+02 0.  0.
</event>
<event>
 5    1  0.1440459E-008  0.3852962E+03  0.7957747E-01  0.3428417E+00
         13   -1    0    0    0    0  0.00000000000E+00  0.00000000000E+00  0.14999999963E+04  0.15000000000E+04  0.10566000000E+00 0. -1.
        994   -1    0    0    0    0 -0.00000000000E+00 -0.00000000000E+00  0.11368683772E-12  0.17120000000E+03  0.17120000000E+03 0.  0.
         13    1    1    2    0    0 -0.12178360884E+02  0.13635545692E+01  0.51152061243E+02  0.52599584489E+02  0.10566000000E+00 0. -1.
        994    1    1    2    0    0  0.67633412519E+01 -0.75766988710E+00  0.16353475579E+01  0.17134302206E+03  0.17120000000E+03 0.  0.
        998    1    1    2    0    0  0.54150196325E+01 -0.60588468210E+00  0.14472125875E+04  0.14472573934E+04  0.10000000000E+02 0. -1.
</event>
<event>
 5    1  0.1440459E-008  0.3846698E+03  0.7957747E-01  0.3431074E+00
         13   -1    0    0    0    0  0.00000000000E+00  0.00000000000E+00  0.14999999963E+04  0.15000000000E+04  0.10566000000E+00 0. -1.
        994   -1    0    0    0    0 -0.00000000000E+00 -0.00000000000E+00  0.11368683772E-12  0.17120000000E+03  0.17120000000E+03 0.  0.
         13    1    1    2    0    0  0.14081041661E+02  0.97587459742E+01  0.85306251154E+02  0.87009634565E+02  0.10566000000E+00 0. -1.
        994    1    1    2    0    0  0.14627211636E+02 -0.32595298340E+02  0.60076736562E+01  0.17499125960E+03  0.17120000000E+03 0.  0.
        998    1    1    2    0    0 -0.28708253297E+02  0.22836552366E+02  0.14086860715E+04  0.14091991058E+04  0.10000000000E+02 0. -1.
</event>
<event>
 5    1  0.1440459E-008  0.3862349E+03  0.7957747E-01  0.3424452E+00
         13   -1    0    0    0    0  0.00000000000E+00  0.00000000000E+00  0.14999999963E+04  0.15000000000E+04  0.10566000000E+00 0.  1.
        994   -1    0    0    0    0 -0.00000000000E+00 -0.00000000000E+00  0.11368683772E-12  0.17120000000E+03  0.17120000000E+03 0.  0.
         13    1    1    2    0    0 -0.81361760391E+01  0.88907259136E+01  0.65584321684E+02  0.66682507321E+02  0.10566000000E+00 0.  1.
        994    1    1    2    0    0  0.45328959514E+01 -0.24310233905E+02  0.30239288842E+01  0.17300323339E+03  0.17120000000E+03 0.  0.
        998    1    1    2    0    0  0.36032800877E+01  0.15419507992E+02  0.14313917457E+04  0.14315142593E+04  0.10000000000E+02 0.  1.
</event>
<event>
 5    1  0.1440459E-008  0.3851277E+03  0.7957747E-01  0.3429131E+00
         13   -1    0    0    0    0  0.00000000000E+00  0.00000000000E+00  0.14999999963E+04  0.15000000000E+04  0.10566000000E+00 0.  1.
        994   -1    0    0    0    0 -0.00000000000E+00 -0.00000000000E+00  0.11368683772E-12  0.17120000000E+03  0.17120000000E+03 0.  0.
         13    1    1    2    0    0 -0.68105651317E+01  0.13140367603E+02  0.73799080120E+02  0.75268641868E+02  0.10566000000E+00 0.  1.
        994    1    1    2    0    0 -0.54147636081E+01 -0.52735255994E+01  0.17545923386E+01  0.17137575188E+03  0.17120000000E+03 0.  0.
        998    1    1    2    0    0  0.12225328740E+02 -0.78668420034E+01  0.14244463238E+04  0.14245556063E+04  0.10000000000E+02 0.  1.
</event>
<event>
 5    1  0.1440459E-008  0.3738077E+03  0.7957747E-01  0.3478572E+00
         13   -1    0    0    0    0  0.00000000000E+00  0.00000000000E+00  0.14999999963E+04  0.15000000000E+04  0.10566000000E+00 0. -1.
        994   -1    0    0    0    0 -0.00000000000E+00 -0.00000000000E+00  0.11368683772E-12  0.17120000000E+03  0.17120000000E+03 0.  0.
         13    1    1    2    0    0  0.50690686059E+02  0.27128792639E+02  0.19999712797E+03  0.20809704324E+03  0.10566000000E+00 0. -1.
        994    1    1    2    0    0 -0.59551760607E+02 -0.33202507661E+01  0.19532335980E+02  0.18234140617E+03  0.17120000000E+03 0.  0.
        998    1    1    2    0    0  0.88610745477E+01 -0.23808541873E+02  0.12804705323E+04  0.12807615506E+04  0.10000000000E+02 0. -1.
</event>
<event>
 5    1  0.1440459E-008  0.3807217E+03  0.7957747E-01  0.3448022E+00
         13   -1    0    0    0    0  0.00000000000E+00  0.00000000000E+00  0.14999999963E+04  0.15000000000E+04  0.10566000000E+00 0.  1.
        994   -1    0    0    0    0 -0.00000000000E+00 -0.00000000000E+00  0.11368683772E-12  0.17120000000E+03  0.17120000000E+03 0.  0.
         13    1    1    2    0    0  0.17933401918E+02  0.14052188615E+01  0.40697498616E+02  0.44495832412E+02  0.10566000000E+00 0.  1.
        994    1    1    2    0    0 -0.17349383320E+02 -0.29131912712E+01  0.48020915265E+01  0.17216848686E+03  0.17120000000E+03 0.  0.
        998    1    1    2    0    0 -0.58401859731E+00  0.15079724097E+01  0.14545004061E+04  0.14545356807E+04  0.10000000000E+02 0.  1.
</event>
<event>
 5    1  0.1440459E-008  0.3823920E+03  0.7957747E-01  0.3440809E+00
         13   -1    0    0    0    0  0.00000000000E+00  0.00000000000E+00  0.14999999963E+04  0.15000000000E+04  0.10566000000E+00 0.  1.
        994   -1    0    0    0    0 -0.00000000000E+00 -0.00000000000E+00  0.11368683772E-12  0.17120000000E+03  0.17120000000E+03 0.  0.
         13    1    1    2    0    0  0.18244344480E+02  0.14937055970E+02  0.82545992859E+01  0.24982420219E+02  0.10566000000E+00 0.  1.
        994    1    1    2    0    0 -0.28790987141E+02  0.18544147163E+02  0.21946562068E+02  0.17596561574E+03  0.17120000000E+03 0.  0.
        998    1    1    2    0    0  0.10546642661E+02 -0.33481203133E+02  0.14697988349E+04  0.14702519640E+04  0.10000000000E+02 0.  1.
</event>
<event>
 5    1  0.1440459E-008  0.3808091E+03  0.7957747E-01  0.3447643E+00
         13   -1    0    0    0    0  0.00000000000E+00  0.00000000000E+00  0.14999999963E+04  0.15000000000E+04  0.10566000000E+00 0.  1.
        994   -1    0    0    0    0 -0.00000000000E+00 -0.00000000000E+00  0.11368683772E-12  0.17120000000E+03  0.17120000000E+03 0.  0.
         13    1    1    2    0    0  0.68132503542E+01  0.20260305841E+02  0.62520175661E+02  0.66073322165E+02  0.10566000000E+00 0.  1.
        994    1    1    2    0    0  0.92779734702E+00 -0.47550074366E+01  0.38035188078E+01  0.17131076341E+03  0.17120000000E+03 0.  0.
        998    1    1    2    0    0 -0.77410477012E+01 -0.15505298404E+02  0.14336763018E+04  0.14338159144E+04  0.10000000000E+02 0.  1.
</event>
<event>
 5    1  0.1440459E-008  0.3852605E+03  0.7957747E-01  0.3428568E+00
         13   -1    0    0    0    0  0.00000000000E+00  0.00000000000E+00  0.14999999963E+04  0.15000000000E+04  0.10566000000E+00 0. -1.
        994   -1    0    0    0    0 -0.00000000000E+00 -0.00000000000E+00  0.11368683772E-12  0.17120000000E+03  0.17120000000E+03 0.  0.
         13    1    1    2    0    0  0.12920491914E+02 -0.96681100165E+01  0.84053979910E+02  0.85589100739E+02  0.10566000000E+00 0. -1.
        994    1    1    2    0    0 -0.11097713850E+02  0.10346416979E+02  0.22576707617E+01  0.17188584780E+03  0.17120000000E+03 0.  0.
        998    1    1    2    0    0 -0.18227780649E+01 -0.67830696223E+00  0.14136883456E+04  0.14137250515E+04  0.10000000000E+02 0. -1.
</event>
<event>
 5    1  0.1440459E-008  0.3824499E+03  0.7957747E-01  0.3440560E+00
         13   -1    0    0    0    0  0.00000000000E+00  0.00000000000E+00  0.14999999963E+04  0.15000000000E+04  0.10566000000E+00 0. -1.
        994   -1    0    0    0    0 -0.00000000000E+00 -0.00000000000E+00  0.11368683772E-12  0.17120000000E+03  0.17120000000E+03 0.  0.
         13    1    1    2    0    0 -0.16917795012E+02 -0.98383886466E+01  0.61095738138E+02  0.64153768883E+02  0.10566000000E+00 0. -1.
        994    1    1    2    0    0  0.19282116606E+02  0.18675614401E+02  0.52946718261E+01  0.17337258187E+03  0.17120000000E+03 0.  0.
        998    1    1    2    0    0 -0.23643215943E+01 -0.88372257548E+01  0.14336095863E+04  0.14336736492E+04  0.10000000000E+02 0. -1.
</event>
<event>
 5    1  0.1440459E-008  0.3850218E+03  0.7957747E-01  0.3429580E+00
         13   -1    0    0    0    0  0.00000000000E+00  0.00000000000E+00  0.14999999963E+04  0.15000000000E+04  0.10566000000E+00 0. -1.
        994   -1    0    0    0    0 -0.00000000000E+00 -0.00000000000E+00  0.11368683772E-12  0.17120000000E+03  0.17120000000E+03 0.  0.
         13    1    1    2    0    0 -0.10805540400E+02 -0.35283410979E+01  0.37931077309E+02  0.39597811607E+02  0.10566000000E+00 0. -1.
        994    1    1    2    0    0  0.13825504691E+02  0.13788183422E+02  0.28740469370E+01  0.17233385833E+03  0.17120000000E+03 0.  0.
        998    1    1    2    0    0 -0.30199642907E+01 -0.10259842324E+02  0.14591948720E+04  0.14592683301E+04  0.10000000000E+02 0. -1.
</event>
<event>
 5    1  0.1440459E-008  0.3819254E+03  0.7957747E-01  0.3442817E+00
         13   -1    0    0    0    0  0.00000000000E+00  0.00000000000E+00  0.14999999963E+04  0.15000000000E+04  0.10566000000E+00 0.  1.
        994   -1    0    0    0    0 -0.00000000000E+00 -0.00000000000E+00  0.11368683772E-12  0.17120000000E+03  0.17120000000E+03 0.  0.
         13    1    1    2    0    0 -0.11639571054E+02 -0.27049217440E+01  0.21133640056E+02  0.24278346772E+02  0.10566000000E+00 0.  1.
        994    1    1    2    0    0  0.11893908895E+02 -0.11897664033E+01  0.36391221037E+01  0.17165536351E+03  0.17120000000E+03 0.  0.
        998    1    1    2    0    0 -0.25433784165E+00  0.38946881474E+01  0.14752272341E+04  0.14752662897E+04  0.10000000000E+02 0.  1.
</event>
<event>
 5    1  0.1440459E-008  0.3799833E+03  0.7957747E-01  0.3451231E+00
         13   -1    0    0    0    0  0.00000000000E+00  0.00000000000E+00  0.14999999963E+04  0.15000000000E+04  0.10566000000E+00 0. -1.
        994   -1    0    0    0    0 -0.00000000000E+00 -0.00000000000E+00  0.11368683772E-12  0.17120000000E+03  0.17120000000E+03 0.  0.
         13    1    1    2    0    0  0.95508666924E+01  0.87442146607E+01  0.18857837541E+02  0.22875959987E+02  0.10566000000E+00 0. -1.
        994    1    1    2    0    0 -0.44068679458E+01  0.19137258145E+01  0.42187368065E+01  0.17131935259E+03  0.17120000000E+03 0.  0.
        998    1    1    2    0    0 -0.51439987466E+01 -0.10657940475E+02  0.14769234219E+04  0.14770046874E+04  0.10000000000E+02 0. -1.
</event>
<event>
 5    1  0.1440459E-008  0.3709542E+03  0.7957747E-01  0.3491517E+00
         13   -1    0    0    0    0  0.00000000000E+00  0.00000000000E+00  0.14999999963E+04  0.15000000000E+04  0.10566000000E+00 0.  1.
        994   -1    0    0    0    0 -0.00000000000E+00 -0.00000000000E+00  0.11368683772E-12  0.17120000000E+03  0.17120000000E+03 0.  0.
         13    1    1    2    0    0 -0.24760423390E+02  0.51455474681E+02  0.15281971687E+03  0.16313988314E+03  0.10566000000E+00 0.  1.
        994    1    1    2    0    0  0.17884692275E+02 -0.49319592130E+01  0.12652472969E+02  0.17266647478E+03  0.17120000000E+03 0.  0.
        998    1    1    2    0    0  0.68757311149E+01 -0.46523515468E+02  0.13345278064E+04  0.13353936421E+04  0.10000000000E+02 0.  1.
</event>
<event>
 5    1  0.1440459E-008  0.3841699E+03  0.7957747E-01  0.3433201E+00
         13   -1    0    0    0    0  0.00000000000E+00  0.00000000000E+00  0.14999999963E+04  0.15000000000E+04  0.10566000000E+00 0. -1.
        994   -1    0    0    0    0 -0.00000000000E+00 -0.00000000000E+00  0.11368683772E-12  0.17120000000E+03  0.17120000000E+03 0.  0.
         13    1    1    2    0    0  0.22348590354E+02 -0.60029910947E+01  0.10942128020E+03  0.11184150892E+03  0.10566000000E+00 0. -1.
        994    1    1    2    0    0 -0.32927531349E+02  0.30477255650E+02  0.87094839346E+01  0.17719588185E+03  0.17120000000E+03 0.  0.
        998    1    1    2    0    0  0.10578940995E+02 -0.24474264556E+02  0.13818692321E+04  0.13821626092E+04  0.10000000000E+02 0. -1.
</event>
<event>
 5    1  0.1440459E-008  0.3833920E+03  0.7957747E-01  0.3436521E+00
         13   -1    0    0    0    0  0.00000000000E+00  0.00000000000E+00  0.14999999963E+04  0.15000000000E+04  0.10566000000E+00 0. -1.
        994   -1    0    0    0    0 -0.00000000000E+00 -0.00000000000E+00  0.11368683772E-12  0.17120000000E+03  0.17120000000E+03 0.  0.
         13    1    1    2    0    0  0.13170893161E+02 -0.17364112828E+02  0.11263066271E+03  0.11471992933E+03  0.10566000000E+00 0. -1.
        994    1    1    2    0    0 -0.11966030178E+02 -0.17541035535E+02  0.39225536220E+01  0.17255636828E+03  0.17120000000E+03 0.  0.
        998    1    1    2    0    0 -0.12048629827E+01  0.34905148364E+02  0.13834467800E+04  0.13839237024E+04  0.10000000000E+02 0. -1.
</event>
<event>
 5    1  0.1440459E-008  0.3839944E+03  0.7957747E-01  0.3433948E+00
         13   -1    0    0    0    0  0.00000000000E+00  0.00000000000E+00  0.14999999963E+04  0.15000000000E+04  0.10566000000E+00 0.  1.
        994   -1    0    0    0    0 -0.00000000000E+00 -0.00000000000E+00  0.11368683772E-12  0.17120000000E+03  0.17120000000E+03 0.  0.
         13    1    1    2    0    0  0.58987820530E+01  0.17921284098E+02  0.95544701435E+02  0.97389779698E+02  0.10566000000E+00 0.  1.
        994    1    1    2    0    0 -0.13143397964E+01  0.88700974042E+01  0.23955791452E+01  0.17145140687E+03  0.17120000000E+03 0.  0.
        998    1    1    2    0    0 -0.45844422565E+01 -0.26791381502E+02  0.14020597157E+04  0.14023588134E+04  0.10000000000E+02 0.  1.
</event>
<event>
 5    1  0.1440459E-008  0.3841886E+03  0.7957747E-01  0.3433121E+00
         13   -1    0    0    0    0  0.00000000000E+00  0.00000000000E+00  0.14999999963E+04  0.15000000000E+04  0.10566000000E+00 0.  1.
        994   -1    0    0    0    0 -0.00000000000E+00 -0.00000000000E+00  0.11368683772E-12  0.17120000000E+03  0.17120000000E+03 0.  0.
         13    1    1    2    0    0  0.17404446818E+02  0.15847986560E+01  0.66394360036E+02  0.68656016229E+02  0.10566000000E+00 0.  1.
        994    1    1    2    0    0 -0.30731851968E+02 -0.21295307898E+02  0.66566329111E+01  0.17536159108E+03  0.17120000000E+03 0.  0.
        998    1    1    2    0    0  0.13327405149E+02  0.19710509242E+02  0.14269490033E+04  0.14271823927E+04  0.10000000000E+02 0.  1.
</event>
<event>
 5    1  0.1440459E-008  0.3818563E+03  0.7957747E-01  0.3443115E+00
         13   -1    0    0    0    0  0.00000000000E+00  0.00000000000E+00  0.14999999963E+04  0.15000000000E+04  0.10566000000E+00 0.  1.
        994   -1    0    0    0    0 -0.00000000000E+00 -0.00000000000E+00  0.11368683772E-12  0.17120000000E+03  0.17120000000E+03 0.  0.
         13    1    1    2    0    0 -0.28946256701E+01  0.27753037735E+02  0.12823919110E+03  0.13123989965E+03  0.10566000000E+00 0.  1.
        994    1    1    2    0    0  0.12369847113E+01 -0.74652392727E+01  0.33892944854E+01  0.17140066291E+03  0.17120000000E+03 0.  0.
        998    1    1    2    0    0  0.16576409588E+01 -0.20287798462E+02  0.13683715107E+04  0.13685594374E+04  0.10000000000E+02 0.  1.
</event>
<event>
 5    1  0.1440459E-008  0.3855860E+03  0.7957747E-01  0.3427191E+00
         13   -1    0    0    0    0  0.00000000000E+00  0.00000000000E+00  0.14999999963E+04  0.15000000000E+04  0.10566000000E+00 0.  1.
        994   -1    0    0    0    0 -0.00000000000E+00 -0.00000000000E+00  0.11368683772E-12  0.17120000000E+03  0.17120000000E+03 0.  0.
         13    1    1    2    0    0  0.12956769691E+02 -0.13235236569E+00  0.60174478473E+02  0.61553833524E+02  0.10566000000E+00 0.  1.
        994    1    1    2    0    0 -0.15670840602E+02 -0.14323406080E+01  0.21527076512E+01  0.17193516509E+03  0.17120000000E+03 0.  0.
        998    1    1    2    0    0  0.27140709111E+01  0.15646929737E+01  0.14376728102E+04  0.14377110014E+04  0.10000000000E+02 0.  1.
</event>
<event>
 5    1  0.1440459E-008  0.3852628E+03  0.7957747E-01  0.3428558E+00
         13   -1    0    0    0    0  0.00000000000E+00  0.00000000000E+00  0.14999999963E+04  0.15000000000E+04  0.10566000000E+00 0.  1.
        994   -1    0    0    0    0 -0.00000000000E+00 -0.00000000000E+00  0.11368683772E-12  0.17120000000E+03  0.17120000000E+03 0.  0.
         13    1    1    2    0    0  0.76003667397E+01 -0.10781419260E+02  0.57126877016E+02  0.58630161329E+02  0.10566000000E+00 0.  1.
        994    1    1    2    0    0 -0.48689568661E+01  0.10822012239E+02  0.19625800845E+01  0.17162201027E+03  0.17120000000E+03 0.  0.
        998    1    1    2    0    0 -0.27314098735E+01 -0.40592978870E-01  0.14409105392E+04  0.14409478284E+04  0.10000000000E+02 0.  1.
</event>
<event>
 5    1  0.1440459E-008  0.3816968E+03  0.7957747E-01  0.3443804E+00
         13   -1    0    0    0    0  0.00000000000E+00  0.00000000000E+00  0.14999999963E+04  0.15000000000E+04  0.10566000000E+00 0. -1.
        994   -1    0    0    0    0 -0.00000000000E+00 -0.00000000000E+00  0.11368683772E-12  0.17120000000E+03  0.17120000000E+03 0.  0.
         13    1    1    2    0    0  0.16456879461E+02  0.51095186647E+01  0.42862619178E+02  0.46196875970E+02  0.10566000000E+00 0. -1.
        994    1    1    2    0    0 -0.16553349010E+02 -0.10508683843E+02  0.45581251456E+01  0.17237941381E+03  0.17120000000E+03 0.  0.
        998    1    1    2    0    0  0.96469548351E-01  0.53991651781E+01  0.14525792520E+04  0.14526237102E+04  0.10000000000E+02 0. -1.
</event>
<event>
 5    1  0.1440459E-008  0.3820136E+03  0.7957747E-01  0.3442438E+00
         13   -1    0    0    0    0  0.00000000000E+00  0.00000000000E+00  0.14999999963E+04  0.15000000000E+04  0.10566000000E+00 0.  1.
        994   -1    0    0    0    0 -0.00000000000E+00 -0.00000000000E+00  0.11368683772E-12  0.17120000000E+03  0.17120000000E+03 0.  0.
         13    1    1    2    0    0 -0.88424217299E+01 -0.69725953305E+01  0.19052309826E+02  0.22131587865E+02  0.10566000000E+00 0.  1.
        994    1    1    2    0    0  0.40782015068E+01  0.84196556902E+01  0.34108506652E+01  0.17148934728E+03  0.17120000000E+03 0.  0.
        998    1    1    2    0    0  0.47642202231E+01 -0.14470603598E+01  0.14775368358E+04  0.14775790649E+04  0.10000000000E+02 0.  1.
</event>
<event>
 5    1  0.1440459E-008  0.3892372E+03  0.7957747E-01  0.3411898E+00
         13   -1    0    0    0    0  0.00000000000E+00  0.00000000000E+00  0.14999999963E+04  0.15000000000E+04  0.10566000000E+00 0. -1.
        994   -1    0    0    0    0 -0.00000000000E+00 -0.00000000000E+00  0.11368683772E-12  0.17120000000E+03  0.17120000000E+03 0.  0.
         13    1    1    2    0    0 -0.69779215208E+02  0.19259457514E+02  0.11207496640E+03  0.13341991919E+03  0.10566000000E+00 0. -1.
        994    1    1    2    0    0  0.51803745942E+02 -0.30061795877E+02  0.35080534563E+02  0.18473609168E+03  0.17120000000E+03 0.  0.
        998    1    1    2    0    0  0.17975469265E+02  0.10802338364E+02  0.13528444953E+04  0.13530439891E+04  0.10000000000E+02 0. -1.
</event>
<event>
 5    1  0.1440459E-008  0.3778187E+03  0.7957747E-01  0.3460712E+00
         13   -1    0    0    0    0  0.00000000000E+00  0.00000000000E+00  0.14999999963E+04  0.15000000000E+04  0.10566000000E+00 0.  1.
        994   -1    0    0    0    0 -0.00000000000E+00 -0.00000000000E+00  0.11368683772E-12  0.17120000000E+03  0.17120000000E+03 0.  0.
         13    1    1    2    0    0  0.34463641697E+02  0.73306678937E+02  0.44731364993E+03  0.45458896198E+03  0.10566000000E+00 0.  1.
        994    1    1    2    0    0 -0.36050553087E+02 -0.70073406018E+02  0.26442058809E+02  0.19031171031E+03  0.17120000000E+03 0.  0.
        998    1    1    2    0    0  0.15869113899E+01 -0.32332729197E+01  0.10262442875E+04  0.10262993277E+04  0.10000000000E+02 0.  0.
</event>
<event>
 5    1  0.1440459E-008  0.3809182E+03  0.7957747E-01  0.3447170E+00
         13   -1    0    0    0    0  0.00000000000E+00  0.00000000000E+00  0.14999999963E+04  0.15000000000E+04  0.10566000000E+00 0. -1.
        994   -1    0    0    0    0 -0.00000000000E+00 -0.00000000000E+00  0.11368683772E-12  0.17120000000E+03  0.17120000000E+03 0.  0.
         13    1    1    2    0    0 -0.22109358386E+02 -0.49472888745E+01  0.71744428274E+02  0.75236783211E+02  0.10566000000E+00 0. -1.
        994    1    1    2    0    0  0.72064330765E+01 -0.97424927676E+01  0.41599430186E+01  0.17167875223E+03  0.17120000000E+03 0.  0.
        998    1    1    2    0    0  0.14902925310E+02  0.14689781642E+02  0.14240956250E+04  0.14242844646E+04  0.10000000000E+02 0. -1.
</event>
<event>
 5    1  0.1440459E-008  0.3756227E+03  0.7957747E-01  0.3470442E+00
         13   -1    0    0    0    0  0.00000000000E+00  0.00000000000E+00  0.14999999963E+04  0.15000000000E+04  0.10566000000E+00 0.  1.
        994   -1    0    0    0    0 -0.00000000000E+00 -0.00000000000E+00  0.11368683772E-12  0.17120000000E+03  0.17120000000E+03 0.  0.
         13    1    1    2    0    0  0.28734863619E+01 -0.28155123652E+02  0.65019958110E+02  0.70912439166E+02  0.10566000000E+00 0.  1.
        994    1    1    2    0    0  0.44555063380E+02  0.31794541294E+01  0.13157580968E+02  0.17741991021E+03  0.17120000000E+03 0.  0.
        998    1    1    2    0    0 -0.47428549742E+02  0.24975669523E+02  0.14218224572E+04  0.14228676506E+04  0.10000000000E+02 0.  1.
</event>
<event>
 5    1  0.1440459E-008  0.3696960E+03  0.7957747E-01  0.3497289E+00
         13   -1    0    0    0    0  0.00000000000E+00  0.00000000000E+00  0.14999999963E+04  0.15000000000E+04  0.10566000000E+00 0.  1.
        994   -1    0    0    0    0 -0.00000000000E+00 -0.00000000000E+00  0.11368683772E-12  0.17120000000E+03  0.17120000000E+03 0.  0.
         13    1    1    2    0    0  0.34255354031E+02  0.13575517524E+02  0.56031616834E+02  0.67061741737E+02  0.10566000000E+00 0.  1.
        994    1    1    2    0    0 -0.34530643273E+02 -0.26867001513E+02  0.17493012619E+02  0.17756589364E+03  0.17120000000E+03 0.  0.
        998    1    1    2    0    0  0.27528924207E+00  0.13291483989E+02  0.14264753668E+04  0.14265723646E+04  0.10000000000E+02 0.  1.
</event>
<event>
 5    1  0.1440459E-008  0.3841873E+03  0.7957747E-01  0.3433126E+00
         13   -1    0    0    0    0  0.00000000000E+00  0.00000000000E+00  0.14999999963E+04  0.15000000000E+04  0.10566000000E+00 0. -1.
        994   -1    0    0    0    0 -0.00000000000E+00 -0.00000000000E+00  0.11368683772E-12  0.17120000000E+03  0.17120000000E+03 0.  0.
         13    1    1    2    0    0 -0.20824609840E+02 -0.56710942140E+01  0.11550334521E+03  0.11750259402E+03  0.10566000000E+00 0. -1.
        994    1    1    2    0    0  0.11410018082E+02  0.32430879669E+01  0.24982554441E+01  0.17162863226E+03  0.17120000000E+03 0.  0.
        998    1    1    2    0    0  0.94145917581E+01  0.24280062471E+01  0.13819983956E+04  0.13820687737E+04  0.10000000000E+02 0. -1.
</event>
<event>
 5    1  0.1440459E-008  0.3829454E+03  0.7957747E-01  0.3438433E+00
         13   -1    0    0    0    0  0.00000000000E+00  0.00000000000E+00  0.14999999963E+04  0.15000000000E+04  0.10566000000E+00 0.  1.
        994   -1    0    0    0    0 -0.00000000000E+00 -0.00000000000E+00  0.11368683772E-12  0.17120000000E+03  0.17120000000E+03 0.  0.
         13    1    1    2    0    0  0.12642850222E+02 -0.58632738464E+01  0.35998314123E+02  0.38601935517E+02  0.10566000000E+00 0.  1.
        994    1    1    2    0    0 -0.77271069495E+01  0.11248162256E+01  0.28555614266E+01  0.17140177252E+03  0.17120000000E+03 0.  0.
        998    1    1    2    0    0 -0.49157432724E+01  0.47384576208E+01  0.14611461207E+04  0.14611962920E+04  0.10000000000E+02 0.  1.
</event>
<event>
 5    1  0.1440459E-008  0.3725045E+03  0.7957747E-01  0.3484459E+00
         13   -1    0    0    0    0  0.00000000000E+00  0.00000000000E+00  0.14999999963E+04  0.15000000000E+04  0.10566000000E+00 0. -1.
        994   -1    0    0    0    0 -0.00000000000E+00 -0.00000000000E+00  0.11368683772E-12  0.17120000000E+03  0.17120000000E+03 0.  0.
         13    1    1    2    0    0  0.25002404417E+02  0.70105232753E+01  0.39365078304E+02  0.47158119313E+02  0.10566000000E+00 0. -1.
        994    1    1    2    0    0 -0.12154912806E+02 -0.13950747610E+02  0.91403435674E+01  0.17243941297E+03  0.17120000000E+03 0.  0.
        998    1    1    2    0    0 -0.12847491611E+02  0.69402243345E+01  0.14514945744E+04  0.14516024677E+04  0.10000000000E+02 0. -1.
</event>
<event>
 5    1  0.1440459E-008  0.3713090E+03  0.7957747E-01  0.3489897E+00
         13   -1    0    0    0    0  0.00000000000E+00  0.00000000000E+00  0.14999999963E+04  0.15000000000E+04  0.10566000000E+00 0. -1.
        994   -1    0    0    0    0 -0.00000000000E+00 -0.00000000000E+00  0.11368683772E-12  0.17120000000E+03  0.17120000000E+03 0.  0.
         13    1    1    2    0    0  0.11474778392E+02 -0.23375505761E+02  0.38463930955E+02  0.46449649700E+02  0.10566000000E+00 0. -1.
        994    1    1    2    0    0  0.19325098558E+00 -0.72573425538E+01  0.87679295365E+01  0.17157803751E+03  0.17120000000E+03 0.  0.
        998    1    1    2    0    0 -0.11668029378E+02  0.30632848315E+02  0.14527681358E+04  0.14531723128E+04  0.10000000000E+02 0. -1.
</event>
<event>
 5    1  0.1440459E-008  0.3784374E+03  0.7957747E-01  0.3457991E+00
         13   -1    0    0    0    0  0.00000000000E+00  0.00000000000E+00  0.14999999963E+04  0.15000000000E+04  0.10566000000E+00 0.  1.
        994   -1    0    0    0    0 -0.00000000000E+00 -0.00000000000E+00  0.11368683772E-12  0.17120000000E+03  0.17120000000E+03 0.  0.
         13    1    1    2    0    0  0.10803271389E+02  0.12846708677E+03  0.71647778619E+03  0.72798415664E+03  0.10566000000E+00 0.  1.
        994    1    1    2    0    0 -0.89459039267E+01 -0.13694923268E+03  0.71071388402E+02  0.23064193846E+03  0.17120000000E+03 0.  0.
        998    1    1    2    0    0 -0.18573674627E+01  0.84821459095E+01  0.71245082169E+03  0.71257390490E+03  0.10000000000E+02 0.  1.
</event>
<event>
 5    1  0.1440459E-008  0.3860702E+03  0.7957747E-01  0.3425146E+00
         13   -1    0    0    0    0  0.00000000000E+00  0.00000000000E+00  0.14999999963E+04  0.15000000000E+04  0.10566000000E+00 0. -1.
        994   -1    0    0    0    0 -0.00000000000E+00 -0.00000000000E+00  0.11368683772E-12  0.17120000000E+03  0.17120000000E+03 0.  0.
         13    1    1    2    0    0 -0.54452610150E+01  0.13632582336E+02  0.88023438384E+02  0.89239201239E+02  0.10566000000E+00 0. -1.
        994    1    1    2    0    0  0.10709656015E+02 -0.20701860732E+02  0.28821961125E+01  0.17280338777E+03  0.17120000000E+03 0.  0.
        998    1    1    2    0    0 -0.52643950003E+01  0.70692783957E+01  0.14090943618E+04  0.14091574110E+04  0.10000000000E+02 0. -1.
</event>
<event>
 5    1  0.1738998E-008  0.3863234E+03  0.7957747E-01  0.3424079E+00
         13   -1    0    0    0    0  0.00000000000E+00  0.00000000000E+00  0.14999999963E+04  0.15000000000E+04  0.10566000000E+00 0.  1.
        994   -1    0    0    0    0 -0.00000000000E+00 -0.00000000000E+00  0.11368683772E-12  0.17120000000E+03  0.17120000000E+03 0.  0.
         13    1    1    2    0    0 -0.63388324142E+01  0.81297268853E+01  0.52083775210E+02  0.53094294042E+02  0.10566000000E+00 0.  1.
        994    1    1    2    0    0  0.14251782404E+02 -0.89832597793E+01  0.19044298331E+01  0.17203743520E+03  0.17120000000E+03 0.  0.
        998    1    1    2    0    0 -0.79129499900E+01  0.85353289407E+00  0.14460117912E+04  0.14460682708E+04  0.10000000000E+02 0.  1.
</event>
<event>
 5    1  0.1440459E-008  0.3823826E+03  0.7957747E-01  0.3440849E+00
         13   -1    0    0    0    0  0.00000000000E+00  0.00000000000E+00  0.14999999963E+04  0.15000000000E+04  0.10566000000E+00 0. -1.
        994   -1    0    0    0    0 -0.00000000000E+00 -0.00000000000E+00  0.11368683772E-12  0.17120000000E+03  0.17120000000E+03 0.  0.
         13    1    1    2    0    0  0.10631302931E+02 -0.10423940968E+01  0.18319457773E+02  0.21206717911E+02  0.10566000000E+00 0. -1.
        994    1    1    2    0    0 -0.66246233803E+01  0.26621062852E+01  0.31043094243E+01  0.17137692138E+03  0.17120000000E+03 0.  0.
        998    1    1    2    0    0 -0.40066795503E+01 -0.16197121884E+01  0.14785762291E+04  0.14786163607E+04  0.10000000000E+02 0. -1.
</event>
<event>
 5    1  0.1440459E-008  0.3769478E+03  0.7957747E-01  0.3464557E+00
         13   -1    0    0    0    0  0.00000000000E+00  0.00000000000E+00  0.14999999963E+04  0.15000000000E+04  0.10566000000E+00 0.  1.
        994   -1    0    0    0    0 -0.00000000000E+00 -0.00000000000E+00  0.11368683772E-12  0.17120000000E+03  0.17120000000E+03 0.  0.
         13    1    1    2    0    0 -0.38412965965E+02 -0.84055603256E+02  0.49152885491E+03  0.50014150674E+03  0.10566000000E+00 0.  1.
        994    1    1    2    0    0  0.46742945420E+02  0.81494136060E+02  0.36094232452E+02  0.19859111454E+03  0.17120000000E+03 0.  0.
        998    1    1    2    0    0 -0.83299794547E+01  0.25614671966E+01  0.97237690892E+03  0.97246737872E+03  0.10000000000E+02 0.  1.
</event>
<event>
 5    1  0.1440459E-008  0.3793804E+03  0.7957747E-01  0.3453861E+00
         13   -1    0    0    0    0  0.00000000000E+00  0.00000000000E+00  0.14999999963E+04  0.15000000000E+04  0.10566000000E+00 0.  1.
        994   -1    0    0    0    0 -0.00000000000E+00 -0.00000000000E+00  0.11368683772E-12  0.17120000000E+03  0.17120000000E+03 0.  0.
         13    1    1    2    0    0 -0.10451794602E+02  0.10852698757E+02  0.23783030497E+02  0.28154303123E+02  0.10566000000E+00 0.  1.
        994    1    1    2    0    0  0.91257259932E+01 -0.38928478977E+01  0.47760398785E+01  0.17155373414E+03  0.17120000000E+03 0.  0.
        998    1    1    2    0    0  0.13260686085E+01 -0.69598508596E+01  0.14714409259E+04  0.14714919627E+04  0.10000000000E+02 0.  1.
</event>
<event>
 5    1  0.1440459E-008  0.3699829E+03  0.7957747E-01  0.3495970E+00
         13   -1    0    0    0    0  0.00000000000E+00  0.00000000000E+00  0.14999999963E+04  0.15000000000E+04  0.10566000000E+00 0.  1.
        994   -1    0    0    0    0 -0.00000000000E+00 -0.00000000000E+00  0.11368683772E-12  0.17120000000E+03  0.17120000000E+03 0.  0.
         13    1    1    2    0    0  0.20737624487E+02  0.94640290573E+01  0.23905185736E+02  0.33031590704E+02  0.10566000000E+00 0.  1.
        994    1    1    2    0    0 -0.17315517792E+02 -0.94128751801E+01  0.10622276009E+02  0.17265776010E+03  0.17120000000E+03 0.  0.
        998    1    1    2    0    0 -0.34221066945E+01 -0.51153877158E-01  0.14654725345E+04  0.14655106492E+04  0.10000000000E+02 0.  1.
</event>
<event>
 5    1  0.1440459E-008  0.3826441E+03  0.7957747E-01  0.3439726E+00
         13   -1    0    0    0    0  0.00000000000E+00  0.00000000000E+00  0.14999999963E+04  0.15000000000E+04  0.10566000000E+00 0. -1.
        994   -1    0    0    0    0 -0.00000000000E+00 -0.00000000000E+00  0.11368683772E-12  0.17120000000E+03  0.17120000000E+03 0.  0.
         13    1    1    2    0    0  0.16669496684E+02 -0.15413996267E+02  0.10465255373E+03  0.10708702800E+03  0.10566000000E+00 0. -1.
        994    1    1    2    0    0  0.20472380397E+02  0.11786046853E+02  0.46558118443E+01  0.17288477621E+03  0.17120000000E+03 0.  0.
        998    1    1    2    0    0 -0.37141877082E+02  0.36279494142E+01  0.13906916307E+04  0.13912281958E+04  0.10000000000E+02 0. -1.
</event>
<event>
 5    1  0.1440459E-008  0.3795205E+03  0.7957747E-01  0.3453249E+00
         13   -1    0    0    0    0  0.00000000000E+00  0.00000000000E+00  0.14999999963E+04  0.15000000000E+04  0.10566000000E+00 0.  1.
        994   -1    0    0    0    0 -0.00000000000E+00 -0.00000000000E+00  0.11368683772E-12  0.17120000000E+03  0.17120000000E+03 0.  0.
         13    1    1    2    0    0  0.21211245505E+01 -0.14432920083E+02  0.22247176956E+02  0.26603691436E+02  0.10566000000E+00 0.  1.
        994    1    1    2    0    0  0.92217596274E+01  0.15843388432E+02  0.55013758347E+01  0.17226653460E+03  0.17120000000E+03 0.  0.
        998    1    1    2    0    0 -0.11342884178E+02 -0.14104683484E+01  0.14722514435E+04  0.14723297740E+04  0.10000000000E+02 0.  1.
</event>
<event>
 5    1  0.1440459E-008  0.3753318E+03  0.7957747E-01  0.3471740E+00
         13   -1    0    0    0    0  0.00000000000E+00  0.00000000000E+00  0.14999999963E+04  0.15000000000E+04  0.10566000000E+00 0.  1.
        994   -1    0    0    0    0 -0.00000000000E+00 -0.00000000000E+00  0.11368683772E-12  0.17120000000E+03  0.17120000000E+03 0.  0.
         13    1    1    2    0    0  0.35373248373E+02  0.93325997965E+02  0.50962702868E+03  0.51930793189E+03  0.10566000000E+00 0.  1.
        994    1    1    2    0    0 -0.33805699798E+02 -0.91040129981E+02  0.39236459606E+02  0.20069895458E+03  0.17120000000E+03 0.  0.
        998    1    1    2    0    0 -0.15675485750E+01 -0.22858679841E+01  0.95113650799E+03  0.95119311354E+03  0.10000000000E+02 0.  0.
</event>
<event>
 5    1  0.1440459E-008  0.3845449E+03  0.7957747E-01  0.3431605E+00
         13   -1    0    0    0    0  0.00000000000E+00  0.00000000000E+00  0.14999999963E+04  0.15000000000E+04  0.10566000000E+00 0. -1.
        994   -1    0    0    0    0 -0.00000000000E+00 -0.00000000000E+00  0.11368683772E-12  0.17120000000E+03  0.17120000000E+03 0.  0.
         13    1    1    2    0    0 -0.98518123449E+01  0.15877812507E+02  0.10692267287E+03  0.10854322767E+03  0.10566000000E+00 0. -1.
        994    1    1    2    0    0 -0.27671225263E+02 -0.13407035147E+02  0.49763084346E+01  0.17401048516E+03  0.17120000000E+03 0.  0.
        998    1    1    2    0    0  0.37523037607E+02 -0.24707773600E+01  0.13881010150E+04  0.13886462872E+04  0.10000000000E+02 0. -1.
</event>
<event>
 5    1  0.1440459E-008  0.3800540E+03  0.7957747E-01  0.3450924E+00
         13   -1    0    0    0    0  0.00000000000E+00  0.00000000000E+00  0.14999999963E+04  0.15000000000E+04  0.10566000000E+00 0. -1.
        994   -1    0    0    0    0 -0.00000000000E+00 -0.00000000000E+00  0.11368683772E-12  0.17120000000E+03  0.17120000000E+03 0.  0.
         13    1    1    2    0    0 -0.36302402733E+02  0.16107680543E+02  0.24010830196E+03  0.24337076581E+03  0.10566000000E+00 0. -1.
        994    1    1    2    0    0 -0.11031941190E+01  0.71514860227E+01  0.42809398780E+01  0.17140632204E+03  0.17120000000E+03 0.  0.
        998    1    1    2    0    0  0.37405596852E+02 -0.23259166565E+02  0.12556107544E+04  0.12564229121E+04  0.10000000000E+02 0. -1.
</event>
<event>
 5    1  0.1440459E-008  0.3726403E+03  0.7957747E-01  0.3483844E+00
         13   -1    0    0    0    0  0.00000000000E+00  0.00000000000E+00  0.14999999963E+04  0.15000000000E+04  0.10566000000E+00 0. -1.
        994   -1    0    0    0    0 -0.00000000000E+00 -0.00000000000E+00  0.11368683772E-12  0.17120000000E+03  0.17120000000E+03 0.  0.
         13    1    1    2    0    0 -0.23142558173E+01  0.44173718705E+02  0.12012961821E+03  0.12801488015E+03  0.10566000000E+00 0. -1.
        994    1    1    2    0    0 -0.52330103923E+01 -0.29245482070E+02  0.10925955204E+02  0.17410197907E+03  0.17120000000E+03 0.  0.
        998    1    1    2    0    0  0.75472662096E+01 -0.14928236635E+02  0.13689444229E+04  0.13690831408E+04  0.10000000000E+02 0.  0.
</event>
<event>
 5    1  0.1440459E-008  0.3843210E+03  0.7957747E-01  0.3432557E+00
         13   -1    0    0    0    0  0.00000000000E+00  0.00000000000E+00  0.14999999963E+04  0.15000000000E+04  0.10566000000E+00 0.  1.
        994   -1    0    0    0    0 -0.00000000000E+00 -0.00000000000E+00  0.11368683772E-12  0.17120000000E+03  0.17120000000E+03 0.  0.
         13    1    1    2    0    0 -0.35932859745E+01 -0.21595451001E+02  0.11420487194E+03  0.11628430310E+03  0.10566000000E+00 0.  1.
        994    1    1    2    0    0  0.10694403975E+01  0.21840052288E+02  0.35450940130E+01  0.17262716842E+03  0.17120000000E+03 0.  0.
        998    1    1    2    0    0  0.25238455771E+01 -0.24460128661E+00  0.13822500303E+04  0.13822885285E+04  0.10000000000E+02 0.  1.
</event>
<event>
 5    1  0.1440459E-008  0.3792151E+03  0.7957747E-01  0.3454583E+00
         13   -1    0    0    0    0  0.00000000000E+00  0.00000000000E+00  0.14999999963E+04  0.15000000000E+04  0.10566000000E+00 0.  1.
        994   -1    0    0    0    0 -0.00000000000E+00 -0.00000000000E+00  0.11368683772E-12  0.17120000000E+03  0.17120000000E+03 0.  0.
         13    1    1    2    0    0  0.19849514104E+02  0.31848056414E+02  0.14624188059E+03  0.15098013350E+03  0.10566000000E+00 0.  1.
        994    1    1    2    0    0 -0.18612706431E+02 -0.24515705708E+02  0.77118881252E+01  0.17411595529E+03  0.17120000000E+03 0.  0.
        998    1    1    2    0    0 -0.12368076731E+01 -0.73323507062E+01  0.13460462276E+04  0.13461039112E+04  0.10000000000E+02 0.  1.
</event>
<event>
 5    1  0.1440459E-008  0.3818116E+03  0.7957747E-01  0.3443308E+00
         13   -1    0    0    0    0  0.00000000000E+00  0.00000000000E+00  0.14999999963E+04  0.15000000000E+04  0.10566000000E+00 0. -1.
        994   -1    0    0    0    0 -0.00000000000E+00 -0.00000000000E+00  0.11368683772E-12  0.17120000000E+03  0.17120000000E+03 0.  0.
         13    1    1    2    0    0  0.32100766857E+02  0.77290482010E+01  0.15356393099E+03  0.15707351618E+03  0.10566000000E+00 0. -1.
        994    1    1    2    0    0 -0.31091929118E+02 -0.88587698613E+01  0.67024203136E+01  0.17435466239E+03  0.17120000000E+03 0.  0.
        998    1    1    2    0    0 -0.10088377389E+01  0.11297216603E+01  0.13397336450E+04  0.13397718214E+04  0.10000000000E+02 0.  0.
</event>
<event>
 5    1  0.1440459E-008  0.3851670E+03  0.7957747E-01  0.3428964E+00
         13   -1    0    0    0    0  0.00000000000E+00  0.00000000000E+00  0.14999999963E+04  0.15000000000E+04  0.10566000000E+00 0.  1.
        994   -1    0    0    0    0 -0.00000000000E+00 -0.00000000000E+00  0.11368683772E-12  0.17120000000E+03  0.17120000000E+03 0.  0.
         13    1    1    2    0    0 -0.13942051043E+02  0.70157142971E+01  0.77001892437E+02  0.78567828259E+02  0.10566000000E+00 0.  1.
        994    1    1    2    0    0  0.13480813674E+02 -0.34854611240E+01  0.21847847623E+01  0.17177920148E+03  0.17120000000E+03 0.  0.
        998    1    1    2    0    0  0.46123736885E+00 -0.35302531731E+01  0.14208133191E+04  0.14208529703E+04  0.10000000000E+02 0.  0.
</event>
<event>
 5    1  0.1440459E-008  0.3749079E+03  0.7957747E-01  0.3473635E+00
         13   -1    0    0    0    0  0.00000000000E+00  0.00000000000E+00  0.14999999963E+04  0.15000000000E+04  0.10566000000E+00 0. -1.
        994   -1    0    0    0    0 -0.00000000000E+00 -0.00000000000E+00  0.11368683772E-12  0.17120000000E+03  0.17120000000E+03 0.  0.
         13    1    1    2    0    0  0.43945323725E+02 -0.28772537884E+02  0.24706830117E+03  0.25259019581E+03  0.10566000000E+00 0. -1.
        994    1    1    2    0    0  0.23191456863E+00  0.36160473724E+01  0.67706681491E+01  0.17137214339E+03  0.17120000000E+03 0.  0.
        998    1    1    2    0    0 -0.44177238294E+02  0.25156490511E+02  0.12461610270E+04  0.12472376608E+04  0.10000000000E+02 0. -1.
</event>
<event>
 5    1  0.1563112E-008  0.3862661E+03  0.7957747E-01  0.3424320E+00
         13   -1    0    0    0    0  0.00000000000E+00  0.00000000000E+00  0.14999999963E+04  0.15000000000E+04  0.10566000000E+00 0. -1.
        994   -1    0    0    0    0 -0.00000000000E+00 -0.00000000000E+00  0.11368683772E-12  0.17120000000E+03  0.17120000000E+03 0.  0.
         13    1    1    2    0    0  0.10370100845E+02 -0.24554034409E+01  0.63997385428E+02  0.64878690671E+02  0.10566000000E+00 0. -1.
        994    1    1    2    0    0  0.19510696003E+01 -0.15663639125E+02  0.18192931375E+01  0.17193576152E+03  0.17120000000E+03 0.  0.
        998    1    1    2    0    0 -0.12321170445E+02  0.18119042565E+02  0.14341833177E+04  0.14343855478E+04  0.10000000000E+02 0. -1.
</event>
<event>
 5    1  0.1690736E-008  0.3860684E+03  0.7957747E-01  0.3425154E+00
         13   -1    0    0    0    0  0.00000000000E+00  0.00000000000E+00  0.14999999963E+04  0.15000000000E+04  0.10566000000E+00 0.  1.
        994   -1    0    0    0    0 -0.00000000000E+00 -0.00000000000E+00  0.11368683772E-12  0.17120000000E+03  0.17120000000E+03 0.  0.
         13    1    1    2    0    0 -0.10874755466E+02 -0.63329403942E+01  0.75385733797E+02  0.76428963519E+02  0.10566000000E+00 0.  1.
        994    1    1    2    0    0  0.24446679176E+01  0.41775207471E+01  0.11774022783E+01  0.17127245650E+03  0.17120000000E+03 0.  0.
        998    1    1    2    0    0  0.84300875486E+01  0.21554196471E+01  0.14234368602E+04  0.14234985800E+04  0.10000000000E+02 0.  1.
</event>
<event>
 5    1  0.1955919E-008  0.3864377E+03  0.7957747E-01  0.3423598E+00
         13   -1    0    0    0    0  0.00000000000E+00  0.00000000000E+00  0.14999999963E+04  0.15000000000E+04  0.10566000000E+00 0. -1.
        994   -1    0    0    0    0 -0.00000000000E+00 -0.00000000000E+00  0.11368683772E-12  0.17120000000E+03  0.17120000000E+03 0.  0.
         13    1    1    2    0    0 -0.70494034366E+01 -0.90903218737E+01  0.61189383033E+02  0.62261382900E+02  0.10566000000E+00 0. -1.
        994    1    1    2    0    0  0.41439142368E+02  0.88310908795E+01  0.68165359628E+01  0.17649673042E+03  0.17120000000E+03 0.  0.
        998    1    1    2    0    0 -0.34389738931E+02  0.25923099415E+00  0.14319940773E+04  0.14324418867E+04  0.10000000000E+02 0. -1.
</event>
<event>
 5    1  0.1440459E-008  0.3838574E+03  0.7957747E-01  0.3434533E+00
         13   -1    0    0    0    0  0.00000000000E+00  0.00000000000E+00  0.14999999963E+04  0.15000000000E+04  0.10566000000E+00 0. -1.
        994   -1    0    0    0    0 -0.00000000000E+00 -0.00000000000E+00  0.11368683772E-12  0.17120000000E+03  0.17120000000E+03 0.  0.
         13    1    1    2    0    0 -0.16597360487E+02  0.54174344851E+01  0.69256725158E+02  0.71423568346E+02  0.10566000000E+00 0. -1.
        994    1    1    2    0    0  0.10936653902E+02  0.39455610568E+00  0.25939307004E+01  0.17156903727E+03  0.17120000000E+03 0.  0.
        998    1    1    2    0    0  0.56607065852E+01 -0.58119905908E+01  0.14281493404E+04  0.14282073944E+04  0.10000000000E+02 0. -1.
</event>
<event>
 5    1  0.2474293E-008  0.3866335E+03  0.7957747E-01  0.3422774E+00
         13   -1    0    0    0    0  0.00000000000E+00  0.00000000000E+00  0.14999999963E+04  0.15000000000E+04  0.10566000000E+00 0. -1.
        994   -1    0    0    0    0 -0.00000000000E+00 -0.00000000000E+00  0.11368683772E-12  0.17120000000E+03  0.17120000000E+03 0.  0.
         13    1    1    2    0    0  0.52336708634E+01 -0.88541107890E+01  0.62039403901E+02  0.62886289356E+02  0.10566000000E+00 0. -1.
        994    1    1    2    0    0 -0.43030084465E+01  0.13995211197E+02  0.15229141941E+01  0.17183172316E+03  0.17120000000E+03 0.  0.
        998    1    1    2    0    0 -0.93066241685E+00 -0.51411004085E+01  0.14364376782E+04  0.14364819875E+04  0.10000000000E+02 0. -1.
</event>
<event>
 5    1  0.1440459E-008  0.3823115E+03  0.7957747E-01  0.3441155E+00
         13   -1    0    0    0    0  0.00000000000E+00  0.00000000000E+00  0.14999999963E+04  0.15000000000E+04  0.10566000000E+00 0.  1.
        994   -1    0    0    0    0 -0.00000000000E+00 -0.00000000000E+00  0.11368683772E-12  0.17120000000E+03  0.17120000000E+03 0.  0.
         13    1    1    2    0    0  0.94319434435E+01  0.98683212928E+01  0.30592736696E+02  0.33500328728E+02  0.10566000000E+00 0.  1.
        994    1    1    2    0    0 -0.54592678786E+01 -0.37318945977E+01  0.31159115032E+01  0.17135600237E+03  0.17120000000E+03 0.  0.
        998    1    1    2    0    0 -0.39726755649E+01 -0.61364266952E+01  0.14662913481E+04  0.14663436689E+04  0.10000000000E+02 0.  1.
</event>
<event>
 5    1  0.1440459E-008  0.3840475E+03  0.7957747E-01  0.3433722E+00
         13   -1    0    0    0    0  0.00000000000E+00  0.00000000000E+00  0.14999999963E+04  0.15000000000E+04  0.10566000000E+00 0. -1.
        994   -1    0    0    0    0 -0.00000000000E+00 -0.00000000000E+00  0.11368683772E-12  0.17120000000E+03  0.17120000000E+03 0.  0.
         13    1    1    2    0    0 -0.22586639241E+02  0.24797662629E+01  0.13239263822E+03  0.13432843084E+03  0.10566000000E+00 0. -1.
        994    1    1    2    0    0  0.54803577533E+01  0.92239503972E+01  0.24836020833E+01  0.17155385120E+03  0.17120000000E+03 0.  0.
        998    1    1    2    0    0  0.17106281488E+02 -0.11703716660E+02  0.13651237560E+04  0.13653177180E+04  0.10000000000E+02 0. -1.
</event>
<event>
 5    1  0.1440459E-008  0.3800968E+03  0.7957747E-01  0.3450737E+00
         13   -1    0    0    0    0  0.00000000000E+00  0.00000000000E+00  0.14999999963E+04  0.15000000000E+04  0.10566000000E+00 0. -1.
        994   -1    0    0    0    0 -0.00000000000E+00 -0.00000000000E+00  0.11368683772E-12  0.17120000000E+03  0.17120000000E+03 0.  0.
         13    1    1    2    0    0 -0.95302775653E+02  0.14578919471E+02  0.21458458677E+03  0.23524820931E+03  0.10566000000E+00 0. -1.
        994    1    1    2    0    0  0.11536059295E+03 -0.20245242489E+02  0.67963743881E+02  0.21828066046E+03  0.17120000000E+03 0.  0.
        998    1    1    2    0    0 -0.20057817297E+02  0.56663230175E+01  0.12174516656E+04  0.12176711302E+04  0.10000000000E+02 0.  1.
</event>
<event>
 5    1  0.1440459E-008  0.3845942E+03  0.7957747E-01  0.3431395E+00
         13   -1    0    0    0    0  0.00000000000E+00  0.00000000000E+00  0.14999999963E+04  0.15000000000E+04  0.10566000000E+00 0.  1.
        994   -1    0    0    0    0 -0.00000000000E+00 -0.00000000000E+00  0.11368683772E-12  0.17120000000E+03  0.17120000000E+03 0.  0.
         13    1    1    2    0    0  0.85814068219E+01 -0.10697369976E+02  0.48929965842E+02  0.50815617567E+02  0.10566000000E+00 0.  1.
        994    1    1    2    0    0 -0.25415706081E+02  0.23718237925E+01  0.39803480128E+01  0.17313828818E+03  0.17120000000E+03 0.  0.
        998    1    1    2    0    0  0.16834299259E+02  0.83255461830E+01  0.14470896824E+04  0.14472460943E+04  0.10000000000E+02 0.  1.
</event>
<event>
 5    1  0.1440459E-008  0.3849956E+03  0.7957747E-01  0.3429691E+00
         13   -1    0    0    0    0  0.00000000000E+00  0.00000000000E+00  0.14999999963E+04  0.15000000000E+04  0.10566000000E+00 0.  1.
        994   -1    0    0    0    0 -0.00000000000E+00 -0.00000000000E+00  0.11368683772E-12  0.17120000000E+03  0.17120000000E+03 0.  0.
         13    1    1    2    0    0 -0.80510764076E+01 -0.84395572242E+01  0.44616345678E+02  0.46115891222E+02  0.10566000000E+00 0.  1.
        994    1    1    2    0    0 -0.77126771697E+01 -0.11455042458E+00  0.18280120772E+01  0.17138343018E+03  0.17120000000E+03 0.  0.
        998    1    1    2    0    0  0.15763753577E+02  0.85541076488E+01  0.14535556385E+04  0.14537006786E+04  0.10000000000E+02 0.  1.
</event>
<event>
 5    1  0.1440459E-008  0.3808776E+03  0.7957747E-01  0.3447346E+00
         13   -1    0    0    0    0  0.00000000000E+00  0.00000000000E+00  0.14999999963E+04  0.15000000000E+04  0.10566000000E+00 0.  1.
        994   -1    0    0    0    0 -0.00000000000E+00 -0.00000000000E+00  0.11368683772E-12  0.17120000000E+03  0.17120000000E+03 0.  0.
         13    1    1    2    0    0  0.83531351985E+01  0.84316551832E+01  0.17602500313E+02  0.21230328732E+02  0.10566000000E+00 0.  1.
        994    1    1    2    0    0 -0.12293728820E+02  0.20512889734E+01  0.42087516178E+01  0.17170468003E+03  0.17120000000E+03 0.  0.
        998    1    1    2    0    0  0.39405936218E+01 -0.10482944157E+02  0.14781887443E+04  0.14782649912E+04  0.10000000000E+02 0.  1.
</event>
<event>
 5    1  0.1440459E-008  0.3728737E+03  0.7957747E-01  0.3482787E+00
         13   -1    0    0    0    0  0.00000000000E+00  0.00000000000E+00  0.14999999963E+04  0.15000000000E+04  0.10566000000E+00 0. -1.
        994   -1    0    0    0    0 -0.00000000000E+00 -0.00000000000E+00  0.11368683772E-12  0.17120000000E+03  0.17120000000E+03 0.  0.
         13    1    1    2    0    0 -0.29985525610E+02  0.22083757713E+02  0.83469018458E+02  0.91399739098E+02  0.10566000000E+00 0. -1.
        994    1    1    2    0    0  0.29858252931E+02 -0.14571728386E+02  0.11563400826E+02  0.17477700871E+03  0.17120000000E+03 0.  0.
        998    1    1    2    0    0  0.12727267869E+00 -0.75120293265E+01  0.14049675770E+04  0.14050232522E+04  0.10000000000E+02 0. -1.
</event>
<event>
 5    1  0.1440459E-008  0.3753065E+03  0.7957747E-01  0.3471853E+00
         13   -1    0    0    0    0  0.00000000000E+00  0.00000000000E+00  0.14999999963E+04  0.15000000000E+04  0.10566000000E+00 0.  1.
        994   -1    0    0    0    0 -0.00000000000E+00 -0.00000000000E+00  0.11368683772E-12  0.17120000000E+03  0.17120000000E+03 0.  0.
         13    1    1    2    0    0  0.17085363838E+02  0.32997436686E+02  0.10239789813E+03  0.10893154360E+03  0.10566000000E+00 0.  1.
        994    1    1    2    0    0 -0.24620846992E+02 -0.15847603274E+02  0.94381319773E+01  0.17394209086E+03  0.17120000000E+03 0.  0.
        998    1    1    2    0    0  0.75354831542E+01 -0.17149833412E+02  0.13881639662E+04  0.13883263655E+04  0.10000000000E+02 0.  1.
</event>
<event>
 5    1  0.1440459E-008  0.3781552E+03  0.7957747E-01  0.3459231E+00
         13   -1    0    0    0    0  0.00000000000E+00  0.00000000000E+00  0.14999999963E+04  0.15000000000E+04  0.10566000000E+00 0.  1.
        994   -1    0    0    0    0 -0.00000000000E+00 -0.00000000000E+00  0.11368683772E-12  0.17120000000E+03  0.17120000000E+03 0.  0.
         13    1    1    2    0    0  0.74873266096E+01 -0.13164743563E+02  0.20310612542E+02  0.25335798363E+02  0.10566000000E+00 0.  1.
        994    1    1    2    0    0 -0.49077559450E+01  0.13275995256E+02  0.57413866794E+01  0.17188002106E+03  0.17120000000E+03 0.  0.
        998    1    1    2    0    0 -0.25795706646E+01 -0.11125169314E+00  0.14739479971E+04  0.14739841806E+04  0.10000000000E+02 0.  1.
</event>
<event>
 5    1  0.1440459E-008  0.3778146E+03  0.7957747E-01  0.3460730E+00
         13   -1    0    0    0    0  0.00000000000E+00  0.00000000000E+00  0.14999999963E+04  0.15000000000E+04  0.10566000000E+00 0.  1.
        994   -1    0    0    0    0 -0.00000000000E+00 -0.00000000000E+00  0.11368683772E-12  0.17120000000E+03  0.17120000000E+03 0.  0.
         13    1    1    2    0    0 -0.11744977618E+03  0.13053876530E+03  0.92145066722E+03  0.93803313505E+03  0.10566000000E+00 0.  1.
        994    1    1    2    0    0  0.10870350353E+03 -0.13998585003E+03  0.11956587480E+03  0.27389400925E+03  0.17120000000E+03 0.  0.
        998    1    1    2    0    0  0.87462726498E+01  0.94470847225E+01  0.45898345426E+03  0.45927285570E+03  0.10000000000E+02 0. -1.
</event>
<event>
 5    1  0.1440459E-008  0.3728617E+03  0.7957747E-01  0.3482841E+00
         13   -1    0    0    0    0  0.00000000000E+00  0.00000000000E+00  0.14999999963E+04  0.15000000000E+04  0.10566000000E+00 0. -1.
        994   -1    0    0    0    0 -0.00000000000E+00 -0.00000000000E+00  0.11368683772E-12  0.17120000000E+03  0.17120000000E+03 0.  0.
         13    1    1    2    0    0  0.62858968771E+01 -0.43136670377E+02  0.69810448772E+02  0.82303066483E+02  0.10566000000E+00 0. -1.
        994    1    1    2    0    0 -0.82659110931E+01  0.37438327309E+02  0.17668955129E+02  0.17632806247E+03  0.17120000000E+03 0.  0.
        998    1    1    2    0    0  0.19800142159E+01  0.56983430681E+01  0.14125205924E+04  0.14125688710E+04  0.10000000000E+02 0. -1.
</event>
<event>
 5    1  0.1440459E-008  0.3853104E+03  0.7957747E-01  0.3428357E+00
         13   -1    0    0    0    0  0.00000000000E+00  0.00000000000E+00  0.14999999963E+04  0.15000000000E+04  0.10566000000E+00 0.  1.
        994   -1    0    0    0    0 -0.00000000000E+00 -0.00000000000E+00  0.11368683772E-12  0.17120000000E+03  0.17120000000E+03 0.  0.
         13    1    1    2    0    0 -0.12052463807E+02 -0.69055575512E+01  0.65298472497E+02  0.66759645620E+02  0.10566000000E+00 0.  1.
        994    1    1    2    0    0  0.37843067076E+01  0.13320839378E+02  0.21063584584E+01  0.17177206550E+03  0.17120000000E+03 0.  0.
        998    1    1    2    0    0  0.82681570994E+01 -0.64152818272E+01  0.14325951653E+04  0.14326682889E+04  0.10000000000E+02 0.  1.
</event>
<event>
 5    1  0.1440459E-008  0.3783379E+03  0.7957747E-01  0.3458428E+00
         13   -1    0    0    0    0  0.00000000000E+00  0.00000000000E+00  0.14999999963E+04  0.15000000000E+04  0.10566000000E+00 0. -1.
        994   -1    0    0    0    0 -0.00000000000E+00 -0.00000000000E+00  0.11368683772E-12  0.17120000000E+03  0.17120000000E+03 0.  0.
         13    1    1    2    0    0 -0.18786171791E+02  0.45946257937E+02  0.19078598868E+03  0.19713772726E+03  0.10566000000E+00 0. -1.
        994    1    1    2    0    0 -0.40091519213E+02 -0.96819790981E+02  0.42822152372E+02  0.20524273086E+03  0.17120000000E+03 0.  0.
        998    1    1    2    0    0  0.58877691004E+02  0.50873533044E+02  0.12663918552E+04  0.12688195419E+04  0.10000000000E+02 0. -1.
</event>
<event>
 5    1  0.1440459E-008  0.3834353E+03  0.7957747E-01  0.3436335E+00
         13   -1    0    0    0    0  0.00000000000E+00  0.00000000000E+00  0.14999999963E+04  0.15000000000E+04  0.10566000000E+00 0. -1.
        994   -1    0    0    0    0 -0.00000000000E+00 -0.00000000000E+00  0.11368683772E-12  0.17120000000E+03  0.17120000000E+03 0.  0.
         13    1    1    2    0    0  0.16244464367E+02  0.72294293680E+00  0.56848543542E+02  0.59128447772E+02  0.10566000000E+00 0. -1.
        994    1    1    2    0    0 -0.93862413442E+00 -0.88881887646E+01  0.26730393119E+01  0.17145397649E+03  0.17120000000E+03 0.  0.
        998    1    1    2    0    0 -0.15305840232E+02  0.81652458278E+01  0.14404784134E+04  0.14406175757E+04  0.10000000000E+02 0. -1.
</event>
<event>
 5    1  0.1440459E-008  0.3851352E+03  0.7957747E-01  0.3429099E+00
         13   -1    0    0    0    0  0.00000000000E+00  0.00000000000E+00  0.14999999963E+04  0.15000000000E+04  0.10566000000E+00 0.  1.
        994   -1    0    0    0    0 -0.00000000000E+00 -0.00000000000E+00  0.11368683772E-12  0.17120000000E+03  0.17120000000E+03 0.  0.
         13    1    1    2    0    0 -0.27293816560E+01 -0.18003129451E+02  0.10859310406E+03  0.11010919856E+03  0.10566000000E+00 0.  1.
        994    1    1    2    0    0  0.74140975748E+01  0.79991480255E+01  0.19541797801E+01  0.17155819430E+03  0.17120000000E+03 0.  0.
        998    1    1    2    0    0 -0.46847159188E+01  0.10003981425E+02  0.13894527124E+04  0.13895326071E+04  0.10000000000E+02 0.  1.
</event>
<event>
 5    1  0.1440459E-008  0.3847757E+03  0.7957747E-01  0.3430624E+00
         13   -1    0    0    0    0  0.00000000000E+00  0.00000000000E+00  0.14999999963E+04  0.15000000000E+04  0.10566000000E+00 0.  1.
        994   -1    0    0    0    0 -0.00000000000E+00 -0.00000000000E+00  0.11368683772E-12  0.17120000000E+03  0.17120000000E+03 0.  0.
         13    1    1    2    0    0 -0.54710361674E+01 -0.16860345183E+02  0.94466181226E+02  0.96114900176E+02  0.10566000000E+00 0.  1.
        994    1    1    2    0    0  0.44648625575E+01  0.38998286673E+01  0.18572029780E+01  0.17131267573E+03  0.17120000000E+03 0.  0.
        998    1    1    2    0    0  0.10061736099E+01  0.12960516516E+02  0.14036766121E+04  0.14037724241E+04  0.10000000000E+02 0.  1.
</event>
<event>
 5    1  0.1440459E-008  0.3782247E+03  0.7957747E-01  0.3458925E+00
         13   -1    0    0    0    0  0.00000000000E+00  0.00000000000E+00  0.14999999963E+04  0.15000000000E+04  0.10566000000E+00 0.  1.
        994   -1    0    0    0    0 -0.00000000000E+00 -0.00000000000E+00  0.11368683772E-12  0.17120000000E+03  0.17120000000E+03 0.  0.
         13    1    1    2    0    0 -0.55978138797E+02 -0.29164577346E+01  0.29945470744E+03  0.30465585621E+03  0.10566000000E+00 0.  1.
        994    1    1    2    0    0  0.35793965398E+02  0.99186157377E+01  0.96851059765E+01  0.17545035815E+03  0.17120000000E+03 0.  0.
        998    1    1    2    0    0  0.20184173399E+02 -0.70021580031E+01  0.11908601829E+04  0.11910937856E+04  0.10000000000E+02 0.  1.
</event>
<event>
 5    1  0.1440459E-008  0.3832786E+03  0.7957747E-01  0.3437006E+00
         13   -1    0    0    0    0  0.00000000000E+00  0.00000000000E+00  0.14999999963E+04  0.15000000000E+04  0.10566000000E+00 0. -1.
        994   -1    0    0    0    0 -0.00000000000E+00 -0.00000000000E+00  0.11368683772E-12  0.17120000000E+03  0.17120000000E+03 0.  0.
         13    1    1    2    0    0 -0.48288029827E+01  0.12104308584E+02  0.35168515566E+02  0.37505563263E+02  0.10566000000E+00 0. -1.
        994    1    1    2    0    0 -0.56410691231E+01  0.25488317513E+01  0.26139511572E+01  0.17133181533E+03  0.17120000000E+03 0.  0.
        998    1    1    2    0    0  0.10469872106E+02 -0.14653140336E+02  0.14622175296E+04  0.14623626214E+04  0.10000000000E+02 0. -1.
</event>
<event>
 5    1  0.1440459E-008  0.3819652E+03  0.7957747E-01  0.3442646E+00
         13   -1    0    0    0    0  0.00000000000E+00  0.00000000000E+00  0.14999999963E+04  0.15000000000E+04  0.10566000000E+00 0. -1.
        994   -1    0    0    0    0 -0.00000000000E+00 -0.00000000000E+00  0.11368683772E-12  0.17120000000E+03  0.17120000000E+03 0.  0.
         13    1    1    2    0    0 -0.22169732557E+02  0.13178616837E+02  0.10462475726E+03  0.10775678160E+03  0.10566000000E+00 0. -1.
        994    1    1    2    0    0  0.92043334932E+01 -0.15964111125E+02  0.42730676838E+01  0.17224189881E+03  0.17120000000E+03 0.  0.
        998    1    1    2    0    0  0.12965399064E+02  0.27854942873E+01  0.13911021713E+04  0.13912013196E+04  0.10000000000E+02 0. -1.
</event>
<event>
 5    1  0.1440459E-008  0.3725044E+03  0.7957747E-01  0.3484460E+00
         13   -1    0    0    0    0  0.00000000000E+00  0.00000000000E+00  0.14999999963E+04  0.15000000000E+04  0.10566000000E+00 0. -1.
        994   -1    0    0    0    0 -0.00000000000E+00 -0.00000000000E+00  0.11368683772E-12  0.17120000000E+03  0.17120000000E+03 0.  0.
         13    1    1    2    0    0  0.29610595384E+02 -0.16065216951E+02  0.64095070472E+02  0.72409031050E+02  0.10566000000E+00 0. -1.
        994    1    1    2    0    0 -0.46527056848E+02 -0.34927301083E+00  0.15423980811E+02  0.17807927503E+03  0.17120000000E+03 0.  0.
        998    1    1    2    0    0  0.16916461464E+02  0.16414489962E+02  0.14204809450E+04  0.14207116939E+04  0.10000000000E+02 0. -1.
</event>
<event>
 5    1  0.1440459E-008  0.3838765E+03  0.7957747E-01  0.3434451E+00
         13   -1    0    0    0    0  0.00000000000E+00  0.00000000000E+00  0.14999999963E+04  0.15000000000E+04  0.10566000000E+00 0. -1.
        994   -1    0    0    0    0 -0.00000000000E+00 -0.00000000000E+00  0.11368683772E-12  0.17120000000E+03  0.17120000000E+03 0.  0.
         13    1    1    2    0    0  0.81394597995E+01 -0.66696822856E+01  0.24641361222E+02  0.26794464252E+02  0.10566000000E+00 0. -1.
        994    1    1    2    0    0 -0.40350813782E+01  0.60592960231E+01  0.23639035535E+01  0.17137101561E+03  0.17120000000E+03 0.  0.
        998    1    1    2    0    0 -0.41043784212E+01  0.61038626247E+00  0.14729947315E+04  0.14730345201E+04  0.10000000000E+02 0. -1.
</event>
<event>
 5    1  0.1440459E-008  0.3747623E+03  0.7957747E-01  0.3474286E+00
         13   -1    0    0    0    0  0.00000000000E+00  0.00000000000E+00  0.14999999963E+04  0.15000000000E+04  0.10566000000E+00 0.  1.
        994   -1    0    0    0    0 -0.00000000000E+00 -0.00000000000E+00  0.11368683772E-12  0.17120000000E+03  0.17120000000E+03 0.  0.
         13    1    1    2    0    0 -0.13998041347E+02 -0.16770440506E+02  0.32160415677E+02  0.38877967242E+02  0.10566000000E+00 0.  1.
        994    1    1    2    0    0  0.34326513718E+01  0.18650590520E+02  0.80252038956E+01  0.17243396278E+03  0.17120000000E+03 0.  0.
        998    1    1    2    0    0  0.10565389975E+02 -0.18801500141E+01  0.14598143767E+04  0.14598880700E+04  0.10000000000E+02 0.  1.
</event>
<event>
 5    1  0.1802817E-008  0.3863231E+03  0.7957747E-01  0.3424080E+00
         13   -1    0    0    0    0  0.00000000000E+00  0.00000000000E+00  0.14999999963E+04  0.15000000000E+04  0.10566000000E+00 0. -1.
        994   -1    0    0    0    0 -0.00000000000E+00 -0.00000000000E+00  0.11368683772E-12  0.17120000000E+03  0.17120000000E+03 0.  0.
         13    1    1    2    0    0  0.78837847053E+01 -0.71487012959E+01  0.59613704293E+02  0.60556278742E+02  0.10566000000E+00 0. -1.
        994    1    1    2    0    0 -0.16655737486E+00  0.90256360403E+01  0.12415542023E+01  0.17144232647E+03  0.17120000000E+03 0.  0.
        998    1    1    2    0    0 -0.77172273304E+01 -0.18769347444E+01  0.14391447378E+04  0.14392013948E+04  0.10000000000E+02 0. -1.
</event>
<event>
 5    1  0.1440459E-008  0.3774218E+03  0.7957747E-01  0.3462462E+00
         13   -1    0    0    0    0  0.00000000000E+00  0.00000000000E+00  0.14999999963E+04  0.15000000000E+04  0.10566000000E+00 0. -1.
        994   -1    0    0    0    0 -0.00000000000E+00 -0.00000000000E+00  0.11368683772E-12  0.17120000000E+03  0.17120000000E+03 0.  0.
         13    1    1    2    0    0  0.62885128460E+01 -0.37313994944E+02  0.43516395703E+02  0.57667733365E+02  0.10566000000E+00 0. -1.
        994    1    1    2    0    0 -0.33749990366E+01  0.15196061973E+02  0.15788491368E+02  0.17262974071E+03  0.17120000000E+03 0.  0.
        998    1    1    2    0    0 -0.29135138094E+01  0.22117932971E+02  0.14406951092E+04  0.14409025259E+04  0.10000000000E+02 0. -1.
</event>
<event>
 5    1  0.1440459E-008  0.3852802E+03  0.7957747E-01  0.3428485E+00
         13   -1    0    0    0    0  0.00000000000E+00  0.00000000000E+00  0.14999999963E+04  0.15000000000E+04  0.10566000000E+00 0. -1.
        994   -1    0    0    0    0 -0.00000000000E+00 -0.00000000000E+00  0.11368683772E-12  0.17120000000E+03  0.17120000000E+03 0.  0.
         13    1    1    2    0    0  0.79634124163E+00  0.18986617761E+02  0.10137573246E+03  0.10314153435E+03  0.10566000000E+00 0. -1.
        994    1    1    2    0    0 -0.25662179547E+02 -0.34591949595E+02  0.76104085260E+01  0.17669892120E+03  0.17120000000E+03 0.  0.
        998    1    1    2    0    0  0.24865838305E+02  0.15605331834E+02  0.13910138553E+04  0.13913595444E+04  0.10000000000E+02 0. -1.
</event>
<event>
 5    1  0.1440459E-008  0.3813471E+03  0.7957747E-01  0.3445314E+00
         13   -1    0    0    0    0  0.00000000000E+00  0.00000000000E+00  0.14999999963E+04  0.15000000000E+04  0.10566000000E+00 0. -1.
        994   -1    0    0    0    0 -0.00000000000E+00 -0.00000000000E+00  0.11368683772E-12  0.17120000000E+03  0.17120000000E+03 0.  0.
         13    1    1    2    0    0  0.17285273507E+02  0.27743397035E+02  0.14549559823E+03  0.14912228884E+03  0.10566000000E+00 0. -1.
        994    1    1    2    0    0  0.26047946689E+01 -0.34424628066E+02  0.74313927715E+01  0.17480419209E+03  0.17120000000E+03 0.  0.
        998    1    1    2    0    0 -0.19890068175E+02  0.66812310314E+01  0.13470730053E+04  0.13472735191E+04  0.10000000000E+02 0. -1.
</event>
<event>
 5    1  0.1440459E-008  0.3856950E+03  0.7957747E-01  0.3426730E+00
         13   -1    0    0    0    0  0.00000000000E+00  0.00000000000E+00  0.14999999963E+04  0.15000000000E+04  0.10566000000E+00 0. -1.
        994   -1    0    0    0    0 -0.00000000000E+00 -0.00000000000E+00  0.11368683772E-12  0.17120000000E+03  0.17120000000E+03 0.  0.
         13    1    1    2    0    0  0.78654939072E-01 -0.13950640360E+02  0.73735942489E+02  0.75044166541E+02  0.10566000000E+00 0. -1.
        994    1    1    2    0    0 -0.63543208264E+01  0.13679423458E+02  0.20323495237E+01  0.17187517117E+03  0.17120000000E+03 0.  0.
        998    1    1    2    0    0  0.62756658873E+01  0.27121690276E+00  0.14242317043E+04  0.14242806623E+04  0.10000000000E+02 0. -1.
</event>
<event>
 5    1  0.1440459E-008  0.3897568E+03  0.7957747E-01  0.3409745E+00
         13   -1    0    0    0    0  0.00000000000E+00  0.00000000000E+00  0.14999999963E+04  0.15000000000E+04  0.10566000000E+00 0. -1.
        994   -1    0    0    0    0 -0.00000000000E+00 -0.00000000000E+00  0.11368683772E-12  0.17120000000E+03  0.17120000000E+03 0.  0.
         13    1    1    2    0    0 -0.57946629101E+02  0.98987688168E+01  0.80084159752E+02  0.99344256278E+02  0.10566000000E+00 0. -1.
        994    1    1    2    0    0 -0.58258511967E+00 -0.18949616043E+02  0.23145560826E+02  0.17379466142E+03  0.17120000000E+03 0.  0.
        998    1    1    2    0    0  0.58529214221E+02  0.90508472263E+01  0.13967702757E+04  0.13980610823E+04  0.10000000000E+02 0. -1.
</event>
<event>
 5    1  0.1440459E-008  0.3716578E+03  0.7957747E-01  0.3488306E+00
         13   -1    0    0    0    0  0.00000000000E+00  0.00000000000E+00  0.14999999963E+04  0.15000000000E+04  0.10566000000E+00 0.  1.
        994   -1    0    0    0    0 -0.00000000000E+00 -0.00000000000E+00  0.11368683772E-12  0.17120000000E+03  0.17120000000E+03 0.  0.
         13    1    1    2    0    0 -0.91749924018E+01 -0.37136834507E+02  0.83350248621E+02  0.91709323800E+02  0.10566000000E+00 0.  1.
        994    1    1    2    0    0  0.12145700198E+02  0.24190586799E+02  0.10928256226E+02  0.17367086488E+03  0.17120000000E+03 0.  0.
        998    1    1    2    0    0 -0.29707077958E+01  0.12946247707E+02  0.14057214914E+04  0.14058198113E+04  0.10000000000E+02 0.  1.
</event>
<event>
 5    1  0.1440459E-008  0.3581628E+03  0.7957747E-01  0.3552126E+00
         13   -1    0    0    0    0  0.00000000000E+00  0.00000000000E+00  0.14999999963E+04  0.15000000000E+04  0.10566000000E+00 0.  1.
        994   -1    0    0    0    0 -0.00000000000E+00 -0.00000000000E+00  0.11368683772E-12  0.17120000000E+03  0.17120000000E+03 0.  0.
         13    1    1    2    0    0 -0.28058759080E+03 -0.29414766000E+02  0.95444260433E+03  0.99526645713E+03  0.10566000000E+00 0.  1.
        994    1    1    2    0    0  0.25271132409E+03  0.58323187710E+02  0.31795953741E+03  0.44460354809E+03  0.17120000000E+03 0.  0.
        998    1    1    2    0    0  0.27876266712E+02 -0.28908421710E+02  0.22759785454E+03  0.23132999478E+03  0.10000000000E+02 0.  1.
</event>
<event>
 5    1  0.1440459E-008  0.3844988E+03  0.7957747E-01  0.3431801E+00
         13   -1    0    0    0    0  0.00000000000E+00  0.00000000000E+00  0.14999999963E+04  0.15000000000E+04  0.10566000000E+00 0. -1.
        994   -1    0    0    0    0 -0.00000000000E+00 -0.00000000000E+00  0.11368683772E-12  0.17120000000E+03  0.17120000000E+03 0.  0.
         13    1    1    2    0    0 -0.93781878179E+01  0.13299474005E+02  0.79780114955E+02  0.81422996271E+02  0.10566000000E+00 0. -1.
        994    1    1    2    0    0 -0.69323468246E+00  0.97394350111E+01  0.21932763723E+01  0.17149223781E+03  0.17120000000E+03 0.  0.
        998    1    1    2    0    0  0.10071422500E+02 -0.23038909016E+02  0.14180266050E+04  0.14182847659E+04  0.10000000000E+02 0. -1.
</event>
<event>
 5    1  0.1440459E-008  0.3736686E+03  0.7957747E-01  0.3479199E+00
         13   -1    0    0    0    0  0.00000000000E+00  0.00000000000E+00  0.14999999963E+04  0.15000000000E+04  0.10566000000E+00 0.  1.
        994   -1    0    0    0    0 -0.00000000000E+00 -0.00000000000E+00  0.11368683772E-12  0.17120000000E+03  0.17120000000E+03 0.  0.
         13    1    1    2    0    0  0.78697850942E+01  0.39748128330E+02  0.10445286298E+03  0.11203686434E+03  0.10566000000E+00 0.  1.
        994    1    1    2    0    0 -0.10043577690E+02 -0.33543145067E+02  0.11561783997E+02  0.17512604285E+03  0.17120000000E+03 0.  0.
        998    1    1    2    0    0  0.21737925955E+01 -0.62049832625E+01  0.13839853493E+04  0.13840370928E+04  0.10000000000E+02 0.  1.
</event>
<event>
 5    1  0.1440459E-008  0.3811033E+03  0.7957747E-01  0.3446368E+00
         13   -1    0    0    0    0  0.00000000000E+00  0.00000000000E+00  0.14999999963E+04  0.15000000000E+04  0.10566000000E+00 0.  1.
        994   -1    0    0    0    0 -0.00000000000E+00 -0.00000000000E+00  0.11368683772E-12  0.17120000000E+03  0.17120000000E+03 0.  0.
         13    1    1    2    0    0 -0.12721609968E+02  0.35552478072E+02  0.22226715703E+03  0.22545180930E+03  0.10566000000E+00 0.  1.
        994    1    1    2    0    0 -0.50944660014E+00 -0.90622742849E+01  0.38516842280E+01  0.17148370133E+03  0.17120000000E+03 0.  0.
        998    1    1    2    0    0  0.13231056568E+02 -0.26490203787E+02  0.12738811550E+04  0.12742644894E+04  0.10000000000E+02 0.  1.
</event>
<event>
 5    1  0.1440459E-008  0.3846760E+03  0.7957747E-01  0.3431047E+00
         13   -1    0    0    0    0  0.00000000000E+00  0.00000000000E+00  0.14999999963E+04  0.15000000000E+04  0.10566000000E+00 0.  1.
        994   -1    0    0    0    0 -0.00000000000E+00 -0.00000000000E+00  0.11368683772E-12  0.17120000000E+03  0.17120000000E+03 0.  0.
         13    1    1    2    0    0  0.62838443332E+01  0.97054813945E+01  0.36897391781E+02  0.38666674966E+02  0.10566000000E+00 0.  1.
        994    1    1    2    0    0  0.22440771298E+01 -0.11727627088E+02  0.22605723305E+01  0.17163077611E+03  0.17120000000E+03 0.  0.
        998    1    1    2    0    0 -0.85279214630E+01  0.20221456936E+01  0.14608420322E+04  0.14609025489E+04  0.10000000000E+02 0.  1.
</event>
<event>
 5    1  0.1440459E-008  0.3781967E+03  0.7957747E-01  0.3459048E+00
         13   -1    0    0    0    0  0.00000000000E+00  0.00000000000E+00  0.14999999963E+04  0.15000000000E+04  0.10566000000E+00 0. -1.
        994   -1    0    0    0    0 -0.00000000000E+00 -0.00000000000E+00  0.11368683772E-12  0.17120000000E+03  0.17120000000E+03 0.  0.
         13    1    1    2    0    0  0.22861083598E+02 -0.12676841555E+02  0.63363024883E+02  0.68543530267E+02  0.10566000000E+00 0. -1.
        994    1    1    2    0    0 -0.37295711331E+02 -0.12048745881E+02  0.10229620646E+02  0.17592676743E+03  0.17120000000E+03 0.  0.
        998    1    1    2    0    0  0.14434627733E+02  0.24725587436E+02  0.14264073507E+04  0.14267297023E+04  0.10000000000E+02 0. -1.
</event>
<event>
 5    1  0.1440459E-008  0.3811976E+03  0.7957747E-01  0.3445960E+00
         13   -1    0    0    0    0  0.00000000000E+00  0.00000000000E+00  0.14999999963E+04  0.15000000000E+04  0.10566000000E+00 0. -1.
        994   -1    0    0    0    0 -0.00000000000E+00 -0.00000000000E+00  0.11368683772E-12  0.17120000000E+03  0.17120000000E+03 0.  0.
         13    1    1    2    0    0  0.16362549416E+02 -0.20729602898E+01  0.36844367788E+02  0.40367670102E+02  0.10566000000E+00 0. -1.
        994    1    1    2    0    0 -0.12909262397E+02  0.91143886499E+01  0.43617519097E+01  0.17198309805E+03  0.17120000000E+03 0.  0.
        998    1    1    2    0    0 -0.34532870184E+01 -0.70414283601E+01  0.14587938766E+04  0.14588492318E+04  0.10000000000E+02 0. -1.
</event>
<event>
 5    1  0.1440459E-008  0.3828245E+03  0.7957747E-01  0.3438952E+00
         13   -1    0    0    0    0  0.00000000000E+00  0.00000000000E+00  0.14999999963E+04  0.15000000000E+04  0.10566000000E+00 0.  1.
        994   -1    0    0    0    0 -0.00000000000E+00 -0.00000000000E+00  0.11368683772E-12  0.17120000000E+03  0.17120000000E+03 0.  0.
         13    1    1    2    0    0  0.72029526063E+00  0.26688985594E+02  0.11868699616E+03  0.12165292844E+03  0.10566000000E+00 0.  1.
        994    1    1    2    0    0  0.70221318369E+01 -0.30706130075E+02  0.60071593076E+01  0.17417721643E+03  0.17120000000E+03 0.  0.
        998    1    1    2    0    0 -0.77424270975E+01  0.40171444805E+01  0.13753058408E+04  0.13753698551E+04  0.10000000000E+02 0.  1.
</event>
<event>
 5    1  0.1440459E-008  0.3702994E+03  0.7957747E-01  0.3494516E+00
         13   -1    0    0    0    0  0.00000000000E+00  0.00000000000E+00  0.14999999963E+04  0.15000000000E+04  0.10566000000E+00 0. -1.
        994   -1    0    0    0    0 -0.00000000000E+00 -0.00000000000E+00  0.11368683772E-12  0.17120000000E+03  0.17120000000E+03 0.  0.
         13    1    1    2    0    0 -0.76439716884E+01 -0.17886699209E+02  0.16421713376E+02  0.25456789782E+02  0.10566000000E+00 0. -1.
        994    1    1    2    0    0  0.16239208362E+02  0.19225168964E+02  0.11303274391E+02  0.17340854368E+03  0.17120000000E+03 0.  0.
        998    1    1    2    0    0 -0.85952366740E+01 -0.13384697544E+01  0.14722750085E+04  0.14723346665E+04  0.10000000000E+02 0. -1.
</event>
<event>
 5    1  0.1440459E-008  0.3825612E+03  0.7957747E-01  0.3440082E+00
         13   -1    0    0    0    0  0.00000000000E+00  0.00000000000E+00  0.14999999963E+04  0.15000000000E+04  0.10566000000E+00 0. -1.
        994   -1    0    0    0    0 -0.00000000000E+00 -0.00000000000E+00  0.11368683772E-12  0.17120000000E+03  0.17120000000E+03 0.  0.
         13    1    1    2    0    0 -0.44553358650E+01 -0.15748109591E+02  0.43454457620E+02  0.46434405611E+02  0.10566000000E+00 0. -1.
        994    1    1    2    0    0  0.10186466234E+02  0.23609518787E+02  0.50405869545E+01  0.17319359396E+03  0.17120000000E+03 0.  0.
        998    1    1    2    0    0 -0.57311303694E+01 -0.78614091966E+01  0.14515049517E+04  0.14515720004E+04  0.10000000000E+02 0. -1.
</event>
<event>
 5    1  0.1440459E-008  0.3705573E+03  0.7957747E-01  0.3493333E+00
         13   -1    0    0    0    0  0.00000000000E+00  0.00000000000E+00  0.14999999963E+04  0.15000000000E+04  0.10566000000E+00 0. -1.
        994   -1    0    0    0    0 -0.00000000000E+00 -0.00000000000E+00  0.11368683772E-12  0.17120000000E+03  0.17120000000E+03 0.  0.
         13    1    1    2    0    0  0.69463211460E+00 -0.18368414169E+02  0.99745062963E+01  0.20913705859E+02  0.10566000000E+00 0. -1.
        994    1    1    2    0    0 -0.15018177407E+01  0.17276220485E+02  0.12287871965E+02  0.17251421695E+03  0.17120000000E+03 0.  0.
        998    1    1    2    0    0  0.80718562607E+00  0.10921936846E+01  0.14777376180E+04  0.14777720772E+04  0.10000000000E+02 0.  0.
</event>
<event>
 5    1  0.1440459E-008  0.3822567E+03  0.7957747E-01  0.3441391E+00
         13   -1    0    0    0    0  0.00000000000E+00  0.00000000000E+00  0.14999999963E+04  0.15000000000E+04  0.10566000000E+00 0.  1.
        994   -1    0    0    0    0 -0.00000000000E+00 -0.00000000000E+00  0.11368683772E-12  0.17120000000E+03  0.17120000000E+03 0.  0.
         13    1    1    2    0    0 -0.47225418418E+01  0.12516086841E+02  0.28992486826E+02  0.31930084367E+02  0.10566000000E+00 0.  1.
        994    1    1    2    0    0  0.16765580781E+01 -0.64731928898E+01  0.31466865848E+01  0.17135943134E+03  0.17120000000E+03 0.  0.
        998    1    1    2    0    0  0.30459837636E+01 -0.60428939515E+01  0.14678608229E+04  0.14679104843E+04  0.10000000000E+02 0.  1.
</event>
<event>
 5    1  0.1440459E-008  0.4226991E+03  0.7957747E-01  0.3283998E+00
         13   -1    0    0    0    0  0.00000000000E+00  0.00000000000E+00  0.14999999963E+04  0.15000000000E+04  0.10566000000E+00 0.  1.
        994   -1    0    0    0    0 -0.00000000000E+00 -0.00000000000E+00  0.11368683772E-12  0.17120000000E+03  0.17120000000E+03 0.  0.
         13    1    1    2    0    0  0.33549364906E+02  0.49067240672E+02  0.21232550883E+02  0.63118827412E+02  0.10566000000E+00 0.  1.
        994    1    1    2    0    0 -0.27109392493E+02 -0.11495325817E+03  0.10555771837E+03  0.23324031091E+03  0.17120000000E+03 0.  0.
        998    1    1    2    0    0 -0.64399724136E+01  0.65886017500E+02  0.13732097270E+04  0.13748408617E+04  0.10000000000E+02 0.  1.
</event>
<event>
 5    1  0.1440459E-008  0.3830905E+03  0.7957747E-01  0.3437811E+00
         13   -1    0    0    0    0  0.00000000000E+00  0.00000000000E+00  0.14999999963E+04  0.15000000000E+04  0.10566000000E+00 0. -1.
        994   -1    0    0    0    0 -0.00000000000E+00 -0.00000000000E+00  0.11368683772E-12  0.17120000000E+03  0.17120000000E+03 0.  0.
         13    1    1    2    0    0  0.12384012491E+01  0.11434389284E+02  0.24024769745E+02  0.26636058667E+02  0.10566000000E+00 0. -1.
        994    1    1    2    0    0  0.29976926003E+01 -0.16880327713E+02  0.35544210084E+01  0.17209301419E+03  0.17120000000E+03 0.  0.
        998    1    1    2    0    0 -0.42360938494E+01  0.54459384290E+01  0.14724208055E+04  0.14724709271E+04  0.10000000000E+02 0. -1.
</event>
<event>
 5    1  0.1440459E-008  0.3837810E+03  0.7957747E-01  0.3434859E+00
         13   -1    0    0    0    0  0.00000000000E+00  0.00000000000E+00  0.14999999963E+04  0.15000000000E+04  0.10566000000E+00 0.  1.
        994   -1    0    0    0    0 -0.00000000000E+00 -0.00000000000E+00  0.11368683772E-12  0.17120000000E+03  0.17120000000E+03 0.  0.
         13    1    1    2    0    0  0.97018445424E+00  0.21396348605E+02  0.11660238709E+03  0.11855324892E+03  0.10566000000E+00 0.  1.
        994    1    1    2    0    0 -0.67160140036E+01  0.46430395500E+01  0.24566777551E+01  0.17141218722E+03  0.17120000000E+03 0.  0.
        998    1    1    2    0    0  0.57458295494E+01 -0.26039388155E+02  0.13809409314E+04  0.13812345639E+04  0.10000000000E+02 0.  1.
</event>
<event>
 5    1  0.1440459E-008  0.3835368E+03  0.7957747E-01  0.3435902E+00
         13   -1    0    0    0    0  0.00000000000E+00  0.00000000000E+00  0.14999999963E+04  0.15000000000E+04  0.10566000000E+00 0.  1.
        994   -1    0    0    0    0 -0.00000000000E+00 -0.00000000000E+00  0.11368683772E-12  0.17120000000E+03  0.17120000000E+03 0.  0.
         13    1    1    2    0    0 -0.17895064443E+02  0.21048599648E+02  0.13943457582E+03  0.14214530937E+03  0.10566000000E+00 0.  1.
        994    1    1    2    0    0  0.71678947585E+02  0.68943124922E+01  0.19685275313E+02  0.18676818020E+03  0.17120000000E+03 0.  0.
        998    1    1    2    0    0 -0.53783883142E+02 -0.27942912140E+02  0.13408801451E+04  0.13422865104E+04  0.10000000000E+02 0.  1.
</event>
<event>
 5    1  0.1440459E-008  0.3746761E+03  0.7957747E-01  0.3474673E+00
         13   -1    0    0    0    0  0.00000000000E+00  0.00000000000E+00  0.14999999963E+04  0.15000000000E+04  0.10566000000E+00 0. -1.
        994   -1    0    0    0    0 -0.00000000000E+00 -0.00000000000E+00  0.11368683772E-12  0.17120000000E+03  0.17120000000E+03 0.  0.
         13    1    1    2    0    0 -0.54807696291E+02 -0.94372489721E+01  0.25268398809E+03  0.25873181915E+03  0.10566000000E+00 0. -1.
        994    1    1    2    0    0  0.12033265209E+02  0.15214598305E+02  0.81266380007E+01  0.17248700159E+03  0.17120000000E+03 0.  0.
        998    1    1    2    0    0  0.42774431082E+02 -0.57773493332E+01  0.12391893702E+04  0.12399811793E+04  0.10000000000E+02 0. -1.
</event>
<event>
 5    1  0.1440459E-008  0.3765290E+03  0.7957747E-01  0.3466413E+00
         13   -1    0    0    0    0  0.00000000000E+00  0.00000000000E+00  0.14999999963E+04  0.15000000000E+04  0.10566000000E+00 0. -1.
        994   -1    0    0    0    0 -0.00000000000E+00 -0.00000000000E+00  0.11368683772E-12  0.17120000000E+03  0.17120000000E+03 0.  0.
         13    1    1    2    0    0  0.53773107406E+02 -0.31981734095E+02  0.36367654581E+03  0.36901899617E+03  0.10566000000E+00 0. -1.
        994    1    1    2    0    0 -0.22963631913E+02  0.10361239292E+02  0.80449763487E+01  0.17323061310E+03  0.17120000000E+03 0.  0.
        998    1    1    2    0    0 -0.30809475493E+02  0.21620494803E+02  0.11282784741E+04  0.11289503907E+04  0.10000000000E+02 0. -1.
</event>
<event>
 5    1  0.1440459E-008  0.3849508E+03  0.7957747E-01  0.3429881E+00
         13   -1    0    0    0    0  0.00000000000E+00  0.00000000000E+00  0.14999999963E+04  0.15000000000E+04  0.10566000000E+00 0. -1.
        994   -1    0    0    0    0 -0.00000000000E+00 -0.00000000000E+00  0.11368683772E-12  0.17120000000E+03  0.17120000000E+03 0.  0.
         13    1    1    2    0    0  0.48002583795E+01 -0.87512697440E+02  0.25512374662E+03  0.26975850672E+03  0.10566000000E+00 0. -1.
        994    1    1    2    0    0 -0.29678197372E+02 -0.40866286046E+01  0.22392914259E+02  0.17523806248E+03  0.17120000000E+03 0.  0.
        998    1    1    2    0    0  0.24877938993E+02  0.91599326044E+02  0.12224833354E+04  0.12262034308E+04  0.10000000000E+02 0. -1.
</event>
<event>
 5    1  0.1440459E-008  0.3825840E+03  0.7957747E-01  0.3439984E+00
         13   -1    0    0    0    0  0.00000000000E+00  0.00000000000E+00  0.14999999963E+04  0.15000000000E+04  0.10566000000E+00 0.  1.
        994   -1    0    0    0    0 -0.00000000000E+00 -0.00000000000E+00  0.11368683772E-12  0.17120000000E+03  0.17120000000E+03 0.  0.
         13    1    1    2    0    0  0.89043332723E+01 -0.47596702159E+01  0.16729467380E+02  0.19540415923E+02  0.10566000000E+00 0.  1.
        994    1    1    2    0    0 -0.11366345564E+02 -0.12141313372E+00  0.32627915780E+01  0.17160796707E+03  0.17120000000E+03 0.  0.
        998    1    1    2    0    0  0.24620122915E+01  0.48810833496E+01  0.14800077373E+04  0.14800516170E+04  0.10000000000E+02 0.  1.
</event>
<event>
 5    1  0.1440459E-008  0.3805414E+03  0.7957747E-01  0.3448805E+00
         13   -1    0    0    0    0  0.00000000000E+00  0.00000000000E+00  0.14999999963E+04  0.15000000000E+04  0.10566000000E+00 0. -1.
        994   -1    0    0    0    0 -0.00000000000E+00 -0.00000000000E+00  0.11368683772E-12  0.17120000000E+03  0.17120000000E+03 0.  0.
         13    1    1    2    0    0 -0.37080815180E+02  0.10938369042E+02  0.22324624040E+03  0.22656903978E+03  0.10566000000E+00 0. -1.
        994    1    1    2    0    0  0.61911941034E+01  0.51754900277E+01  0.40774234337E+01  0.17143856615E+03  0.17120000000E+03 0.  0.
        998    1    1    2    0    0  0.30889621077E+02 -0.16113859070E+02  0.12726763324E+04  0.12731923941E+04  0.10000000000E+02 0. -1.
</event>
<event>
 5    1  0.1440459E-008  0.3844394E+03  0.7957747E-01  0.3432053E+00
         13   -1    0    0    0    0  0.00000000000E+00  0.00000000000E+00  0.14999999963E+04  0.15000000000E+04  0.10566000000E+00 0.  1.
        994   -1    0    0    0    0 -0.00000000000E+00 -0.00000000000E+00  0.11368683772E-12  0.17120000000E+03  0.17120000000E+03 0.  0.
         13    1    1    2    0    0 -0.92430279191E+00  0.10644158975E+02  0.29264876511E+02  0.31154399644E+02  0.10566000000E+00 0.  1.
        994    1    1    2    0    0  0.20713276702E+01 -0.87313677489E+01  0.21740675119E+01  0.17144880796E+03  0.17120000000E+03 0.  0.
        998    1    1    2    0    0 -0.11470248783E+01 -0.19127912257E+01  0.14685610523E+04  0.14685967924E+04  0.10000000000E+02 0.  1.
</event>
<event>
 5    1  0.1440459E-008  0.3775789E+03  0.7957747E-01  0.3461769E+00
         13   -1    0    0    0    0  0.00000000000E+00  0.00000000000E+00  0.14999999963E+04  0.15000000000E+04  0.10566000000E+00 0.  1.
        994   -1    0    0    0    0 -0.00000000000E+00 -0.00000000000E+00  0.11368683772E-12  0.17120000000E+03  0.17120000000E+03 0.  0.
         13    1    1    2    0    0 -0.10014825044E+03  0.85417489623E+00  0.55362688916E+03  0.56261278447E+03  0.10566000000E+00 0.  1.
        994    1    1    2    0    0  0.10400800573E+03 -0.19564667408E+02  0.44085858782E+02  0.20604233645E+03  0.17120000000E+03 0.  0.
        998    1    1    2    0    0 -0.38597552904E+01  0.18710492511E+02  0.90228724834E+03  0.90254487908E+03  0.10000000000E+02 0.  1.
</event>
<event>
 5    1  0.1676837E-008  0.3860513E+03  0.7957747E-01  0.3425226E+00
         13   -1    0    0    0    0  0.00000000000E+00  0.00000000000E+00  0.14999999963E+04  0.15000000000E+04  0.10566000000E+00 0.  1.
        994   -1    0    0    0    0 -0.00000000000E+00 -0.00000000000E+00  0.11368683772E-12  0.17120000000E+03  0.17120000000E+03 0.  0.
         13    1    1    2    0    0 -0.19398434149E+01 -0.11319836692E+02  0.58051847595E+02  0.59177105948E+02  0.10566000000E+00 0.  1.
        994    1    1    2    0    0  0.94713728651E+00  0.12832478359E+02  0.16519279057E+01  0.17169082222E+03  0.17120000000E+03 0.  0.
        998    1    1    2    0    0  0.99270612842E+00 -0.15126416667E+01  0.14402962208E+04  0.14403320718E+04  0.10000000000E+02 0.  1.
</event>
<event>
 5    1  0.1440459E-008  0.3815482E+03  0.7957747E-01  0.3444445E+00
         13   -1    0    0    0    0  0.00000000000E+00  0.00000000000E+00  0.14999999963E+04  0.15000000000E+04  0.10566000000E+00 0. -1.
        994   -1    0    0    0    0 -0.00000000000E+00 -0.00000000000E+00  0.11368683772E-12  0.17120000000E+03  0.17120000000E+03 0.  0.
         13    1    1    2    0    0  0.70033605501E+00  0.16283168098E+02  0.39085687169E+02  0.42347776085E+02  0.10566000000E+00 0. -1.
        994    1    1    2    0    0  0.30515743331E+01 -0.61124862077E+01  0.35088973083E+01  0.17137218839E+03  0.17120000000E+03 0.  0.
        998    1    1    2    0    0 -0.37519103881E+01 -0.10170681890E+02  0.14574054118E+04  0.14574800355E+04  0.10000000000E+02 0. -1.
</event>
<event>
 5    1  0.1440459E-008  0.3792115E+03  0.7957747E-01  0.3454599E+00
         13   -1    0    0    0    0  0.00000000000E+00  0.00000000000E+00  0.14999999963E+04  0.15000000000E+04  0.10566000000E+00 0.  1.
        994   -1    0    0    0    0 -0.00000000000E+00 -0.00000000000E+00  0.11368683772E-12  0.17120000000E+03  0.17120000000E+03 0.  0.
         13    1    1    2    0    0 -0.73744789707E+01 -0.98824004683E+01  0.14775433575E+02  0.19244983255E+02  0.10566000000E+00 0.  1.
        994    1    1    2    0    0  0.46112516461E+01  0.88994413262E+01  0.48684768253E+01  0.17156225041E+03  0.17120000000E+03 0.  0.
        998    1    1    2    0    0  0.27632273246E+01  0.98295914214E+00  0.14803560859E+04  0.14803927663E+04  0.10000000000E+02 0.  1.
</event>
<event>
 5    1  0.1440459E-008  0.3747716E+03  0.7957747E-01  0.3474245E+00
         13   -1    0    0    0    0  0.00000000000E+00  0.00000000000E+00  0.14999999963E+04  0.15000000000E+04  0.10566000000E+00 0. -1.
        994   -1    0    0    0    0 -0.00000000000E+00 -0.00000000000E+00  0.11368683772E-12  0.17120000000E+03  0.17120000000E+03 0.  0.
         13    1    1    2    0    0 -0.56784918688E+02  0.94741125640E+02  0.53167147103E+03  0.54302391490E+03  0.10566000000E+00 0. -1.
        994    1    1    2    0    0  0.64930208092E+02 -0.95310706162E+02  0.53479435736E+02  0.21323590851E+03  0.17120000000E+03 0.  0.
        998    1    1    2    0    0 -0.81452894037E+01  0.56958052261E+00  0.91484908951E+03  0.91494017659E+03  0.10000000000E+02 0.  0.
</event>
<event>
 5    1  0.1440459E-008  0.3830155E+03  0.7957747E-01  0.3438133E+00
         13   -1    0    0    0    0  0.00000000000E+00  0.00000000000E+00  0.14999999963E+04  0.15000000000E+04  0.10566000000E+00 0.  1.
        994   -1    0    0    0    0 -0.00000000000E+00 -0.00000000000E+00  0.11368683772E-12  0.17120000000E+03  0.17120000000E+03 0.  0.
         13    1    1    2    0    0 -0.13791820493E+02 -0.20141272020E+01  0.35973787322E+02  0.38579729901E+02  0.10566000000E+00 0.  1.
        994    1    1    2    0    0  0.98908634605E+01  0.11143735667E+02  0.33538085374E+01  0.17187990009E+03  0.17120000000E+03 0.  0.
        998    1    1    2    0    0  0.39009570325E+01 -0.91296084645E+01  0.14606724004E+04  0.14607403700E+04  0.10000000000E+02 0.  1.
</event>
<event>
 5    1  0.1440459E-008  0.3806689E+03  0.7957747E-01  0.3448251E+00
         13   -1    0    0    0    0  0.00000000000E+00  0.00000000000E+00  0.14999999963E+04  0.15000000000E+04  0.10566000000E+00 0. -1.
        994   -1    0    0    0    0 -0.00000000000E+00 -0.00000000000E+00  0.11368683772E-12  0.17120000000E+03  0.17120000000E+03 0.  0.
         13    1    1    2    0    0 -0.14841584379E+02  0.13809333242E+02  0.56117031621E+02  0.59666596295E+02  0.10566000000E+00 0. -1.
        994    1    1    2    0    0 -0.55303227091E+01 -0.31703806446E+01  0.39314187474E+01  0.17136374131E+03  0.17120000000E+03 0.  0.
        998    1    1    2    0    0  0.20371907088E+02 -0.10638952597E+02  0.14399515459E+04  0.14401696624E+04  0.10000000000E+02 0. -1.
</event>
<event>
 5    1  0.1440459E-008  0.3840327E+03  0.7957747E-01  0.3433785E+00
         13   -1    0    0    0    0  0.00000000000E+00  0.00000000000E+00  0.14999999963E+04  0.15000000000E+04  0.10566000000E+00 0.  1.
        994   -1    0    0    0    0 -0.00000000000E+00 -0.00000000000E+00  0.11368683772E-12  0.17120000000E+03  0.17120000000E+03 0.  0.
         13    1    1    2    0    0 -0.93893911498E+01  0.16157713689E+02  0.84135440214E+02  0.86185937611E+02  0.10566000000E+00 0.  1.
        994    1    1    2    0    0  0.27822942098E+01 -0.82221065222E+01  0.23597293626E+01  0.17143614706E+03  0.17120000000E+03 0.  0.
        998    1    1    2    0    0  0.66070969401E+01 -0.79356071669E+01  0.14135048267E+04  0.14135779153E+04  0.10000000000E+02 0.  1.
</event>
<event>
 5    1  0.1440459E-008  0.3693864E+03  0.7957747E-01  0.3498716E+00
         13   -1    0    0    0    0  0.00000000000E+00  0.00000000000E+00  0.14999999963E+04  0.15000000000E+04  0.10566000000E+00 0.  1.
        994   -1    0    0    0    0 -0.00000000000E+00 -0.00000000000E+00  0.11368683772E-12  0.17120000000E+03  0.17120000000E+03 0.  0.
         13    1    1    2    0    0 -0.19984602809E+02  0.12728543923E+00  0.16636030208E+02  0.26003253953E+02  0.10566000000E+00 0.  1.
        994    1    1    2    0    0  0.15542213508E+02  0.78612554263E+01  0.10641981768E+02  0.17241244594E+03  0.17120000000E+03 0.  0.
        998    1    1    2    0    0  0.44423893008E+01 -0.79885408656E+01  0.14727219843E+04  0.14727843001E+04  0.10000000000E+02 0.  1.
</event>
<event>
 5    1  0.1440459E-008  0.3802554E+03  0.7957747E-01  0.3450047E+00
         13   -1    0    0    0    0  0.00000000000E+00  0.00000000000E+00  0.14999999963E+04  0.15000000000E+04  0.10566000000E+00 0.  1.
        994   -1    0    0    0    0 -0.00000000000E+00 -0.00000000000E+00  0.11368683772E-12  0.17120000000E+03  0.17120000000E+03 0.  0.
         13    1    1    2    0    0 -0.19900169644E+02  0.38951705135E+02  0.25011171266E+03  0.25390772351E+03  0.10566000000E+00 0.  1.
        994    1    1    2    0    0  0.50918586935E+01 -0.18800619933E+02  0.52724887353E+01  0.17238511964E+03  0.17120000000E+03 0.  0.
        998    1    1    2    0    0  0.14808310951E+02 -0.20151085203E+02  0.12446157949E+04  0.12449071569E+04  0.10000000000E+02 0.  1.
</event>
<event>
 5    1  0.1440459E-008  0.3809622E+03  0.7957747E-01  0.3446979E+00
         13   -1    0    0    0    0  0.00000000000E+00  0.00000000000E+00  0.14999999963E+04  0.15000000000E+04  0.10566000000E+00 0.  1.
        994   -1    0    0    0    0 -0.00000000000E+00 -0.00000000000E+00  0.11368683772E-12  0.17120000000E+03  0.17120000000E+03 0.  0.
         13    1    1    2    0    0 -0.68196203057E+02 -0.12334675228E+02  0.12258691661E+03  0.14082055820E+03  0.10566000000E+00 0.  1.
        994    1    1    2    0    0  0.74891472029E+02  0.20754756681E+02  0.39162819759E+02  0.19204858489E+03  0.17120000000E+03 0.  0.
        998    1    1    2    0    0 -0.66952689719E+01 -0.84200814527E+01  0.13382502599E+04  0.13383308569E+04  0.10000000000E+02 0.  1.
</event>
<event>
 5    1  0.1440459E-008  0.3701761E+03  0.7957747E-01  0.3495082E+00
         13   -1    0    0    0    0  0.00000000000E+00  0.00000000000E+00  0.14999999963E+04  0.15000000000E+04  0.10566000000E+00 0. -1.
        994   -1    0    0    0    0 -0.00000000000E+00 -0.00000000000E+00  0.11368683772E-12  0.17120000000E+03  0.17120000000E+03 0.  0.
         13    1    1    2    0    0 -0.51945859434E+02  0.27310584492E+01  0.14251776159E+03  0.15171405513E+03  0.10566000000E+00 0. -1.
        994    1    1    2    0    0  0.33546015670E+02 -0.18171121197E+02  0.14223447313E+02  0.17597520071E+03  0.17120000000E+03 0.  0.
        998    1    1    2    0    0  0.18399843764E+02  0.15440062748E+02  0.13432587874E+04  0.13435107442E+04  0.10000000000E+02 0. -1.
</event>
<event>
 5    1  0.1440459E-008  0.4179605E+03  0.7957747E-01  0.3300880E+00
         13   -1    0    0    0    0  0.00000000000E+00  0.00000000000E+00  0.14999999963E+04  0.15000000000E+04  0.10566000000E+00 0.  1.
        994   -1    0    0    0    0 -0.00000000000E+00 -0.00000000000E+00  0.11368683772E-12  0.17120000000E+03  0.17120000000E+03 0.  0.
         13    1    1    2    0    0  0.13484909786E+03 -0.55081537466E+02  0.22586419783E+03  0.26876179414E+03  0.10566000000E+00 0.  1.
        994    1    1    2    0    0 -0.67023447402E+02  0.16958921576E+03  0.20057297437E+03  0.32061129526E+03  0.17120000000E+03 0.  0.
        998    1    1    2    0    0 -0.67825650461E+02 -0.11450767829E+03  0.10735628241E+04  0.10818269106E+04  0.10000000000E+02 0.  1.
</event>
<event>
 5    1  0.1440459E-008  0.3767265E+03  0.7957747E-01  0.3465537E+00
         13   -1    0    0    0    0  0.00000000000E+00  0.00000000000E+00  0.14999999963E+04  0.15000000000E+04  0.10566000000E+00 0. -1.
        994   -1    0    0    0    0 -0.00000000000E+00 -0.00000000000E+00  0.11368683772E-12  0.17120000000E+03  0.17120000000E+03 0.  0.
         13    1    1    2    0    0 -0.60450772730E+01 -0.29682728747E+02  0.75116521670E+02  0.80994508066E+02  0.10566000000E+00 0. -1.
        994    1    1    2    0    0  0.58851925349E+01  0.24786275644E+02  0.79911651147E+01  0.17326942509E+03  0.17120000000E+03 0.  0.
        998    1    1    2    0    0  0.15988473805E+00  0.48964531022E+01  0.14168923095E+04  0.14169360668E+04  0.10000000000E+02 0. -1.
</event>
<event>
 5    1  0.1440459E-008  0.3775050E+03  0.7957747E-01  0.3462095E+00
         13   -1    0    0    0    0  0.00000000000E+00  0.00000000000E+00  0.14999999963E+04  0.15000000000E+04  0.10566000000E+00 0. -1.
        994   -1    0    0    0    0 -0.00000000000E+00 -0.00000000000E+00  0.11368683772E-12  0.17120000000E+03  0.17120000000E+03 0.  0.
         13    1    1    2    0    0  0.69590134250E+02  0.13194068639E+03  0.78613986556E+03  0.80016687690E+03  0.10566000000E+00 0. -1.
        994    1    1    2    0    0 -0.63374849115E+02 -0.14260303585E+03  0.92443944463E+02  0.24941395350E+03  0.17120000000E+03 0.  0.
        998    1    1    2    0    0 -0.62152851354E+01  0.10662349457E+02  0.62141618626E+03  0.62161916960E+03  0.10000000000E+02 0.  1.
</event>
<event>
 5    1  0.1440459E-008  0.3699849E+03  0.7957747E-01  0.3495960E+00
         13   -1    0    0    0    0  0.00000000000E+00  0.00000000000E+00  0.14999999963E+04  0.15000000000E+04  0.10566000000E+00 0.  1.
        994   -1    0    0    0    0 -0.00000000000E+00 -0.00000000000E+00  0.11368683772E-12  0.17120000000E+03  0.17120000000E+03 0.  0.
         13    1    1    2    0    0 -0.88658732772E+02 -0.47061495783E+02  0.24787928927E+03  0.26743094154E+03  0.10566000000E+00 0.  1.
        994    1    1    2    0    0  0.18623049093E+03  0.58409391510E+02  0.15532331285E+03  0.30253631895E+03  0.17120000000E+03 0.  0.
        998    1    1    2    0    0 -0.97571758156E+02 -0.11347895727E+02  0.10967973942E+04  0.11012327395E+04  0.10000000000E+02 0.  1.
</event>
<event>
 5    1  0.1440459E-008  0.3766557E+03  0.7957747E-01  0.3465851E+00
         13   -1    0    0    0    0  0.00000000000E+00  0.00000000000E+00  0.14999999963E+04  0.15000000000E+04  0.10566000000E+00 0. -1.
        994   -1    0    0    0    0 -0.00000000000E+00 -0.00000000000E+00  0.11368683772E-12  0.17120000000E+03  0.17120000000E+03 0.  0.
         13    1    1    2    0    0 -0.42446963809E+02  0.48090320871E+02  0.31714224489E+03  0.32356396332E+03  0.10566000000E+00 0. -1.
        994    1    1    2    0    0  0.14713464314E+02 -0.53548614238E+02  0.16327659425E+02  0.18072070324E+03  0.17120000000E+03 0.  0.
        998    1    1    2    0    0  0.27733499495E+02  0.54582933674E+01  0.11665300920E+04  0.11669153334E+04  0.10000000000E+02 0. -1.
</event>
<event>
 5    1  0.1440459E-008  0.3687734E+03  0.7957747E-01  0.3501547E+00
         13   -1    0    0    0    0  0.00000000000E+00  0.00000000000E+00  0.14999999963E+04  0.15000000000E+04  0.10566000000E+00 0.  1.
        994   -1    0    0    0    0 -0.00000000000E+00 -0.00000000000E+00  0.11368683772E-12  0.17120000000E+03  0.17120000000E+03 0.  0.
         13    1    1    2    0    0  0.12398303145E+02 -0.89056867335E+01  0.72037857512E+01  0.16880013929E+02  0.10566000000E+00 0.  1.
        994    1    1    2    0    0 -0.13690912951E+02  0.74185350184E+01  0.10754020494E+02  0.17224274939E+03  0.17120000000E+03 0.  0.
        998    1    1    2    0    0  0.12926098067E+01  0.14871517151E+01  0.14820421900E+04  0.14820772367E+04  0.10000000000E+02 0.  1.
</event>
<event>
 5    1  0.1440459E-008  0.3765038E+03  0.7957747E-01  0.3466525E+00
         13   -1    0    0    0    0  0.00000000000E+00  0.00000000000E+00  0.14999999963E+04  0.15000000000E+04  0.10566000000E+00 0. -1.
        994   -1    0    0    0    0 -0.00000000000E+00 -0.00000000000E+00  0.11368683772E-12  0.17120000000E+03  0.17120000000E+03 0.  0.
         13    1    1    2    0    0 -0.22921374874E+02  0.12411886553E+02  0.54607249708E+02  0.60509563199E+02  0.10566000000E+00 0. -1.
        994    1    1    2    0    0  0.15011548378E+02 -0.14810724643E+02  0.74139884843E+01  0.17265315339E+03  0.17120000000E+03 0.  0.
        998    1    1    2    0    0  0.79098264965E+01  0.23988380894E+01  0.14379787581E+04  0.14380372834E+04  0.10000000000E+02 0. -1.
</event>
<event>
 5    1  0.1440459E-008  0.3836744E+03  0.7957747E-01  0.3435314E+00
         13   -1    0    0    0    0  0.00000000000E+00  0.00000000000E+00  0.14999999963E+04  0.15000000000E+04  0.10566000000E+00 0. -1.
        994   -1    0    0    0    0 -0.00000000000E+00 -0.00000000000E+00  0.11368683772E-12  0.17120000000E+03  0.17120000000E+03 0.  0.
         13    1    1    2    0    0 -0.11954929151E+02 -0.13805874471E+02  0.76174394198E+02  0.78333083665E+02  0.10566000000E+00 0. -1.
        994    1    1    2    0    0  0.56996025650E+01 -0.11029525425E+01  0.24010336405E+01  0.17131522681E+03  0.17120000000E+03 0.  0.
        998    1    1    2    0    0  0.62553265858E+01  0.14908827014E+02  0.14214245684E+04  0.14215516895E+04  0.10000000000E+02 0. -1.
</event>
<event>
 5    1  0.1440459E-008  0.3855627E+03  0.7957747E-01  0.3427289E+00
         13   -1    0    0    0    0  0.00000000000E+00  0.00000000000E+00  0.14999999963E+04  0.15000000000E+04  0.10566000000E+00 0. -1.
        994   -1    0    0    0    0 -0.00000000000E+00 -0.00000000000E+00  0.11368683772E-12  0.17120000000E+03  0.17120000000E+03 0.  0.
         13    1    1    2    0    0 -0.11002566847E+02  0.62555491969E+00  0.45594048839E+02  0.46907102338E+02  0.10566000000E+00 0. -1.
        994    1    1    2    0    0  0.55369737012E+01 -0.47053014359E+01  0.15243824137E+01  0.17136091060E+03  0.17120000000E+03 0.  0.
        998    1    1    2    0    0  0.54655931460E+01  0.40797465162E+01  0.14528815650E+04  0.14529319871E+04  0.10000000000E+02 0. -1.
</event>
<event>
 5    1  0.1440459E-008  0.3856622E+03  0.7957747E-01  0.3426869E+00
         13   -1    0    0    0    0  0.00000000000E+00  0.00000000000E+00  0.14999999963E+04  0.15000000000E+04  0.10566000000E+00 0.  1.
        994   -1    0    0    0    0 -0.00000000000E+00 -0.00000000000E+00  0.11368683772E-12  0.17120000000E+03  0.17120000000E+03 0.  0.
         13    1    1    2    0    0  0.18491811303E+02 -0.55401944030E+01  0.10957838584E+03  0.11126578381E+03  0.10566000000E+00 0.  1.
        994    1    1    2    0    0 -0.37278964506E+02  0.29063226702E+02  0.86687459888E+01  0.17781726434E+03  0.17120000000E+03 0.  0.
        998    1    1    2    0    0  0.18787153203E+02 -0.23523032299E+02  0.13817528645E+04  0.13821169518E+04  0.10000000000E+02 0.  1.
</event>
<event>
 5    1  0.1440459E-008  0.3837466E+03  0.7957747E-01  0.3435005E+00
         13   -1    0    0    0    0  0.00000000000E+00  0.00000000000E+00  0.14999999963E+04  0.15000000000E+04  0.10566000000E+00 0. -1.
        994   -1    0    0    0    0 -0.00000000000E+00 -0.00000000000E+00  0.11368683772E-12  0.17120000000E+03  0.17120000000E+03 0.  0.
         13    1    1    2    0    0  0.51968262931E+01 -0.10797651575E+02  0.32729086026E+02  0.34853988569E+02  0.10566000000E+00 0. -1.
        994    1    1    2    0    0  0.24499572983E+02  0.79024281301E+01  0.44449587496E+01  0.17318162462E+03  0.17120000000E+03 0.  0.
        998    1    1    2    0    0 -0.29696399276E+02  0.28952234451E+01  0.14628259515E+04  0.14631643868E+04  0.10000000000E+02 0. -1.
</event>
<event>
 5    1  0.1440459E-008  0.3826423E+03  0.7957747E-01  0.3439734E+00
         13   -1    0    0    0    0  0.00000000000E+00  0.00000000000E+00  0.14999999963E+04  0.15000000000E+04  0.10566000000E+00 0.  1.
        994   -1    0    0    0    0 -0.00000000000E+00 -0.00000000000E+00  0.11368683772E-12  0.17120000000E+03  0.17120000000E+03 0.  0.
         13    1    1    2    0    0  0.26292922014E+02 -0.58932269277E+00  0.12800741357E+03  0.13068119276E+03  0.10566000000E+00 0.  1.
        994    1    1    2    0    0 -0.12048730344E+02  0.51484147344E+02  0.12126323178E+02  0.17958918966E+03  0.17120000000E+03 0.  0.
        998    1    1    2    0    0 -0.14244191670E+02 -0.50894824652E+02  0.13598662595E+04  0.13609296176E+04  0.10000000000E+02 0.  1.
</event>
<event>
 5    1  0.1440459E-008  0.3705226E+03  0.7957747E-01  0.3493493E+00
         13   -1    0    0    0    0  0.00000000000E+00  0.00000000000E+00  0.14999999963E+04  0.15000000000E+04  0.10566000000E+00 0. -1.
        994   -1    0    0    0    0 -0.00000000000E+00 -0.00000000000E+00  0.11368683772E-12  0.17120000000E+03  0.17120000000E+03 0.  0.
         13    1    1    2    0    0  0.71754146934E+02 -0.34984037787E+02  0.28907252005E+03  0.29989243657E+03  0.10566000000E+00 0. -1.
        994    1    1    2    0    0 -0.70566919850E+02  0.30212108472E+02  0.29617451421E+02  0.18994497915E+03  0.17120000000E+03 0.  0.
        998    1    1    2    0    0 -0.11872270835E+01  0.47719293147E+01  0.11813100248E+04  0.11813625843E+04  0.10000000000E+02 0. -1.
</event>
<event>
 5    1  0.1440459E-008  0.3781253E+03  0.7957747E-01  0.3459362E+00
         13   -1    0    0    0    0  0.00000000000E+00  0.00000000000E+00  0.14999999963E+04  0.15000000000E+04  0.10566000000E+00 0.  1.
        994   -1    0    0    0    0 -0.00000000000E+00 -0.00000000000E+00  0.11368683772E-12  0.17120000000E+03  0.17120000000E+03 0.  0.
         13    1    1    2    0    0  0.19217817868E+02  0.16251729892E+02  0.60214555958E+02  0.65262908006E+02  0.10566000000E+00 0.  1.
        994    1    1    2    0    0 -0.32918970481E+01 -0.22491876728E+02  0.68225524676E+01  0.17283723073E+03  0.17120000000E+03 0.  0.
        998    1    1    2    0    0 -0.15925920820E+02  0.62401468357E+01  0.14329628879E+04  0.14330998613E+04  0.10000000000E+02 0.  1.
</event>
<event>
 5    1  0.1440459E-008  0.3811390E+03  0.7957747E-01  0.3446214E+00
         13   -1    0    0    0    0  0.00000000000E+00  0.00000000000E+00  0.14999999963E+04  0.15000000000E+04  0.10566000000E+00 0. -1.
        994   -1    0    0    0    0 -0.00000000000E+00 -0.00000000000E+00  0.11368683772E-12  0.17120000000E+03  0.17120000000E+03 0.  0.
         13    1    1    2    0    0 -0.69216733776E+01 -0.16945261556E+02  0.48043711728E+02  0.51412652646E+02  0.10566000000E+00 0. -1.
        994    1    1    2    0    0  0.77946512548E+01 -0.34303303042E+01  0.38008728106E+01  0.17145381416E+03  0.17120000000E+03 0.  0.
        998    1    1    2    0    0 -0.87297787728E+00  0.20375591860E+02  0.14481554117E+04  0.14483335332E+04  0.10000000000E+02 0. -1.
</event>
<event>
 5    1  0.1440459E-008  0.3729194E+03  0.7957747E-01  0.3482581E+00
         13   -1    0    0    0    0  0.00000000000E+00  0.00000000000E+00  0.14999999963E+04  0.15000000000E+04  0.10566000000E+00 0. -1.
        994   -1    0    0    0    0 -0.00000000000E+00 -0.00000000000E+00  0.11368683772E-12  0.17120000000E+03  0.17120000000E+03 0.  0.
         13    1    1    2    0    0 -0.82627322025E+00 -0.16326047491E+02  0.12723777569E+02  0.20715410538E+02  0.10566000000E+00 0. -1.
        994    1    1    2    0    0 -0.22557061718E+02  0.46740918818E+02  0.17028456021E+02  0.17970237294E+03  0.17120000000E+03 0.  0.
        998    1    1    2    0    0  0.23383334938E+02 -0.30414871327E+02  0.14702477627E+04  0.14707822165E+04  0.10000000000E+02 0. -1.
</event>
<event>
 5    1  0.1440459E-008  0.3779841E+03  0.7957747E-01  0.3459984E+00
         13   -1    0    0    0    0  0.00000000000E+00  0.00000000000E+00  0.14999999963E+04  0.15000000000E+04  0.10566000000E+00 0. -1.
        994   -1    0    0    0    0 -0.00000000000E+00 -0.00000000000E+00  0.11368683772E-12  0.17120000000E+03  0.17120000000E+03 0.  0.
         13    1    1    2    0    0 -0.15364910532E+02  0.38711951198E+02  0.50590396134E+02  0.65529344467E+02  0.10566000000E+00 0. -1.
        994    1    1    2    0    0  0.22867427677E+02 -0.28064265973E+02  0.19952754129E+02  0.17611948975E+03  0.17120000000E+03 0.  0.
        998    1    1    2    0    0 -0.75025171453E+01 -0.10647685226E+02  0.14294568460E+04  0.14295511658E+04  0.10000000000E+02 0. -1.
</event>
<event>
 5    1  0.1440459E-008  0.3858326E+03  0.7957747E-01  0.3426149E+00
         13   -1    0    0    0    0  0.00000000000E+00  0.00000000000E+00  0.14999999963E+04  0.15000000000E+04  0.10566000000E+00 0. -1.
        994   -1    0    0    0    0 -0.00000000000E+00 -0.00000000000E+00  0.11368683772E-12  0.17120000000E+03  0.17120000000E+03 0.  0.
         13    1    1    2    0    0  0.55213747894E+01 -0.11999422595E+02  0.59612079461E+02  0.61058028988E+02  0.10566000000E+00 0. -1.
        994    1    1    2    0    0 -0.48888692485E+01  0.39181777188E+02  0.63476605448E+01  0.17580911666E+03  0.17120000000E+03 0.  0.
        998    1    1    2    0    0 -0.63250554095E+00 -0.27182354593E+02  0.14340402563E+04  0.14343328544E+04  0.10000000000E+02 0. -1.
</event>
<event>
 5    1  0.1440459E-008  0.3858007E+03  0.7957747E-01  0.3426283E+00
         13   -1    0    0    0    0  0.00000000000E+00  0.00000000000E+00  0.14999999963E+04  0.15000000000E+04  0.10566000000E+00 0. -1.
        994   -1    0    0    0    0 -0.00000000000E+00 -0.00000000000E+00  0.11368683772E-12  0.17120000000E+03  0.17120000000E+03 0.  0.
         13    1    1    2    0    0  0.58394410090E+01  0.13346045760E+02  0.85766353010E+02  0.86994795714E+02  0.10566000000E+00 0. -1.
        994    1    1    2    0    0 -0.45317272646E+01 -0.99123831910E+01  0.16228766704E+01  0.17155426436E+03  0.17120000000E+03 0.  0.
        998    1    1    2    0    0 -0.13077137443E+01 -0.34336625694E+01  0.14126107666E+04  0.14126509399E+04  0.10000000000E+02 0. -1.
</event>
<event>
 5    1  0.1440459E-008  0.3983497E+03  0.7957747E-01  0.3374955E+00
         13   -1    0    0    0    0  0.00000000000E+00  0.00000000000E+00  0.14999999963E+04  0.15000000000E+04  0.10566000000E+00 0.  1.
        994   -1    0    0    0    0 -0.00000000000E+00 -0.00000000000E+00  0.11368683772E-12  0.17120000000E+03  0.17120000000E+03 0.  0.
         13    1    1    2    0    0  0.50900085296E+02  0.97051392092E+01  0.40482977509E+02  0.65756300400E+02  0.10566000000E+00 0.  1.
        994    1    1    2    0    0 -0.35498497001E+02 -0.25615492775E+02  0.34283440618E+02  0.18000303070E+03  0.17120000000E+03 0.  0.
        998    1    1    2    0    0 -0.15401588296E+02  0.15910353565E+02  0.14252335782E+04  0.14254406689E+04  0.10000000000E+02 0.  1.
</event>
<event>
 5    1  0.1440459E-008  0.3843937E+03  0.7957747E-01  0.3432248E+00
         13   -1    0    0    0    0  0.00000000000E+00  0.00000000000E+00  0.14999999963E+04  0.15000000000E+04  0.10566000000E+00 0.  1.
        994   -1    0    0    0    0 -0.00000000000E+00 -0.00000000000E+00  0.11368683772E-12  0.17120000000E+03  0.17120000000E+03 0.  0.
         13    1    1    2    0    0 -0.29918221044E+02  0.16224680046E+02  0.19507076878E+03  0.19801756536E+03  0.10566000000E+00 0.  1.
        994    1    1    2    0    0  0.70348295537E+02 -0.93684067813E+01  0.18708014362E+02  0.18626883672E+03  0.17120000000E+03 0.  0.
        998    1    1    2    0    0 -0.40430074493E+02 -0.68562732649E+01  0.12862212131E+04  0.12869135979E+04  0.10000000000E+02 0.  1.
</event>
<event>
 5    1  0.1440459E-008  0.3823315E+03  0.7957747E-01  0.3441069E+00
         13   -1    0    0    0    0  0.00000000000E+00  0.00000000000E+00  0.14999999963E+04  0.15000000000E+04  0.10566000000E+00 0. -1.
        994   -1    0    0    0    0 -0.00000000000E+00 -0.00000000000E+00  0.11368683772E-12  0.17120000000E+03  0.17120000000E+03 0.  0.
         13    1    1    2    0    0  0.20151527011E+02  0.20982105567E+02  0.13226256868E+03  0.13542426308E+03  0.10566000000E+00 0. -1.
        994    1    1    2    0    0 -0.14158712374E+02 -0.25090837793E+02  0.57191571418E+01  0.17370137603E+03  0.17120000000E+03 0.  0.
        998    1    1    2    0    0 -0.59928146376E+01  0.41087322262E+01  0.13620182705E+04  0.13620743609E+04  0.10000000000E+02 0. -1.
</event>
<event>
 5    1  0.1440459E-008  0.3756322E+03  0.7957747E-01  0.3470400E+00
         13   -1    0    0    0    0  0.00000000000E+00  0.00000000000E+00  0.14999999963E+04  0.15000000000E+04  0.10566000000E+00 0. -1.
        994   -1    0    0    0    0 -0.00000000000E+00 -0.00000000000E+00  0.11368683772E-12  0.17120000000E+03  0.17120000000E+03 0.  0.
         13    1    1    2    0    0 -0.78751732244E-01 -0.22568590362E+02  0.36643332640E+02  0.43035943858E+02  0.10566000000E+00 0. -1.
        994    1    1    2    0    0 -0.26988552105E+01  0.23417023274E+02  0.82414330726E+01  0.17301156614E+03  0.17120000000E+03 0.  0.
        998    1    1    2    0    0  0.27776069428E+01 -0.84843291216E+00  0.14551152306E+04  0.14551524900E+04  0.10000000000E+02 0. -1.
</event>
<event>
 5    1  0.1440459E-008  0.3804645E+03  0.7957747E-01  0.3449138E+00
         13   -1    0    0    0    0  0.00000000000E+00  0.00000000000E+00  0.14999999963E+04  0.15000000000E+04  0.10566000000E+00 0. -1.
        994   -1    0    0    0    0 -0.00000000000E+00 -0.00000000000E+00  0.11368683772E-12  0.17120000000E+03  0.17120000000E+03 0.  0.
         13    1    1    2    0    0  0.77455558560E+01 -0.16292424861E+02  0.40638446504E+02  0.44462694944E+02  0.10566000000E+00 0. -1.
        994    1    1    2    0    0  0.11501367091E+01  0.10920868267E+02  0.43014552185E+01  0.17160574202E+03  0.17120000000E+03 0.  0.
        998    1    1    2    0    0 -0.88956925652E+01  0.53715565943E+01  0.14550600946E+04  0.14551315630E+04  0.10000000000E+02 0. -1.
</event>
<event>
 5    1  0.1440459E-008  0.4113597E+03  0.7957747E-01  0.3325033E+00
         13   -1    0    0    0    0  0.00000000000E+00  0.00000000000E+00  0.14999999963E+04  0.15000000000E+04  0.10566000000E+00 0. -1.
        994   -1    0    0    0    0 -0.00000000000E+00 -0.00000000000E+00  0.11368683772E-12  0.17120000000E+03  0.17120000000E+03 0.  0.
         13    1    1    2    0    0  0.27489281402E+02  0.15359582532E+03  0.26570038439E+03  0.30812991348E+03  0.10566000000E+00 0. -1.
        994    1    1    2    0    0 -0.13590749953E+02 -0.15613279626E+03  0.14508398646E+03  0.27371693714E+03  0.17120000000E+03 0.  0.
        998    1    1    2    0    0 -0.13898531449E+02  0.25369709401E+01  0.10892156254E+04  0.10893531494E+04  0.10000000000E+02 0. -1.
</event>
<event>
 5    1  0.1440459E-008  0.3864059E+03  0.7957747E-01  0.3423731E+00
         13   -1    0    0    0    0  0.00000000000E+00  0.00000000000E+00  0.14999999963E+04  0.15000000000E+04  0.10566000000E+00 0.  1.
        994   -1    0    0    0    0 -0.00000000000E+00 -0.00000000000E+00  0.11368683772E-12  0.17120000000E+03  0.17120000000E+03 0.  0.
         13    1    1    2    0    0 -0.64074969106E+02  0.49331306988E+02  0.13968548301E+03  0.16140391830E+03  0.10566000000E+00 0.  1.
        994    1    1    2    0    0  0.89575767972E+02 -0.28255202660E+02  0.53424948227E+02  0.20244959812E+03  0.17120000000E+03 0.  0.
        998    1    1    2    0    0 -0.25500798866E+02 -0.21076104328E+02  0.13068895650E+04  0.13073464836E+04  0.10000000000E+02 0.  1.
</event>
<event>
 5    1  0.1440459E-008  0.3821315E+03  0.7957747E-01  0.3441930E+00
         13   -1    0    0    0    0  0.00000000000E+00  0.00000000000E+00  0.14999999963E+04  0.15000000000E+04  0.10566000000E+00 0. -1.
        994   -1    0    0    0    0 -0.00000000000E+00 -0.00000000000E+00  0.11368683772E-12  0.17120000000E+03  0.17120000000E+03 0.  0.
         13    1    1    2    0    0  0.84268046489E+01 -0.47267097875E+02  0.26726479185E+03  0.27154312679E+03  0.10566000000E+00 0. -1.
        994    1    1    2    0    0 -0.23632637075E+02  0.60665665588E+02  0.17261880106E+02  0.18397346825E+03  0.17120000000E+03 0.  0.
        998    1    1    2    0    0  0.15205832426E+02 -0.13398567712E+02  0.12154733243E+04  0.12156834050E+04  0.10000000000E+02 0.  1.
</event>
<event>
 5    1  0.1440459E-008  0.3739134E+03  0.7957747E-01  0.3478097E+00
         13   -1    0    0    0    0  0.00000000000E+00  0.00000000000E+00  0.14999999963E+04  0.15000000000E+04  0.10566000000E+00 0.  1.
        994   -1    0    0    0    0 -0.00000000000E+00 -0.00000000000E+00  0.11368683772E-12  0.17120000000E+03  0.17120000000E+03 0.  0.
         13    1    1    2    0    0  0.35661329963E+01 -0.26052640461E+02  0.20771654124E+02  0.33510150083E+02  0.10566000000E+00 0.  1.
        994    1    1    2    0    0  0.46691262240E+01  0.26705502733E+02  0.15632768892E+02  0.17403680093E+03  0.17120000000E+03 0.  0.
        998    1    1    2    0    0 -0.82352592203E+01 -0.65286227265E+00  0.14635955733E+04  0.14636530490E+04  0.10000000000E+02 0.  1.
</event>
<event>
 5    1  0.1440459E-008  0.3817801E+03  0.7957747E-01  0.3443444E+00
         13   -1    0    0    0    0  0.00000000000E+00  0.00000000000E+00  0.14999999963E+04  0.15000000000E+04  0.10566000000E+00 0. -1.
        994   -1    0    0    0    0 -0.00000000000E+00 -0.00000000000E+00  0.11368683772E-12  0.17120000000E+03  0.17120000000E+03 0.  0.
         13    1    1    2    0    0  0.24299376262E+02 -0.29943740233E+01  0.11702103677E+03  0.11955484169E+03  0.10566000000E+00 0. -1.
        994    1    1    2    0    0  0.19716098855E+02 -0.23269445618E+02  0.63347583086E+01  0.17401080661E+03  0.17120000000E+03 0.  0.
        998    1    1    2    0    0 -0.44015475117E+02  0.26263819641E+02  0.13766442012E+04  0.13776343517E+04  0.10000000000E+02 0. -1.
</event>
<event>
 5    1  0.1440459E-008  0.3833402E+03  0.7957747E-01  0.3436742E+00
         13   -1    0    0    0    0  0.00000000000E+00  0.00000000000E+00  0.14999999963E+04  0.15000000000E+04  0.10566000000E+00 0. -1.
        994   -1    0    0    0    0 -0.00000000000E+00 -0.00000000000E+00  0.11368683772E-12  0.17120000000E+03  0.17120000000E+03 0.  0.
         13    1    1    2    0    0 -0.97313970604E+01  0.22070334298E+02  0.11698640248E+03  0.11944718194E+03  0.10566000000E+00 0. -1.
        994    1    1    2    0    0  0.99369806940E+01 -0.12823175539E+02  0.33271087551E+01  0.17199909031E+03  0.17120000000E+03 0.  0.
        998    1    1    2    0    0 -0.20558363366E+00 -0.92471587591E+01  0.13796864850E+04  0.13797537277E+04  0.10000000000E+02 0. -1.
</event>
<event>
 5    1  0.1440459E-008  0.3824596E+03  0.7957747E-01  0.3440518E+00
         13   -1    0    0    0    0  0.00000000000E+00  0.00000000000E+00  0.14999999963E+04  0.15000000000E+04  0.10566000000E+00 0.  1.
        994   -1    0    0    0    0 -0.00000000000E+00 -0.00000000000E+00  0.11368683772E-12  0.17120000000E+03  0.17120000000E+03 0.  0.
         13    1    1    2    0    0  0.72569808035E+01  0.20890763710E+02  0.88737092203E+02  0.91451465135E+02  0.10566000000E+00 0.  1.
        994    1    1    2    0    0  0.26535170739E+01 -0.44082468211E+01  0.29844923184E+01  0.17130330116E+03  0.17120000000E+03 0.  0.
        998    1    1    2    0    0 -0.99104978774E+01 -0.16482516889E+02  0.14082784118E+04  0.14084452337E+04  0.10000000000E+02 0.  1.
</event>
<event>
 5    1  0.1440459E-008  0.3847820E+03  0.7957747E-01  0.3430597E+00
         13   -1    0    0    0    0  0.00000000000E+00  0.00000000000E+00  0.14999999963E+04  0.15000000000E+04  0.10566000000E+00 0. -1.
        994   -1    0    0    0    0 -0.00000000000E+00 -0.00000000000E+00  0.11368683772E-12  0.17120000000E+03  0.17120000000E+03 0.  0.
         13    1    1    2    0    0  0.11957138552E+02  0.84521580399E+01  0.65354673000E+02  0.66975044493E+02  0.10566000000E+00 0. -1.
        994    1    1    2    0    0 -0.87805639908E+01  0.11893472822E+02  0.24579961677E+01  0.17185469079E+03  0.17120000000E+03 0.  0.
        998    1    1    2    0    0 -0.31765745613E+01 -0.20345630862E+02  0.14321873271E+04  0.14323702647E+04  0.10000000000E+02 0. -1.
</event>
<event>
 5    1  0.1440459E-008  0.3721286E+03  0.7957747E-01  0.3486165E+00
         13   -1    0    0    0    0  0.00000000000E+00  0.00000000000E+00  0.14999999963E+04  0.15000000000E+04  0.10566000000E+00 0. -1.
        994   -1    0    0    0    0 -0.00000000000E+00 -0.00000000000E+00  0.11368683772E-12  0.17120000000E+03  0.17120000000E+03 0.  0.
         13    1    1    2    0    0 -0.10388510330E+03 -0.20639593487E+02  0.43401983273E+03  0.44675645924E+03  0.10566000000E+00 0. -1.
        994    1    1    2    0    0  0.10979168996E+03  0.46098709481E+02  0.58520059289E+02  0.21659488345E+03  0.17120000000E+03 0.  0.
        998    1    1    2    0    0 -0.59065866573E+01 -0.25459115994E+02  0.10074601043E+04  0.10078486573E+04  0.10000000000E+02 0. -1.
</event>
<event>
 5    1  0.1440459E-008  0.3816544E+03  0.7957747E-01  0.3443986E+00
         13   -1    0    0    0    0  0.00000000000E+00  0.00000000000E+00  0.14999999963E+04  0.15000000000E+04  0.10566000000E+00 0.  1.
        994   -1    0    0    0    0 -0.00000000000E+00 -0.00000000000E+00  0.11368683772E-12  0.17120000000E+03  0.17120000000E+03 0.  0.
         13    1    1    2    0    0 -0.11197939174E+03 -0.13313176802E+02  0.28336610958E+03  0.30498030768E+03  0.10566000000E+00 0.  1.
        994    1    1    2    0    0  0.11537246515E+03  0.19495518674E+02  0.69033713364E+02  0.21855428283E+03  0.17120000000E+03 0.  0.
        998    1    1    2    0    0 -0.33930734031E+01 -0.61823418715E+01  0.11476001733E+04  0.11476654095E+04  0.10000000000E+02 0.  1.
</event>
<event>
 5    1  0.1440459E-008  0.3808171E+03  0.7957747E-01  0.3447608E+00
         13   -1    0    0    0    0  0.00000000000E+00  0.00000000000E+00  0.14999999963E+04  0.15000000000E+04  0.10566000000E+00 0.  1.
        994   -1    0    0    0    0 -0.00000000000E+00 -0.00000000000E+00  0.11368683772E-12  0.17120000000E+03  0.17120000000E+03 0.  0.
         13    1    1    2    0    0 -0.10049698431E+02  0.79731555506E+00  0.11995802907E+02  0.15669799044E+02  0.10566000000E+00 0.  1.
        994    1    1    2    0    0  0.90420561123E+01  0.95704813533E+00  0.39969355547E+01  0.17148787191E+03  0.17120000000E+03 0.  0.
        998    1    1    2    0    0  0.10076423188E+01 -0.17543636904E+01  0.14840072578E+04  0.14840423290E+04  0.10000000000E+02 0.  1.
</event>
<event>
 5    1  0.1440459E-008  0.3825023E+03  0.7957747E-01  0.3440335E+00
         13   -1    0    0    0    0  0.00000000000E+00  0.00000000000E+00  0.14999999963E+04  0.15000000000E+04  0.10566000000E+00 0. -1.
        994   -1    0    0    0    0 -0.00000000000E+00 -0.00000000000E+00  0.11368683772E-12  0.17120000000E+03  0.17120000000E+03 0.  0.
         13    1    1    2    0    0 -0.47266788414E+01  0.14883448094E+02  0.40739535020E+02  0.43630028624E+02  0.10566000000E+00 0. -1.
        994    1    1    2    0    0  0.80087254897E+01 -0.12939956346E+02  0.36434690256E+01  0.17191363245E+03  0.17120000000E+03 0.  0.
        998    1    1    2    0    0 -0.32820466483E+01 -0.19434917481E+01  0.14556169922E+04  0.14556563389E+04  0.10000000000E+02 0. -1.
</event>
<event>
 5    1  0.1440459E-008  0.3835117E+03  0.7957747E-01  0.3436009E+00
         13   -1    0    0    0    0  0.00000000000E+00  0.00000000000E+00  0.14999999963E+04  0.15000000000E+04  0.10566000000E+00 0. -1.
        994   -1    0    0    0    0 -0.00000000000E+00 -0.00000000000E+00  0.11368683772E-12  0.17120000000E+03  0.17120000000E+03 0.  0.
         13    1    1    2    0    0 -0.10781030654E+01  0.32184412808E+02  0.17012032021E+03  0.17314136781E+03  0.10566000000E+00 0. -1.
        994    1    1    2    0    0 -0.77097214203E+01 -0.49173832778E+02  0.10601446057E+02  0.17860385296E+03  0.17120000000E+03 0.  0.
        998    1    1    2    0    0  0.87878244857E+01  0.16989419970E+02  0.13192782300E+04  0.13194547792E+04  0.10000000000E+02 0. -1.
</event>
<event>
 5    1  0.1440459E-008  0.3766757E+03  0.7957747E-01  0.3465762E+00
         13   -1    0    0    0    0  0.00000000000E+00  0.00000000000E+00  0.14999999963E+04  0.15000000000E+04  0.10566000000E+00 0.  1.
        994   -1    0    0    0    0 -0.00000000000E+00 -0.00000000000E+00  0.11368683772E-12  0.17120000000E+03  0.17120000000E+03 0.  0.
         13    1    1    2    0    0 -0.10301103646E+02  0.23553620938E+02  0.53360840325E+02  0.59230703523E+02  0.10566000000E+00 0.  1.
        994    1    1    2    0    0  0.89665731545E+00 -0.24834150671E+02  0.79108600577E+01  0.17317494259E+03  0.17120000000E+03 0.  0.
        998    1    1    2    0    0  0.94044463308E+01  0.12805297331E+01  0.14387282959E+04  0.14387943539E+04  0.10000000000E+02 0.  1.
</event>
<event>
 5    1  0.1440459E-008  0.3842438E+03  0.7957747E-01  0.3432886E+00
         13   -1    0    0    0    0  0.00000000000E+00  0.00000000000E+00  0.14999999963E+04  0.15000000000E+04  0.10566000000E+00 0.  1.
        994   -1    0    0    0    0 -0.00000000000E+00 -0.00000000000E+00  0.11368683772E-12  0.17120000000E+03  0.17120000000E+03 0.  0.
         13    1    1    2    0    0  0.10210666264E+02  0.12873413151E+01  0.25397797876E+02  0.27403909470E+02  0.10566000000E+00 0.  1.
        994    1    1    2    0    0 -0.11946826599E+02  0.95863395785E+00  0.24797361446E+01  0.17163692708E+03  0.17120000000E+03 0.  0.
        998    1    1    2    0    0  0.17361603347E+01 -0.22459752730E+01  0.14721224623E+04  0.14721591635E+04  0.10000000000E+02 0.  1.
</event>
<event>
 5    1  0.1440459E-008  0.3750127E+03  0.7957747E-01  0.3473166E+00
         13   -1    0    0    0    0  0.00000000000E+00  0.00000000000E+00  0.14999999963E+04  0.15000000000E+04  0.10566000000E+00 0.  1.
        994   -1    0    0    0    0 -0.00000000000E+00 -0.00000000000E+00  0.11368683772E-12  0.17120000000E+03  0.17120000000E+03 0.  0.
         13    1    1    2    0    0  0.26107830412E+02 -0.45545072952E+01  0.19562813427E+02  0.32940509691E+02  0.10566000000E+00 0.  1.
        994    1    1    2    0    0 -0.30617684574E+02  0.30012021426E+01  0.16989581951E+02  0.17476995084E+03  0.17120000000E+03 0.  0.
        998    1    1    2    0    0  0.45098541624E+01  0.15533051525E+01  0.14634476009E+04  0.14634895395E+04  0.10000000000E+02 0.  1.
</event>
<event>
 5    1  0.1440459E-008  0.3780414E+03  0.7957747E-01  0.3459731E+00
         13   -1    0    0    0    0  0.00000000000E+00  0.00000000000E+00  0.14999999963E+04  0.15000000000E+04  0.10566000000E+00 0.  1.
        994   -1    0    0    0    0 -0.00000000000E+00 -0.00000000000E+00  0.11368683772E-12  0.17120000000E+03  0.17120000000E+03 0.  0.
         13    1    1    2    0    0  0.33473817136E+01 -0.17193098960E+02  0.28429081504E+02  0.33392086718E+02  0.10566000000E+00 0.  1.
        994    1    1    2    0    0  0.28701079633E+00  0.45954810622E+01  0.51964374504E+01  0.17134072424E+03  0.17120000000E+03 0.  0.
        998    1    1    2    0    0 -0.36343925099E+01  0.12597617897E+02  0.14663744773E+04  0.14664671890E+04  0.10000000000E+02 0.  1.
</event>
<event>
 5    1  0.1440459E-008  0.3836531E+03  0.7957747E-01  0.3435405E+00
         13   -1    0    0    0    0  0.00000000000E+00  0.00000000000E+00  0.14999999963E+04  0.15000000000E+04  0.10566000000E+00 0.  1.
        994   -1    0    0    0    0 -0.00000000000E+00 -0.00000000000E+00  0.11368683772E-12  0.17120000000E+03  0.17120000000E+03 0.  0.
         13    1    1    2    0    0 -0.11823489635E+02 -0.11861895782E+02  0.62601352466E+02  0.64803086141E+02  0.10566000000E+00 0.  1.
        994    1    1    2    0    0  0.24575917506E+01  0.35551922944E+01  0.23620078173E+01  0.17127083298E+03  0.17120000000E+03 0.  0.
        998    1    1    2    0    0  0.93658978848E+01  0.83067034878E+01  0.14350366360E+04  0.14351260809E+04  0.10000000000E+02 0.  1.
</event>
<event>
 5    1  0.1440459E-008  0.3827426E+03  0.7957747E-01  0.3439303E+00
         13   -1    0    0    0    0  0.00000000000E+00  0.00000000000E+00  0.14999999963E+04  0.15000000000E+04  0.10566000000E+00 0. -1.
        994   -1    0    0    0    0 -0.00000000000E+00 -0.00000000000E+00  0.11368683772E-12  0.17120000000E+03  0.17120000000E+03 0.  0.
         13    1    1    2    0    0  0.85836417259E+01  0.82557152712E+01  0.24764618641E+02  0.27479687778E+02  0.10566000000E+00 0. -1.
        994    1    1    2    0    0  0.61036295276E+01 -0.17827200677E+02  0.39322280281E+01  0.17227874447E+03  0.17120000000E+03 0.  0.
        998    1    1    2    0    0 -0.14687271253E+02  0.95714854060E+01  0.14713031496E+04  0.14714415678E+04  0.10000000000E+02 0. -1.
</event>
<event>
 5    1  0.1440459E-008  0.3826391E+03  0.7957747E-01  0.3439747E+00
         13   -1    0    0    0    0  0.00000000000E+00  0.00000000000E+00  0.14999999963E+04  0.15000000000E+04  0.10566000000E+00 0. -1.
        994   -1    0    0    0    0 -0.00000000000E+00 -0.00000000000E+00  0.11368683772E-12  0.17120000000E+03  0.17120000000E+03 0.  0.
         13    1    1    2    0    0  0.78693011907E+01  0.10858805619E+02  0.32529522213E+02  0.35185516056E+02  0.10566000000E+00 0. -1.
        994    1    1    2    0    0 -0.20435285681E+01  0.58266477130E+01  0.29331812052E+01  0.17133642165E+03  0.17120000000E+03 0.  0.
        998    1    1    2    0    0 -0.58257726227E+01 -0.16685453332E+02  0.14645372929E+04  0.14646780623E+04  0.10000000000E+02 0. -1.
</event>
<event>
 5    1  0.1440459E-008  0.3794060E+03  0.7957747E-01  0.3453749E+00
         13   -1    0    0    0    0  0.00000000000E+00  0.00000000000E+00  0.14999999963E+04  0.15000000000E+04  0.10566000000E+00 0. -1.
        994   -1    0    0    0    0 -0.00000000000E+00 -0.00000000000E+00  0.11368683772E-12  0.17120000000E+03  0.17120000000E+03 0.  0.
         13    1    1    2    0    0 -0.37500969746E+02  0.13578155375E+02  0.22864478746E+03  0.23209726201E+03  0.10566000000E+00 0. -1.
        994    1    1    2    0    0 -0.11529770424E+02 -0.89777939977E+01  0.51488639918E+01  0.17189964279E+03  0.17120000000E+03 0.  0.
        998    1    1    2    0    0  0.49030740170E+02 -0.46003613778E+01  0.12662063448E+04  0.12672030952E+04  0.10000000000E+02 0. -1.
</event>
<event>
 5    1  0.1440459E-008  0.3822962E+03  0.7957747E-01  0.3441221E+00
         13   -1    0    0    0    0  0.00000000000E+00  0.00000000000E+00  0.14999999963E+04  0.15000000000E+04  0.10566000000E+00 0. -1.
        994   -1    0    0    0    0 -0.00000000000E+00 -0.00000000000E+00  0.11368683772E-12  0.17120000000E+03  0.17120000000E+03 0.  0.
         13    1    1    2    0    0 -0.12368951418E+02 -0.22130153579E+02  0.10085374609E+02  0.27284805325E+02  0.10566000000E+00 0. -1.
        994    1    1    2    0    0  0.93302616858E+01  0.41031565370E+02  0.24092625672E+02  0.17793408260E+03  0.17120000000E+03 0.  0.
        998    1    1    2    0    0  0.30386897321E+01 -0.18901411791E+02  0.14658219960E+04  0.14659811121E+04  0.10000000000E+02 0. -1.
</event>
<event>
 5    1  0.1440459E-008  0.3798445E+03  0.7957747E-01  0.3451836E+00
         13   -1    0    0    0    0  0.00000000000E+00  0.00000000000E+00  0.14999999963E+04  0.15000000000E+04  0.10566000000E+00 0. -1.
        994   -1    0    0    0    0 -0.00000000000E+00 -0.00000000000E+00  0.11368683772E-12  0.17120000000E+03  0.17120000000E+03 0.  0.
         13    1    1    2    0    0 -0.34949490881E+02  0.70774425085E+01  0.15638877566E+03  0.16040267274E+03  0.10566000000E+00 0. -1.
        994    1    1    2    0    0  0.12958757249E+02 -0.65087160543E+01  0.49153381646E+01  0.17188337128E+03  0.17120000000E+03 0.  0.
        998    1    1    2    0    0  0.21990733632E+02 -0.56872645427E+00  0.13386958825E+04  0.13389139560E+04  0.10000000000E+02 0.  0.
</event>
<event>
 5    1  0.1440459E-008  0.3807041E+03  0.7957747E-01  0.3448098E+00
         13   -1    0    0    0    0  0.00000000000E+00  0.00000000000E+00  0.14999999963E+04  0.15000000000E+04  0.10566000000E+00 0. -1.
        994   -1    0    0    0    0 -0.00000000000E+00 -0.00000000000E+00  0.11368683772E-12  0.17120000000E+03  0.17120000000E+03 0.  0.
         13    1    1    2    0    0 -0.41734472518E+01  0.28963784891E+02  0.11948488141E+03  0.12301612312E+03  0.10566000000E+00 0. -1.
        994    1    1    2    0    0  0.11835389955E+02 -0.52230002309E+01  0.43364883806E+01  0.17174283484E+03  0.17120000000E+03 0.  0.
        998    1    1    2    0    0 -0.76619427037E+01 -0.23740784660E+02  0.13761786265E+04  0.13764410420E+04  0.10000000000E+02 0. -1.
</event>
<event>
 5    1  0.1440459E-008  0.3685297E+03  0.7957747E-01  0.3502676E+00
         13   -1    0    0    0    0  0.00000000000E+00  0.00000000000E+00  0.14999999963E+04  0.15000000000E+04  0.10566000000E+00 0.  1.
        994   -1    0    0    0    0 -0.00000000000E+00 -0.00000000000E+00  0.11368683772E-12  0.17120000000E+03  0.17120000000E+03 0.  0.
         13    1    1    2    0    0  0.22609307074E+02  0.13107194701E+02  0.29312744102E+02  0.39271203828E+02  0.10566000000E+00 0.  1.
        994    1    1    2    0    0 -0.23946384140E+02 -0.11186026322E+02  0.12471118681E+02  0.17367649611E+03  0.17120000000E+03 0.  0.
        998    1    1    2    0    0  0.13370770654E+01 -0.19211683788E+01  0.14582161335E+04  0.14582523001E+04  0.10000000000E+02 0.  1.
</event>
<event>
 5    1  0.1440459E-008  0.3825729E+03  0.7957747E-01  0.3440031E+00
         13   -1    0    0    0    0  0.00000000000E+00  0.00000000000E+00  0.14999999963E+04  0.15000000000E+04  0.10566000000E+00 0. -1.
        994   -1    0    0    0    0 -0.00000000000E+00 -0.00000000000E+00  0.11368683772E-12  0.17120000000E+03  0.17120000000E+03 0.  0.
         13    1    1    2    0    0 -0.18583779537E+02 -0.17013335118E+02  0.12899375501E+03  0.13143139058E+03  0.10566000000E+00 0. -1.
        994    1    1    2    0    0 -0.75255101703E+01 -0.52522872212E+00  0.30286016776E+01  0.17139288666E+03  0.17120000000E+03 0.  0.
        998    1    1    2    0    0  0.26109289707E+02  0.17538563840E+02  0.13679776396E+04  0.13683757228E+04  0.10000000000E+02 0. -1.
</event>
<event>
 5    1  0.1440459E-008  0.4060230E+03  0.7957747E-01  0.3345128E+00
         13   -1    0    0    0    0  0.00000000000E+00  0.00000000000E+00  0.14999999963E+04  0.15000000000E+04  0.10566000000E+00 0.  1.
        994   -1    0    0    0    0 -0.00000000000E+00 -0.00000000000E+00  0.11368683772E-12  0.17120000000E+03  0.17120000000E+03 0.  0.
         13    1    1    2    0    0 -0.55242726395E+02 -0.13928631829E+03  0.40871435323E+03  0.43531582900E+03  0.10566000000E+00 0.  1.
        994    1    1    2    0    0  0.32633494619E+02  0.55163348573E+02  0.48108368254E+02  0.18902855629E+03  0.17120000000E+03 0.  0.
        998    1    1    2    0    0  0.22609231776E+02  0.84122969712E+02  0.10431772748E+04  0.10468556147E+04  0.10000000000E+02 0.  1.
</event>
<event>
 5    1  0.1440459E-008  0.3858248E+03  0.7957747E-01  0.3426182E+00
         13   -1    0    0    0    0  0.00000000000E+00  0.00000000000E+00  0.14999999963E+04  0.15000000000E+04  0.10566000000E+00 0. -1.
        994   -1    0    0    0    0 -0.00000000000E+00 -0.00000000000E+00  0.11368683772E-12  0.17120000000E+03  0.17120000000E+03 0.  0.
         13    1    1    2    0    0 -0.73432249768E+01 -0.92490278506E+01  0.58494378733E+02  0.59674709690E+02  0.10566000000E+00 0. -1.
        994    1    1    2    0    0  0.38540563996E+01  0.42579542206E+01  0.13293824965E+01  0.17130146287E+03  0.17120000000E+03 0.  0.
        998    1    1    2    0    0  0.34891685772E+01  0.49910736300E+01  0.14401762350E+04  0.14402238274E+04  0.10000000000E+02 0.  0.
</event>
<event>
 5    1  0.1440459E-008  0.3814509E+03  0.7957747E-01  0.3444865E+00
         13   -1    0    0    0    0  0.00000000000E+00  0.00000000000E+00  0.14999999963E+04  0.15000000000E+04  0.10566000000E+00 0. -1.
        994   -1    0    0    0    0 -0.00000000000E+00 -0.00000000000E+00  0.11368683772E-12  0.17120000000E+03  0.17120000000E+03 0.  0.
         13    1    1    2    0    0 -0.43586379415E+02  0.53813243853E+01  0.23276102013E+03  0.23686796908E+03  0.10566000000E+00 0. -1.
        994    1    1    2    0    0  0.47106083307E+02 -0.91167281826E+01  0.11099708722E+02  0.17814247487E+03  0.17120000000E+03 0.  0.
        998    1    1    2    0    0 -0.35197038927E+01  0.37354037973E+01  0.12561392674E+04  0.12561895561E+04  0.10000000000E+02 0. -1.
</event>
<event>
 5    1  0.1440459E-008  0.3852736E+03  0.7957747E-01  0.3428512E+00
         13   -1    0    0    0    0  0.00000000000E+00  0.00000000000E+00  0.14999999963E+04  0.15000000000E+04  0.10566000000E+00 0. -1.
        994   -1    0    0    0    0 -0.00000000000E+00 -0.00000000000E+00  0.11368683772E-12  0.17120000000E+03  0.17120000000E+03 0.  0.
         13    1    1    2    0    0  0.75065488453E+01  0.77378307689E+01  0.39029096674E+02  0.40490787246E+02  0.10566000000E+00 0. -1.
        994    1    1    2    0    0 -0.32490344656E+00 -0.88163490893E+01  0.17501221445E+01  0.17143610034E+03  0.17120000000E+03 0.  0.
        998    1    1    2    0    0 -0.71816453988E+01  0.10785183204E+01  0.14592207775E+04  0.14592731124E+04  0.10000000000E+02 0. -1.
</event>
<event>
 5    1  0.1440459E-008  0.3825227E+03  0.7957747E-01  0.3440247E+00
         13   -1    0    0    0    0  0.00000000000E+00  0.00000000000E+00  0.14999999963E+04  0.15000000000E+04  0.10566000000E+00 0.  1.
        994   -1    0    0    0    0 -0.00000000000E+00 -0.00000000000E+00  0.11368683772E-12  0.17120000000E+03  0.17120000000E+03 0.  0.
         13    1    1    2    0    0 -0.17366934178E+01  0.19732546326E+02  0.76118764205E+02  0.78654096630E+02  0.10566000000E+00 0.  1.
        994    1    1    2    0    0  0.31322394743E+02  0.11271459967E+02  0.65475551859E+01  0.17452922019E+03  0.17120000000E+03 0.  0.
        998    1    1    2    0    0 -0.29585701325E+02 -0.31004006293E+02  0.14173336769E+04  0.14180166832E+04  0.10000000000E+02 0.  1.
</event>
<event>
 5    1  0.1440459E-008  0.3784450E+03  0.7957747E-01  0.3457957E+00
         13   -1    0    0    0    0  0.00000000000E+00  0.00000000000E+00  0.14999999963E+04  0.15000000000E+04  0.10566000000E+00 0.  1.
        994   -1    0    0    0    0 -0.00000000000E+00 -0.00000000000E+00  0.11368683772E-12  0.17120000000E+03  0.17120000000E+03 0.  0.
         13    1    1    2    0    0 -0.17648421133E+02 -0.10960758322E+02  0.39844615729E+02  0.44935615697E+02  0.10566000000E+00 0.  1.
        994    1    1    2    0    0  0.22468564685E+02  0.20000252290E+02  0.79665968631E+01  0.17400503773E+03  0.17120000000E+03 0.  0.
        998    1    1    2    0    0 -0.48201435519E+01 -0.90394939685E+01  0.14521887837E+04  0.14522593466E+04  0.10000000000E+02 0.  1.
</event>
<event>
 5    1  0.1440459E-008  0.3767486E+03  0.7957747E-01  0.3465439E+00
         13   -1    0    0    0    0  0.00000000000E+00  0.00000000000E+00  0.14999999963E+04  0.15000000000E+04  0.10566000000E+00 0.  1.
        994   -1    0    0    0    0 -0.00000000000E+00 -0.00000000000E+00  0.11368683772E-12  0.17120000000E+03  0.17120000000E+03 0.  0.
         13    1    1    2    0    0 -0.47214975758E+02  0.66795731961E+01  0.18859226873E+03  0.19452744182E+03  0.10566000000E+00 0.  1.
        994    1    1    2    0    0  0.33567228926E+02  0.27928946306E+01  0.96270470938E+01  0.17474747253E+03  0.17120000000E+03 0.  0.
        998    1    1    2    0    0  0.13647746833E+02 -0.94724678266E+01  0.13017806805E+04  0.13019250857E+04  0.10000000000E+02 0.  1.
</event>
<event>
 5    1  0.1440459E-008  0.3846029E+03  0.7957747E-01  0.3431358E+00
         13   -1    0    0    0    0  0.00000000000E+00  0.00000000000E+00  0.14999999963E+04  0.15000000000E+04  0.10566000000E+00 0. -1.
        994   -1    0    0    0    0 -0.00000000000E+00 -0.00000000000E+00  0.11368683772E-12  0.17120000000E+03  0.17120000000E+03 0.  0.
         13    1    1    2    0    0 -0.12485228750E+02  0.13899409659E+02  0.11289587600E+03  0.11443148390E+03  0.10566000000E+00 0. -1.
        994    1    1    2    0    0 -0.25043777046E+00  0.11422212501E+02  0.22573775470E+01  0.17159564508E+03  0.17120000000E+03 0.  0.
        998    1    1    2    0    0  0.12735666521E+02 -0.25321622160E+02  0.13848467427E+04  0.13851728710E+04  0.10000000000E+02 0. -1.
</event>
<event>
 5    1  0.1440459E-008  0.3807150E+03  0.7957747E-01  0.3448051E+00
         13   -1    0    0    0    0  0.00000000000E+00  0.00000000000E+00  0.14999999963E+04  0.15000000000E+04  0.10566000000E+00 0.  1.
        994   -1    0    0    0    0 -0.00000000000E+00 -0.00000000000E+00  0.11368683772E-12  0.17120000000E+03  0.17120000000E+03 0.  0.
         13    1    1    2    0    0  0.12155713586E+02  0.21554488491E+02  0.85100535391E+02  0.88625445752E+02  0.10566000000E+00 0.  1.
        994    1    1    2    0    0  0.68188715929E+01 -0.69509954571E+01  0.40889359144E+01  0.17152542886E+03  0.17120000000E+03 0.  0.
        998    1    1    2    0    0 -0.18974585179E+02 -0.14603493033E+02  0.14108105250E+04  0.14110491254E+04  0.10000000000E+02 0.  1.
</event>
<event>
 5    1  0.1440459E-008  0.3726046E+03  0.7957747E-01  0.3484006E+00
         13   -1    0    0    0    0  0.00000000000E+00  0.00000000000E+00  0.14999999963E+04  0.15000000000E+04  0.10566000000E+00 0.  1.
        994   -1    0    0    0    0 -0.00000000000E+00 -0.00000000000E+00  0.11368683772E-12  0.17120000000E+03  0.17120000000E+03 0.  0.
         13    1    1    2    0    0 -0.75828854743E+02 -0.92508789517E+02  0.51350078936E+03  0.52724848334E+03  0.10566000000E+00 0.  1.
        994    1    1    2    0    0  0.81678885171E+02  0.10038652526E+03  0.67687753806E+02  0.22503325699E+03  0.17120000000E+03 0.  0.
        998    1    1    2    0    0 -0.58500304279E+01 -0.78777357445E+01  0.91881145312E+03  0.91891825967E+03  0.10000000000E+02 0.  1.
</event>
<event>
 5    1  0.1440459E-008  0.3825922E+03  0.7957747E-01  0.3439948E+00
         13   -1    0    0    0    0  0.00000000000E+00  0.00000000000E+00  0.14999999963E+04  0.15000000000E+04  0.10566000000E+00 0. -1.
        994   -1    0    0    0    0 -0.00000000000E+00 -0.00000000000E+00  0.11368683772E-12  0.17120000000E+03  0.17120000000E+03 0.  0.
         13    1    1    2    0    0 -0.14604019326E+02  0.15215707776E+02  0.76279432581E+02  0.79141380722E+02  0.10566000000E+00 0. -1.
        994    1    1    2    0    0  0.97750370073E+01 -0.13994596981E+02  0.37967275956E+01  0.17209083425E+03  0.17120000000E+03 0.  0.
        998    1    1    2    0    0  0.48289823182E+01 -0.12211107947E+01  0.14199238361E+04  0.14199677850E+04  0.10000000000E+02 0. -1.
</event>
<event>
 5    1  0.1440459E-008  0.3695878E+03  0.7957747E-01  0.3497788E+00
         13   -1    0    0    0    0  0.00000000000E+00  0.00000000000E+00  0.14999999963E+04  0.15000000000E+04  0.10566000000E+00 0.  1.
        994   -1    0    0    0    0 -0.00000000000E+00 -0.00000000000E+00  0.11368683772E-12  0.17120000000E+03  0.17120000000E+03 0.  0.
         13    1    1    2    0    0  0.14347094926E+02  0.16068132397E+00  0.45882893671E+01  0.15064146662E+02  0.10566000000E+00 0.  1.
        994    1    1    2    0    0 -0.18850151634E+02 -0.10688729386E+02  0.12361965584E+02  0.17300819445E+03  0.17120000000E+03 0.  0.
        998    1    1    2    0    0  0.45030567081E+01  0.10528048062E+02  0.14830497413E+04  0.14831276589E+04  0.10000000000E+02 0.  1.
</event>
<event>
 5    1  0.1440459E-008  0.3812366E+03  0.7957747E-01  0.3445791E+00
         13   -1    0    0    0    0  0.00000000000E+00  0.00000000000E+00  0.14999999963E+04  0.15000000000E+04  0.10566000000E+00 0.  1.
        994   -1    0    0    0    0 -0.00000000000E+00 -0.00000000000E+00  0.11368683772E-12  0.17120000000E+03  0.17120000000E+03 0.  0.
         13    1    1    2    0    0  0.15163899363E+02  0.18086071965E+02  0.73632835563E+02  0.77323059174E+02  0.10566000000E+00 0.  1.
        994    1    1    2    0    0 -0.14724735287E+02 -0.23407052399E+02  0.60603129409E+01  0.17352485506E+03  0.17120000000E+03 0.  0.
        998    1    1    2    0    0 -0.43916407605E+00  0.53209804340E+01  0.14203068478E+04  0.14203520858E+04  0.10000000000E+02 0.  1.
</event>
<event>
 5    1  0.1440459E-008  0.3739188E+03  0.7957747E-01  0.3478073E+00
         13   -1    0    0    0    0  0.00000000000E+00  0.00000000000E+00  0.14999999963E+04  0.15000000000E+04  0.10566000000E+00 0.  1.
        994   -1    0    0    0    0 -0.00000000000E+00 -0.00000000000E+00  0.11368683772E-12  0.17120000000E+03  0.17120000000E+03 0.  0.
         13    1    1    2    0    0  0.40443629964E+02 -0.44903910103E+02  0.12825600764E+03  0.14178033364E+03  0.10566000000E+00 0.  1.
        994    1    1    2    0    0 -0.36744185831E+02  0.38947349176E+02  0.23259335676E+02  0.18087970560E+03  0.17120000000E+03 0.  0.
        998    1    1    2    0    0 -0.36994441330E+01  0.59565609267E+01  0.13484846530E+04  0.13485399608E+04  0.10000000000E+02 0.  1.
</event>
<event>
 5    1  0.1440459E-008  0.3972873E+03  0.7957747E-01  0.3379175E+00
         13   -1    0    0    0    0  0.00000000000E+00  0.00000000000E+00  0.14999999963E+04  0.15000000000E+04  0.10566000000E+00 0.  1.
        994   -1    0    0    0    0 -0.00000000000E+00 -0.00000000000E+00  0.11368683772E-12  0.17120000000E+03  0.17120000000E+03 0.  0.
         13    1    1    2    0    0  0.18165415565E+02 -0.59448498841E+02  0.60165659689E+02  0.86510254345E+02  0.10566000000E+00 0.  1.
        994    1    1    2    0    0 -0.13870603814E+02  0.73966276625E+02  0.48446498528E+02  0.19318360942E+03  0.17120000000E+03 0.  0.
        998    1    1    2    0    0 -0.42948117507E+01 -0.14517777784E+02  0.13913878381E+04  0.13915061362E+04  0.10000000000E+02 0.  1.
</event>
<event>
 5    1  0.1440459E-008  0.3827787E+03  0.7957747E-01  0.3439148E+00
         13   -1    0    0    0    0  0.00000000000E+00  0.00000000000E+00  0.14999999963E+04  0.15000000000E+04  0.10566000000E+00 0.  1.
        994   -1    0    0    0    0 -0.00000000000E+00 -0.00000000000E+00  0.11368683772E-12  0.17120000000E+03  0.17120000000E+03 0.  0.
         13    1    1    2    0    0 -0.35554085172E+01  0.14918265892E+02  0.42917575800E+02  0.45575487529E+02  0.10566000000E+00 0.  1.
        994    1    1    2    0    0 -0.37337433786E+01 -0.65732754894E+01  0.29263126062E+01  0.17139180872E+03  0.17120000000E+03 0.  0.
        998    1    1    2    0    0  0.72891518959E+01 -0.83449904024E+01  0.14541561079E+04  0.14542327038E+04  0.10000000000E+02 0.  1.
</event>
<event>
 5    1  0.1440459E-008  0.3857540E+03  0.7957747E-01  0.3426481E+00
         13   -1    0    0    0    0  0.00000000000E+00  0.00000000000E+00  0.14999999963E+04  0.15000000000E+04  0.10566000000E+00 0. -1.
        994   -1    0    0    0    0 -0.00000000000E+00 -0.00000000000E+00  0.11368683772E-12  0.17120000000E+03  0.17120000000E+03 0.  0.
         13    1    1    2    0    0  0.96665171021E+01 -0.11076800359E+02  0.87880225945E+02  0.89101528243E+02  0.10566000000E+00 0. -1.
        994    1    1    2    0    0 -0.96111605197E+01  0.22430030667E+01  0.15758906968E+01  0.17149148346E+03  0.17120000000E+03 0.  0.
        998    1    1    2    0    0 -0.55356582419E-01  0.88337972920E+01  0.14105438796E+04  0.14106069883E+04  0.10000000000E+02 0. -1.
</event>
<event>
 5    1  0.1440459E-008  0.3685686E+03  0.7957747E-01  0.3502495E+00
         13   -1    0    0    0    0  0.00000000000E+00  0.00000000000E+00  0.14999999963E+04  0.15000000000E+04  0.10566000000E+00 0.  1.
        994   -1    0    0    0    0 -0.00000000000E+00 -0.00000000000E+00  0.11368683772E-12  0.17120000000E+03  0.17120000000E+03 0.  0.
         13    1    1    2    0    0 -0.77841219347E+02  0.10401176912E+02  0.37447885031E+03  0.38262496051E+03  0.10566000000E+00 0.  1.
        994    1    1    2    0    0  0.26184731090E+02  0.48804626920E+02  0.20931717206E+02  0.18114940943E+03  0.17120000000E+03 0.  0.
        998    1    1    2    0    0  0.51656488257E+02 -0.59205803832E+02  0.11045894288E+04  0.11074256301E+04  0.10000000000E+02 0.  1.
</event>
<event>
 5    1  0.1440459E-008  0.3849257E+03  0.7957747E-01  0.3429987E+00
         13   -1    0    0    0    0  0.00000000000E+00  0.00000000000E+00  0.14999999963E+04  0.15000000000E+04  0.10566000000E+00 0. -1.
        994   -1    0    0    0    0 -0.00000000000E+00 -0.00000000000E+00  0.11368683772E-12  0.17120000000E+03  0.17120000000E+03 0.  0.
         13    1    1    2    0    0  0.10462913284E+02 -0.11193968104E+02  0.68677660244E+02  0.70366253680E+02  0.10566000000E+00 0. -1.
        994    1    1    2    0    0 -0.17050955810E+02  0.32957329152E+01  0.26597396459E+01  0.17209913179E+03  0.17120000000E+03 0.  0.
        998    1    1    2    0    0  0.65880425262E+01  0.78982351884E+01  0.14286625964E+04  0.14287346145E+04  0.10000000000E+02 0. -1.
</event>
<event>
 5    1  0.1440459E-008  0.3855334E+03  0.7957747E-01  0.3427413E+00
         13   -1    0    0    0    0  0.00000000000E+00  0.00000000000E+00  0.14999999963E+04  0.15000000000E+04  0.10566000000E+00 0. -1.
        994   -1    0    0    0    0 -0.00000000000E+00 -0.00000000000E+00  0.11368683772E-12  0.17120000000E+03  0.17120000000E+03 0.  0.
         13    1    1    2    0    0 -0.44209345260E+01  0.12727314551E+02  0.68123222546E+02  0.69442881650E+02  0.10566000000E+00 0. -1.
        994    1    1    2    0    0  0.27046647065E+01 -0.56351511470E+01  0.14938033111E+01  0.17132058133E+03  0.17120000000E+03 0.  0.
        998    1    1    2    0    0  0.17162698195E+01 -0.70921634043E+01  0.14303829704E+04  0.14304365370E+04  0.10000000000E+02 0. -1.
</event>
<event>
 5    1  0.1440459E-008  0.3854759E+03  0.7957747E-01  0.3427656E+00
         13   -1    0    0    0    0  0.00000000000E+00  0.00000000000E+00  0.14999999963E+04  0.15000000000E+04  0.10566000000E+00 0.  1.
        994   -1    0    0    0    0 -0.00000000000E+00 -0.00000000000E+00  0.11368683772E-12  0.17120000000E+03  0.17120000000E+03 0.  0.
         13    1    1    2    0    0  0.14868174250E+02 -0.69813303476E+01  0.90987755982E+02  0.92458555481E+02  0.10566000000E+00 0.  1.
        994    1    1    2    0    0 -0.15842970726E+02  0.10738933201E+02  0.25978416510E+01  0.17228613754E+03  0.17120000000E+03 0.  0.
        998    1    1    2    0    0  0.97479647601E+00 -0.37576028533E+01  0.14064143986E+04  0.14064553070E+04  0.10000000000E+02 0.  1.
</event>
<event>
 5    1  0.1440459E-008  0.4041555E+03  0.7957747E-01  0.3352284E+00
         13   -1    0    0    0    0  0.00000000000E+00  0.00000000000E+00  0.14999999963E+04  0.15000000000E+04  0.10566000000E+00 0.  1.
        994   -1    0    0    0    0 -0.00000000000E+00 -0.00000000000E+00  0.11368683772E-12  0.17120000000E+03  0.17120000000E+03 0.  0.
         13    1    1    2    0    0  0.16516387841E+02  0.18318344116E+02 -0.29944778579E+01  0.24846143768E+02  0.10566000000E+00 0.  1.
        994    1    1    2    0    0 -0.17483560280E+02 -0.17121343839E+02  0.32675216112E+02  0.17599978705E+03  0.17120000000E+03 0.  0.
        998    1    1    2    0    0  0.96717243894E+00 -0.11970002773E+01  0.14703192580E+04  0.14703540692E+04  0.10000000000E+02 0.  1.
</event>
<event>
 5    1  0.4099871E-008  0.3864052E+03  0.7957747E-01  0.3423734E+00
         13   -1    0    0    0    0  0.00000000000E+00  0.00000000000E+00  0.14999999963E+04  0.15000000000E+04  0.10566000000E+00 0.  1.
        994   -1    0    0    0    0 -0.00000000000E+00 -0.00000000000E+00  0.11368683772E-12  0.17120000000E+03  0.17120000000E+03 0.  0.
         13    1    1    2    0    0 -0.33414937044E+01  0.94414198111E+01  0.53350165851E+02  0.54282201030E+02  0.10566000000E+00 0.  1.
        994    1    1    2    0    0  0.21768067336E+01 -0.10086533524E+02  0.12827237981E+01  0.17151548626E+03  0.17120000000E+03 0.  0.
        998    1    1    2    0    0  0.11646869707E+01  0.64511371307E+00  0.14453671066E+04  0.14454023127E+04  0.10000000000E+02 0.  1.
</event>
<event>
 5    1  0.1440459E-008  0.3815087E+03  0.7957747E-01  0.3444616E+00
         13   -1    0    0    0    0  0.00000000000E+00  0.00000000000E+00  0.14999999963E+04  0.15000000000E+04  0.10566000000E+00 0. -1.
        994   -1    0    0    0    0 -0.00000000000E+00 -0.00000000000E+00  0.11368683772E-12  0.17120000000E+03  0.17120000000E+03 0.  0.
         13    1    1    2    0    0 -0.13183350992E+02  0.47216940860E+01  0.28598495095E+02  0.31843056137E+02  0.10566000000E+00 0. -1.
        994    1    1    2    0    0 -0.86960038119E+01 -0.25883895045E+02  0.58575549611E+01  0.17346281289E+03  0.17120000000E+03 0.  0.
        998    1    1    2    0    0  0.21879354804E+02  0.21162200959E+02  0.14655439462E+04  0.14658941310E+04  0.10000000000E+02 0. -1.
</event>
<event>
 5    1  0.2325419E-008  0.3860241E+03  0.7957747E-01  0.3425340E+00
         13   -1    0    0    0    0  0.00000000000E+00  0.00000000000E+00  0.14999999963E+04  0.15000000000E+04  0.10566000000E+00 0. -1.
        994   -1    0    0    0    0 -0.00000000000E+00 -0.00000000000E+00  0.11368683772E-12  0.17120000000E+03  0.17120000000E+03 0.  0.
         13    1    1    2    0    0  0.10053476181E+02 -0.59505628758E+01  0.61026026288E+02  0.62134279029E+02  0.10566000000E+00 0. -1.
        994    1    1    2    0    0 -0.89546347734E+01  0.24274160526E+01  0.14047323321E+01  0.17145696575E+03  0.17120000000E+03 0.  0.
        998    1    1    2    0    0 -0.10988414075E+01  0.35231468232E+01  0.14375692377E+04  0.14376087552E+04  0.10000000000E+02 0. -1.
</event>
<event>
 5    1  0.1440459E-008  0.3836961E+03  0.7957747E-01  0.3435221E+00
         13   -1    0    0    0    0  0.00000000000E+00  0.00000000000E+00  0.14999999963E+04  0.15000000000E+04  0.10566000000E+00 0. -1.
        994   -1    0    0    0    0 -0.00000000000E+00 -0.00000000000E+00  0.11368683772E-12  0.17120000000E+03  0.17120000000E+03 0.  0.
         13    1    1    2    0    0  0.53150741187E+01 -0.15533960801E+02  0.55428566897E+02  0.57809092220E+02  0.10566000000E+00 0. -1.
        994    1    1    2    0    0 -0.14032222965E+02  0.18342236046E+02  0.40422611644E+01  0.17279791891E+03  0.17120000000E+03 0.  0.
        998    1    1    2    0    0  0.87171488460E+01 -0.28082752442E+01  0.14405291682E+04  0.14405929889E+04  0.10000000000E+02 0. -1.
</event>
<event>
 5    1  0.1440459E-008  0.3850952E+03  0.7957747E-01  0.3429269E+00
         13   -1    0    0    0    0  0.00000000000E+00  0.00000000000E+00  0.14999999963E+04  0.15000000000E+04  0.10566000000E+00 0.  1.
        994   -1    0    0    0    0 -0.00000000000E+00 -0.00000000000E+00  0.11368683772E-12  0.17120000000E+03  0.17120000000E+03 0.  0.
         13    1    1    2    0    0 -0.12284236289E+02 -0.11397506080E+01  0.47300779976E+02  0.48883294110E+02  0.10566000000E+00 0.  1.
        994    1    1    2    0    0  0.12352009382E+02 -0.10975361190E+02  0.24810397148E+01  0.17201344787E+03  0.17120000000E+03 0.  0.
        998    1    1    2    0    0 -0.67773093715E-01  0.12115111798E+02  0.14502181766E+04  0.14503032580E+04  0.10000000000E+02 0.  1.
</event>
<event>
 5    1  0.1440459E-008  0.2780753E+03  0.7957747E-01  0.4066146E+00
         13   -1    0    0    0    0  0.00000000000E+00  0.00000000000E+00  0.14999999963E+04  0.15000000000E+04  0.10566000000E+00 0.  1.
        994   -1    0    0    0    0 -0.00000000000E+00 -0.00000000000E+00  0.11368683772E-12  0.17120000000E+03  0.17120000000E+03 0.  0.
         13    1    1    2    0    0  0.12747128525E+03 -0.42285202526E+02  0.68699836516E+03  0.70000266558E+03  0.10566000000E+00 0.  1.
        994    1    1    2    0    0 -0.30474159845E+02 -0.11890698646E+02  0.25876996688E+02  0.17620761076E+03  0.17120000000E+03 0.  0.
        998    1    1    2    0    0 -0.96997125403E+02  0.54175901172E+02  0.78712463443E+03  0.79498972366E+03  0.10000000000E+02 0.  1.
</event>
<event>
 5    1  0.1440459E-008  0.3822682E+03  0.7957747E-01  0.3441341E+00
         13   -1    0    0    0    0  0.00000000000E+00  0.00000000000E+00  0.14999999963E+04  0.15000000000E+04  0.10566000000E+00 0.  1.
        994   -1    0    0    0    0 -0.00000000000E+00 -0.00000000000E+00  0.11368683772E-12  0.17120000000E+03  0.17120000000E+03 0.  0.
         13    1    1    2    0    0  0.19811690731E+02  0.25461913122E+01  0.64905575557E+02  0.67909727449E+02  0.10566000000E+00 0.  1.
        994    1    1    2    0    0 -0.15430904742E+02 -0.39784475334E+00  0.37835072285E+01  0.17193611031E+03  0.17120000000E+03 0.  0.
        998    1    1    2    0    0 -0.43807859891E+01 -0.21483465588E+01  0.14313109135E+04  0.14313541622E+04  0.10000000000E+02 0.  1.
</event>
<event>
 5    1  0.1440459E-008  0.3795744E+03  0.7957747E-01  0.3453014E+00
         13   -1    0    0    0    0  0.00000000000E+00  0.00000000000E+00  0.14999999963E+04  0.15000000000E+04  0.10566000000E+00 0. -1.
        994   -1    0    0    0    0 -0.00000000000E+00 -0.00000000000E+00  0.11368683772E-12  0.17120000000E+03  0.17120000000E+03 0.  0.
         13    1    1    2    0    0  0.79427694278E+02  0.12224927250E+02  0.27178368954E+03  0.28341593556E+03  0.10566000000E+00 0. -1.
        994    1    1    2    0    0  0.18300361417E+02 -0.23638841540E+02  0.19333577254E+02  0.17486258967E+03  0.17120000000E+03 0.  0.
        998    1    1    2    0    0 -0.97728055695E+02  0.11413914289E+02  0.12088827295E+04  0.12129214748E+04  0.10000000000E+02 0. -1.
</event>
<event>
 5    1  0.1440459E-008  0.3770493E+03  0.7957747E-01  0.3464108E+00
         13   -1    0    0    0    0  0.00000000000E+00  0.00000000000E+00  0.14999999963E+04  0.15000000000E+04  0.10566000000E+00 0. -1.
        994   -1    0    0    0    0 -0.00000000000E+00 -0.00000000000E+00  0.11368683772E-12  0.17120000000E+03  0.17120000000E+03 0.  0.
         13    1    1    2    0    0  0.85921098971E+02  0.66104881111E+02  0.44703328521E+03  0.45999028230E+03  0.10566000000E+00 0. -1.
        994    1    1    2    0    0 -0.13895506831E+03 -0.71323286499E+02  0.92991603929E+02  0.24970462672E+03  0.17120000000E+03 0.  0.
        998    1    1    2    0    0  0.53033969339E+02  0.52184053876E+01  0.95997510714E+03  0.96150509098E+03  0.10000000000E+02 0. -1.
</event>
<event>
 5    1  0.1440459E-008  0.3828465E+03  0.7957747E-01  0.3438857E+00
         13   -1    0    0    0    0  0.00000000000E+00  0.00000000000E+00  0.14999999963E+04  0.15000000000E+04  0.10566000000E+00 0.  1.
        994   -1    0    0    0    0 -0.00000000000E+00 -0.00000000000E+00  0.11368683772E-12  0.17120000000E+03  0.17120000000E+03 0.  0.
         13    1    1    2    0    0  0.20435914804E+02 -0.40857199618E+01  0.88166136613E+02  0.90595797534E+02  0.10566000000E+00 0.  1.
        994    1    1    2    0    0  0.47455618098E+01  0.23192784084E+01  0.27955134235E+01  0.17130427404E+03  0.17120000000E+03 0.  0.
        998    1    1    2    0    0 -0.25181476614E+02  0.17664415534E+01  0.14090383462E+04  0.14092999284E+04  0.10000000000E+02 0.  1.
</event>
<event>
 5    1  0.1440459E-008  0.3699211E+03  0.7957747E-01  0.3496253E+00
         13   -1    0    0    0    0  0.00000000000E+00  0.00000000000E+00  0.14999999963E+04  0.15000000000E+04  0.10566000000E+00 0.  1.
        994   -1    0    0    0    0 -0.00000000000E+00 -0.00000000000E+00  0.11368683772E-12  0.17120000000E+03  0.17120000000E+03 0.  0.
         13    1    1    2    0    0  0.82907799157E+01  0.66103664258E+01  0.59884075414E-01  0.10604184364E+02  0.10566000000E+00 0.  1.
        994    1    1    2    0    0 -0.59094375471E+01 -0.68101266927E+01  0.11181315684E+02  0.17180151658E+03  0.17120000000E+03 0.  0.
        998    1    1    2    0    0 -0.23813423685E+01  0.19976026691E+00  0.14887587965E+04  0.14887942991E+04  0.10000000000E+02 0.  1.
</event>
<event>
 5    1  0.1440459E-008  0.3804423E+03  0.7957747E-01  0.3449235E+00
         13   -1    0    0    0    0  0.00000000000E+00  0.00000000000E+00  0.14999999963E+04  0.15000000000E+04  0.10566000000E+00 0.  1.
        994   -1    0    0    0    0 -0.00000000000E+00 -0.00000000000E+00  0.11368683772E-12  0.17120000000E+03  0.17120000000E+03 0.  0.
         13    1    1    2    0    0  0.43356753015E+02  0.24475080246E+02  0.26172844226E+03  0.26642189519E+03  0.10566000000E+00 0.  1.
        994    1    1    2    0    0 -0.42558853654E+02 -0.26892311846E+02  0.12416930136E+02  0.17888005091E+03  0.17120000000E+03 0.  0.
        998    1    1    2    0    0 -0.79789936125E+00  0.24172315995E+01  0.12258546239E+04  0.12258980539E+04  0.10000000000E+02 0.  0.
</event>
<event>
 5    1  0.1440459E-008  0.3845980E+03  0.7957747E-01  0.3431379E+00
         13   -1    0    0    0    0  0.00000000000E+00  0.00000000000E+00  0.14999999963E+04  0.15000000000E+04  0.10566000000E+00 0. -1.
        994   -1    0    0    0    0 -0.00000000000E+00 -0.00000000000E+00  0.11368683772E-12  0.17120000000E+03  0.17120000000E+03 0.  0.
         13    1    1    2    0    0  0.98949973589E+00  0.10455114123E+02  0.29306204524E+02  0.31131227228E+02  0.10566000000E+00 0. -1.
        994    1    1    2    0    0 -0.91497704681E+01 -0.99649590913E+01  0.24327455360E+01  0.17175091546E+03  0.17120000000E+03 0.  0.
        998    1    1    2    0    0  0.81602707322E+01 -0.49015503145E+00  0.14682610462E+04  0.14683178573E+04  0.10000000000E+02 0. -1.
</event>
<event>
 5    1  0.1440459E-008  0.3838312E+03  0.7957747E-01  0.3434645E+00
         13   -1    0    0    0    0  0.00000000000E+00  0.00000000000E+00  0.14999999963E+04  0.15000000000E+04  0.10566000000E+00 0. -1.
        994   -1    0    0    0    0 -0.00000000000E+00 -0.00000000000E+00  0.11368683772E-12  0.17120000000E+03  0.17120000000E+03 0.  0.
         13    1    1    2    0    0  0.15374080626E+02 -0.30707588481E+01  0.56711150619E+02  0.58838403136E+02  0.10566000000E+00 0. -1.
        994    1    1    2    0    0 -0.34299711708E+01  0.64909387225E+01  0.23895068559E+01  0.17137399666E+03  0.17120000000E+03 0.  0.
        998    1    1    2    0    0 -0.11944109456E+02 -0.34201798744E+01  0.14408993388E+04  0.14409876002E+04  0.10000000000E+02 0. -1.
</event>
<event>
 5    1  0.1440459E-008  0.3839788E+03  0.7957747E-01  0.3434015E+00
         13   -1    0    0    0    0  0.00000000000E+00  0.00000000000E+00  0.14999999963E+04  0.15000000000E+04  0.10566000000E+00 0.  1.
        994   -1    0    0    0    0 -0.00000000000E+00 -0.00000000000E+00  0.11368683772E-12  0.17120000000E+03  0.17120000000E+03 0.  0.
         13    1    1    2    0    0  0.26468275861E+02 -0.80928920050E+01  0.16570779933E+03  0.16800342393E+03  0.10566000000E+00 0.  1.
        994    1    1    2    0    0 -0.21592011311E+02  0.15299236524E+02  0.44520238107E+01  0.17329034049E+03  0.17120000000E+03 0.  0.
        998    1    1    2    0    0 -0.48762645498E+01 -0.72063445185E+01  0.13298401731E+04  0.13299062356E+04  0.10000000000E+02 0.  1.
</event>
<event>
 5    1  0.1440459E-008  0.4013203E+03  0.7957747E-01  0.3363274E+00
         13   -1    0    0    0    0  0.00000000000E+00  0.00000000000E+00  0.14999999963E+04  0.15000000000E+04  0.10566000000E+00 0.  1.
        994   -1    0    0    0    0 -0.00000000000E+00 -0.00000000000E+00  0.11368683772E-12  0.17120000000E+03  0.17120000000E+03 0.  0.
         13    1    1    2    0    0 -0.31925926006E+02  0.75419782083E+01  0.61344221313E+01  0.33373469786E+02  0.10566000000E+00 0.  1.
        994    1    1    2    0    0  0.45187095070E+02 -0.40871391816E+02  0.43330567196E+02  0.18681360305E+03  0.17120000000E+03 0.  0.
        998    1    1    2    0    0 -0.13261169064E+02  0.33329413607E+02  0.14505350070E+04  0.14510129272E+04  0.10000000000E+02 0.  1.
</event>
<event>
 5    1  0.1440459E-008  0.3846289E+03  0.7957747E-01  0.3431248E+00
         13   -1    0    0    0    0  0.00000000000E+00  0.00000000000E+00  0.14999999963E+04  0.15000000000E+04  0.10566000000E+00 0. -1.
        994   -1    0    0    0    0 -0.00000000000E+00 -0.00000000000E+00  0.11368683772E-12  0.17120000000E+03  0.17120000000E+03 0.  0.
         13    1    1    2    0    0 -0.16036601869E+02  0.10400526708E+02  0.11020407222E+03  0.11184941776E+03  0.10566000000E+00 0. -1.
        994    1    1    2    0    0 -0.19397603960E+01 -0.41337885893E+01  0.18831592683E+01  0.17127123859E+03  0.17120000000E+03 0.  0.
        998    1    1    2    0    0  0.17976362265E+02 -0.62667381188E+01  0.13879127648E+04  0.13880793437E+04  0.10000000000E+02 0. -1.
</event>
<event>
 5    1  0.1440459E-008  0.3796029E+03  0.7957747E-01  0.3452889E+00
         13   -1    0    0    0    0  0.00000000000E+00  0.00000000000E+00  0.14999999963E+04  0.15000000000E+04  0.10566000000E+00 0.  1.
        994   -1    0    0    0    0 -0.00000000000E+00 -0.00000000000E+00  0.11368683772E-12  0.17120000000E+03  0.17120000000E+03 0.  0.
         13    1    1    2    0    0 -0.27669200865E+01  0.31373155705E+02  0.11452107107E+03  0.11877296674E+03  0.10566000000E+00 0.  1.
        994    1    1    2    0    0  0.10084201920E+02 -0.15615932149E+02  0.54912443724E+01  0.17229376724E+03  0.17120000000E+03 0.  0.
        998    1    1    2    0    0 -0.73172818332E+01 -0.15757223556E+02  0.13799876808E+04  0.13801332660E+04  0.10000000000E+02 0.  1.
</event>
<event>
 5    1  0.1440459E-008  0.3808733E+03  0.7957747E-01  0.3447365E+00
         13   -1    0    0    0    0  0.00000000000E+00  0.00000000000E+00  0.14999999963E+04  0.15000000000E+04  0.10566000000E+00 0. -1.
        994   -1    0    0    0    0 -0.00000000000E+00 -0.00000000000E+00  0.11368683772E-12  0.17120000000E+03  0.17120000000E+03 0.  0.
         13    1    1    2    0    0  0.63110774309E+01 -0.21215735317E+02  0.73359469878E+02  0.76626105919E+02  0.10566000000E+00 0. -1.
        994    1    1    2    0    0  0.94287938293E+01 -0.90934940553E+01  0.42651152251E+01  0.17175338423E+03  0.17120000000E+03 0.  0.
        998    1    1    2    0    0 -0.15739871260E+02  0.30309229373E+02  0.14223754112E+04  0.14228205098E+04  0.10000000000E+02 0. -1.
</event>
<event>
 5    1  0.1440459E-008  0.3942436E+03  0.7957747E-01  0.3391391E+00
         13   -1    0    0    0    0  0.00000000000E+00  0.00000000000E+00  0.14999999963E+04  0.15000000000E+04  0.10566000000E+00 0.  1.
        994   -1    0    0    0    0 -0.00000000000E+00 -0.00000000000E+00  0.11368683772E-12  0.17120000000E+03  0.17120000000E+03 0.  0.
         13    1    1    2    0    0  0.16423137716E+02 -0.46533802418E+02  0.40275214262E+02  0.63696297127E+02  0.10566000000E+00 0.  1.
        994    1    1    2    0    0 -0.18778468773E+02  0.41330433725E+02  0.32306351875E+02  0.18003881807E+03  0.17120000000E+03 0.  0.
        998    1    1    2    0    0  0.23553310565E+01  0.52033686924E+01  0.14274184301E+04  0.14274648848E+04  0.10000000000E+02 0.  1.
</event>
<event>
 5    1  0.1440459E-008  0.3745315E+03  0.7957747E-01  0.3475321E+00
         13   -1    0    0    0    0  0.00000000000E+00  0.00000000000E+00  0.14999999963E+04  0.15000000000E+04  0.10566000000E+00 0.  1.
        994   -1    0    0    0    0 -0.00000000000E+00 -0.00000000000E+00  0.11368683772E-12  0.17120000000E+03  0.17120000000E+03 0.  0.
         13    1    1    2    0    0  0.15319370278E+02 -0.15991595824E+02  0.33914286324E+02  0.40504372896E+02  0.10566000000E+00 0.  1.
        994    1    1    2    0    0  0.30932354546E+01  0.41019011193E+01  0.70093927116E+01  0.17142043427E+03  0.17120000000E+03 0.  0.
        998    1    1    2    0    0 -0.18412605733E+02  0.11889694705E+02  0.14590763172E+04  0.14592751928E+04  0.10000000000E+02 0.  1.
</event>
<event>
 5    1  0.1440459E-008  0.3800207E+03  0.7957747E-01  0.3451068E+00
         13   -1    0    0    0    0  0.00000000000E+00  0.00000000000E+00  0.14999999963E+04  0.15000000000E+04  0.10566000000E+00 0. -1.
        994   -1    0    0    0    0 -0.00000000000E+00 -0.00000000000E+00  0.11368683772E-12  0.17120000000E+03  0.17120000000E+03 0.  0.
         13    1    1    2    0    0 -0.21773146029E+02  0.22754571448E+02  0.12198325178E+03  0.12598319447E+03  0.10566000000E+00 0. -1.
        994    1    1    2    0    0  0.84961667910E+01 -0.11721004459E+02  0.48235134977E+01  0.17187865801E+03  0.17120000000E+03 0.  0.
        998    1    1    2    0    0  0.13276979238E+02 -0.11033566989E+02  0.13731932310E+04  0.13733381475E+04  0.10000000000E+02 0. -1.
</event>
<event>
 5    1  0.1440459E-008  0.3775127E+03  0.7957747E-01  0.3462061E+00
         13   -1    0    0    0    0  0.00000000000E+00  0.00000000000E+00  0.14999999963E+04  0.15000000000E+04  0.10566000000E+00 0.  1.
        994   -1    0    0    0    0 -0.00000000000E+00 -0.00000000000E+00  0.11368683772E-12  0.17120000000E+03  0.17120000000E+03 0.  0.
         13    1    1    2    0    0  0.64306828394E+02  0.64961486313E+02  0.52928002155E+03  0.53711517876E+03  0.10566000000E+00 0.  1.
        994    1    1    2    0    0 -0.60789798773E+02 -0.60791967413E+02  0.30726365554E+02  0.19402219584E+03  0.17120000000E+03 0.  0.
        998    1    1    2    0    0 -0.35170296209E+01 -0.41695188995E+01  0.93999360918E+03  0.94006262540E+03  0.10000000000E+02 0.  1.
</event>
<event>
 5    1  0.1440459E-008  0.3804460E+03  0.7957747E-01  0.3449219E+00
         13   -1    0    0    0    0  0.00000000000E+00  0.00000000000E+00  0.14999999963E+04  0.15000000000E+04  0.10566000000E+00 0. -1.
        994   -1    0    0    0    0 -0.00000000000E+00 -0.00000000000E+00  0.11368683772E-12  0.17120000000E+03  0.17120000000E+03 0.  0.
         13    1    1    2    0    0 -0.29297794043E+02  0.37045168090E+02  0.21801292446E+03  0.22307028401E+03  0.10566000000E+00 0. -1.
        994    1    1    2    0    0  0.28514211830E+02 -0.56564304383E+02  0.17420305055E+02  0.18337253839E+03  0.17120000000E+03 0.  0.
        998    1    1    2    0    0  0.78358221274E+00  0.19519136293E+02  0.12645667668E+04  0.12647571776E+04  0.10000000000E+02 0. -1.
</event>
<event>
 5    1  0.1440459E-008  0.3848195E+03  0.7957747E-01  0.3430438E+00
         13   -1    0    0    0    0  0.00000000000E+00  0.00000000000E+00  0.14999999963E+04  0.15000000000E+04  0.10566000000E+00 0.  1.
        994   -1    0    0    0    0 -0.00000000000E+00 -0.00000000000E+00  0.11368683772E-12  0.17120000000E+03  0.17120000000E+03 0.  0.
         13    1    1    2    0    0  0.10426430629E+02 -0.73807145394E+01  0.45558726126E+02  0.47315896832E+02  0.10566000000E+00 0.  1.
        994    1    1    2    0    0 -0.14231022867E+02  0.71300810513E+01  0.25539389347E+01  0.17195732805E+03  0.17120000000E+03 0.  0.
        998    1    1    2    0    0  0.38045922388E+01  0.25063348807E+00  0.14518873312E+04  0.14519267751E+04  0.10000000000E+02 0.  1.
</event>
<event>
 5    1  0.1440459E-008  0.3733266E+03  0.7957747E-01  0.3480741E+00
         13   -1    0    0    0    0  0.00000000000E+00  0.00000000000E+00  0.14999999963E+04  0.15000000000E+04  0.10566000000E+00 0. -1.
        994   -1    0    0    0    0 -0.00000000000E+00 -0.00000000000E+00  0.11368683772E-12  0.17120000000E+03  0.17120000000E+03 0.  0.
         13    1    1    2    0    0  0.87349732721E+01 -0.87923193608E+01  0.67169712573E+01  0.14097287140E+02  0.10566000000E+00 0. -1.
        994    1    1    2    0    0 -0.73834632317E+01  0.77846875628E+01  0.79342027834E+01  0.17171927225E+03  0.17120000000E+03 0.  0.
        998    1    1    2    0    0 -0.13515100404E+01  0.10076317980E+01  0.14853488222E+04  0.14853834406E+04  0.10000000000E+02 0. -1.
</event>
<event>
 5    1  0.1440459E-008  0.3769823E+03  0.7957747E-01  0.3464404E+00
         13   -1    0    0    0    0  0.00000000000E+00  0.00000000000E+00  0.14999999963E+04  0.15000000000E+04  0.10566000000E+00 0.  1.
        994   -1    0    0    0    0 -0.00000000000E+00 -0.00000000000E+00  0.11368683772E-12  0.17120000000E+03  0.17120000000E+03 0.  0.
         13    1    1    2    0    0  0.40278473672E+00  0.11003725300E+02  0.80487635944E+01  0.13639573507E+02  0.10566000000E+00 0.  1.
        994    1    1    2    0    0  0.74246644962E+00 -0.12605641389E+02  0.62028544292E+01  0.17177709060E+03  0.17120000000E+03 0.  0.
        998    1    1    2    0    0 -0.11452511863E+01  0.16019160892E+01  0.14857483783E+04  0.14857833359E+04  0.10000000000E+02 0.  1.
</event>
<event>
 5    1  0.1440459E-008  0.3776364E+03  0.7957747E-01  0.3461515E+00
         13   -1    0    0    0    0  0.00000000000E+00  0.00000000000E+00  0.14999999963E+04  0.15000000000E+04  0.10566000000E+00 0.  1.
        994   -1    0    0    0    0 -0.00000000000E+00 -0.00000000000E+00  0.11368683772E-12  0.17120000000E+03  0.17120000000E+03 0.  0.
         13    1    1    2    0    0  0.45771785763E+02 -0.34766775388E+02  0.97398940076E+02  0.11309442840E+03  0.10566000000E+00 0.  1.
        994    1    1    2    0    0 -0.48210438428E+02  0.36540792916E+02  0.28300948617E+02  0.18376577378E+03  0.17120000000E+03 0.  0.
        998    1    1    2    0    0  0.24386526644E+01 -0.17740175278E+01  0.13743001076E+04  0.13743397978E+04  0.10000000000E+02 0.  1.
</event>
<event>
 5    1  0.1440459E-008  0.3860817E+03  0.7957747E-01  0.3425098E+00
         13   -1    0    0    0    0  0.00000000000E+00  0.00000000000E+00  0.14999999963E+04  0.15000000000E+04  0.10566000000E+00 0. -1.
        994   -1    0    0    0    0 -0.00000000000E+00 -0.00000000000E+00  0.11368683772E-12  0.17120000000E+03  0.17120000000E+03 0.  0.
         13    1    1    2    0    0 -0.51891128571E+01 -0.88003332582E+01  0.47181469892E+02  0.48274993764E+02  0.10566000000E+00 0. -1.
        994    1    1    2    0    0  0.81660084001E+01  0.74599739426E+01  0.14950718713E+01  0.17156342892E+03  0.17120000000E+03 0.  0.
        998    1    1    2    0    0 -0.29768955430E+01  0.13403593157E+01  0.14513234545E+04  0.14513615773E+04  0.10000000000E+02 0. -1.
</event>
<event>
 5    1  0.1440459E-008  0.3792140E+03  0.7957747E-01  0.3454588E+00
         13   -1    0    0    0    0  0.00000000000E+00  0.00000000000E+00  0.14999999963E+04  0.15000000000E+04  0.10566000000E+00 0.  1.
        994   -1    0    0    0    0 -0.00000000000E+00 -0.00000000000E+00  0.11368683772E-12  0.17120000000E+03  0.17120000000E+03 0.  0.
         13    1    1    2    0    0  0.75458479792E+02 -0.54633175364E+01  0.40423789265E+03  0.41125675074E+03  0.10566000000E+00 0.  1.
        994    1    1    2    0    0 -0.86848206316E+02  0.88423938776E+01  0.30511567834E+02  0.19457953295E+03  0.17120000000E+03 0.  0.
        998    1    1    2    0    0  0.11389726524E+02 -0.33790763412E+01  0.10652505358E+04  0.10653637163E+04  0.10000000000E+02 0.  1.
</event>
<event>
 5    1  0.1440459E-008  0.3851137E+03  0.7957747E-01  0.3429190E+00
         13   -1    0    0    0    0  0.00000000000E+00  0.00000000000E+00  0.14999999963E+04  0.15000000000E+04  0.10566000000E+00 0. -1.
        994   -1    0    0    0    0 -0.00000000000E+00 -0.00000000000E+00  0.11368683772E-12  0.17120000000E+03  0.17120000000E+03 0.  0.
         13    1    1    2    0    0  0.17088297397E+02 -0.16200463719E+01  0.95312998821E+02  0.96846338942E+02  0.10566000000E+00 0. -1.
        994    1    1    2    0    0 -0.89175119802E+01  0.37938187542E+00  0.18356594239E+01  0.17144233898E+03  0.17120000000E+03 0.  0.
        998    1    1    2    0    0 -0.81707854163E+01  0.12406644964E+01  0.14028513380E+04  0.14029113221E+04  0.10000000000E+02 0. -1.
</event>
<event>
 5    1  0.1440459E-008  0.3762384E+03  0.7957747E-01  0.3467703E+00
         13   -1    0    0    0    0  0.00000000000E+00  0.00000000000E+00  0.14999999963E+04  0.15000000000E+04  0.10566000000E+00 0. -1.
        994   -1    0    0    0    0 -0.00000000000E+00 -0.00000000000E+00  0.11368683772E-12  0.17120000000E+03  0.17120000000E+03 0.  0.
         13    1    1    2    0    0 -0.22838984500E+02  0.49755283141E+01  0.42274554868E+02  0.48306565272E+02  0.10566000000E+00 0. -1.
        994    1    1    2    0    0  0.19214920731E+02 -0.40349720094E+01  0.73501789623E+01  0.17247886627E+03  0.17120000000E+03 0.  0.
        998    1    1    2    0    0  0.36240637691E+01 -0.94055630473E+00  0.14503752624E+04  0.14504145685E+04  0.10000000000E+02 0. -1.
</event>
<event>
 5    1  0.1440459E-008  0.3846776E+03  0.7957747E-01  0.3431041E+00
         13   -1    0    0    0    0  0.00000000000E+00  0.00000000000E+00  0.14999999963E+04  0.15000000000E+04  0.10566000000E+00 0. -1.
        994   -1    0    0    0    0 -0.00000000000E+00 -0.00000000000E+00  0.11368683772E-12  0.17120000000E+03  0.17120000000E+03 0.  0.
         13    1    1    2    0    0  0.75020025544E+01 -0.22464686214E+02  0.13602505780E+03  0.13807161070E+03  0.10566000000E+00 0. -1.
        994    1    1    2    0    0 -0.19817850133E+02  0.26107542848E+02  0.53351486984E+01  0.17439109722E+03  0.17120000000E+03 0.  0.
        998    1    1    2    0    0  0.12315847579E+02 -0.36428566336E+01  0.13586397898E+04  0.13587372921E+04  0.10000000000E+02 0. -1.
</event>
<event>
 5    1  0.1440459E-008  0.3860216E+03  0.7957747E-01  0.3425351E+00
         13   -1    0    0    0    0  0.00000000000E+00  0.00000000000E+00  0.14999999963E+04  0.15000000000E+04  0.10566000000E+00 0.  1.
        994   -1    0    0    0    0 -0.00000000000E+00 -0.00000000000E+00  0.11368683772E-12  0.17120000000E+03  0.17120000000E+03 0.  0.
         13    1    1    2    0    0 -0.15394319355E+01 -0.14437111019E+02  0.84894262276E+02  0.86126923529E+02  0.10566000000E+00 0.  1.
        994    1    1    2    0    0 -0.27461128488E+00  0.22705754639E+02  0.28157365469E+01  0.17272230625E+03  0.17120000000E+03 0.  0.
        998    1    1    2    0    0  0.18140432204E+01 -0.82686436200E+01  0.14122899975E+04  0.14123507702E+04  0.10000000000E+02 0.  1.
</event>
<event>
 5    1  0.1440459E-008  0.3766223E+03  0.7957747E-01  0.3465999E+00
         13   -1    0    0    0    0  0.00000000000E+00  0.00000000000E+00  0.14999999963E+04  0.15000000000E+04  0.10566000000E+00 0.  1.
        994   -1    0    0    0    0 -0.00000000000E+00 -0.00000000000E+00  0.11368683772E-12  0.17120000000E+03  0.17120000000E+03 0.  0.
         13    1    1    2    0    0 -0.10674430666E+03 -0.68013119997E+02  0.70751623218E+03  0.71874846884E+03  0.10566000000E+00 0.  1.
        994    1    1    2    0    0  0.89775192930E+02  0.97810206479E+02  0.67971641313E+02  0.22705947631E+03  0.17120000000E+03 0.  0.
        998    1    1    2    0    0  0.16969113734E+02 -0.29797086482E+02  0.72451212278E+03  0.72539205485E+03  0.10000000000E+02 0. -1.
</event>
<event>
 5    1  0.1440459E-008  0.3854858E+03  0.7957747E-01  0.3427614E+00
         13   -1    0    0    0    0  0.00000000000E+00  0.00000000000E+00  0.14999999963E+04  0.15000000000E+04  0.10566000000E+00 0. -1.
        994   -1    0    0    0    0 -0.00000000000E+00 -0.00000000000E+00  0.11368683772E-12  0.17120000000E+03  0.17120000000E+03 0.  0.
         13    1    1    2    0    0  0.63139383216E+00  0.13064198036E+02  0.68328959409E+02  0.69569603898E+02  0.10566000000E+00 0. -1.
        994    1    1    2    0    0  0.28318644743E+01  0.50784581794E+01  0.15001472217E+01  0.17130528490E+03  0.17120000000E+03 0.  0.
        998    1    1    2    0    0 -0.34632583064E+01 -0.18142656216E+02  0.14301708896E+04  0.14303251112E+04  0.10000000000E+02 0. -1.
</event>
<event>
 5    1  0.1694330E-008  0.3863399E+03  0.7957747E-01  0.3424009E+00
         13   -1    0    0    0    0  0.00000000000E+00  0.00000000000E+00  0.14999999963E+04  0.15000000000E+04  0.10566000000E+00 0.  1.
        994   -1    0    0    0    0 -0.00000000000E+00 -0.00000000000E+00  0.11368683772E-12  0.17120000000E+03  0.17120000000E+03 0.  0.
         13    1    1    2    0    0 -0.30772998603E+01  0.10074486300E+02  0.61457883636E+02  0.62354211355E+02  0.10566000000E+00 0.  1.
        994    1    1    2    0    0  0.60831401145E+01  0.92274918362E+00  0.10903103668E+01  0.17131399486E+03  0.17120000000E+03 0.  0.
        998    1    1    2    0    0 -0.30058402542E+01 -0.10997235484E+02  0.14374518023E+04  0.14375317938E+04  0.10000000000E+02 0.  1.
</event>
<event>
 5    1  0.1440459E-008  0.3780763E+03  0.7957747E-01  0.3459578E+00
         13   -1    0    0    0    0  0.00000000000E+00  0.00000000000E+00  0.14999999963E+04  0.15000000000E+04  0.10566000000E+00 0.  1.
        994   -1    0    0    0    0 -0.00000000000E+00 -0.00000000000E+00  0.11368683772E-12  0.17120000000E+03  0.17120000000E+03 0.  0.
         13    1    1    2    0    0 -0.53609169155E+02  0.11179138887E+03  0.73936041040E+03  0.74968332332E+03  0.10566000000E+00 0.  1.
        994    1    1    2    0    0  0.59429301945E+02 -0.10767527617E+03  0.57810345951E+02  0.21858015264E+03  0.17120000000E+03 0.  0.
        998    1    1    2    0    0 -0.58201327896E+01 -0.41161127035E+01  0.70282923993E+03  0.70293652404E+03  0.10000000000E+02 0.  1.
</event>
<event>
 5    1  0.1440459E-008  0.3789766E+03  0.7957747E-01  0.3455627E+00
         13   -1    0    0    0    0  0.00000000000E+00  0.00000000000E+00  0.14999999963E+04  0.15000000000E+04  0.10566000000E+00 0. -1.
        994   -1    0    0    0    0 -0.00000000000E+00 -0.00000000000E+00  0.11368683772E-12  0.17120000000E+03  0.17120000000E+03 0.  0.
         13    1    1    2    0    0  0.17403567837E+01  0.14831035364E+02  0.21819463993E+02  0.26440284126E+02  0.10566000000E+00 0. -1.
        994    1    1    2    0    0  0.86719823548E+00 -0.14214235212E+02  0.53311601493E+01  0.17187395900E+03  0.17120000000E+03 0.  0.
        998    1    1    2    0    0 -0.26075550192E+01 -0.61680015205E+00  0.14728493721E+04  0.14728857569E+04  0.10000000000E+02 0. -1.
</event>
<event>
 5    1  0.2141538E-008  0.3863502E+03  0.7957747E-01  0.3423966E+00
         13   -1    0    0    0    0  0.00000000000E+00  0.00000000000E+00  0.14999999963E+04  0.15000000000E+04  0.10566000000E+00 0.  1.
        994   -1    0    0    0    0 -0.00000000000E+00 -0.00000000000E+00  0.11368683772E-12  0.17120000000E+03  0.17120000000E+03 0.  0.
         13    1    1    2    0    0  0.11432105121E+02  0.28370350652E+01  0.70686629658E+02  0.71661374338E+02  0.10566000000E+00 0.  1.
        994    1    1    2    0    0 -0.11773425070E+02 -0.39008972048E+01  0.14651316471E+01  0.17165493628E+03  0.17120000000E+03 0.  0.
        998    1    1    2    0    0  0.34131994876E+00  0.10638621396E+01  0.14278482350E+04  0.14278836894E+04  0.10000000000E+02 0.  1.
</event>
<event>
 5    1  0.1440459E-008  0.3855452E+03  0.7957747E-01  0.3427363E+00
         13   -1    0    0    0    0  0.00000000000E+00  0.00000000000E+00  0.14999999963E+04  0.15000000000E+04  0.10566000000E+00 0. -1.
        994   -1    0    0    0    0 -0.00000000000E+00 -0.00000000000E+00  0.11368683772E-12  0.17120000000E+03  0.17120000000E+03 0.  0.
         13    1    1    2    0    0 -0.77847630612E+01  0.12325546388E+02  0.78046371792E+02  0.79396277895E+02  0.10566000000E+00 0. -1.
        994    1    1    2    0    0 -0.29418046726E+01 -0.14419466011E+02  0.20710125746E+01  0.17184383698E+03  0.17120000000E+03 0.  0.
        998    1    1    2    0    0  0.10726567734E+02  0.20939196238E+01  0.14198826119E+04  0.14199598851E+04  0.10000000000E+02 0. -1.
</event>
<event>
 5    1  0.1440459E-008  0.3840689E+03  0.7957747E-01  0.3433631E+00
         13   -1    0    0    0    0  0.00000000000E+00  0.00000000000E+00  0.14999999963E+04  0.15000000000E+04  0.10566000000E+00 0. -1.
        994   -1    0    0    0    0 -0.00000000000E+00 -0.00000000000E+00  0.11368683772E-12  0.17120000000E+03  0.17120000000E+03 0.  0.
         13    1    1    2    0    0 -0.20086238169E+02 -0.19425682910E+01  0.95619317184E+02  0.97725613419E+02  0.10566000000E+00 0. -1.
        994    1    1    2    0    0  0.14374077963E+02  0.36121892269E+01  0.28180448254E+01  0.17186344406E+03  0.17120000000E+03 0.  0.
        998    1    1    2    0    0  0.57121602061E+01 -0.16696209359E+01  0.14015626343E+04  0.14016109425E+04  0.10000000000E+02 0. -1.
</event>
<event>
 5    1  0.1440459E-008  0.3819847E+03  0.7957747E-01  0.3442562E+00
         13   -1    0    0    0    0  0.00000000000E+00  0.00000000000E+00  0.14999999963E+04  0.15000000000E+04  0.10566000000E+00 0. -1.
        994   -1    0    0    0    0 -0.00000000000E+00 -0.00000000000E+00  0.11368683772E-12  0.17120000000E+03  0.17120000000E+03 0.  0.
         13    1    1    2    0    0  0.83878592540E+01 -0.21781344222E+02  0.87768070327E+02  0.90818657070E+02  0.10566000000E+00 0. -1.
        994    1    1    2    0    0  0.29823353895E+01  0.12526779798E+02  0.36855126526E+01  0.17172314212E+03  0.17120000000E+03 0.  0.
        998    1    1    2    0    0 -0.11370194644E+02  0.92545644244E+01  0.14085464133E+04  0.14086582008E+04  0.10000000000E+02 0. -1.
</event>
<event>
 5    1  0.1440459E-008  0.3801398E+03  0.7957747E-01  0.3450550E+00
         13   -1    0    0    0    0  0.00000000000E+00  0.00000000000E+00  0.14999999963E+04  0.15000000000E+04  0.10566000000E+00 0. -1.
        994   -1    0    0    0    0 -0.00000000000E+00 -0.00000000000E+00  0.11368683772E-12  0.17120000000E+03  0.17120000000E+03 0.  0.
         13    1    1    2    0    0  0.20982677581E+02  0.42841351399E+02  0.25232146917E+03  0.25679133380E+03  0.10566000000E+00 0. -1.
        994    1    1    2    0    0 -0.34725233672E+02 -0.27271899616E+02  0.10604571544E+02  0.17712000254E+03  0.17120000000E+03 0.  0.
        998    1    1    2    0    0  0.13742556090E+02 -0.15569451783E+02  0.12370739556E+04  0.12372886637E+04  0.10000000000E+02 0. -1.
</event>
<event>
 5    1  0.1440459E-008  0.3826016E+03  0.7957747E-01  0.3439908E+00
         13   -1    0    0    0    0  0.00000000000E+00  0.00000000000E+00  0.14999999963E+04  0.15000000000E+04  0.10566000000E+00 0. -1.
        994   -1    0    0    0    0 -0.00000000000E+00 -0.00000000000E+00  0.11368683772E-12  0.17120000000E+03  0.17120000000E+03 0.  0.
         13    1    1    2    0    0  0.18019762121E+02  0.15783484017E+02  0.99982160287E+02  0.10281183655E+03  0.10566000000E+00 0. -1.
        994    1    1    2    0    0 -0.62574563256E+01 -0.17165316841E+02  0.39327628183E+01  0.17221704470E+03  0.17120000000E+03 0.  0.
        998    1    1    2    0    0 -0.11762305796E+02  0.13818328244E+01  0.13960850732E+04  0.13961711188E+04  0.10000000000E+02 0. -1.
</event>
<event>
 5    1  0.1794098E-008  0.3862820E+03  0.7957747E-01  0.3424253E+00
         13   -1    0    0    0    0  0.00000000000E+00  0.00000000000E+00  0.14999999963E+04  0.15000000000E+04  0.10566000000E+00 0. -1.
        994   -1    0    0    0    0 -0.00000000000E+00 -0.00000000000E+00  0.11368683772E-12  0.17120000000E+03  0.17120000000E+03 0.  0.
         13    1    1    2    0    0 -0.66710385555E+01 -0.10833546659E+02  0.74641321149E+02  0.75717940249E+02  0.10566000000E+00 0. -1.
        994    1    1    2    0    0  0.83680209264E+01  0.18912713989E+02  0.23970000074E+01  0.17246130039E+03  0.17120000000E+03 0.  0.
        998    1    1    2    0    0 -0.16969823709E+01 -0.80791673306E+01  0.14229616751E+04  0.14230207594E+04  0.10000000000E+02 0. -1.
</event>
<event>
 5    1  0.1440459E-008  0.3731986E+03  0.7957747E-01  0.3481319E+00
         13   -1    0    0    0    0  0.00000000000E+00  0.00000000000E+00  0.14999999963E+04  0.15000000000E+04  0.10566000000E+00 0. -1.
        994   -1    0    0    0    0 -0.00000000000E+00 -0.00000000000E+00  0.11368683772E-12  0.17120000000E+03  0.17120000000E+03 0.  0.
         13    1    1    2    0    0 -0.22498987792E+01  0.16315859899E+02  0.14133176514E+02  0.21703160396E+02  0.10566000000E+00 0. -1.
        994    1    1    2    0    0 -0.42844522915E+01 -0.23310481604E+02  0.95302270446E+01  0.17309535035E+03  0.17120000000E+03 0.  0.
        998    1    1    2    0    0  0.65343510707E+01  0.69946217051E+01  0.14763365927E+04  0.14764014893E+04  0.10000000000E+02 0. -1.
</event>
<event>
 5    1  0.1440459E-008  0.3862571E+03  0.7957747E-01  0.3424358E+00
         13   -1    0    0    0    0  0.00000000000E+00  0.00000000000E+00  0.14999999963E+04  0.15000000000E+04  0.10566000000E+00 0.  1.
        994   -1    0    0    0    0 -0.00000000000E+00 -0.00000000000E+00  0.11368683772E-12  0.17120000000E+03  0.17120000000E+03 0.  0.
         13    1    1    2    0    0 -0.22873994723E+01 -0.12579477666E+02  0.68044814466E+02  0.69235708954E+02  0.10566000000E+00 0.  1.
        994    1    1    2    0    0  0.27909362923E+02  0.29125876296E+02  0.63552543101E+01  0.17600306380E+03  0.17120000000E+03 0.  0.
        998    1    1    2    0    0 -0.25621963451E+02 -0.16546398629E+02  0.14255999275E+04  0.14259612272E+04  0.10000000000E+02 0.  1.
</event>
<event>
 5    1  0.1440459E-008  0.3799885E+03  0.7957747E-01  0.3451208E+00
         13   -1    0    0    0    0  0.00000000000E+00  0.00000000000E+00  0.14999999963E+04  0.15000000000E+04  0.10566000000E+00 0.  1.
        994   -1    0    0    0    0 -0.00000000000E+00 -0.00000000000E+00  0.11368683772E-12  0.17120000000E+03  0.17120000000E+03 0.  0.
         13    1    1    2    0    0  0.52331112508E+02  0.10784172113E+01  0.27710177317E+03  0.28200197194E+03  0.10566000000E+00 0.  1.
        994    1    1    2    0    0 -0.49896380714E+02  0.17267028381E+01  0.12517316341E+02  0.17877011361E+03  0.17120000000E+03 0.  0.
        998    1    1    2    0    0 -0.24347317936E+01 -0.28051200494E+01  0.12103809068E+04  0.12104279144E+04  0.10000000000E+02 0.  0.
</event>
<event>
 5    1  0.1440459E-008  0.3833623E+03  0.7957747E-01  0.3436648E+00
         13   -1    0    0    0    0  0.00000000000E+00  0.00000000000E+00  0.14999999963E+04  0.15000000000E+04  0.10566000000E+00 0.  1.
        994   -1    0    0    0    0 -0.00000000000E+00 -0.00000000000E+00  0.11368683772E-12  0.17120000000E+03  0.17120000000E+03 0.  0.
         13    1    1    2    0    0 -0.41700106214E+01  0.10205718336E+02  0.24045269350E+02  0.26452444452E+02  0.10566000000E+00 0.  1.
        994    1    1    2    0    0  0.11682770237E+02 -0.30947165415E+01  0.29284783575E+01  0.17165104246E+03  0.17120000000E+03 0.  0.
        998    1    1    2    0    0 -0.75127596159E+01 -0.71110017942E+01  0.14730262486E+04  0.14730965131E+04  0.10000000000E+02 0.  1.
</event>
<event>
 5    1  0.1440459E-008  0.3795528E+03  0.7957747E-01  0.3453108E+00
         13   -1    0    0    0    0  0.00000000000E+00  0.00000000000E+00  0.14999999963E+04  0.15000000000E+04  0.10566000000E+00 0. -1.
        994   -1    0    0    0    0 -0.00000000000E+00 -0.00000000000E+00  0.11368683772E-12  0.17120000000E+03  0.17120000000E+03 0.  0.
         13    1    1    2    0    0 -0.11899433895E+02  0.25145488198E+02  0.92904470473E+02  0.96980121168E+02  0.10566000000E+00 0. -1.
        994    1    1    2    0    0  0.94596215888E+01 -0.25476931030E+00  0.46588985956E+01  0.17152461830E+03  0.17120000000E+03 0.  0.
        998    1    1    2    0    0  0.24398123065E+01 -0.24890718888E+02  0.14024366272E+04  0.14026952605E+04  0.10000000000E+02 0. -1.
</event>
<event>
 5    1  0.1440459E-008  0.3863867E+03  0.7957747E-01  0.3423812E+00
         13   -1    0    0    0    0  0.00000000000E+00  0.00000000000E+00  0.14999999963E+04  0.15000000000E+04  0.10566000000E+00 0.  1.
        994   -1    0    0    0    0 -0.00000000000E+00 -0.00000000000E+00  0.11368683772E-12  0.17120000000E+03  0.17120000000E+03 0.  0.
         13    1    1    2    0    0 -0.24593819501E+02 -0.35220539963E+02  0.38169364035E+02  0.57465240866E+02  0.10566000000E+00 0.  1.
        994    1    1    2    0    0  0.43969784657E+02  0.16900101343E+02  0.28160225383E+02  0.17978151652E+03  0.17120000000E+03 0.  0.
        998    1    1    2    0    0 -0.19375965156E+02  0.18320438621E+02  0.14336704069E+04  0.14339532426E+04  0.10000000000E+02 0.  1.
</event>
<event>
 5    1  0.1440459E-008  0.3708971E+03  0.7957747E-01  0.3491778E+00
         13   -1    0    0    0    0  0.00000000000E+00  0.00000000000E+00  0.14999999963E+04  0.15000000000E+04  0.10566000000E+00 0. -1.
        994   -1    0    0    0    0 -0.00000000000E+00 -0.00000000000E+00  0.11368683772E-12  0.17120000000E+03  0.17120000000E+03 0.  0.
         13    1    1    2    0    0 -0.13286741758E+02  0.50535198823E+02  0.10767607692E+03  0.11968497204E+03  0.10566000000E+00 0. -1.
        994    1    1    2    0    0  0.16374469008E+02 -0.50379483021E+02  0.21321133028E+02  0.18047228668E+03  0.17120000000E+03 0.  0.
        998    1    1    2    0    0 -0.30877272493E+01 -0.15571580237E+00  0.13710027863E+04  0.13710427413E+04  0.10000000000E+02 0. -1.
</event>
<event>
 5    1  0.1440459E-008  0.3737203E+03  0.7957747E-01  0.3478966E+00
         13   -1    0    0    0    0  0.00000000000E+00  0.00000000000E+00  0.14999999963E+04  0.15000000000E+04  0.10566000000E+00 0.  1.
        994   -1    0    0    0    0 -0.00000000000E+00 -0.00000000000E+00  0.11368683772E-12  0.17120000000E+03  0.17120000000E+03 0.  0.
         13    1    1    2    0    0  0.14776850582E+02 -0.47937470309E+02  0.16592807095E+03  0.17334500935E+03  0.10566000000E+00 0.  1.
        994    1    1    2    0    0  0.29200733244E+02  0.44972886340E+02  0.17217563088E+02  0.18022521412E+03  0.17120000000E+03 0.  0.
        998    1    1    2    0    0 -0.43977583826E+02  0.29645839697E+01  0.13168543622E+04  0.13176297765E+04  0.10000000000E+02 0.  1.
</event>
<event>
 5    1  0.1440459E-008  0.3952046E+03  0.7957747E-01  0.3387514E+00
         13   -1    0    0    0    0  0.00000000000E+00  0.00000000000E+00  0.14999999963E+04  0.15000000000E+04  0.10566000000E+00 0.  1.
        994   -1    0    0    0    0 -0.00000000000E+00 -0.00000000000E+00  0.11368683772E-12  0.17120000000E+03  0.17120000000E+03 0.  0.
         13    1    1    2    0    0 -0.81786094220E+02  0.71046788570E+02  0.26430217398E+03  0.28564359210E+03  0.10566000000E+00 0.  1.
        994    1    1    2    0    0  0.31747043566E+02 -0.16683271538E+02  0.29897230906E+02  0.17745278454E+03  0.17120000000E+03 0.  0.
        998    1    1    2    0    0  0.50039050653E+02 -0.54363517033E+02  0.12058005914E+04  0.12081036234E+04  0.10000000000E+02 0.  1.
</event>
<event>
 5    1  0.1440459E-008  0.3848791E+03  0.7957747E-01  0.3430185E+00
         13   -1    0    0    0    0  0.00000000000E+00  0.00000000000E+00  0.14999999963E+04  0.15000000000E+04  0.10566000000E+00 0.  1.
        994   -1    0    0    0    0 -0.00000000000E+00 -0.00000000000E+00  0.11368683772E-12  0.17120000000E+03  0.17120000000E+03 0.  0.
         13    1    1    2    0    0  0.36532904783E+02  0.34437609673E+02  0.63411654036E+02  0.80880474303E+02  0.10566000000E+00 0.  1.
        994    1    1    2    0    0  0.25731921250E+02 -0.41939112102E+02  0.28020619689E+02  0.18032086963E+03  0.17120000000E+03 0.  0.
        998    1    1    2    0    0 -0.62264826032E+02  0.75015024295E+01  0.14085677226E+04  0.14099986561E+04  0.10000000000E+02 0.  1.
</event>
<event>
 5    1  0.1440459E-008  0.3992332E+03  0.7957747E-01  0.3371463E+00
         13   -1    0    0    0    0  0.00000000000E+00  0.00000000000E+00  0.14999999963E+04  0.15000000000E+04  0.10566000000E+00 0.  1.
        994   -1    0    0    0    0 -0.00000000000E+00 -0.00000000000E+00  0.11368683772E-12  0.17120000000E+03  0.17120000000E+03 0.  0.
         13    1    1    2    0    0  0.26870478538E+02 -0.45486420999E+02  0.40642515717E+02  0.66654799977E+02  0.10566000000E+00 0.  1.
        994    1    1    2    0    0 -0.11939031453E+02  0.47649553793E+02  0.36796790244E+02  0.18186936031E+03  0.17120000000E+03 0.  0.
        998    1    1    2    0    0 -0.14931447085E+02 -0.21631327939E+01  0.14225606903E+04  0.14226758397E+04  0.10000000000E+02 0.  1.
</event>
<event>
 5    1  0.1440459E-008  0.3849826E+03  0.7957747E-01  0.3429746E+00
         13   -1    0    0    0    0  0.00000000000E+00  0.00000000000E+00  0.14999999963E+04  0.15000000000E+04  0.10566000000E+00 0.  1.
        994   -1    0    0    0    0 -0.00000000000E+00 -0.00000000000E+00  0.11368683772E-12  0.17120000000E+03  0.17120000000E+03 0.  0.
         13    1    1    2    0    0 -0.82652130973E+01 -0.81728963543E+01  0.40499103239E+02  0.42134291374E+02  0.10566000000E+00 0.  1.
        994    1    1    2    0    0  0.48932859534E+01  0.10331246154E+02  0.20686910705E+01  0.17159370145E+03  0.17120000000E+03 0.  0.
        998    1    1    2    0    0  0.33719271439E+01 -0.21583497993E+01  0.14574322020E+04  0.14574720072E+04  0.10000000000E+02 0.  1.
</event>
<event>
 5    1  0.1440459E-008  0.3686015E+03  0.7957747E-01  0.3502343E+00
         13   -1    0    0    0    0  0.00000000000E+00  0.00000000000E+00  0.14999999963E+04  0.15000000000E+04  0.10566000000E+00 0. -1.
        994   -1    0    0    0    0 -0.00000000000E+00 -0.00000000000E+00  0.11368683772E-12  0.17120000000E+03  0.17120000000E+03 0.  0.
         13    1    1    2    0    0 -0.16415259514E+02 -0.48289058438E+02  0.11654852904E+03  0.12721974962E+03  0.10566000000E+00 0. -1.
        994    1    1    2    0    0 -0.24465092381E+02  0.64432099427E+02  0.26692157390E+02  0.18647237717E+03  0.17120000000E+03 0.  0.
        998    1    1    2    0    0  0.40880351895E+02 -0.16143040989E+02  0.13567593099E+04  0.13575078732E+04  0.10000000000E+02 0. -1.
</event>
<event>
 5    1  0.1440459E-008  0.3801085E+03  0.7957747E-01  0.3450686E+00
         13   -1    0    0    0    0  0.00000000000E+00  0.00000000000E+00  0.14999999963E+04  0.15000000000E+04  0.10566000000E+00 0. -1.
        994   -1    0    0    0    0 -0.00000000000E+00 -0.00000000000E+00  0.11368683772E-12  0.17120000000E+03  0.17120000000E+03 0.  0.
         13    1    1    2    0    0  0.77879812754E+02  0.43398574746E+02  0.50082241075E+03  0.50869617632E+03  0.10566000000E+00 0. -1.
        994    1    1    2    0    0 -0.96405873963E+02 -0.48383236048E+02  0.43993323941E+02  0.20707458226E+03  0.17120000000E+03 0.  0.
        998    1    1    2    0    0  0.18526061209E+02  0.49846613021E+01  0.95518426159E+03  0.95542924143E+03  0.10000000000E+02 0. -1.
</event>
<event>
 5    1  0.1440459E-008  0.3689729E+03  0.7957747E-01  0.3500625E+00
         13   -1    0    0    0    0  0.00000000000E+00  0.00000000000E+00  0.14999999963E+04  0.15000000000E+04  0.10566000000E+00 0. -1.
        994   -1    0    0    0    0 -0.00000000000E+00 -0.00000000000E+00  0.11368683772E-12  0.17120000000E+03  0.17120000000E+03 0.  0.
         13    1    1    2    0    0  0.77397346848E+01 -0.16187184459E+02  0.11282452765E+02  0.21195125339E+02  0.10566000000E+00 0. -1.
        994    1    1    2    0    0 -0.43410420498E+01 -0.45129184839E+01  0.10533326541E+02  0.17163799710E+03  0.17120000000E+03 0.  0.
        998    1    1    2    0    0 -0.33986926351E+01  0.20700102943E+02  0.14781842170E+04  0.14783668776E+04  0.10000000000E+02 0. -1.
</event>
<event>
 5    1  0.1440459E-008  0.3785670E+03  0.7957747E-01  0.3457422E+00
         13   -1    0    0    0    0  0.00000000000E+00  0.00000000000E+00  0.14999999963E+04  0.15000000000E+04  0.10566000000E+00 0.  1.
        994   -1    0    0    0    0 -0.00000000000E+00 -0.00000000000E+00  0.11368683772E-12  0.17120000000E+03  0.17120000000E+03 0.  0.
         13    1    1    2    0    0 -0.47400013528E+00  0.13589321158E+02  0.16406900666E+02  0.21309431695E+02  0.10566000000E+00 0.  1.
        994    1    1    2    0    0  0.26359388900E+01 -0.22363158004E+02  0.65632531853E+01  0.17279923409E+03  0.17120000000E+03 0.  0.
        998    1    1    2    0    0 -0.21619387547E+01  0.87738368462E+01  0.14770298424E+04  0.14770913342E+04  0.10000000000E+02 0.  1.
</event>
<event>
 5    1  0.1440459E-008  0.3697440E+03  0.7957747E-01  0.3497068E+00
         13   -1    0    0    0    0  0.00000000000E+00  0.00000000000E+00  0.14999999963E+04  0.15000000000E+04  0.10566000000E+00 0.  1.
        994   -1    0    0    0    0 -0.00000000000E+00 -0.00000000000E+00  0.11368683772E-12  0.17120000000E+03  0.17120000000E+03 0.  0.
         13    1    1    2    0    0  0.19656290279E+02 -0.11563468213E+01  0.16436196872E+02  0.25648910642E+02  0.10566000000E+00 0.  1.
        994    1    1    2    0    0 -0.17734649766E+02 -0.14515725385E+02  0.11222669283E+02  0.17309134118E+03  0.17120000000E+03 0.  0.
        998    1    1    2    0    0 -0.19216405122E+01  0.15672072207E+02  0.14723411301E+04  0.14724597482E+04  0.10000000000E+02 0.  1.
</event>
<event>
 5    1  0.1440459E-008  0.3804217E+03  0.7957747E-01  0.3449325E+00
         13   -1    0    0    0    0  0.00000000000E+00  0.00000000000E+00  0.14999999963E+04  0.15000000000E+04  0.10566000000E+00 0.  1.
        994   -1    0    0    0    0 -0.00000000000E+00 -0.00000000000E+00  0.11368683772E-12  0.17120000000E+03  0.17120000000E+03 0.  0.
         13    1    1    2    0    0  0.38868716131E+02  0.31151707566E+02  0.26267435632E+03  0.26735563321E+03  0.10566000000E+00 0.  1.
        994    1    1    2    0    0 -0.29266156637E+02 -0.43541291737E+02  0.13163763326E+02  0.17954129518E+03  0.17120000000E+03 0.  0.
        998    1    1    2    0    0 -0.96025594946E+01  0.12389584170E+02  0.12241618766E+04  0.12243030716E+04  0.10000000000E+02 0.  1.
</event>
<event>
 5    1  0.1440459E-008  0.3780787E+03  0.7957747E-01  0.3459567E+00
         13   -1    0    0    0    0  0.00000000000E+00  0.00000000000E+00  0.14999999963E+04  0.15000000000E+04  0.10566000000E+00 0. -1.
        994   -1    0    0    0    0 -0.00000000000E+00 -0.00000000000E+00  0.11368683772E-12  0.17120000000E+03  0.17120000000E+03 0.  0.
         13    1    1    2    0    0  0.43953080423E+01 -0.24073694814E+02  0.52773152617E+02  0.58171112384E+02  0.10566000000E+00 0. -1.
        994    1    1    2    0    0 -0.83814194514E+00  0.36504488259E+02  0.96048018347E+01  0.17531392518E+03  0.17120000000E+03 0.  0.
        998    1    1    2    0    0 -0.35571660972E+01 -0.12430793445E+02  0.14376220418E+04  0.14377149624E+04  0.10000000000E+02 0. -1.
</event>
<event>
 5    1  0.1440459E-008  0.3858366E+03  0.7957747E-01  0.3426132E+00
         13   -1    0    0    0    0  0.00000000000E+00  0.00000000000E+00  0.14999999963E+04  0.15000000000E+04  0.10566000000E+00 0.  1.
        994   -1    0    0    0    0 -0.00000000000E+00 -0.00000000000E+00  0.11368683772E-12  0.17120000000E+03  0.17120000000E+03 0.  0.
         13    1    1    2    0    0  0.11619059121E+02 -0.26666802885E+01  0.58514412195E+02  0.59716507912E+02  0.10566000000E+00 0.  1.
        994    1    1    2    0    0 -0.11020695040E+02 -0.64768921020E+01  0.17514861010E+01  0.17168550770E+03  0.17120000000E+03 0.  0.
        998    1    1    2    0    0 -0.59836408123E+00  0.91435723905E+01  0.14397340980E+04  0.14397979844E+04  0.10000000000E+02 0.  1.
</event>
<event>
 5    1  0.1440459E-008  0.3809895E+03  0.7957747E-01  0.3446861E+00
         13   -1    0    0    0    0  0.00000000000E+00  0.00000000000E+00  0.14999999963E+04  0.15000000000E+04  0.10566000000E+00 0.  1.
        994   -1    0    0    0    0 -0.00000000000E+00 -0.00000000000E+00  0.11368683772E-12  0.17120000000E+03  0.17120000000E+03 0.  0.
         13    1    1    2    0    0 -0.56557277750E+01  0.11954088541E+02  0.22142928551E+02  0.25791625353E+02  0.10566000000E+00 0.  1.
        994    1    1    2    0    0  0.73088009032E+01 -0.14473976712E+02  0.45110111049E+01  0.17202529987E+03  0.17120000000E+03 0.  0.
        998    1    1    2    0    0 -0.16530731283E+01  0.25198881709E+01  0.14733460566E+04  0.14733830748E+04  0.10000000000E+02 0.  1.
</event>
<event>
 5    1  0.1440459E-008  0.3920797E+03  0.7957747E-01  0.3400190E+00
         13   -1    0    0    0    0  0.00000000000E+00  0.00000000000E+00  0.14999999963E+04  0.15000000000E+04  0.10566000000E+00 0.  1.
        994   -1    0    0    0    0 -0.00000000000E+00 -0.00000000000E+00  0.11368683772E-12  0.17120000000E+03  0.17120000000E+03 0.  0.
         13    1    1    2    0    0 -0.90853079967E+02  0.10899229366E+03  0.38673016641E+03  0.41193911564E+03  0.10566000000E+00 0.  1.
        994    1    1    2    0    0  0.91983246001E+02 -0.59819314390E+02  0.70402613339E+02  0.21518651418E+03  0.17120000000E+03 0.  0.
        998    1    1    2    0    0 -0.11301660347E+01 -0.49172979269E+02  0.10428672165E+04  0.10440743702E+04  0.10000000000E+02 0. -1.
</event>
<event>
 5    1  0.1440459E-008  0.4078405E+03  0.7957747E-01  0.3338226E+00
         13   -1    0    0    0    0  0.00000000000E+00  0.00000000000E+00  0.14999999963E+04  0.15000000000E+04  0.10566000000E+00 0.  1.
        994   -1    0    0    0    0 -0.00000000000E+00 -0.00000000000E+00  0.11368683772E-12  0.17120000000E+03  0.17120000000E+03 0.  0.
         13    1    1    2    0    0  0.38152523421E+02  0.12950016670E+02  0.12887152333E+02  0.42301392819E+02  0.10566000000E+00 0.  1.
        994    1    1    2    0    0 -0.18494904567E+02 -0.10884122485E+01  0.33942997278E+02  0.17551300009E+03  0.17120000000E+03 0.  0.
        998    1    1    2    0    0 -0.19657618854E+02 -0.11861604421E+02  0.14531698467E+04  0.14533856071E+04  0.10000000000E+02 0.  1.
</event>
<event>
 5    1  0.1440459E-008  0.3837132E+03  0.7957747E-01  0.3435148E+00
         13   -1    0    0    0    0  0.00000000000E+00  0.00000000000E+00  0.14999999963E+04  0.15000000000E+04  0.10566000000E+00 0.  1.
        994   -1    0    0    0    0 -0.00000000000E+00 -0.00000000000E+00  0.11368683772E-12  0.17120000000E+03  0.17120000000E+03 0.  0.
         13    1    1    2    0    0  0.19368436793E+02  0.14486530544E+02  0.14312487992E+03  0.14515418812E+03  0.10566000000E+00 0.  1.
        994    1    1    2    0    0 -0.85072995325E+01  0.84480054015E+01  0.27452274752E+01  0.17164125149E+03  0.17120000000E+03 0.  0.
        998    1    1    2    0    0 -0.10861137261E+02 -0.22934535945E+02  0.13541298889E+04  0.13544045604E+04  0.10000000000E+02 0.  1.
</event>
<event>
 5    1  0.1440459E-008  0.3691433E+03  0.7957747E-01  0.3499837E+00
         13   -1    0    0    0    0  0.00000000000E+00  0.00000000000E+00  0.14999999963E+04  0.15000000000E+04  0.10566000000E+00 0. -1.
        994   -1    0    0    0    0 -0.00000000000E+00 -0.00000000000E+00  0.11368683772E-12  0.17120000000E+03  0.17120000000E+03 0.  0.
         13    1    1    2    0    0  0.96673050762E+01 -0.56569676242E+02  0.14806443092E+03  0.15879758161E+03  0.10566000000E+00 0. -1.
        994    1    1    2    0    0 -0.11565838961E+02  0.42125089130E+02  0.17167596809E+02  0.17751748687E+03  0.17120000000E+03 0.  0.
        998    1    1    2    0    0  0.18985338850E+01  0.14444587112E+02  0.13347679686E+04  0.13348849315E+04  0.10000000000E+02 0. -1.
</event>
<event>
 5    1  0.1440459E-008  0.3707185E+03  0.7957747E-01  0.3492595E+00
         13   -1    0    0    0    0  0.00000000000E+00  0.00000000000E+00  0.14999999963E+04  0.15000000000E+04  0.10566000000E+00 0. -1.
        994   -1    0    0    0    0 -0.00000000000E+00 -0.00000000000E+00  0.11368683772E-12  0.17120000000E+03  0.17120000000E+03 0.  0.
         13    1    1    2    0    0  0.32274251247E+02 -0.40343138363E+02  0.14813910599E+03  0.15688977658E+03  0.10566000000E+00 0. -1.
        994    1    1    2    0    0  0.17049701969E+02  0.52815985761E+02  0.19594016283E+02  0.18103476507E+03  0.17120000000E+03 0.  0.
        998    1    1    2    0    0 -0.49323953216E+02 -0.12472847398E+02  0.13322668740E+04  0.13332754584E+04  0.10000000000E+02 0. -1.
</event>
<event>
 5    1  0.1440459E-008  0.3709352E+03  0.7957747E-01  0.3491604E+00
         13   -1    0    0    0    0  0.00000000000E+00  0.00000000000E+00  0.14999999963E+04  0.15000000000E+04  0.10566000000E+00 0. -1.
        994   -1    0    0    0    0 -0.00000000000E+00 -0.00000000000E+00  0.11368683772E-12  0.17120000000E+03  0.17120000000E+03 0.  0.
         13    1    1    2    0    0  0.68572194864E+02 -0.60428010400E+02  0.47549975923E+03  0.48420421574E+03  0.10566000000E+00 0. -1.
        994    1    1    2    0    0  0.14956784209E+02  0.55377898292E+02  0.23066117025E+02  0.18202170961E+03  0.17120000000E+03 0.  0.
        998    1    1    2    0    0 -0.83528979074E+02  0.50501121085E+01  0.10014341200E+04  0.10049740747E+04  0.10000000000E+02 0. -1.
</event>
<event>
 5    1  0.1440459E-008  0.3791107E+03  0.7957747E-01  0.3455040E+00
         13   -1    0    0    0    0  0.00000000000E+00  0.00000000000E+00  0.14999999963E+04  0.15000000000E+04  0.10566000000E+00 0.  1.
        994   -1    0    0    0    0 -0.00000000000E+00 -0.00000000000E+00  0.11368683772E-12  0.17120000000E+03  0.17120000000E+03 0.  0.
         13    1    1    2    0    0  0.27401767216E+02  0.13650166528E+02  0.96165421902E+02  0.10092067888E+03  0.10566000000E+00 0.  1.
        994    1    1    2    0    0 -0.20384237283E+02 -0.22295853559E+02  0.76485787081E+01  0.17401311149E+03  0.17120000000E+03 0.  0.
        998    1    1    2    0    0 -0.70175299329E+01  0.86456870310E+01  0.13961859957E+04  0.13962662096E+04  0.10000000000E+02 0.  1.
</event>
<event>
 5    1  0.1440459E-008  0.3837597E+03  0.7957747E-01  0.3434950E+00
         13   -1    0    0    0    0  0.00000000000E+00  0.00000000000E+00  0.14999999963E+04  0.15000000000E+04  0.10566000000E+00 0. -1.
        994   -1    0    0    0    0 -0.00000000000E+00 -0.00000000000E+00  0.11368683772E-12  0.17120000000E+03  0.17120000000E+03 0.  0.
         13    1    1    2    0    0  0.98550624490E+01  0.16057535154E+02  0.76372034383E+02  0.78661715535E+02  0.10566000000E+00 0. -1.
        994    1    1    2    0    0 -0.18589805357E+01 -0.18503854884E+02  0.33899702241E+01  0.17224047246E+03  0.17120000000E+03 0.  0.
        998    1    1    2    0    0 -0.79960819134E+01  0.24463197298E+01  0.14202379917E+04  0.14202978120E+04  0.10000000000E+02 0. -1.
</event>
<event>
 5    1  0.1440459E-008  0.3842224E+03  0.7957747E-01  0.3432977E+00
         13   -1    0    0    0    0  0.00000000000E+00  0.00000000000E+00  0.14999999963E+04  0.15000000000E+04  0.10566000000E+00 0. -1.
        994   -1    0    0    0    0 -0.00000000000E+00 -0.00000000000E+00  0.11368683772E-12  0.17120000000E+03  0.17120000000E+03 0.  0.
         13    1    1    2    0    0 -0.11444545284E+02  0.84073997538E+01  0.48483154428E+02  0.50520188190E+02  0.10566000000E+00 0. -1.
        994    1    1    2    0    0  0.13436727566E+02 -0.54627136019E+01  0.27106328439E+01  0.17183472995E+03  0.17120000000E+03 0.  0.
        998    1    1    2    0    0 -0.19921822820E+01 -0.29446861520E+01  0.14488062090E+04  0.14488450819E+04  0.10000000000E+02 0. -1.
</event>
<event>
 5    1  0.1440459E-008  0.3766493E+03  0.7957747E-01  0.3465879E+00
         13   -1    0    0    0    0  0.00000000000E+00  0.00000000000E+00  0.14999999963E+04  0.15000000000E+04  0.10566000000E+00 0.  1.
        994   -1    0    0    0    0 -0.00000000000E+00 -0.00000000000E+00  0.11368683772E-12  0.17120000000E+03  0.17120000000E+03 0.  0.
         13    1    1    2    0    0  0.49897208327E+02 -0.11558237435E+02  0.19058108180E+03  0.19734356882E+03  0.10566000000E+00 0.  1.
        994    1    1    2    0    0 -0.53548033418E+02  0.14714656913E+02  0.16331094327E+02  0.18072093861E+03  0.17120000000E+03 0.  0.
        998    1    1    2    0    0  0.36508250913E+01 -0.31564194774E+01  0.12930878202E+04  0.12931354926E+04  0.10000000000E+02 0. -1.
</event>
<event>
 5    1  0.1440459E-008  0.4054506E+03  0.7957747E-01  0.3347314E+00
         13   -1    0    0    0    0  0.00000000000E+00  0.00000000000E+00  0.14999999963E+04  0.15000000000E+04  0.10566000000E+00 0. -1.
        994   -1    0    0    0    0 -0.00000000000E+00 -0.00000000000E+00  0.11368683772E-12  0.17120000000E+03  0.17120000000E+03 0.  0.
         13    1    1    2    0    0  0.93536065172E+02  0.15412260615E+02  0.17866017859E+03  0.20225232717E+03  0.10566000000E+00 0. -1.
        994    1    1    2    0    0  0.32597539158E+02 -0.91877409323E+02  0.70262863566E+02  0.20916588608E+03  0.17120000000E+03 0.  0.
        998    1    1    2    0    0 -0.12613360433E+03  0.76465148709E+02  0.12510769541E+04  0.12597817868E+04  0.10000000000E+02 0. -1.
</event>
<event>
 5    1  0.1440459E-008  0.3838479E+03  0.7957747E-01  0.3434573E+00
         13   -1    0    0    0    0  0.00000000000E+00  0.00000000000E+00  0.14999999963E+04  0.15000000000E+04  0.10566000000E+00 0.  1.
        994   -1    0    0    0    0 -0.00000000000E+00 -0.00000000000E+00  0.11368683772E-12  0.17120000000E+03  0.17120000000E+03 0.  0.
         13    1    1    2    0    0 -0.22387306904E+02  0.61777975775E+01  0.13490636067E+03  0.13689081052E+03  0.10566000000E+00 0.  1.
        994    1    1    2    0    0  0.32580443449E+01  0.49765851610E+01  0.23200391322E+01  0.17131901189E+03  0.17120000000E+03 0.  0.
        998    1    1    2    0    0  0.19129262559E+02 -0.11154382738E+02  0.13627735965E+04  0.13629901776E+04  0.10000000000E+02 0.  1.
</event>
<event>
 5    1  0.1440459E-008  0.3752117E+03  0.7957747E-01  0.3472277E+00
         13   -1    0    0    0    0  0.00000000000E+00  0.00000000000E+00  0.14999999963E+04  0.15000000000E+04  0.10566000000E+00 0. -1.
        994   -1    0    0    0    0 -0.00000000000E+00 -0.00000000000E+00  0.11368683772E-12  0.17120000000E+03  0.17120000000E+03 0.  0.
         13    1    1    2    0    0 -0.22665610756E+02 -0.21621584743E+01  0.36180676031E+02  0.42748769834E+02  0.10566000000E+00 0. -1.
        994    1    1    2    0    0  0.22913810973E+02 -0.16338351503E+02  0.92649563391E+01  0.17374482404E+03  0.17120000000E+03 0.  0.
        998    1    1    2    0    0 -0.24820021721E+00  0.18500509977E+02  0.14545543639E+04  0.14547064061E+04  0.10000000000E+02 0. -1.
</event>
<event>
 5    1  0.1440459E-008  0.3851502E+03  0.7957747E-01  0.3429035E+00
         13   -1    0    0    0    0  0.00000000000E+00  0.00000000000E+00  0.14999999963E+04  0.15000000000E+04  0.10566000000E+00 0.  1.
        994   -1    0    0    0    0 -0.00000000000E+00 -0.00000000000E+00  0.11368683772E-12  0.17120000000E+03  0.17120000000E+03 0.  0.
         13    1    1    2    0    0  0.72347851402E+01  0.13055984118E+02  0.66714588394E+02  0.68364086376E+02  0.10566000000E+00 0.  1.
        994    1    1    2    0    0 -0.49138845789E+01 -0.21362436815E+02  0.31365822975E+01  0.17262612235E+03  0.17120000000E+03 0.  0.
        998    1    1    2    0    0 -0.23209005613E+01  0.83064526970E+01  0.14301488256E+04  0.14302097913E+04  0.10000000000E+02 0.  1.
</event>
<event>
 5    1  0.1440459E-008  0.3738035E+03  0.7957747E-01  0.3478591E+00
         13   -1    0    0    0    0  0.00000000000E+00  0.00000000000E+00  0.14999999963E+04  0.15000000000E+04  0.10566000000E+00 0.  1.
        994   -1    0    0    0    0 -0.00000000000E+00 -0.00000000000E+00  0.11368683772E-12  0.17120000000E+03  0.17120000000E+03 0.  0.
         13    1    1    2    0    0  0.15709566221E+02 -0.14347691350E+02  0.11478236852E+02  0.24174527983E+02  0.10566000000E+00 0.  1.
        994    1    1    2    0    0 -0.26994739757E+02  0.10423710548E+02  0.15936949797E+02  0.17435824066E+03  0.17120000000E+03 0.  0.
        998    1    1    2    0    0  0.11285173536E+02  0.39239808022E+01  0.14725848096E+04  0.14726672314E+04  0.10000000000E+02 0.  1.
</event>
<event>
 5    1  0.1440459E-008  0.4151157E+03  0.7957747E-01  0.3311197E+00
         13   -1    0    0    0    0  0.00000000000E+00  0.00000000000E+00  0.14999999963E+04  0.15000000000E+04  0.10566000000E+00 0.  1.
        994   -1    0    0    0    0 -0.00000000000E+00 -0.00000000000E+00  0.11368683772E-12  0.17120000000E+03  0.17120000000E+03 0.  0.
         13    1    1    2    0    0  0.36115437198E+02 -0.73483461357E+02  0.84392391798E+02  0.11758499417E+03  0.10566000000E+00 0.  1.
        994    1    1    2    0    0 -0.21995287900E+02  0.34005836181E+02  0.44018025614E+02  0.18134832826E+03  0.17120000000E+03 0.  0.
        998    1    1    2    0    0 -0.14120149298E+02  0.39477625175E+02  0.13715895789E+04  0.13722666776E+04  0.10000000000E+02 0.  1.
</event>
<event>
 5    1  0.1440459E-008  0.3802003E+03  0.7957747E-01  0.3450287E+00
         13   -1    0    0    0    0  0.00000000000E+00  0.00000000000E+00  0.14999999963E+04  0.15000000000E+04  0.10566000000E+00 0. -1.
        994   -1    0    0    0    0 -0.00000000000E+00 -0.00000000000E+00  0.11368683772E-12  0.17120000000E+03  0.17120000000E+03 0.  0.
         13    1    1    2    0    0 -0.15489579724E+02  0.97173860528E+01  0.29306418944E+01  0.18519030690E+02  0.10566000000E+00 0. -1.
        994    1    1    2    0    0  0.86462589004E+01  0.12545570629E+01  0.16714349935E+02  0.17223571407E+03  0.17120000000E+03 0.  0.
        998    1    1    2    0    0  0.68433208239E+01 -0.10971943116E+02  0.14803550044E+04  0.14804452552E+04  0.10000000000E+02 0. -1.
</event>
<event>
 5    1  0.1440459E-008  0.3862789E+03  0.7957747E-01  0.3424266E+00
         13   -1    0    0    0    0  0.00000000000E+00  0.00000000000E+00  0.14999999963E+04  0.15000000000E+04  0.10566000000E+00 0.  1.
        994   -1    0    0    0    0 -0.00000000000E+00 -0.00000000000E+00  0.11368683772E-12  0.17120000000E+03  0.17120000000E+03 0.  0.
         13    1    1    2    0    0  0.59316534937E+02  0.35908554812E+02  0.15584347366E+03  0.17057278526E+03  0.10566000000E+00 0.  1.
        994    1    1    2    0    0  0.37140441170E+02  0.15653353769E+02  0.25869065608E+02  0.17777257497E+03  0.17120000000E+03 0.  0.
        998    1    1    2    0    0 -0.96456976107E+02 -0.51561908581E+02  0.13182874570E+04  0.13228546398E+04  0.10000000000E+02 0.  1.
</event>
<event>
 5    1  0.1440459E-008  0.3686448E+03  0.7957747E-01  0.3502142E+00
         13   -1    0    0    0    0  0.00000000000E+00  0.00000000000E+00  0.14999999963E+04  0.15000000000E+04  0.10566000000E+00 0.  1.
        994   -1    0    0    0    0 -0.00000000000E+00 -0.00000000000E+00  0.11368683772E-12  0.17120000000E+03  0.17120000000E+03 0.  0.
         13    1    1    2    0    0  0.29637301199E+01 -0.12770730609E+02  0.37349788023E+01  0.13632185709E+02  0.10566000000E+00 0.  1.
        994    1    1    2    0    0 -0.24429957320E+01  0.74004668166E+01  0.10435355100E+02  0.17169470514E+03  0.17120000000E+03 0.  0.
        998    1    1    2    0    0 -0.52073438781E+00  0.53702637929E+01  0.14858296624E+04  0.14858731092E+04  0.10000000000E+02 0.  1.
</event>
<event>
 5    1  0.1440459E-008  0.3722149E+03  0.7957747E-01  0.3485773E+00
         13   -1    0    0    0    0  0.00000000000E+00  0.00000000000E+00  0.14999999963E+04  0.15000000000E+04  0.10566000000E+00 0. -1.
        994   -1    0    0    0    0 -0.00000000000E+00 -0.00000000000E+00  0.11368683772E-12  0.17120000000E+03  0.17120000000E+03 0.  0.
         13    1    1    2    0    0 -0.19109178652E+02 -0.19945391560E+02  0.47470906579E+02  0.54922467977E+02  0.10566000000E+00 0. -1.
        994    1    1    2    0    0 -0.27893092954E+02  0.13854278671E+02  0.11451606366E+02  0.17438619487E+03  0.17120000000E+03 0.  0.
        998    1    1    2    0    0  0.47002271606E+02  0.60911128894E+01  0.14410774833E+04  0.14418913372E+04  0.10000000000E+02 0. -1.
</event>
<event>
 5    1  0.1440459E-008  0.2811448E+03  0.7957747E-01  0.4040559E+00
         13   -1    0    0    0    0  0.00000000000E+00  0.00000000000E+00  0.14999999963E+04  0.15000000000E+04  0.10566000000E+00 0. -1.
        994   -1    0    0    0    0 -0.00000000000E+00 -0.00000000000E+00  0.11368683772E-12  0.17120000000E+03  0.17120000000E+03 0.  0.
         13    1    1    2    0    0 -0.27941843123E+02 -0.16488872471E+03  0.53619381493E+03  0.56166970407E+03  0.10566000000E+00 0. -1.
        994    1    1    2    0    0  0.23282650186E+02  0.16308853169E+03  0.12095939325E+03  0.26660938803E+03  0.17120000000E+03 0.  0.
        998    1    1    2    0    0  0.46591929373E+01  0.18001930246E+01  0.84284678810E+03  0.84292090791E+03  0.10000000000E+02 0.  0.
</event>
<event>
 5    1  0.1440459E-008  0.3767410E+03  0.7957747E-01  0.3465473E+00
         13   -1    0    0    0    0  0.00000000000E+00  0.00000000000E+00  0.14999999963E+04  0.15000000000E+04  0.10566000000E+00 0.  1.
        994   -1    0    0    0    0 -0.00000000000E+00 -0.00000000000E+00  0.11368683772E-12  0.17120000000E+03  0.17120000000E+03 0.  0.
         13    1    1    2    0    0  0.42323627756E+01 -0.10245599500E+02  0.79337042673E+01  0.13632315695E+02  0.10566000000E+00 0.  1.
        994    1    1    2    0    0 -0.85365489966E+01  0.84529251435E+01  0.62752540713E+01  0.17173567895E+03  0.17120000000E+03 0.  0.
        998    1    1    2    0    0  0.43041862211E+01  0.17926743566E+01  0.14857910379E+04  0.14858320054E+04  0.10000000000E+02 0.  1.
</event>
<event>
 5    1  0.1440459E-008  0.3855999E+03  0.7957747E-01  0.3427132E+00
         13   -1    0    0    0    0  0.00000000000E+00  0.00000000000E+00  0.14999999963E+04  0.15000000000E+04  0.10566000000E+00 0.  1.
        994   -1    0    0    0    0 -0.00000000000E+00 -0.00000000000E+00  0.11368683772E-12  0.17120000000E+03  0.17120000000E+03 0.  0.
         13    1    1    2    0    0 -0.12479852799E+02  0.48790574684E+00  0.57899529940E+02  0.59231338911E+02  0.10566000000E+00 0.  1.
        994    1    1    2    0    0  0.10675173121E+02 -0.79267574001E+01  0.19130784659E+01  0.17172621429E+03  0.17120000000E+03 0.  0.
        998    1    1    2    0    0  0.18046796778E+01  0.74388516532E+01  0.14401873879E+04  0.14402424468E+04  0.10000000000E+02 0.  1.
</event>
<event>
 5    1  0.1440459E-008  0.3774808E+03  0.7957747E-01  0.3462201E+00
         13   -1    0    0    0    0  0.00000000000E+00  0.00000000000E+00  0.14999999963E+04  0.15000000000E+04  0.10566000000E+00 0. -1.
        994   -1    0    0    0    0 -0.00000000000E+00 -0.00000000000E+00  0.11368683772E-12  0.17120000000E+03  0.17120000000E+03 0.  0.
         13    1    1    2    0    0 -0.22827788170E+02 -0.10847856671E+02  0.59623708428E+02  0.64759413816E+02  0.10566000000E+00 0. -1.
        994    1    1    2    0    0  0.17832447125E+00  0.86981556594E+01  0.56654365470E+01  0.17151450925E+03  0.17120000000E+03 0.  0.
        998    1    1    2    0    0  0.22649463699E+02  0.21497010114E+01  0.14347108513E+04  0.14349260769E+04  0.10000000000E+02 0. -1.
</event>
<event>
 5    1  0.1440459E-008  0.3845828E+03  0.7957747E-01  0.3431443E+00
         13   -1    0    0    0    0  0.00000000000E+00  0.00000000000E+00  0.14999999963E+04  0.15000000000E+04  0.10566000000E+00 0.  1.
        994   -1    0    0    0    0 -0.00000000000E+00 -0.00000000000E+00  0.11368683772E-12  0.17120000000E+03  0.17120000000E+03 0.  0.
         13    1    1    2    0    0 -0.13879201562E+02 -0.85519624511E+01  0.69912504272E+02  0.71788144671E+02  0.10566000000E+00 0.  1.
        994    1    1    2    0    0  0.48891782319E+01  0.22613812370E+02  0.36021381722E+01  0.17279381926E+03  0.17120000000E+03 0.  0.
        998    1    1    2    0    0  0.89900233302E+01 -0.14061849919E+02  0.14264853538E+04  0.14266180361E+04  0.10000000000E+02 0.  1.
</event>
<event>
 5    1  0.1440459E-008  0.3716680E+03  0.7957747E-01  0.3488260E+00
         13   -1    0    0    0    0  0.00000000000E+00  0.00000000000E+00  0.14999999963E+04  0.15000000000E+04  0.10566000000E+00 0. -1.
        994   -1    0    0    0    0 -0.00000000000E+00 -0.00000000000E+00  0.11368683772E-12  0.17120000000E+03  0.17120000000E+03 0.  0.
         13    1    1    2    0    0  0.24927546794E+02  0.71686892276E+02  0.25424994208E+03  0.26533646060E+03  0.10566000000E+00 0. -1.
        994    1    1    2    0    0  0.13708057678E+02 -0.10427721288E+03  0.47444992744E+02  0.20645124196E+03  0.17120000000E+03 0.  0.
        998    1    1    2    0    0 -0.38635604472E+02  0.32590320606E+02  0.11983050615E+04  0.11994122974E+04  0.10000000000E+02 0. -1.
</event>
<event>
 5    1  0.1440459E-008  0.3821327E+03  0.7957747E-01  0.3441924E+00
         13   -1    0    0    0    0  0.00000000000E+00  0.00000000000E+00  0.14999999963E+04  0.15000000000E+04  0.10566000000E+00 0.  1.
        994   -1    0    0    0    0 -0.00000000000E+00 -0.00000000000E+00  0.11368683772E-12  0.17120000000E+03  0.17120000000E+03 0.  0.
         13    1    1    2    0    0 -0.18512527480E+02  0.13287009257E+02  0.91325195778E+02  0.94125240167E+02  0.10566000000E+00 0.  1.
        994    1    1    2    0    0 -0.41472250461E+01 -0.44926669549E+01  0.31845138908E+01  0.17133874244E+03  0.17120000000E+03 0.  0.
        998    1    1    2    0    0  0.22659752527E+02 -0.87943423023E+01  0.14054902866E+04  0.14057360174E+04  0.10000000000E+02 0.  1.
</event>
<event>
 5    1  0.1440459E-008  0.3840574E+03  0.7957747E-01  0.3433680E+00
         13   -1    0    0    0    0  0.00000000000E+00  0.00000000000E+00  0.14999999963E+04  0.15000000000E+04  0.10566000000E+00 0.  1.
        994   -1    0    0    0    0 -0.00000000000E+00 -0.00000000000E+00  0.11368683772E-12  0.17120000000E+03  0.17120000000E+03 0.  0.
         13    1    1    2    0    0 -0.20159447075E+02  0.63150635887E+01  0.10027885990E+03  0.10247996995E+03  0.10566000000E+00 0.  1.
        994    1    1    2    0    0  0.19445557803E+02 -0.86200719300E+01  0.35927148009E+01  0.17255371036E+03  0.17120000000E+03 0.  0.
        998    1    1    2    0    0  0.71388927220E+00  0.23050083414E+01  0.13961284216E+04  0.13961663197E+04  0.10000000000E+02 0.  1.
</event>
<event>
 5    1  0.1440459E-008  0.4017079E+03  0.7957747E-01  0.3361762E+00
         13   -1    0    0    0    0  0.00000000000E+00  0.00000000000E+00  0.14999999963E+04  0.15000000000E+04  0.10566000000E+00 0.  1.
        994   -1    0    0    0    0 -0.00000000000E+00 -0.00000000000E+00  0.11368683772E-12  0.17120000000E+03  0.17120000000E+03 0.  0.
         13    1    1    2    0    0  0.57601622711E+02 -0.13081298584E+03  0.43031853769E+03  0.45343581602E+03  0.10566000000E+00 0.  1.
        994    1    1    2    0    0  0.17159337886E+02  0.62887707325E+02  0.45753933999E+02  0.18881781983E+03  0.17120000000E+03 0.  0.
        998    1    1    2    0    0 -0.74760960597E+02  0.67925278514E+02  0.10239275246E+04  0.10289463641E+04  0.10000000000E+02 0.  1.
</event>
<event>
 5    1  0.1440459E-008  0.3830197E+03  0.7957747E-01  0.3438114E+00
         13   -1    0    0    0    0  0.00000000000E+00  0.00000000000E+00  0.14999999963E+04  0.15000000000E+04  0.10566000000E+00 0. -1.
        994   -1    0    0    0    0 -0.00000000000E+00 -0.00000000000E+00  0.11368683772E-12  0.17120000000E+03  0.17120000000E+03 0.  0.
         13    1    1    2    0    0  0.22260749705E+01 -0.10804518069E+02  0.22021401508E+02  0.24630191004E+02  0.10566000000E+00 0. -1.
        994    1    1    2    0    0 -0.41990713648E+01  0.11067231755E+02  0.30804025238E+01  0.17163637347E+03  0.17120000000E+03 0.  0.
        998    1    1    2    0    0  0.19729963944E+01 -0.26271368589E+00  0.14748981922E+04  0.14749334355E+04  0.10000000000E+02 0. -1.
</event>
<event>
 5    1  0.1440459E-008  0.3845260E+03  0.7957747E-01  0.3431685E+00
         13   -1    0    0    0    0  0.00000000000E+00  0.00000000000E+00  0.14999999963E+04  0.15000000000E+04  0.10566000000E+00 0. -1.
        994   -1    0    0    0    0 -0.00000000000E+00 -0.00000000000E+00  0.11368683772E-12  0.17120000000E+03  0.17120000000E+03 0.  0.
         13    1    1    2    0    0 -0.96230075713E+01 -0.48575398220E+01  0.31219951663E+02  0.33028692280E+02  0.10566000000E+00 0. -1.
        994    1    1    2    0    0 -0.54618283239E+00  0.93080312410E+01  0.21520590409E+01  0.17146722462E+03  0.17120000000E+03 0.  0.
        998    1    1    2    0    0  0.10169190404E+02 -0.44504914190E+01  0.14666279856E+04  0.14667040831E+04  0.10000000000E+02 0. -1.
</event>
<event>
 5    1  0.1440459E-008  0.3756975E+03  0.7957747E-01  0.3470109E+00
         13   -1    0    0    0    0  0.00000000000E+00  0.00000000000E+00  0.14999999963E+04  0.15000000000E+04  0.10566000000E+00 0. -1.
        994   -1    0    0    0    0 -0.00000000000E+00 -0.00000000000E+00  0.11368683772E-12  0.17120000000E+03  0.17120000000E+03 0.  0.
         13    1    1    2    0    0  0.60664773418E+02  0.33352427283E+02  0.35517448451E+03  0.36185843191E+03  0.10566000000E+00 0. -1.
        994    1    1    2    0    0 -0.42146304810E+02 -0.19785562151E+02  0.13708053491E+02  0.17794698708E+03  0.17120000000E+03 0.  0.
        998    1    1    2    0    0 -0.18518468608E+02 -0.13566865132E+02  0.11311174583E+04  0.11313945810E+04  0.10000000000E+02 0. -1.
</event>
<event>
 5    1  0.1440459E-008  0.3856883E+03  0.7957747E-01  0.3426758E+00
         13   -1    0    0    0    0  0.00000000000E+00  0.00000000000E+00  0.14999999963E+04  0.15000000000E+04  0.10566000000E+00 0.  1.
        994   -1    0    0    0    0 -0.00000000000E+00 -0.00000000000E+00  0.11368683772E-12  0.17120000000E+03  0.17120000000E+03 0.  0.
         13    1    1    2    0    0  0.76675229313E+01  0.88231147454E+01  0.54136482843E+02  0.55384187277E+02  0.10566000000E+00 0.  1.
        994    1    1    2    0    0 -0.45622799504E+01 -0.35640393302E+01  0.13987972440E+01  0.17130357092E+03  0.17120000000E+03 0.  0.
        998    1    1    2    0    0 -0.31052429809E+01 -0.52590754152E+01  0.14444647162E+04  0.14445122418E+04  0.10000000000E+02 0.  1.
</event>
<event>
 5    1  0.1440459E-008  0.3701658E+03  0.7957747E-01  0.3495129E+00
         13   -1    0    0    0    0  0.00000000000E+00  0.00000000000E+00  0.14999999963E+04  0.15000000000E+04  0.10566000000E+00 0.  1.
        994   -1    0    0    0    0 -0.00000000000E+00 -0.00000000000E+00  0.11368683772E-12  0.17120000000E+03  0.17120000000E+03 0.  0.
         13    1    1    2    0    0 -0.65735461424E+02  0.20681029473E+02  0.22226166805E+03  0.23269962638E+03  0.10566000000E+00 0.  1.
        994    1    1    2    0    0  0.62669629791E+02 -0.19856292178E+02  0.24268809066E+02  0.18498694530E+03  0.17120000000E+03 0.  0.
        998    1    1    2    0    0  0.30658316331E+01 -0.82473729500E+00  0.12534695192E+04  0.12535134283E+04  0.10000000000E+02 0.  1.
</event>
<event>
 5    1  0.1440459E-008  0.3793184E+03  0.7957747E-01  0.3454132E+00
         13   -1    0    0    0    0  0.00000000000E+00  0.00000000000E+00  0.14999999963E+04  0.15000000000E+04  0.10566000000E+00 0. -1.
        994   -1    0    0    0    0 -0.00000000000E+00 -0.00000000000E+00  0.11368683772E-12  0.17120000000E+03  0.17120000000E+03 0.  0.
         13    1    1    2    0    0  0.30920550621E+02 -0.14394766241E+02  0.13542314953E+03  0.13965217628E+03  0.10566000000E+00 0. -1.
        994    1    1    2    0    0 -0.55298622727E+01  0.14618489526E+02  0.52964643469E+01  0.17199352356E+03  0.17120000000E+03 0.  0.
        998    1    1    2    0    0 -0.25390688349E+02 -0.22372328566E+00  0.13592803824E+04  0.13595543002E+04  0.10000000000E+02 0. -1.
</event>
<event>
 5    1  0.1440459E-008  0.3724852E+03  0.7957747E-01  0.3484547E+00
         13   -1    0    0    0    0  0.00000000000E+00  0.00000000000E+00  0.14999999963E+04  0.15000000000E+04  0.10566000000E+00 0.  1.
        994   -1    0    0    0    0 -0.00000000000E+00 -0.00000000000E+00  0.11368683772E-12  0.17120000000E+03  0.17120000000E+03 0.  0.
         13    1    1    2    0    0 -0.80902388701E+02  0.25700338828E+02  0.33707405865E+03  0.34759838332E+03  0.10566000000E+00 0.  1.
        994    1    1    2    0    0  0.84925636930E+02 -0.24070426639E+02  0.35180033831E+02  0.19580302354E+03  0.17120000000E+03 0.  0.
        998    1    1    2    0    0 -0.40232482285E+01 -0.16299121888E+01  0.11277459038E+04  0.11277985931E+04  0.10000000000E+02 0.  1.
</event>
<event>
 5    1  0.1440459E-008  0.3709961E+03  0.7957747E-01  0.3491325E+00
         13   -1    0    0    0    0  0.00000000000E+00  0.00000000000E+00  0.14999999963E+04  0.15000000000E+04  0.10566000000E+00 0.  1.
        994   -1    0    0    0    0 -0.00000000000E+00 -0.00000000000E+00  0.11368683772E-12  0.17120000000E+03  0.17120000000E+03 0.  0.
         13    1    1    2    0    0  0.24814129697E+02 -0.14283560518E+01  0.30778699512E+02  0.39561606910E+02  0.10566000000E+00 0.  1.
        994    1    1    2    0    0 -0.29200746535E+02 -0.31495928816E+01  0.11727457447E+02  0.17409645830E+03  0.17120000000E+03 0.  0.
        998    1    1    2    0    0  0.43866168384E+01  0.45779489333E+01  0.14574938393E+04  0.14575419348E+04  0.10000000000E+02 0.  1.
</event>
<event>
 5    1  0.1440459E-008  0.3786245E+03  0.7957747E-01  0.3457170E+00
         13   -1    0    0    0    0  0.00000000000E+00  0.00000000000E+00  0.14999999963E+04  0.15000000000E+04  0.10566000000E+00 0.  1.
        994   -1    0    0    0    0 -0.00000000000E+00 -0.00000000000E+00  0.11368683772E-12  0.17120000000E+03  0.17120000000E+03 0.  0.
         13    1    1    2    0    0  0.57255040354E+01 -0.16424113803E+02  0.28453831200E+02  0.33349131692E+02  0.10566000000E+00 0.  1.
        994    1    1    2    0    0 -0.31238692860E+02  0.13007512878E+02  0.86840095999E+01  0.17472808402E+03  0.17120000000E+03 0.  0.
        998    1    1    2    0    0  0.25513188825E+02  0.34166009243E+01  0.14628621555E+04  0.14631227843E+04  0.10000000000E+02 0.  1.
</event>
<event>
 5    1  0.1440459E-008  0.4061028E+03  0.7957747E-01  0.3344824E+00
         13   -1    0    0    0    0  0.00000000000E+00  0.00000000000E+00  0.14999999963E+04  0.15000000000E+04  0.10566000000E+00 0. -1.
        994   -1    0    0    0    0 -0.00000000000E+00 -0.00000000000E+00  0.11368683772E-12  0.17120000000E+03  0.17120000000E+03 0.  0.
         13    1    1    2    0    0 -0.70429223657E+02 -0.51564621277E+02  0.10736940022E+03  0.13837407626E+03  0.10566000000E+00 0. -1.
        994    1    1    2    0    0  0.49177685035E+02  0.62369264020E+02  0.57283828974E+02  0.19722891994E+03  0.17120000000E+03 0.  0.
        998    1    1    2    0    0  0.21251538622E+02 -0.10804642743E+02  0.13353467671E+04  0.13355970038E+04  0.10000000000E+02 0. -1.
</event>
<event>
 5    1  0.1440459E-008  0.3692678E+03  0.7957747E-01  0.3499263E+00
         13   -1    0    0    0    0  0.00000000000E+00  0.00000000000E+00  0.14999999963E+04  0.15000000000E+04  0.10566000000E+00 0.  1.
        994   -1    0    0    0    0 -0.00000000000E+00 -0.00000000000E+00  0.11368683772E-12  0.17120000000E+03  0.17120000000E+03 0.  0.
         13    1    1    2    0    0  0.13588722533E+02 -0.35555097195E+02  0.68563065464E+02  0.78420172318E+02  0.10566000000E+00 0.  1.
        994    1    1    2    0    0 -0.81066497372E+01  0.37477221766E+02  0.14766046594E+02  0.17606173932E+03  0.17120000000E+03 0.  0.
        998    1    1    2    0    0 -0.54820727962E+01 -0.19221245716E+01  0.14166708842E+04  0.14167180884E+04  0.10000000000E+02 0.  1.
</event>
<event>
 5    1  0.1440459E-008  0.3792449E+03  0.7957747E-01  0.3454453E+00
         13   -1    0    0    0    0  0.00000000000E+00  0.00000000000E+00  0.14999999963E+04  0.15000000000E+04  0.10566000000E+00 0.  1.
        994   -1    0    0    0    0 -0.00000000000E+00 -0.00000000000E+00  0.11368683772E-12  0.17120000000E+03  0.17120000000E+03 0.  0.
         13    1    1    2    0    0 -0.24326279257E+02  0.19937067112E+02  0.10882711681E+03  0.11328109738E+03  0.10566000000E+00 0.  1.
        994    1    1    2    0    0  0.19203069098E+02 -0.42607039259E+01  0.58125230718E+01  0.17242429320E+03  0.17120000000E+03 0.  0.
        998    1    1    2    0    0  0.51232101590E+01 -0.15676363186E+02  0.13853603564E+04  0.13854946094E+04  0.10000000000E+02 0.  1.
</event>
<event>
 5    1  0.1440459E-008  0.3818658E+03  0.7957747E-01  0.3443074E+00
         13   -1    0    0    0    0  0.00000000000E+00  0.00000000000E+00  0.14999999963E+04  0.15000000000E+04  0.10566000000E+00 0. -1.
        994   -1    0    0    0    0 -0.00000000000E+00 -0.00000000000E+00  0.11368683772E-12  0.17120000000E+03  0.17120000000E+03 0.  0.
         13    1    1    2    0    0 -0.95468152624E+01  0.12358504908E+02  0.36245290194E+02  0.39466524429E+02  0.10566000000E+00 0. -1.
        994    1    1    2    0    0  0.11628172026E+02 -0.11700534024E+02  0.40988486316E+01  0.17204173169E+03  0.17120000000E+03 0.  0.
        998    1    1    2    0    0 -0.20813567635E+01 -0.65797088451E+00  0.14596558575E+04  0.14596917439E+04  0.10000000000E+02 0. -1.
</event>
<event>
 5    1  0.1440459E-008  0.3792380E+03  0.7957747E-01  0.3454483E+00
         13   -1    0    0    0    0  0.00000000000E+00  0.00000000000E+00  0.14999999963E+04  0.15000000000E+04  0.10566000000E+00 0. -1.
        994   -1    0    0    0    0 -0.00000000000E+00 -0.00000000000E+00  0.11368683772E-12  0.17120000000E+03  0.17120000000E+03 0.  0.
         13    1    1    2    0    0 -0.79157755022E+02 -0.57452816548E+02  0.38889312833E+03  0.40100455451E+03  0.10566000000E+00 0. -1.
        994    1    1    2    0    0  0.14454184011E+03  0.81629960833E+02  0.10321029157E+03  0.25984148694E+03  0.17120000000E+03 0.  0.
        998    1    1    2    0    0 -0.65384085093E+02 -0.24177144284E+02  0.10078965764E+04  0.10103539585E+04  0.10000000000E+02 0. -1.
</event>
<event>
 5    1  0.1440459E-008  0.3787272E+03  0.7957747E-01  0.3456719E+00
         13   -1    0    0    0    0  0.00000000000E+00  0.00000000000E+00  0.14999999963E+04  0.15000000000E+04  0.10566000000E+00 0.  1.
        994   -1    0    0    0    0 -0.00000000000E+00 -0.00000000000E+00  0.11368683772E-12  0.17120000000E+03  0.17120000000E+03 0.  0.
         13    1    1    2    0    0  0.12790997065E+02 -0.32064810108E+02  0.12616981741E+03  0.13080747548E+03  0.10566000000E+00 0.  1.
        994    1    1    2    0    0 -0.81781011044E+00  0.16976801726E+02  0.57473832311E+01  0.17213759910E+03  0.17120000000E+03 0.  0.
        998    1    1    2    0    0 -0.11973186955E+02  0.15088008382E+02  0.13680827956E+04  0.13682549254E+04  0.10000000000E+02 0.  1.
</event>
<event>
 5    1  0.1440459E-008  0.3852844E+03  0.7957747E-01  0.3428467E+00
         13   -1    0    0    0    0  0.00000000000E+00  0.00000000000E+00  0.14999999963E+04  0.15000000000E+04  0.10566000000E+00 0. -1.
        994   -1    0    0    0    0 -0.00000000000E+00 -0.00000000000E+00  0.11368683772E-12  0.17120000000E+03  0.17120000000E+03 0.  0.
         13    1    1    2    0    0 -0.15135893209E+02  0.11053839772E+02  0.11319955405E+03  0.11474072005E+03  0.10566000000E+00 0. -1.
        994    1    1    2    0    0  0.16952475485E+02 -0.55127048694E+01  0.25337955740E+01  0.17214423156E+03  0.17120000000E+03 0.  0.
        998    1    1    2    0    0 -0.18165822766E+01 -0.55411349024E+01  0.13842666467E+04  0.13843150484E+04  0.10000000000E+02 0. -1.
</event>
<event>
 5    1  0.1440459E-008  0.3848957E+03  0.7957747E-01  0.3430115E+00
         13   -1    0    0    0    0  0.00000000000E+00  0.00000000000E+00  0.14999999963E+04  0.15000000000E+04  0.10566000000E+00 0. -1.
        994   -1    0    0    0    0 -0.00000000000E+00 -0.00000000000E+00  0.11368683772E-12  0.17120000000E+03  0.17120000000E+03 0.  0.
         13    1    1    2    0    0  0.67947998060E+01  0.97592963014E+01  0.41175872615E+02  0.42858800944E+02  0.10566000000E+00 0. -1.
        994    1    1    2    0    0 -0.32342912827E+01 -0.11627721496E+02  0.21613020264E+01  0.17163850318E+03  0.17120000000E+03 0.  0.
        998    1    1    2    0    0 -0.35605085233E+01  0.18684251946E+01  0.14566628216E+04  0.14567026959E+04  0.10000000000E+02 0. -1.
</event>
<event>
 5    1  0.1440459E-008  0.3789892E+03  0.7957747E-01  0.3455572E+00
         13   -1    0    0    0    0  0.00000000000E+00  0.00000000000E+00  0.14999999963E+04  0.15000000000E+04  0.10566000000E+00 0. -1.
        994   -1    0    0    0    0 -0.00000000000E+00 -0.00000000000E+00  0.11368683772E-12  0.17120000000E+03  0.17120000000E+03 0.  0.
         13    1    1    2    0    0  0.30974410832E+02 -0.52878495041E+01  0.13562330431E+03  0.13921590181E+03  0.10566000000E+00 0. -1.
        994    1    1    2    0    0  0.27691651204E+02  0.18133291536E+02  0.83279319317E+01  0.17456929357E+03  0.17120000000E+03 0.  0.
        998    1    1    2    0    0 -0.58666062035E+02 -0.12845442032E+02  0.13560487600E+04  0.13574148046E+04  0.10000000000E+02 0. -1.
</event>
<event>
 5    1  0.1440459E-008  0.3786350E+03  0.7957747E-01  0.3457123E+00
         13   -1    0    0    0    0  0.00000000000E+00  0.00000000000E+00  0.14999999963E+04  0.15000000000E+04  0.10566000000E+00 0. -1.
        994   -1    0    0    0    0 -0.00000000000E+00 -0.00000000000E+00  0.11368683772E-12  0.17120000000E+03  0.17120000000E+03 0.  0.
         13    1    1    2    0    0  0.20853101007E+02 -0.13305930774E+02  0.64415894818E+02  0.69002306371E+02  0.10566000000E+00 0. -1.
        994    1    1    2    0    0 -0.36466019745E+01  0.28318104351E+01  0.48953505054E+01  0.17133219579E+03  0.17120000000E+03 0.  0.
        998    1    1    2    0    0 -0.17206499032E+02  0.10474120338E+02  0.14306887510E+04  0.14308654978E+04  0.10000000000E+02 0. -1.
</event>
<event>
 5    1  0.1440459E-008  0.3849828E+03  0.7957747E-01  0.3429745E+00
         13   -1    0    0    0    0  0.00000000000E+00  0.00000000000E+00  0.14999999963E+04  0.15000000000E+04  0.10566000000E+00 0. -1.
        994   -1    0    0    0    0 -0.00000000000E+00 -0.00000000000E+00  0.11368683772E-12  0.17120000000E+03  0.17120000000E+03 0.  0.
         13    1    1    2    0    0  0.20886135238E+01 -0.98235267194E+01  0.30118234166E+02  0.31748750794E+02  0.10566000000E+00 0. -1.
        994    1    1    2    0    0 -0.10511900040E+01  0.10005601556E+02  0.19716415973E+01  0.17150668918E+03  0.17120000000E+03 0.  0.
        998    1    1    2    0    0 -0.10374235198E+01 -0.18207483644E+00  0.14679101205E+04  0.14679445600E+04  0.10000000000E+02 0. -1.
</event>
<event>
 5    1  0.1440459E-008  0.3790803E+03  0.7957747E-01  0.3455173E+00
         13   -1    0    0    0    0  0.00000000000E+00  0.00000000000E+00  0.14999999963E+04  0.15000000000E+04  0.10566000000E+00 0.  1.
        994   -1    0    0    0    0 -0.00000000000E+00 -0.00000000000E+00  0.11368683772E-12  0.17120000000E+03  0.17120000000E+03 0.  0.
         13    1    1    2    0    0  0.10074972505E+02  0.35888656581E+02  0.13613505400E+03  0.14114625335E+03  0.10566000000E+00 0.  1.
        994    1    1    2    0    0 -0.11435975923E+02 -0.36838198989E+02  0.96032108528E+01  0.17575407850E+03  0.17120000000E+03 0.  0.
        998    1    1    2    0    0  0.13610034187E+01  0.94954240858E+00  0.13542617314E+04  0.13542996682E+04  0.10000000000E+02 0.  0.
</event>
<event>
 5    1  0.1440459E-008  0.3711242E+03  0.7957747E-01  0.3490740E+00
         13   -1    0    0    0    0  0.00000000000E+00  0.00000000000E+00  0.14999999963E+04  0.15000000000E+04  0.10566000000E+00 0. -1.
        994   -1    0    0    0    0 -0.00000000000E+00 -0.00000000000E+00  0.11368683772E-12  0.17120000000E+03  0.17120000000E+03 0.  0.
         13    1    1    2    0    0  0.12590514847E+03  0.25664546322E+02  0.56932569974E+03  0.58364590198E+03  0.10566000000E+00 0. -1.
        994    1    1    2    0    0 -0.12673184064E+03 -0.15088769489E+02  0.67063734361E+02  0.22382049697E+03  0.17120000000E+03 0.  0.
        998    1    1    2    0    0  0.82669217200E+00 -0.10575776833E+02  0.86361056218E+03  0.86373360105E+03  0.10000000000E+02 0.  0.
</event>
<event>
 5    1  0.1440459E-008  0.3831682E+03  0.7957747E-01  0.3437479E+00
         13   -1    0    0    0    0  0.00000000000E+00  0.00000000000E+00  0.14999999963E+04  0.15000000000E+04  0.10566000000E+00 0.  1.
        994   -1    0    0    0    0 -0.00000000000E+00 -0.00000000000E+00  0.11368683772E-12  0.17120000000E+03  0.17120000000E+03 0.  0.
         13    1    1    2    0    0  0.10174647128E+02 -0.21362372819E+02  0.11379914360E+03  0.11623308765E+03  0.10566000000E+00 0.  1.
        994    1    1    2    0    0 -0.84274699637E+01  0.57848791808E+01  0.28880973499E+01  0.17152920505E+03  0.17120000000E+03 0.  0.
        998    1    1    2    0    0 -0.17471771646E+01  0.15577493638E+02  0.13833127553E+04  0.13834377073E+04  0.10000000000E+02 0.  1.
</event>
<event>
 5    1  0.1440459E-008  0.3819943E+03  0.7957747E-01  0.3442521E+00
         13   -1    0    0    0    0  0.00000000000E+00  0.00000000000E+00  0.14999999963E+04  0.15000000000E+04  0.10566000000E+00 0.  1.
        994   -1    0    0    0    0 -0.00000000000E+00 -0.00000000000E+00  0.11368683772E-12  0.17120000000E+03  0.17120000000E+03 0.  0.
         13    1    1    2    0    0 -0.79100865981E+02 -0.14194028860E+03  0.91994292217E+03  0.93418359210E+03  0.10566000000E+00 0.  1.
        994    1    1    2    0    0  0.11477054938E+03  0.14517843916E+03  0.12673303931E+03  0.28216973873E+03  0.17120000000E+03 0.  0.
        998    1    1    2    0    0 -0.35669683399E+02 -0.32381505607E+01  0.45332403480E+03  0.45484666918E+03  0.10000000000E+02 0.  1.
</event>
<event>
 5    1  0.1440459E-008  0.3827980E+03  0.7957747E-01  0.3439065E+00
         13   -1    0    0    0    0  0.00000000000E+00  0.00000000000E+00  0.14999999963E+04  0.15000000000E+04  0.10566000000E+00 0. -1.
        994   -1    0    0    0    0 -0.00000000000E+00 -0.00000000000E+00  0.11368683772E-12  0.17120000000E+03  0.17120000000E+03 0.  0.
         13    1    1    2    0    0  0.20023063399E+02  0.31862047571E+02  0.22044195148E+03  0.22363089742E+03  0.10566000000E+00 0. -1.
        994    1    1    2    0    0 -0.23391691730E+02 -0.31641326622E+02  0.78729165021E+01  0.17584017632E+03  0.17120000000E+03 0.  0.
        998    1    1    2    0    0  0.33686283305E+01 -0.22072094974E+00  0.12716851283E+04  0.12717289263E+04  0.10000000000E+02 0. -1.
</event>
<event>
 5    1  0.1440459E-008  0.3856792E+03  0.7957747E-01  0.3426797E+00
         13   -1    0    0    0    0  0.00000000000E+00  0.00000000000E+00  0.14999999963E+04  0.15000000000E+04  0.10566000000E+00 0. -1.
        994   -1    0    0    0    0 -0.00000000000E+00 -0.00000000000E+00  0.11368683772E-12  0.17120000000E+03  0.17120000000E+03 0.  0.
         13    1    1    2    0    0  0.16964250617E+02 -0.35772326481E+01  0.95794058265E+02  0.97350373165E+02  0.10566000000E+00 0. -1.
        994    1    1    2    0    0 -0.49105015969E+02 -0.40359780956E+02  0.14664970267E+02  0.18320675715E+03  0.17120000000E+03 0.  0.
        998    1    1    2    0    0  0.32140765352E+02  0.43937013604E+02  0.13895409677E+04  0.13906428697E+04  0.10000000000E+02 0. -1.
</event>
<event>
 5    1  0.1440459E-008  0.3713786E+03  0.7957747E-01  0.3489579E+00
         13   -1    0    0    0    0  0.00000000000E+00  0.00000000000E+00  0.14999999963E+04  0.15000000000E+04  0.10566000000E+00 0.  1.
        994   -1    0    0    0    0 -0.00000000000E+00 -0.00000000000E+00  0.11368683772E-12  0.17120000000E+03  0.17120000000E+03 0.  0.
         13    1    1    2    0    0  0.30340896283E+01 -0.10540557487E+02  0.29853471326E+01  0.11368047922E+02  0.10566000000E+00 0.  1.
        994    1    1    2    0    0 -0.70032609142E+01  0.14307300689E+02  0.94239176594E+01  0.17219754569E+03  0.17120000000E+03 0.  0.
        998    1    1    2    0    0  0.39691712859E+01 -0.37667432015E+01  0.14875907315E+04  0.14876344064E+04  0.10000000000E+02 0.  1.
</event>
<event>
 5    1  0.1440459E-008  0.3800765E+03  0.7957747E-01  0.3450826E+00
         13   -1    0    0    0    0  0.00000000000E+00  0.00000000000E+00  0.14999999963E+04  0.15000000000E+04  0.10566000000E+00 0.  1.
        994   -1    0    0    0    0 -0.00000000000E+00 -0.00000000000E+00  0.11368683772E-12  0.17120000000E+03  0.17120000000E+03 0.  0.
         13    1    1    2    0    0 -0.17452794027E+02  0.21851807457E+02  0.89056482293E+02  0.93344360895E+02  0.10566000000E+00 0.  1.
        994    1    1    2    0    0  0.19825723515E+02 -0.20607093715E+02  0.68322026017E+01  0.17370616171E+03  0.17120000000E+03 0.  0.
        998    1    1    2    0    0 -0.23729294872E+01 -0.12447137411E+01  0.14041113114E+04  0.14041494774E+04  0.10000000000E+02 0.  0.
</event>
<event>
 5    1  0.1440459E-008  0.3753221E+03  0.7957747E-01  0.3471783E+00
         13   -1    0    0    0    0  0.00000000000E+00  0.00000000000E+00  0.14999999963E+04  0.15000000000E+04  0.10566000000E+00 0.  1.
        994   -1    0    0    0    0 -0.00000000000E+00 -0.00000000000E+00  0.11368683772E-12  0.17120000000E+03  0.17120000000E+03 0.  0.
         13    1    1    2    0    0 -0.52918811575E+02  0.18256826610E+02  0.25343845431E+03  0.25954724738E+03  0.10566000000E+00 0.  1.
        994    1    1    2    0    0  0.18387615535E+02 -0.18833158640E+02  0.88693715649E+01  0.17343845600E+03  0.17120000000E+03 0.  0.
        998    1    1    2    0    0  0.34531196040E+02  0.57633202920E+00  0.12376921704E+04  0.12382142966E+04  0.10000000000E+02 0.  1.
</event>
<event>
 5    1  0.3517437E-008  0.3864982E+03  0.7957747E-01  0.3423343E+00
         13   -1    0    0    0    0  0.00000000000E+00  0.00000000000E+00  0.14999999963E+04  0.15000000000E+04  0.10566000000E+00 0.  1.
        994   -1    0    0    0    0 -0.00000000000E+00 -0.00000000000E+00  0.11368683772E-12  0.17120000000E+03  0.17120000000E+03 0.  0.
         13    1    1    2    0    0  0.50333103426E+01  0.93685125802E+01  0.62029398082E+02  0.62934574214E+02  0.10566000000E+00 0.  1.
        994    1    1    2    0    0 -0.69589990144E+01 -0.10930133843E+02  0.14377863779E+01  0.17169566891E+03  0.17120000000E+03 0.  0.
        998    1    1    2    0    0  0.19256886718E+01  0.15616212629E+01  0.14365328118E+04  0.14365697569E+04  0.10000000000E+02 0.  1.
</event>
<event>
 5    1  0.1440459E-008  0.3775813E+03  0.7957747E-01  0.3461758E+00
         13   -1    0    0    0    0  0.00000000000E+00  0.00000000000E+00  0.14999999963E+04  0.15000000000E+04  0.10566000000E+00 0.  1.
        994   -1    0    0    0    0 -0.00000000000E+00 -0.00000000000E+00  0.11368683772E-12  0.17120000000E+03  0.17120000000E+03 0.  0.
         13    1    1    2    0    0 -0.41516596425E+01 -0.20249673386E+02  0.38495828056E+02  0.43694684938E+02  0.10566000000E+00 0.  1.
        994    1    1    2    0    0  0.66293373927E+01  0.61575519975E+01  0.56350080202E+01  0.17153150403E+03  0.17120000000E+03 0.  0.
        998    1    1    2    0    0 -0.24776777502E+01  0.14092121388E+02  0.14558691602E+04  0.14559738110E+04  0.10000000000E+02 0.  1.
</event>
<event>
 5    1  0.1440459E-008  0.3822579E+03  0.7957747E-01  0.3441386E+00
         13   -1    0    0    0    0  0.00000000000E+00  0.00000000000E+00  0.14999999963E+04  0.15000000000E+04  0.10566000000E+00 0. -1.
        994   -1    0    0    0    0 -0.00000000000E+00 -0.00000000000E+00  0.11368683772E-12  0.17120000000E+03  0.17120000000E+03 0.  0.
         13    1    1    2    0    0  0.12027707318E+01 -0.30677872018E+02  0.16918704566E+03  0.17195012670E+03  0.10566000000E+00 0. -1.
        994    1    1    2    0    0 -0.31335120018E+01  0.79670856704E+01  0.32409400297E+01  0.17144455968E+03  0.17120000000E+03 0.  0.
        998    1    1    2    0    0  0.19307412700E+01  0.22710786348E+02  0.13275720106E+04  0.13278053136E+04  0.10000000000E+02 0. -1.
</event>
<event>
 5    1  0.1440459E-008  0.3770984E+03  0.7957747E-01  0.3463891E+00
         13   -1    0    0    0    0  0.00000000000E+00  0.00000000000E+00  0.14999999963E+04  0.15000000000E+04  0.10566000000E+00 0. -1.
        994   -1    0    0    0    0 -0.00000000000E+00 -0.00000000000E+00  0.11368683772E-12  0.17120000000E+03  0.17120000000E+03 0.  0.
         13    1    1    2    0    0 -0.43527230229E+02 -0.44149170999E+02  0.29047793504E+03  0.29702055650E+03  0.10566000000E+00 0. -1.
        994    1    1    2    0    0  0.40223436279E+02  0.38806511958E+02  0.16222752481E+02  0.18082170195E+03  0.17120000000E+03 0.  0.
        998    1    1    2    0    0  0.33037939498E+01  0.53426590409E+01  0.11932993088E+04  0.11933577416E+04  0.10000000000E+02 0. -1.
</event>
<event>
 5    1  0.1440459E-008  0.3841467E+03  0.7957747E-01  0.3433299E+00
         13   -1    0    0    0    0  0.00000000000E+00  0.00000000000E+00  0.14999999963E+04  0.15000000000E+04  0.10566000000E+00 0.  1.
        994   -1    0    0    0    0 -0.00000000000E+00 -0.00000000000E+00  0.11368683772E-12  0.17120000000E+03  0.17120000000E+03 0.  0.
         13    1    1    2    0    0  0.16524804552E+02 -0.12748345713E+01  0.61322518267E+02  0.63522883903E+02  0.10566000000E+00 0.  1.
        994    1    1    2    0    0 -0.25935772947E+02 -0.32235624517E+01  0.43101894130E+01  0.17323704398E+03  0.17120000000E+03 0.  0.
        998    1    1    2    0    0  0.94109683950E+01  0.44983970230E+01  0.14343672886E+04  0.14344400721E+04  0.10000000000E+02 0.  1.
</event>
<event>
 5    1  0.1440459E-008  0.3834138E+03  0.7957747E-01  0.3436427E+00
         13   -1    0    0    0    0  0.00000000000E+00  0.00000000000E+00  0.14999999963E+04  0.15000000000E+04  0.10566000000E+00 0.  1.
        994   -1    0    0    0    0 -0.00000000000E+00 -0.00000000000E+00  0.11368683772E-12  0.17120000000E+03  0.17120000000E+03 0.  0.
         13    1    1    2    0    0  0.29159063458E+02 -0.12928076182E+02  0.12726364190E+03  0.13119996894E+03  0.10566000000E+00 0.  1.
        994    1    1    2    0    0 -0.68956456087E+02  0.76575752581E+02  0.38351131029E+02  0.20346765829E+03  0.17120000000E+03 0.  0.
        998    1    1    2    0    0  0.39797392630E+02 -0.63647676399E+02  0.13343852233E+04  0.13365323728E+04  0.10000000000E+02 0.  1.
</event>
<event>
 5    1  0.1440459E-008  0.3818859E+03  0.7957747E-01  0.3442988E+00
         13   -1    0    0    0    0  0.00000000000E+00  0.00000000000E+00  0.14999999963E+04  0.15000000000E+04  0.10566000000E+00 0.  1.
        994   -1    0    0    0    0 -0.00000000000E+00 -0.00000000000E+00  0.11368683772E-12  0.17120000000E+03  0.17120000000E+03 0.  0.
         13    1    1    2    0    0 -0.82211112683E+00  0.10459952508E+02  0.15835764026E+02  0.18996553885E+02  0.10566000000E+00 0.  1.
        994    1    1    2    0    0  0.43376894917E+01 -0.10533381946E+02  0.36153948815E+01  0.17161666226E+03  0.17120000000E+03 0.  0.
        998    1    1    2    0    0 -0.35155783648E+01  0.73429437928E-01  0.14805488374E+04  0.14805867839E+04  0.10000000000E+02 0.  1.
</event>
<event>
 5    1  0.1440459E-008  0.3830482E+03  0.7957747E-01  0.3437992E+00
         13   -1    0    0    0    0  0.00000000000E+00  0.00000000000E+00  0.14999999963E+04  0.15000000000E+04  0.10566000000E+00 0. -1.
        994   -1    0    0    0    0 -0.00000000000E+00 -0.00000000000E+00  0.11368683772E-12  0.17120000000E+03  0.17120000000E+03 0.  0.
         13    1    1    2    0    0 -0.92688428089E+01 -0.84757604360E+01  0.30156446233E+02  0.32667604372E+02  0.10566000000E+00 0. -1.
        994    1    1    2    0    0  0.64325112092E+01 -0.41637128317E+01  0.27966326752E+01  0.17139420894E+03  0.17120000000E+03 0.  0.
        998    1    1    2    0    0  0.28363315997E+01  0.12639473268E+02  0.14670469174E+04  0.14671381867E+04  0.10000000000E+02 0. -1.
</event>
<event>
 5    1  0.1440459E-008  0.3777010E+03  0.7957747E-01  0.3461230E+00
         13   -1    0    0    0    0  0.00000000000E+00  0.00000000000E+00  0.14999999963E+04  0.15000000000E+04  0.10566000000E+00 0.  1.
        994   -1    0    0    0    0 -0.00000000000E+00 -0.00000000000E+00  0.11368683772E-12  0.17120000000E+03  0.17120000000E+03 0.  0.
         13    1    1    2    0    0 -0.14692051383E+02 -0.81099212461E+01  0.24679083699E+02  0.29844522659E+02  0.10566000000E+00 0.  1.
        994    1    1    2    0    0  0.15510914068E+02 -0.14164638390E+02  0.67858715437E+01  0.17261724563E+03  0.17120000000E+03 0.  0.
        998    1    1    2    0    0 -0.81886268437E+00  0.22274559637E+02  0.14685350410E+04  0.14687382317E+04  0.10000000000E+02 0.  1.
</event>
<event>
 5    1  0.1440459E-008  0.3697630E+03  0.7957747E-01  0.3496981E+00
         13   -1    0    0    0    0  0.00000000000E+00  0.00000000000E+00  0.14999999963E+04  0.15000000000E+04  0.10566000000E+00 0.  1.
        994   -1    0    0    0    0 -0.00000000000E+00 -0.00000000000E+00  0.11368683772E-12  0.17120000000E+03  0.17120000000E+03 0.  0.
         13    1    1    2    0    0 -0.12766659059E+02 -0.28177922228E+02  0.47611142112E+02  0.56778648292E+02  0.10566000000E+00 0.  1.
        994    1    1    2    0    0 -0.12747384168E-01  0.20230771205E+02  0.10810556563E+02  0.17272982487E+03  0.17120000000E+03 0.  0.
        998    1    1    2    0    0  0.12779406443E+02  0.79471510229E+01  0.14415782976E+04  0.14416915268E+04  0.10000000000E+02 0.  1.
</event>
<event>
 5    1  0.1440459E-008  0.3817598E+03  0.7957747E-01  0.3443532E+00
         13   -1    0    0    0    0  0.00000000000E+00  0.00000000000E+00  0.14999999963E+04  0.15000000000E+04  0.10566000000E+00 0. -1.
        994   -1    0    0    0    0 -0.00000000000E+00 -0.00000000000E+00  0.11368683772E-12  0.17120000000E+03  0.17120000000E+03 0.  0.
         13    1    1    2    0    0  0.10848728477E+02  0.32197173412E+01  0.18374000613E+02  0.21579540122E+02  0.10566000000E+00 0. -1.
        994    1    1    2    0    0 -0.89433508696E+01 -0.92452819953E-01  0.35133586266E+01  0.17146946014E+03  0.17120000000E+03 0.  0.
        998    1    1    2    0    0 -0.19053776074E+01 -0.31272645213E+01  0.14781126370E+04  0.14781509997E+04  0.10000000000E+02 0. -1.
</event>
<event>
 5    1  0.1440459E-008  0.3938496E+03  0.7957747E-01  0.3392986E+00
         13   -1    0    0    0    0  0.00000000000E+00  0.00000000000E+00  0.14999999963E+04  0.15000000000E+04  0.10566000000E+00 0.  1.
        994   -1    0    0    0    0 -0.00000000000E+00 -0.00000000000E+00  0.11368683772E-12  0.17120000000E+03  0.17120000000E+03 0.  0.
         13    1    1    2    0    0  0.18735253241E+02  0.73065790879E+02  0.10418422448E+03  0.12862341663E+03  0.10566000000E+00 0.  1.
        994    1    1    2    0    0 -0.29654821971E+02 -0.66037862391E+02  0.44457071340E+02  0.19111849447E+03  0.17120000000E+03 0.  0.
        998    1    1    2    0    0  0.10919568731E+02 -0.70279284886E+01  0.13513587005E+04  0.13514580889E+04  0.10000000000E+02 0.  1.
</event>
<event>
 5    1  0.1440459E-008  0.3851054E+03  0.7957747E-01  0.3429225E+00
         13   -1    0    0    0    0  0.00000000000E+00  0.00000000000E+00  0.14999999963E+04  0.15000000000E+04  0.10566000000E+00 0.  1.
        994   -1    0    0    0    0 -0.00000000000E+00 -0.00000000000E+00  0.11368683772E-12  0.17120000000E+03  0.17120000000E+03 0.  0.
         13    1    1    2    0    0 -0.47831322012E+01 -0.15282072346E+02  0.78346976999E+02  0.79966743448E+02  0.10566000000E+00 0.  1.
        994    1    1    2    0    0  0.37897345363E+01  0.15402903010E+02  0.24054473379E+01  0.17195010231E+03  0.17120000000E+03 0.  0.
        998    1    1    2    0    0  0.99339766492E+00 -0.12083066385E+00  0.14192475719E+04  0.14192831542E+04  0.10000000000E+02 0.  1.
</event>
<event>
 5    1  0.1440459E-008  0.3806984E+03  0.7957747E-01  0.3448123E+00
         13   -1    0    0    0    0  0.00000000000E+00  0.00000000000E+00  0.14999999963E+04  0.15000000000E+04  0.10566000000E+00 0. -1.
        994   -1    0    0    0    0 -0.00000000000E+00 -0.00000000000E+00  0.11368683772E-12  0.17120000000E+03  0.17120000000E+03 0.  0.
         13    1    1    2    0    0  0.18891888902E+02 -0.56004289889E+01  0.52299980562E+02  0.55888884423E+02  0.10566000000E+00 0. -1.
        994    1    1    2    0    0 -0.25115234255E+00  0.39912631367E+01  0.38343715124E+01  0.17128962509E+03  0.17120000000E+03 0.  0.
        998    1    1    2    0    0 -0.18640736559E+02  0.16091658522E+01  0.14438656442E+04  0.14440214905E+04  0.10000000000E+02 0. -1.
</event>
<event>
 5    1  0.1440459E-008  0.3857062E+03  0.7957747E-01  0.3426683E+00
         13   -1    0    0    0    0  0.00000000000E+00  0.00000000000E+00  0.14999999963E+04  0.15000000000E+04  0.10566000000E+00 0.  1.
        994   -1    0    0    0    0 -0.00000000000E+00 -0.00000000000E+00  0.11368683772E-12  0.17120000000E+03  0.17120000000E+03 0.  0.
         13    1    1    2    0    0  0.78846592248E+01 -0.13853520965E+02  0.95051802347E+02  0.96379168847E+02  0.10566000000E+00 0.  1.
        994    1    1    2    0    0 -0.99812282294E+01  0.12928630026E+02  0.21557537951E+01  0.17199087669E+03  0.17120000000E+03 0.  0.
        998    1    1    2    0    0  0.20965690046E+01  0.92489093915E+00  0.14027924401E+04  0.14028299545E+04  0.10000000000E+02 0.  1.
</event>
<event>
 5    1  0.1440459E-008  0.3829348E+03  0.7957747E-01  0.3438479E+00
         13   -1    0    0    0    0  0.00000000000E+00  0.00000000000E+00  0.14999999963E+04  0.15000000000E+04  0.10566000000E+00 0. -1.
        994   -1    0    0    0    0 -0.00000000000E+00 -0.00000000000E+00  0.11368683772E-12  0.17120000000E+03  0.17120000000E+03 0.  0.
         13    1    1    2    0    0 -0.75457069254E+01  0.90271583499E+01  0.25225574537E+02  0.27834655658E+02  0.10566000000E+00 0. -1.
        994    1    1    2    0    0  0.31192427117E+01 -0.58337698715E+01  0.28038697178E+01  0.17135070537E+03  0.17120000000E+03 0.  0.
        998    1    1    2    0    0  0.44264642136E+01 -0.31933884784E+01  0.14719705520E+04  0.14720146390E+04  0.10000000000E+02 0. -1.
</event>
<event>
 5    1  0.1440459E-008  0.3704722E+03  0.7957747E-01  0.3493724E+00
         13   -1    0    0    0    0  0.00000000000E+00  0.00000000000E+00  0.14999999963E+04  0.15000000000E+04  0.10566000000E+00 0.  1.
        994   -1    0    0    0    0 -0.00000000000E+00 -0.00000000000E+00  0.11368683772E-12  0.17120000000E+03  0.17120000000E+03 0.  0.
         13    1    1    2    0    0  0.50607080023E+02 -0.35369093353E+02  0.18844544690E+03  0.19830216069E+03  0.10566000000E+00 0.  1.
        994    1    1    2    0    0 -0.49703546235E+02  0.26926944729E+02  0.20135523771E+02  0.18141218862E+03  0.17120000000E+03 0.  0.
        998    1    1    2    0    0 -0.90353378731E+00  0.84421486238E+01  0.12914190256E+04  0.12914856507E+04  0.10000000000E+02 0.  1.
</event>
<event>
 5    1  0.1440459E-008  0.3811881E+03  0.7957747E-01  0.3446001E+00
         13   -1    0    0    0    0  0.00000000000E+00  0.00000000000E+00  0.14999999963E+04  0.15000000000E+04  0.10566000000E+00 0.  1.
        994   -1    0    0    0    0 -0.00000000000E+00 -0.00000000000E+00  0.11368683772E-12  0.17120000000E+03  0.17120000000E+03 0.  0.
         13    1    1    2    0    0 -0.46815111639E+02 -0.14923375124E+01  0.27482723419E+03  0.27879006719E+03  0.10566000000E+00 0.  1.
        994    1    1    2    0    0  0.39488597526E+02 -0.33752179147E+01  0.87826492907E+01  0.17594691347E+03  0.17120000000E+03 0.  0.
        998    1    1    2    0    0  0.73265141131E+01  0.48675554270E+01  0.12163901128E+04  0.12164630193E+04  0.10000000000E+02 0.  1.
</event>
<event>
 5    1  0.1440459E-008  0.3742795E+03  0.7957747E-01  0.3476452E+00
         13   -1    0    0    0    0  0.00000000000E+00  0.00000000000E+00  0.14999999963E+04  0.15000000000E+04  0.10566000000E+00 0. -1.
        994   -1    0    0    0    0 -0.00000000000E+00 -0.00000000000E+00  0.11368683772E-12  0.17120000000E+03  0.17120000000E+03 0.  0.
         13    1    1    2    0    0 -0.27924015890E+02 -0.53761936133E+02  0.14838066172E+03  0.16027142096E+03  0.10566000000E+00 0. -1.
        994    1    1    2    0    0  0.14260506994E+02  0.73266384923E+01  0.14132567735E+02  0.17252887052E+03  0.17120000000E+03 0.  0.
        998    1    1    2    0    0  0.13663508896E+02  0.46435297640E+02  0.13374867668E+04  0.13383997085E+04  0.10000000000E+02 0. -1.
</event>
<event>
 5    1  0.1440459E-008  0.3846731E+03  0.7957747E-01  0.3431060E+00
         13   -1    0    0    0    0  0.00000000000E+00  0.00000000000E+00  0.14999999963E+04  0.15000000000E+04  0.10566000000E+00 0. -1.
        994   -1    0    0    0    0 -0.00000000000E+00 -0.00000000000E+00  0.11368683772E-12  0.17120000000E+03  0.17120000000E+03 0.  0.
         13    1    1    2    0    0 -0.12168674356E+02 -0.86821725527E+01  0.61700919513E+02  0.63485993642E+02  0.10566000000E+00 0. -1.
        994    1    1    2    0    0  0.14375272348E+02 -0.83433641843E+00  0.24754529788E+01  0.17182232812E+03  0.17120000000E+03 0.  0.
        998    1    1    2    0    0 -0.22065979922E+01  0.95165089711E+01  0.14358236238E+04  0.14358916782E+04  0.10000000000E+02 0. -1.
</event>
<event>
 5    1  0.1440459E-008  0.3736304E+03  0.7957747E-01  0.3479371E+00
         13   -1    0    0    0    0  0.00000000000E+00  0.00000000000E+00  0.14999999963E+04  0.15000000000E+04  0.10566000000E+00 0.  1.
        994   -1    0    0    0    0 -0.00000000000E+00 -0.00000000000E+00  0.11368683772E-12  0.17120000000E+03  0.17120000000E+03 0.  0.
         13    1    1    2    0    0 -0.35322802429E+02 -0.13431349973E+02  0.50574425634E+02  0.63133867502E+02  0.10566000000E+00 0.  1.
        994    1    1    2    0    0  0.21600004125E+02  0.17153998535E+02  0.15570207792E+02  0.17410540260E+03  0.17120000000E+03 0.  0.
        998    1    1    2    0    0  0.13722798304E+02 -0.37226485621E+01  0.14338553629E+04  0.14339607299E+04  0.10000000000E+02 0.  1.
</event>
<event>
 5    1  0.1440459E-008  0.3845478E+03  0.7957747E-01  0.3431592E+00
         13   -1    0    0    0    0  0.00000000000E+00  0.00000000000E+00  0.14999999963E+04  0.15000000000E+04  0.10566000000E+00 0.  1.
        994   -1    0    0    0    0 -0.00000000000E+00 -0.00000000000E+00  0.11368683772E-12  0.17120000000E+03  0.17120000000E+03 0.  0.
         13    1    1    2    0    0  0.10603150732E+02 -0.85982142200E+00  0.29081793521E+02  0.30966562236E+02  0.10566000000E+00 0.  1.
        994    1    1    2    0    0 -0.15824170587E+02 -0.15848466008E+01  0.26882210869E+01  0.17195808398E+03  0.17120000000E+03 0.  0.
        998    1    1    2    0    0  0.52210198543E+01  0.24446680228E+01  0.14682299817E+04  0.14682753538E+04  0.10000000000E+02 0.  1.
</event>
<event>
 5    1  0.1440459E-008  0.3736145E+03  0.7957747E-01  0.3479443E+00
         13   -1    0    0    0    0  0.00000000000E+00  0.00000000000E+00  0.14999999963E+04  0.15000000000E+04  0.10566000000E+00 0. -1.
        994   -1    0    0    0    0 -0.00000000000E+00 -0.00000000000E+00  0.11368683772E-12  0.17120000000E+03  0.17120000000E+03 0.  0.
         13    1    1    2    0    0 -0.54669157646E+02  0.38639164732E+02  0.33765603766E+03  0.34422857636E+03  0.10566000000E+00 0. -1.
        994    1    1    2    0    0  0.97724362773E-01 -0.44452652110E+02  0.14170641328E+02  0.17744377956E+03  0.17120000000E+03 0.  0.
        998    1    1    2    0    0  0.54571433283E+02  0.58134873776E+01  0.11481733173E+04  0.11495276441E+04  0.10000000000E+02 0. -1.
</event>
<event>
 5    1  0.1440459E-008  0.3830484E+03  0.7957747E-01  0.3437991E+00
         13   -1    0    0    0    0  0.00000000000E+00  0.00000000000E+00  0.14999999963E+04  0.15000000000E+04  0.10566000000E+00 0.  1.
        994   -1    0    0    0    0 -0.00000000000E+00 -0.00000000000E+00  0.11368683772E-12  0.17120000000E+03  0.17120000000E+03 0.  0.
         13    1    1    2    0    0 -0.20275724831E+02  0.13542277629E+02  0.11056847923E+03  0.11322498869E+03  0.10566000000E+00 0.  1.
        994    1    1    2    0    0  0.17468982324E+02 -0.78799146408E+01  0.38185805074E+01  0.17231157812E+03  0.17120000000E+03 0.  0.
        998    1    1    2    0    0  0.28067425073E+01 -0.56623629883E+01  0.13856129365E+04  0.13856634332E+04  0.10000000000E+02 0.  1.
</event>
<event>
 5    1  0.1440459E-008  0.3814969E+03  0.7957747E-01  0.3444666E+00
         13   -1    0    0    0    0  0.00000000000E+00  0.00000000000E+00  0.14999999963E+04  0.15000000000E+04  0.10566000000E+00 0.  1.
        994   -1    0    0    0    0 -0.00000000000E+00 -0.00000000000E+00  0.11368683772E-12  0.17120000000E+03  0.17120000000E+03 0.  0.
         13    1    1    2    0    0  0.25170838492E+02  0.68134128942E+01  0.92388498743E+02  0.95998122740E+02  0.10566000000E+00 0.  1.
        994    1    1    2    0    0 -0.33290725282E+02  0.78668942433E+01  0.72816786828E+01  0.17473586712E+03  0.17120000000E+03 0.  0.
        998    1    1    2    0    0  0.81198867907E+01 -0.14680307137E+02  0.14003298189E+04  0.14004660101E+04  0.10000000000E+02 0.  1.
</event>
<event>
 5    1  0.1440459E-008  0.3844546E+03  0.7957747E-01  0.3431989E+00
         13   -1    0    0    0    0  0.00000000000E+00  0.00000000000E+00  0.14999999963E+04  0.15000000000E+04  0.10566000000E+00 0. -1.
        994   -1    0    0    0    0 -0.00000000000E+00 -0.00000000000E+00  0.11368683772E-12  0.17120000000E+03  0.17120000000E+03 0.  0.
         13    1    1    2    0    0 -0.19868421428E+01 -0.14443363150E+02  0.53346698140E+02  0.55303161278E+02  0.10566000000E+00 0. -1.
        994    1    1    2    0    0  0.33416310694E+01  0.17206129876E+02  0.29139464393E+01  0.17211957613E+03  0.17120000000E+03 0.  0.
        998    1    1    2    0    0 -0.13547889266E+01 -0.27627667268E+01  0.14437393517E+04  0.14437772626E+04  0.10000000000E+02 0.  0.
</event>
<event>
 5    1  0.1440459E-008  0.3834400E+03  0.7957747E-01  0.3436316E+00
         13   -1    0    0    0    0  0.00000000000E+00  0.00000000000E+00  0.14999999963E+04  0.15000000000E+04  0.10566000000E+00 0.  1.
        994   -1    0    0    0    0 -0.00000000000E+00 -0.00000000000E+00  0.11368683772E-12  0.17120000000E+03  0.17120000000E+03 0.  0.
         13    1    1    2    0    0 -0.20568770102E+02  0.11426305081E+02  0.12803824506E+03  0.13018232643E+03  0.10566000000E+00 0.  1.
        994    1    1    2    0    0 -0.23471329634E+01 -0.34352796438E+01  0.24638764362E+01  0.17126827163E+03  0.17120000000E+03 0.  0.
        998    1    1    2    0    0  0.22915903065E+02 -0.79910254374E+01  0.13694978748E+04  0.13697494019E+04  0.10000000000E+02 0.  1.
</event>
<event>
 5    1  0.1440459E-008  0.3791531E+03  0.7957747E-01  0.3454854E+00
         13   -1    0    0    0    0  0.00000000000E+00  0.00000000000E+00  0.14999999963E+04  0.15000000000E+04  0.10566000000E+00 0.  1.
        994   -1    0    0    0    0 -0.00000000000E+00 -0.00000000000E+00  0.11368683772E-12  0.17120000000E+03  0.17120000000E+03 0.  0.
         13    1    1    2    0    0 -0.91553626597E+01  0.10511324334E+02  0.19068192341E+02  0.23620239793E+02  0.10566000000E+00 0.  1.
        994    1    1    2    0    0  0.96893421033E+01 -0.12626109507E+02  0.54108521416E+01  0.17202331038E+03  0.17120000000E+03 0.  0.
        998    1    1    2    0    0 -0.53397944360E+00  0.21147851730E+01  0.14755209518E+04  0.14755564498E+04  0.10000000000E+02 0.  1.
</event>
<event>
 5    1  0.1440459E-008  0.3787010E+03  0.7957747E-01  0.3456834E+00
         13   -1    0    0    0    0  0.00000000000E+00  0.00000000000E+00  0.14999999963E+04  0.15000000000E+04  0.10566000000E+00 0. -1.
        994   -1    0    0    0    0 -0.00000000000E+00 -0.00000000000E+00  0.11368683772E-12  0.17120000000E+03  0.17120000000E+03 0.  0.
         13    1    1    2    0    0 -0.10722461154E+02  0.28449588143E+02  0.23334745025E+02  0.38325862392E+02  0.10566000000E+00 0. -1.
        994    1    1    2    0    0 -0.50835972131E+01 -0.23524184717E+02  0.17707153397E+02  0.17378784051E+03  0.17120000000E+03 0.  0.
        998    1    1    2    0    0  0.15806058367E+02 -0.49254034255E+01  0.14589580979E+04  0.14590862971E+04  0.10000000000E+02 0. -1.
</event>
<event>
 5    1  0.1440459E-008  0.3871640E+03  0.7957747E-01  0.3420546E+00
         13   -1    0    0    0    0  0.00000000000E+00  0.00000000000E+00  0.14999999963E+04  0.15000000000E+04  0.10566000000E+00 0. -1.
        994   -1    0    0    0    0 -0.00000000000E+00 -0.00000000000E+00  0.11368683772E-12  0.17120000000E+03  0.17120000000E+03 0.  0.
         13    1    1    2    0    0 -0.14603077906E+02  0.10204938614E+03  0.22742288970E+03  0.24969683422E+03  0.10566000000E+00 0. -1.
        994    1    1    2    0    0  0.16571599454E+02 -0.89893412988E+02  0.52131091131E+02  0.20095406010E+03  0.17120000000E+03 0.  0.
        998    1    1    2    0    0 -0.19685215486E+01 -0.12155973154E+02  0.12204460154E+04  0.12205491057E+04  0.10000000000E+02 0. -1.
</event>
<event>
 5    1  0.1440459E-008  0.3751465E+03  0.7957747E-01  0.3472568E+00
         13   -1    0    0    0    0  0.00000000000E+00  0.00000000000E+00  0.14999999963E+04  0.15000000000E+04  0.10566000000E+00 0. -1.
        994   -1    0    0    0    0 -0.00000000000E+00 -0.00000000000E+00  0.11368683772E-12  0.17120000000E+03  0.17120000000E+03 0.  0.
         13    1    1    2    0    0  0.18787102340E+00 -0.23262775752E+02  0.38042047192E+02  0.44591485171E+02  0.10566000000E+00 0. -1.
        994    1    1    2    0    0  0.45642229878E+01  0.18296717666E+02  0.78125867284E+01  0.17241252426E+03  0.17120000000E+03 0.  0.
        998    1    1    2    0    0 -0.47520940112E+01  0.49660580858E+01  0.14541453624E+04  0.14541959906E+04  0.10000000000E+02 0. -1.
</event>
<event>
 5    1  0.1440459E-008  0.3792162E+03  0.7957747E-01  0.3454579E+00
         13   -1    0    0    0    0  0.00000000000E+00  0.00000000000E+00  0.14999999963E+04  0.15000000000E+04  0.10566000000E+00 0.  1.
        994   -1    0    0    0    0 -0.00000000000E+00 -0.00000000000E+00  0.11368683772E-12  0.17120000000E+03  0.17120000000E+03 0.  0.
         13    1    1    2    0    0  0.19905199828E+02 -0.85495243388E+01  0.49058188777E+02  0.53628615465E+02  0.10566000000E+00 0.  1.
        994    1    1    2    0    0 -0.14881315991E+02  0.15902087485E+02  0.61207251593E+01  0.17268825446E+03  0.17120000000E+03 0.  0.
        998    1    1    2    0    0 -0.50238838364E+01 -0.73525631458E+01  0.14448210823E+04  0.14448831301E+04  0.10000000000E+02 0.  1.
</event>
<event>
 5    1  0.1440459E-008  0.3799136E+03  0.7957747E-01  0.3451535E+00
         13   -1    0    0    0    0  0.00000000000E+00  0.00000000000E+00  0.14999999963E+04  0.15000000000E+04  0.10566000000E+00 0.  1.
        994   -1    0    0    0    0 -0.00000000000E+00 -0.00000000000E+00  0.11368683772E-12  0.17120000000E+03  0.17120000000E+03 0.  0.
         13    1    1    2    0    0  0.16307974259E+02 -0.90445710404E+01  0.40999613703E+02  0.45041467312E+02  0.10566000000E+00 0.  1.
        994    1    1    2    0    0 -0.13515229742E+01  0.88232113323E+01  0.44432426136E+01  0.17149011073E+03  0.17120000000E+03 0.  0.
        998    1    1    2    0    0 -0.14956451285E+02  0.22135970811E+00  0.14545571400E+04  0.14546684220E+04  0.10000000000E+02 0.  1.
</event>
<event>
 5    1  0.1440459E-008  0.3853083E+03  0.7957747E-01  0.3428366E+00
         13   -1    0    0    0    0  0.00000000000E+00  0.00000000000E+00  0.14999999963E+04  0.15000000000E+04  0.10566000000E+00 0. -1.
        994   -1    0    0    0    0 -0.00000000000E+00 -0.00000000000E+00  0.11368683772E-12  0.17120000000E+03  0.17120000000E+03 0.  0.
         13    1    1    2    0    0 -0.11568062875E+02 -0.40287395366E+00  0.48872617934E+02  0.50224758176E+02  0.10566000000E+00 0. -1.
        994    1    1    2    0    0 -0.50002568918E+01  0.13228535319E+02  0.21344882161E+01  0.17179637003E+03  0.17120000000E+03 0.  0.
        998    1    1    2    0    0  0.16568319767E+02 -0.12825661366E+02  0.14489928901E+04  0.14491788718E+04  0.10000000000E+02 0. -1.
</event>
<event>
 5    1  0.1440459E-008  0.3705147E+03  0.7957747E-01  0.3493529E+00
         13   -1    0    0    0    0  0.00000000000E+00  0.00000000000E+00  0.14999999963E+04  0.15000000000E+04  0.10566000000E+00 0. -1.
        994   -1    0    0    0    0 -0.00000000000E+00 -0.00000000000E+00  0.11368683772E-12  0.17120000000E+03  0.17120000000E+03 0.  0.
         13    1    1    2    0    0  0.34771683149E+02  0.91584224656E+00  0.62868276400E+02  0.71849426286E+02  0.10566000000E+00 0. -1.
        994    1    1    2    0    0 -0.28331691545E+02  0.33627257081E+02  0.15703411869E+02  0.17745285095E+03  0.17120000000E+03 0.  0.
        998    1    1    2    0    0 -0.64399916034E+01 -0.34543099327E+02  0.14214283080E+04  0.14218977228E+04  0.10000000000E+02 0. -1.
</event>
<event>
 5    1  0.1440459E-008  0.3758022E+03  0.7957747E-01  0.3469643E+00
         13   -1    0    0    0    0  0.00000000000E+00  0.00000000000E+00  0.14999999963E+04  0.15000000000E+04  0.10566000000E+00 0.  1.
        994   -1    0    0    0    0 -0.00000000000E+00 -0.00000000000E+00  0.11368683772E-12  0.17120000000E+03  0.17120000000E+03 0.  0.
         13    1    1    2    0    0 -0.14253330504E+01  0.44161706578E+02  0.16660702301E+03  0.17236646769E+03  0.10566000000E+00 0.  1.
        994    1    1    2    0    0  0.20875982152E+02 -0.11257011006E+02  0.81766820144E+01  0.17302839379E+03  0.17120000000E+03 0.  0.
        998    1    1    2    0    0 -0.19450649102E+02 -0.32904695572E+02  0.13252162913E+04  0.13258051385E+04  0.10000000000E+02 0.  1.
</event>
<event>
 5    1  0.1440459E-008  0.3822605E+03  0.7957747E-01  0.3441374E+00
         13   -1    0    0    0    0  0.00000000000E+00  0.00000000000E+00  0.14999999963E+04  0.15000000000E+04  0.10566000000E+00 0.  1.
        994   -1    0    0    0    0 -0.00000000000E+00 -0.00000000000E+00  0.11368683772E-12  0.17120000000E+03  0.17120000000E+03 0.  0.
         13    1    1    2    0    0  0.19346219504E+02 -0.13967145804E+02  0.10008526662E+03  0.10289037433E+03  0.10566000000E+00 0.  1.
        994    1    1    2    0    0 -0.29387063408E+01  0.34179891234E+01  0.30638194027E+01  0.17128673514E+03  0.17120000000E+03 0.  0.
        998    1    1    2    0    0 -0.16407513163E+02  0.10549156680E+02  0.13968509103E+04  0.13970228905E+04  0.10000000000E+02 0.  1.
</event>
<event>
 5    1  0.1440459E-008  0.3790642E+03  0.7957747E-01  0.3455244E+00
         13   -1    0    0    0    0  0.00000000000E+00  0.00000000000E+00  0.14999999963E+04  0.15000000000E+04  0.10566000000E+00 0. -1.
        994   -1    0    0    0    0 -0.00000000000E+00 -0.00000000000E+00  0.11368683772E-12  0.17120000000E+03  0.17120000000E+03 0.  0.
         13    1    1    2    0    0  0.27192762420E+02  0.30108489389E+02  0.18167584715E+03  0.18615072404E+03  0.10566000000E+00 0. -1.
        994    1    1    2    0    0 -0.13131794454E+02 -0.14736876142E+02  0.59138916513E+01  0.17243559278E+03  0.17120000000E+03 0.  0.
        998    1    1    2    0    0 -0.14060967966E+02 -0.15371613247E+02  0.13124102575E+04  0.13126136832E+04  0.10000000000E+02 0. -1.
</event>
<event>
 5    1  0.1440459E-008  0.3799776E+03  0.7957747E-01  0.3451256E+00
         13   -1    0    0    0    0  0.00000000000E+00  0.00000000000E+00  0.14999999963E+04  0.15000000000E+04  0.10566000000E+00 0.  1.
        994   -1    0    0    0    0 -0.00000000000E+00 -0.00000000000E+00  0.11368683772E-12  0.17120000000E+03  0.17120000000E+03 0.  0.
         13    1    1    2    0    0 -0.43799611154E+02 -0.50775657778E+02  0.11838479734E+03  0.13605713787E+03  0.10566000000E+00 0.  1.
        994    1    1    2    0    0  0.53396504948E+02  0.54918768090E+02  0.37894665540E+02  0.19134446296E+03  0.17120000000E+03 0.  0.
        998    1    1    2    0    0 -0.95968937933E+01 -0.41431103120E+01  0.13437205334E+04  0.13437983992E+04  0.10000000000E+02 0.  1.
</event>
<event>
 5    1  0.1440459E-008  0.3772645E+03  0.7957747E-01  0.3463156E+00
         13   -1    0    0    0    0  0.00000000000E+00  0.00000000000E+00  0.14999999963E+04  0.15000000000E+04  0.10566000000E+00 0. -1.
        994   -1    0    0    0    0 -0.00000000000E+00 -0.00000000000E+00  0.11368683772E-12  0.17120000000E+03  0.17120000000E+03 0.  0.
         13    1    1    2    0    0 -0.10404750373E+02  0.28572207436E+02  0.25672949872E+02  0.39796248407E+02  0.10566000000E+00 0. -1.
        994    1    1    2    0    0  0.89172755300E+01 -0.10945200252E+02  0.15548151854E+02  0.17248333322E+03  0.17120000000E+03 0.  0.
        998    1    1    2    0    0  0.14874748425E+01 -0.17627007185E+02  0.14587788946E+04  0.14589204184E+04  0.10000000000E+02 0. -1.
</event>
<event>
 5    1  0.1440459E-008  0.3695519E+03  0.7957747E-01  0.3497953E+00
         13   -1    0    0    0    0  0.00000000000E+00  0.00000000000E+00  0.14999999963E+04  0.15000000000E+04  0.10566000000E+00 0. -1.
        994   -1    0    0    0    0 -0.00000000000E+00 -0.00000000000E+00  0.11368683772E-12  0.17120000000E+03  0.17120000000E+03 0.  0.
         13    1    1    2    0    0  0.30122034070E+02 -0.60486209826E+02  0.21268730836E+03  0.22316321564E+03  0.10566000000E+00 0. -1.
        994    1    1    2    0    0 -0.36642820086E+02  0.49105647328E+02  0.22618542953E+02  0.18323509311E+03  0.17120000000E+03 0.  0.
        998    1    1    2    0    0  0.65207860161E+01  0.11380562498E+02  0.12646941450E+04  0.12648016912E+04  0.10000000000E+02 0. -1.
</event>
<event>
 5    1  0.1440459E-008  0.3850120E+03  0.7957747E-01  0.3429621E+00
         13   -1    0    0    0    0  0.00000000000E+00  0.00000000000E+00  0.14999999963E+04  0.15000000000E+04  0.10566000000E+00 0.  1.
        994   -1    0    0    0    0 -0.00000000000E+00 -0.00000000000E+00  0.11368683772E-12  0.17120000000E+03  0.17120000000E+03 0.  0.
         13    1    1    2    0    0  0.51760604258E+01  0.11449431396E+02  0.47433993560E+02  0.49070113001E+02  0.10566000000E+00 0.  1.
        994    1    1    2    0    0 -0.10173067417E+02 -0.93375284468E+01  0.22514846154E+01  0.17177074815E+03  0.17120000000E+03 0.  0.
        998    1    1    2    0    0  0.49970069917E+01 -0.21119029489E+01  0.14503145181E+04  0.14503591388E+04  0.10000000000E+02 0.  1.
</event>
<event>
 5    1  0.1440459E-008  0.3852420E+03  0.7957747E-01  0.3428647E+00
         13   -1    0    0    0    0  0.00000000000E+00  0.00000000000E+00  0.14999999963E+04  0.15000000000E+04  0.10566000000E+00 0.  1.
        994   -1    0    0    0    0 -0.00000000000E+00 -0.00000000000E+00  0.11368683772E-12  0.17120000000E+03  0.17120000000E+03 0.  0.
         13    1    1    2    0    0 -0.25901169608E+01  0.13753706782E+02  0.74750761116E+02  0.76049724573E+02  0.10566000000E+00 0.  1.
        994    1    1    2    0    0 -0.10262241477E+02  0.82072338670E+01  0.20776703733E+01  0.17171612913E+03  0.17120000000E+03 0.  0.
        998    1    1    2    0    0  0.12852358438E+02 -0.21960940649E+02  0.14231715648E+04  0.14234341463E+04  0.10000000000E+02 0.  1.
</event>
<event>
 5    1  0.1440459E-008  0.3733028E+03  0.7957747E-01  0.3480848E+00
         13   -1    0    0    0    0  0.00000000000E+00  0.00000000000E+00  0.14999999963E+04  0.15000000000E+04  0.10566000000E+00 0. -1.
        994   -1    0    0    0    0 -0.00000000000E+00 -0.00000000000E+00  0.11368683772E-12  0.17120000000E+03  0.17120000000E+03 0.  0.
         13    1    1    2    0    0  0.38955580328E+02 -0.17794797949E+02  0.66202170939E+02  0.78847515330E+02  0.10566000000E+00 0. -1.
        994    1    1    2    0    0 -0.30003058438E+02  0.20937592801E+02  0.17445196123E+02  0.17593277459E+03  0.17120000000E+03 0.  0.
        998    1    1    2    0    0 -0.89525218899E+01 -0.31427948523E+01  0.14163526292E+04  0.14164197101E+04  0.10000000000E+02 0. -1.
</event>
<event>
 5    1  0.1440459E-008  0.3832503E+03  0.7957747E-01  0.3437127E+00
         13   -1    0    0    0    0  0.00000000000E+00  0.00000000000E+00  0.14999999963E+04  0.15000000000E+04  0.10566000000E+00 0.  1.
        994   -1    0    0    0    0 -0.00000000000E+00 -0.00000000000E+00  0.11368683772E-12  0.17120000000E+03  0.17120000000E+03 0.  0.
         13    1    1    2    0    0  0.10655855160E+02 -0.42893040988E+01  0.24653889105E+02  0.27198727744E+02  0.10566000000E+00 0.  1.
        994    1    1    2    0    0 -0.15508116995E+02  0.97773930438E+01  0.36137581398E+01  0.17221671915E+03  0.17120000000E+03 0.  0.
        998    1    1    2    0    0  0.48522618358E+01 -0.54880889450E+01  0.14717323490E+04  0.14717845531E+04  0.10000000000E+02 0.  1.
</event>
<event>
 5    1  0.1440459E-008  0.3821373E+03  0.7957747E-01  0.3441905E+00
         13   -1    0    0    0    0  0.00000000000E+00  0.00000000000E+00  0.14999999963E+04  0.15000000000E+04  0.10566000000E+00 0.  1.
        994   -1    0    0    0    0 -0.00000000000E+00 -0.00000000000E+00  0.11368683772E-12  0.17120000000E+03  0.17120000000E+03 0.  0.
         13    1    1    2    0    0 -0.16613147599E+02 -0.11687348171E+02  0.71804387852E+02  0.74622195487E+02  0.10566000000E+00 0.  1.
        994    1    1    2    0    0  0.62398108267E+01 -0.12641359468E+02  0.37180854365E+01  0.17181968271E+03  0.17120000000E+03 0.  0.
        998    1    1    2    0    0  0.10373336772E+02  0.24328707639E+02  0.14244775230E+04  0.14247581218E+04  0.10000000000E+02 0.  1.
</event>
<event>
 5    1  0.1440459E-008  0.3829519E+03  0.7957747E-01  0.3438405E+00
         13   -1    0    0    0    0  0.00000000000E+00  0.00000000000E+00  0.14999999963E+04  0.15000000000E+04  0.10566000000E+00 0.  1.
        994   -1    0    0    0    0 -0.00000000000E+00 -0.00000000000E+00  0.11368683772E-12  0.17120000000E+03  0.17120000000E+03 0.  0.
         13    1    1    2    0    0  0.49132191812E+01  0.16967405831E+02  0.57983734914E+02  0.60614827080E+02  0.10566000000E+00 0.  1.
        994    1    1    2    0    0  0.11883512110E+02 -0.15959792585E+02  0.39623056008E+01  0.17239800667E+03  0.17120000000E+03 0.  0.
        998    1    1    2    0    0 -0.16796731292E+02 -0.10076132455E+01  0.14380539558E+04  0.14381871662E+04  0.10000000000E+02 0.  1.
</event>
<event>
 5    1  0.1440459E-008  0.3806543E+03  0.7957747E-01  0.3448314E+00
         13   -1    0    0    0    0  0.00000000000E+00  0.00000000000E+00  0.14999999963E+04  0.15000000000E+04  0.10566000000E+00 0. -1.
        994   -1    0    0    0    0 -0.00000000000E+00 -0.00000000000E+00  0.11368683772E-12  0.17120000000E+03  0.17120000000E+03 0.  0.
         13    1    1    2    0    0 -0.28796328770E+02 -0.47891591655E+02  0.32001708879E+03  0.32485963335E+03  0.10566000000E+00 0. -1.
        994    1    1    2    0    0  0.21620539164E+02  0.53934181186E+02  0.15148906224E+02  0.18142566790E+03  0.17120000000E+03 0.  0.
        998    1    1    2    0    0  0.71757896062E+01 -0.60425895314E+01  0.11648340013E+04  0.11649146987E+04  0.10000000000E+02 0. -1.
</event>
<event>
 5    1  0.1440459E-008  0.3698214E+03  0.7957747E-01  0.3496712E+00
         13   -1    0    0    0    0  0.00000000000E+00  0.00000000000E+00  0.14999999963E+04  0.15000000000E+04  0.10566000000E+00 0. -1.
        994   -1    0    0    0    0 -0.00000000000E+00 -0.00000000000E+00  0.11368683772E-12  0.17120000000E+03  0.17120000000E+03 0.  0.
         13    1    1    2    0    0 -0.10018573289E+03 -0.12843050557E+03  0.87367637347E+03  0.88873055116E+03  0.10566000000E+00 0. -1.
        994    1    1    2    0    0  0.63155479541E+02  0.12503661454E+03  0.80666774468E+02  0.23545559682E+03  0.17120000000E+03 0.  0.
        998    1    1    2    0    0  0.37030253354E+02  0.33938910220E+01  0.54565684834E+03  0.54701385201E+03  0.10000000000E+02 0. -1.
</event>
<event>
 5    1  0.1440459E-008  0.4038416E+03  0.7957747E-01  0.3353493E+00
         13   -1    0    0    0    0  0.00000000000E+00  0.00000000000E+00  0.14999999963E+04  0.15000000000E+04  0.10566000000E+00 0. -1.
        994   -1    0    0    0    0 -0.00000000000E+00 -0.00000000000E+00  0.11368683772E-12  0.17120000000E+03  0.17120000000E+03 0.  0.
         13    1    1    2    0    0  0.29739686683E+02  0.12459466889E+02  0.54272505933E+01  0.32697912658E+02  0.10566000000E+00 0. -1.
        994    1    1    2    0    0 -0.36191104961E+01 -0.12088445533E+02  0.30731361215E+02  0.17439347763E+03  0.17120000000E+03 0.  0.
        998    1    1    2    0    0 -0.26120576187E+02 -0.37102135581E+00  0.14638413845E+04  0.14641086097E+04  0.10000000000E+02 0. -1.
</event>
<event>
 5    1  0.1440459E-008  0.3762502E+03  0.7957747E-01  0.3467650E+00
         13   -1    0    0    0    0  0.00000000000E+00  0.00000000000E+00  0.14999999963E+04  0.15000000000E+04  0.10566000000E+00 0. -1.
        994   -1    0    0    0    0 -0.00000000000E+00 -0.00000000000E+00  0.11368683772E-12  0.17120000000E+03  0.17120000000E+03 0.  0.
         13    1    1    2    0    0 -0.29143948469E+02  0.23378466777E+02  0.11133612875E+03  0.11743792901E+03  0.10566000000E+00 0. -1.
        994    1    1    2    0    0  0.27771260093E+02 -0.81534826707E+01  0.88789676268E+01  0.17385625739E+03  0.17120000000E+03 0.  0.
        998    1    1    2    0    0  0.13726883751E+01 -0.15224984106E+02  0.13797848999E+04  0.13799058136E+04  0.10000000000E+02 0. -1.
</event>
<event>
 5    1  0.1440459E-008  0.3856706E+03  0.7957747E-01  0.3426833E+00
         13   -1    0    0    0    0  0.00000000000E+00  0.00000000000E+00  0.14999999963E+04  0.15000000000E+04  0.10566000000E+00 0. -1.
        994   -1    0    0    0    0 -0.00000000000E+00 -0.00000000000E+00  0.11368683772E-12  0.17120000000E+03  0.17120000000E+03 0.  0.
         13    1    1    2    0    0 -0.84494031623E+01 -0.92388581148E+01  0.63845899172E+02  0.65061962145E+02  0.10566000000E+00 0. -1.
        994    1    1    2    0    0 -0.26312815237E+01  0.44609127706E+01  0.13855747175E+01  0.17128392570E+03  0.17120000000E+03 0.  0.
        998    1    1    2    0    0  0.11080684686E+02  0.47779453442E+01  0.14347685224E+04  0.14348541122E+04  0.10000000000E+02 0. -1.
</event>
<event>
 5    1  0.1440459E-008  0.3809241E+03  0.7957747E-01  0.3447145E+00
         13   -1    0    0    0    0  0.00000000000E+00  0.00000000000E+00  0.14999999963E+04  0.15000000000E+04  0.10566000000E+00 0.  1.
        994   -1    0    0    0    0 -0.00000000000E+00 -0.00000000000E+00  0.11368683772E-12  0.17120000000E+03  0.17120000000E+03 0.  0.
         13    1    1    2    0    0 -0.10028321855E+02  0.18471040596E+02  0.54760310768E+02  0.58655343997E+02  0.10566000000E+00 0.  1.
        994    1    1    2    0    0  0.14359203816E+02 -0.28077002344E+02  0.69889116856E+01  0.17422052026E+03  0.17120000000E+03 0.  0.
        998    1    1    2    0    0 -0.43308819612E+01  0.96059617480E+01  0.14382507738E+04  0.14383241357E+04  0.10000000000E+02 0.  1.
</event>
<event>
 5    1  0.1440459E-008  0.3735493E+03  0.7957747E-01  0.3479736E+00
         13   -1    0    0    0    0  0.00000000000E+00  0.00000000000E+00  0.14999999963E+04  0.15000000000E+04  0.10566000000E+00 0. -1.
        994   -1    0    0    0    0 -0.00000000000E+00 -0.00000000000E+00  0.11368683772E-12  0.17120000000E+03  0.17120000000E+03 0.  0.
         13    1    1    2    0    0  0.84164558431E+02 -0.90729010785E+02  0.36668657969E+03  0.38700708673E+03  0.10566000000E+00 0. -1.
        994    1    1    2    0    0 -0.10085556289E+03  0.10671168823E+03  0.93627832639E+02  0.24420245702E+03  0.17120000000E+03 0.  0.
        998    1    1    2    0    0  0.16691004457E+02 -0.15982677445E+02  0.10396855840E+04  0.10399904562E+04  0.10000000000E+02 0. -1.
</event>
<event>
 5    1  0.1440459E-008  0.3829739E+03  0.7957747E-01  0.3438311E+00
         13   -1    0    0    0    0  0.00000000000E+00  0.00000000000E+00  0.14999999963E+04  0.15000000000E+04  0.10566000000E+00 0.  1.
        994   -1    0    0    0    0 -0.00000000000E+00 -0.00000000000E+00  0.11368683772E-12  0.17120000000E+03  0.17120000000E+03 0.  0.
         13    1    1    2    0    0  0.21225193930E-01  0.17556809460E+02  0.56032425521E+02  0.58718701303E+02  0.10566000000E+00 0.  1.
        994    1    1    2    0    0  0.16758093696E+01 -0.17334886080E+02  0.36441289754E+01  0.17212212609E+03  0.17120000000E+03 0.  0.
        998    1    1    2    0    0 -0.16970345636E+01 -0.22192337964E+00  0.14403234418E+04  0.14403591726E+04  0.10000000000E+02 0.  1.
</event>
<event>
 5    1  0.1440459E-008  0.3790156E+03  0.7957747E-01  0.3455456E+00
         13   -1    0    0    0    0  0.00000000000E+00  0.00000000000E+00  0.14999999963E+04  0.15000000000E+04  0.10566000000E+00 0. -1.
        994   -1    0    0    0    0 -0.00000000000E+00 -0.00000000000E+00  0.11368683772E-12  0.17120000000E+03  0.17120000000E+03 0.  0.
         13    1    1    2    0    0 -0.11913096602E+02  0.32690785019E+01  0.14236677449E+02  0.18849479932E+02  0.10566000000E+00 0. -1.
        994    1    1    2    0    0  0.14414447854E+02 -0.56148134847E+01  0.54338873392E+01  0.17198334096E+03  0.17120000000E+03 0.  0.
        998    1    1    2    0    0 -0.25013512521E+01  0.23457349828E+01  0.14803294315E+04  0.14803671791E+04  0.10000000000E+02 0. -1.
</event>
<event>
 5    1  0.1440459E-008  0.3768824E+03  0.7957747E-01  0.3464847E+00
         13   -1    0    0    0    0  0.00000000000E+00  0.00000000000E+00  0.14999999963E+04  0.15000000000E+04  0.10566000000E+00 0.  1.
        994   -1    0    0    0    0 -0.00000000000E+00 -0.00000000000E+00  0.11368683772E-12  0.17120000000E+03  0.17120000000E+03 0.  0.
         13    1    1    2    0    0 -0.10074465320E+02 -0.25399006229E+02  0.61120411938E+02  0.66950132848E+02  0.10566000000E+00 0.  1.
        994    1    1    2    0    0  0.11537985108E+02  0.24026937130E+02  0.81185702481E+01  0.17345250068E+03  0.17120000000E+03 0.  0.
        998    1    1    2    0    0 -0.14635197879E+01  0.13720690990E+01  0.14307610141E+04  0.14307973665E+04  0.10000000000E+02 0.  1.
</event>
<event>
 5    1  0.1440459E-008  0.3813728E+03  0.7957747E-01  0.3445203E+00
         13   -1    0    0    0    0  0.00000000000E+00  0.00000000000E+00  0.14999999963E+04  0.15000000000E+04  0.10566000000E+00 0.  1.
        994   -1    0    0    0    0 -0.00000000000E+00 -0.00000000000E+00  0.11368683772E-12  0.17120000000E+03  0.17120000000E+03 0.  0.
         13    1    1    2    0    0  0.71499329409E+01 -0.91435597298E+01  0.18139732095E+02  0.21535720793E+02  0.10566000000E+00 0.  1.
        994    1    1    2    0    0 -0.53846359551E+01  0.67828769477E+01  0.36913977860E+01  0.17145864849E+03  0.17120000000E+03 0.  0.
        998    1    1    2    0    0 -0.17652969858E+01  0.23606827821E+01  0.14781688664E+04  0.14782056307E+04  0.10000000000E+02 0.  1.
</event>
<event>
 5    1  0.1440459E-008  0.3853663E+03  0.7957747E-01  0.3428120E+00
         13   -1    0    0    0    0  0.00000000000E+00  0.00000000000E+00  0.14999999963E+04  0.15000000000E+04  0.10566000000E+00 0. -1.
        994   -1    0    0    0    0 -0.00000000000E+00 -0.00000000000E+00  0.11368683772E-12  0.17120000000E+03  0.17120000000E+03 0.  0.
         13    1    1    2    0    0  0.98265192615E+01  0.13031168106E+02  0.94068988933E+02  0.95474382249E+02  0.10566000000E+00 0. -1.
        994    1    1    2    0    0 -0.93980288553E+01 -0.32030495182E+01  0.17722889537E+01  0.17149683228E+03  0.17120000000E+03 0.  0.
        998    1    1    2    0    0 -0.42849040617E+00 -0.98281185876E+01  0.14041587184E+04  0.14042287855E+04  0.10000000000E+02 0. -1.
</event>
<event>
 5    1  0.2372079E-008  0.3859721E+03  0.7957747E-01  0.3425560E+00
         13   -1    0    0    0    0  0.00000000000E+00  0.00000000000E+00  0.14999999963E+04  0.15000000000E+04  0.10566000000E+00 0. -1.
        994   -1    0    0    0    0 -0.00000000000E+00 -0.00000000000E+00  0.11368683772E-12  0.17120000000E+03  0.17120000000E+03 0.  0.
         13    1    1    2    0    0 -0.43395219781E+01  0.90904014541E+01  0.45309283500E+02  0.46415613590E+02  0.10566000000E+00 0. -1.
        994    1    1    2    0    0  0.30261812937E+01 -0.35723377795E+01  0.12201452386E+01  0.17126835121E+03  0.17120000000E+03 0.  0.
        998    1    1    2    0    0  0.13133406844E+01 -0.55180636746E+01  0.14534705675E+04  0.14535160352E+04  0.10000000000E+02 0. -1.
</event>
<event>
 5    1  0.1440459E-008  0.3824085E+03  0.7957747E-01  0.3440738E+00
         13   -1    0    0    0    0  0.00000000000E+00  0.00000000000E+00  0.14999999963E+04  0.15000000000E+04  0.10566000000E+00 0.  1.
        994   -1    0    0    0    0 -0.00000000000E+00 -0.00000000000E+00  0.11368683772E-12  0.17120000000E+03  0.17120000000E+03 0.  0.
         13    1    1    2    0    0 -0.25544133570E+02 -0.42236126517E+01  0.10772221221E+03  0.11079001684E+03  0.10566000000E+00 0.  1.
        994    1    1    2    0    0  0.24948041542E+02  0.44189063567E+00  0.49898531450E+01  0.17308072879E+03  0.17120000000E+03 0.  0.
        998    1    1    2    0    0  0.59609202775E+00  0.37817220160E+01  0.13872879309E+04  0.13873292544E+04  0.10000000000E+02 0.  1.
</event>
<event>
 5    1  0.1440459E-008  0.3854868E+03  0.7957747E-01  0.3427610E+00
         13   -1    0    0    0    0  0.00000000000E+00  0.00000000000E+00  0.14999999963E+04  0.15000000000E+04  0.10566000000E+00 0. -1.
        994   -1    0    0    0    0 -0.00000000000E+00 -0.00000000000E+00  0.11368683772E-12  0.17120000000E+03  0.17120000000E+03 0.  0.
         13    1    1    2    0    0  0.99625209637E+01 -0.15377803397E+02  0.10752125055E+03  0.10907134887E+03  0.10566000000E+00 0. -1.
        994    1    1    2    0    0 -0.13159659451E+02  0.22116509972E+02  0.35663802112E+01  0.17316026022E+03  0.17120000000E+03 0.  0.
        998    1    1    2    0    0  0.31971384869E+01 -0.67387065748E+01  0.13889123655E+04  0.13889683909E+04  0.10000000000E+02 0. -1.
</event>
<event>
 5    1  0.1440459E-008  0.3815162E+03  0.7957747E-01  0.3444583E+00
         13   -1    0    0    0    0  0.00000000000E+00  0.00000000000E+00  0.14999999963E+04  0.15000000000E+04  0.10566000000E+00 0. -1.
        994   -1    0    0    0    0 -0.00000000000E+00 -0.00000000000E+00  0.11368683772E-12  0.17120000000E+03  0.17120000000E+03 0.  0.
         13    1    1    2    0    0 -0.28901039242E+02 -0.15846487177E+01  0.13080087247E+03  0.13396514690E+03  0.10566000000E+00 0. -1.
        994    1    1    2    0    0  0.81277145039E+01  0.62592164249E+00  0.35907825793E+01  0.17143157597E+03  0.17120000000E+03 0.  0.
        998    1    1    2    0    0  0.20773324738E+02  0.95872707526E+00  0.13656083412E+04  0.13658032771E+04  0.10000000000E+02 0. -1.
</event>
<event>
 5    1  0.1440459E-008  0.3844254E+03  0.7957747E-01  0.3432113E+00
         13   -1    0    0    0    0  0.00000000000E+00  0.00000000000E+00  0.14999999963E+04  0.15000000000E+04  0.10566000000E+00 0. -1.
        994   -1    0    0    0    0 -0.00000000000E+00 -0.00000000000E+00  0.11368683772E-12  0.17120000000E+03  0.17120000000E+03 0.  0.
         13    1    1    2    0    0  0.43330307573E+01 -0.16442192952E+02  0.73504858928E+02  0.75445982760E+02  0.10566000000E+00 0. -1.
        994    1    1    2    0    0 -0.75518454163E+01  0.13245806515E+02  0.26820229199E+01  0.17189856022E+03  0.17120000000E+03 0.  0.
        998    1    1    2    0    0  0.32188146590E+01  0.31963864371E+01  0.14238131144E+04  0.14238554570E+04  0.10000000000E+02 0. -1.
</event>
<event>
 5    1  0.1440459E-008  0.3837306E+03  0.7957747E-01  0.3435074E+00
         13   -1    0    0    0    0  0.00000000000E+00  0.00000000000E+00  0.14999999963E+04  0.15000000000E+04  0.10566000000E+00 0. -1.
        994   -1    0    0    0    0 -0.00000000000E+00 -0.00000000000E+00  0.11368683772E-12  0.17120000000E+03  0.17120000000E+03 0.  0.
         13    1    1    2    0    0 -0.31083427055E+01  0.18109912312E+02  0.80711121466E+02  0.82776367465E+02  0.10566000000E+00 0. -1.
        994    1    1    2    0    0 -0.89719999565E+01  0.48670849909E+00  0.25283411627E+01  0.17145426847E+03  0.17120000000E+03 0.  0.
        998    1    1    2    0    0  0.12080342662E+02 -0.18596620811E+02  0.14167605336E+04  0.14169693641E+04  0.10000000000E+02 0. -1.
</event>
<event>
 5    1  0.1440459E-008  0.3727218E+03  0.7957747E-01  0.3483475E+00
         13   -1    0    0    0    0  0.00000000000E+00  0.00000000000E+00  0.14999999963E+04  0.15000000000E+04  0.10566000000E+00 0. -1.
        994   -1    0    0    0    0 -0.00000000000E+00 -0.00000000000E+00  0.11368683772E-12  0.17120000000E+03  0.17120000000E+03 0.  0.
         13    1    1    2    0    0  0.18840679800E+02  0.13028513988E+02  0.29645832349E+02  0.37464649095E+02  0.10566000000E+00 0. -1.
        994    1    1    2    0    0 -0.18900262911E+02 -0.12440764052E+02  0.96091323878E+01  0.17295597120E+03  0.17120000000E+03 0.  0.
        998    1    1    2    0    0  0.59583110724E-01 -0.58774993543E+00  0.14607450315E+04  0.14607793797E+04  0.10000000000E+02 0. -1.
</event>
<event>
 5    1  0.1440459E-008  0.3848391E+03  0.7957747E-01  0.3430355E+00
         13   -1    0    0    0    0  0.00000000000E+00  0.00000000000E+00  0.14999999963E+04  0.15000000000E+04  0.10566000000E+00 0. -1.
        994   -1    0    0    0    0 -0.00000000000E+00 -0.00000000000E+00  0.11368683772E-12  0.17120000000E+03  0.17120000000E+03 0.  0.
         13    1    1    2    0    0  0.59329062530E+01 -0.14089504586E+02  0.65543907550E+02  0.67303257700E+02  0.10566000000E+00 0. -1.
        994    1    1    2    0    0 -0.25983782509E+01  0.16981921420E+02  0.26817774260E+01  0.17208070535E+03  0.17120000000E+03 0.  0.
        998    1    1    2    0    0 -0.33345280022E+01 -0.28924168340E+01  0.14317743113E+04  0.14318160369E+04  0.10000000000E+02 0. -1.
</event>
<event>
 5    1  0.1440459E-008  0.3810061E+03  0.7957747E-01  0.3446790E+00
         13   -1    0    0    0    0  0.00000000000E+00  0.00000000000E+00  0.14999999963E+04  0.15000000000E+04  0.10566000000E+00 0. -1.
        994   -1    0    0    0    0 -0.00000000000E+00 -0.00000000000E+00  0.11368683772E-12  0.17120000000E+03  0.17120000000E+03 0.  0.
         13    1    1    2    0    0 -0.42821527326E+02 -0.11015503599E+02  0.26352531059E+03  0.26720895383E+03  0.10566000000E+00 0. -1.
        994    1    1    2    0    0  0.26724539878E+02  0.54602016512E+01  0.61090365231E+01  0.17346692815E+03  0.17120000000E+03 0.  0.
        998    1    1    2    0    0  0.16096987447E+02  0.55553019474E+01  0.12303656492E+04  0.12305241180E+04  0.10000000000E+02 0. -1.
</event>
<event>
 5    1  0.1440459E-008  0.3840887E+03  0.7957747E-01  0.3433546E+00
         13   -1    0    0    0    0  0.00000000000E+00  0.00000000000E+00  0.14999999963E+04  0.15000000000E+04  0.10566000000E+00 0. -1.
        994   -1    0    0    0    0 -0.00000000000E+00 -0.00000000000E+00  0.11368683772E-12  0.17120000000E+03  0.17120000000E+03 0.  0.
         13    1    1    2    0    0  0.10317703373E+02  0.11564084874E+02  0.62022229646E+02  0.63929267133E+02  0.10566000000E+00 0. -1.
        994    1    1    2    0    0  0.43660733174E+01  0.16756129641E+01  0.21553960309E+01  0.17127742410E+03  0.17120000000E+03 0.  0.
        998    1    1    2    0    0 -0.14683776691E+02 -0.13239697838E+02  0.14358223706E+04  0.14359933088E+04  0.10000000000E+02 0. -1.
</event>
<event>
 5    1  0.1440459E-008  0.3843845E+03  0.7957747E-01  0.3432287E+00
         13   -1    0    0    0    0  0.00000000000E+00  0.00000000000E+00  0.14999999963E+04  0.15000000000E+04  0.10566000000E+00 0. -1.
        994   -1    0    0    0    0 -0.00000000000E+00 -0.00000000000E+00  0.11368683772E-12  0.17120000000E+03  0.17120000000E+03 0.  0.
         13    1    1    2    0    0  0.13368353419E+01  0.20066021617E+02  0.97324723176E+02  0.99380809302E+02  0.10566000000E+00 0. -1.
        994    1    1    2    0    0 -0.26849782787E+01 -0.22201480170E+02  0.35857676910E+01  0.17269166905E+03  0.17120000000E+03 0.  0.
        998    1    1    2    0    0  0.13481429368E+01  0.21354585535E+01  0.13990895054E+04  0.13991275216E+04  0.10000000000E+02 0. -1.
</event>
<event>
 5    1  0.1440459E-008  0.3797195E+03  0.7957747E-01  0.3452381E+00
         13   -1    0    0    0    0  0.00000000000E+00  0.00000000000E+00  0.14999999963E+04  0.15000000000E+04  0.10566000000E+00 0. -1.
        994   -1    0    0    0    0 -0.00000000000E+00 -0.00000000000E+00  0.11368683772E-12  0.17120000000E+03  0.17120000000E+03 0.  0.
         13    1    1    2    0    0  0.15977028477E+03 -0.21984115653E+02  0.85984765822E+03  0.87484161523E+03  0.10566000000E+00 0. -1.
        994    1    1    2    0    0 -0.17514164170E+03  0.57807052933E+01  0.11499515332E+03  0.27063136643E+03  0.17120000000E+03 0.  0.
        998    1    1    2    0    0  0.15371356927E+02  0.16203410359E+02  0.52515718474E+03  0.52572701833E+03  0.10000000000E+02 0. -1.
</event>
<event>
 5    1  0.1440459E-008  0.3823453E+03  0.7957747E-01  0.3441010E+00
         13   -1    0    0    0    0  0.00000000000E+00  0.00000000000E+00  0.14999999963E+04  0.15000000000E+04  0.10566000000E+00 0. -1.
        994   -1    0    0    0    0 -0.00000000000E+00 -0.00000000000E+00  0.11368683772E-12  0.17120000000E+03  0.17120000000E+03 0.  0.
         13    1    1    2    0    0  0.28133763867E+01  0.28217564568E+02  0.12551447178E+03  0.12867804718E+03  0.10566000000E+00 0. -1.
        994    1    1    2    0    0 -0.23741126923E+02 -0.26582970988E+02  0.71791921811E+01  0.17501793124E+03  0.17120000000E+03 0.  0.
        998    1    1    2    0    0  0.20927750536E+02 -0.16345935798E+01  0.13673063323E+04  0.13675040216E+04  0.10000000000E+02 0. -1.
</event>
<event>
 5    1  0.1440459E-008  0.3812292E+03  0.7957747E-01  0.3445824E+00
         13   -1    0    0    0    0  0.00000000000E+00  0.00000000000E+00  0.14999999963E+04  0.15000000000E+04  0.10566000000E+00 0.  1.
        994   -1    0    0    0    0 -0.00000000000E+00 -0.00000000000E+00  0.11368683772E-12  0.17120000000E+03  0.17120000000E+03 0.  0.
         13    1    1    2    0    0  0.17289080247E+02 -0.45373308163E+01  0.44781371504E+02  0.48217030856E+02  0.10566000000E+00 0.  1.
        994    1    1    2    0    0  0.33197057869E+01  0.47915944319E+02  0.11233153726E+02  0.17816447993E+03  0.17120000000E+03 0.  0.
        998    1    1    2    0    0 -0.20608786034E+02 -0.43378613503E+02  0.14439854710E+04  0.14448184892E+04  0.10000000000E+02 0.  1.
</event>
<event>
 5    1  0.1440459E-008  0.3814765E+03  0.7957747E-01  0.3444755E+00
         13   -1    0    0    0    0  0.00000000000E+00  0.00000000000E+00  0.14999999963E+04  0.15000000000E+04  0.10566000000E+00 0. -1.
        994   -1    0    0    0    0 -0.00000000000E+00 -0.00000000000E+00  0.11368683772E-12  0.17120000000E+03  0.17120000000E+03 0.  0.
         13    1    1    2    0    0  0.24248176120E+02 -0.12242681103E+02  0.12321029174E+03  0.12616911049E+03  0.10566000000E+00 0. -1.
        994    1    1    2    0    0  0.49277678935E+01 -0.53163340541E+00  0.34714008763E+01  0.17130690632E+03  0.17120000000E+03 0.  0.
        998    1    1    2    0    0 -0.29175944013E+02  0.12774314509E+02  0.13733183037E+04  0.13737239832E+04  0.10000000000E+02 0. -1.
</event>
<event>
 5    1  0.1440459E-008  0.3855564E+03  0.7957747E-01  0.3427316E+00
         13   -1    0    0    0    0  0.00000000000E+00  0.00000000000E+00  0.14999999963E+04  0.15000000000E+04  0.10566000000E+00 0.  1.
        994   -1    0    0    0    0 -0.00000000000E+00 -0.00000000000E+00  0.11368683772E-12  0.17120000000E+03  0.17120000000E+03 0.  0.
         13    1    1    2    0    0  0.11553651023E+02  0.17821110144E+01  0.48595343009E+02  0.49981809670E+02  0.10566000000E+00 0.  1.
        994    1    1    2    0    0 -0.14300593004E+02 -0.59766558713E+01  0.21431622598E+01  0.17191352629E+03  0.17120000000E+03 0.  0.
        998    1    1    2    0    0  0.27469419816E+01  0.41945448569E+01  0.14492614910E+04  0.14493046640E+04  0.10000000000E+02 0.  1.
</event>
<event>
 5    1  0.1440459E-008  0.3860960E+03  0.7957747E-01  0.3425037E+00
         13   -1    0    0    0    0  0.00000000000E+00  0.00000000000E+00  0.14999999963E+04  0.15000000000E+04  0.10566000000E+00 0.  1.
        994   -1    0    0    0    0 -0.00000000000E+00 -0.00000000000E+00  0.11368683772E-12  0.17120000000E+03  0.17120000000E+03 0.  0.
         13    1    1    2    0    0 -0.11341995980E+02 -0.22894685539E+01  0.61245414323E+02  0.62328921687E+02  0.10566000000E+00 0.  1.
        994    1    1    2    0    0  0.13178751112E+02 -0.11832150708E+02  0.21155651496E+01  0.17212668267E+03  0.17120000000E+03 0.  0.
        998    1    1    2    0    0 -0.18367551328E+01  0.14121619262E+02  0.14366390168E+04  0.14367443956E+04  0.10000000000E+02 0.  1.
</event>
<event>
 5    1  0.1440459E-008  0.3794582E+03  0.7957747E-01  0.3453521E+00
         13   -1    0    0    0    0  0.00000000000E+00  0.00000000000E+00  0.14999999963E+04  0.15000000000E+04  0.10566000000E+00 0.  1.
        994   -1    0    0    0    0 -0.00000000000E+00 -0.00000000000E+00  0.11368683772E-12  0.17120000000E+03  0.17120000000E+03 0.  0.
         13    1    1    2    0    0  0.39959050985E+02 -0.50049470238E+02  0.33396915206E+03  0.34005452639E+03  0.10566000000E+00 0.  1.
        994    1    1    2    0    0 -0.28292597758E+02  0.71019021053E+02  0.24233905586E+02  0.18905262394E+03  0.17120000000E+03 0.  0.
        998    1    1    2    0    0 -0.11666453228E+02 -0.20969550814E+02  0.11417969386E+04  0.11420928497E+04  0.10000000000E+02 0.  1.
</event>
<event>
 5    1  0.1440459E-008  0.3821676E+03  0.7957747E-01  0.3441774E+00
         13   -1    0    0    0    0  0.00000000000E+00  0.00000000000E+00  0.14999999963E+04  0.15000000000E+04  0.10566000000E+00 0.  1.
        994   -1    0    0    0    0 -0.00000000000E+00 -0.00000000000E+00  0.11368683772E-12  0.17120000000E+03  0.17120000000E+03 0.  0.
         13    1    1    2    0    0 -0.77925835263E+02 -0.56608039916E+02  0.40278424677E+03  0.41414015332E+03  0.10566000000E+00 0.  1.
        994    1    1    2    0    0  0.59779520520E+02 -0.79816644325E+02  0.54819116214E+02  0.20556960692E+03  0.17120000000E+03 0.  0.
        998    1    1    2    0    0  0.18146314743E+02  0.13642468424E+03  0.10423966333E+04  0.10514902398E+04  0.10000000000E+02 0.  1.
</event>
<event>
 5    1  0.1440459E-008  0.3856617E+03  0.7957747E-01  0.3426871E+00
         13   -1    0    0    0    0  0.00000000000E+00  0.00000000000E+00  0.14999999963E+04  0.15000000000E+04  0.10566000000E+00 0. -1.
        994   -1    0    0    0    0 -0.00000000000E+00 -0.00000000000E+00  0.11368683772E-12  0.17120000000E+03  0.17120000000E+03 0.  0.
         13    1    1    2    0    0 -0.12181993878E+02  0.47781387770E+01  0.59874703762E+02  0.61288032271E+02  0.10566000000E+00 0. -1.
        994    1    1    2    0    0  0.21877239687E+02 -0.95281704288E+01  0.31727596356E+01  0.17288408270E+03  0.17120000000E+03 0.  0.
        998    1    1    2    0    0 -0.96952458092E+01  0.47500316518E+01  0.14369525329E+04  0.14370278850E+04  0.10000000000E+02 0. -1.
</event>
<event>
 5    1  0.1440459E-008  0.3816476E+03  0.7957747E-01  0.3444016E+00
         13   -1    0    0    0    0  0.00000000000E+00  0.00000000000E+00  0.14999999963E+04  0.15000000000E+04  0.10566000000E+00 0.  1.
        994   -1    0    0    0    0 -0.00000000000E+00 -0.00000000000E+00  0.11368683772E-12  0.17120000000E+03  0.17120000000E+03 0.  0.
         13    1    1    2    0    0 -0.88838513671E+01  0.68910314731E+01  0.17885818471E+02  0.21126353123E+02  0.10566000000E+00 0.  1.
        994    1    1    2    0    0  0.79091071133E+01  0.53316888085E+00  0.35127256360E+01  0.17141941980E+03  0.17120000000E+03 0.  0.
        998    1    1    2    0    0  0.97474425383E+00 -0.74242003539E+01  0.14786014522E+04  0.14786542271E+04  0.10000000000E+02 0.  1.
</event>
<event>
 5    1  0.1440459E-008  0.3839738E+03  0.7957747E-01  0.3434036E+00
         13   -1    0    0    0    0  0.00000000000E+00  0.00000000000E+00  0.14999999963E+04  0.15000000000E+04  0.10566000000E+00 0.  1.
        994   -1    0    0    0    0 -0.00000000000E+00 -0.00000000000E+00  0.11368683772E-12  0.17120000000E+03  0.17120000000E+03 0.  0.
         13    1    1    2    0    0  0.18663230638E+02  0.52533798222E+01  0.80347879842E+02  0.82654141678E+02  0.10566000000E+00 0.  1.
        994    1    1    2    0    0 -0.35235283598E+02  0.24407274106E+02  0.82264012463E+01  0.17667584418E+03  0.17120000000E+03 0.  0.
        998    1    1    2    0    0  0.16572052960E+02 -0.29660653928E+02  0.14114257152E+04  0.14118700141E+04  0.10000000000E+02 0.  1.
</event>
<event>
 5    1  0.1440459E-008  0.3824873E+03  0.7957747E-01  0.3440399E+00
         13   -1    0    0    0    0  0.00000000000E+00  0.00000000000E+00  0.14999999963E+04  0.15000000000E+04  0.10566000000E+00 0.  1.
        994   -1    0    0    0    0 -0.00000000000E+00 -0.00000000000E+00  0.11368683772E-12  0.17120000000E+03  0.17120000000E+03 0.  0.
         13    1    1    2    0    0 -0.68645194805E+01  0.14378899792E+02  0.44181307552E+02  0.46966727457E+02  0.10566000000E+00 0.  1.
        994    1    1    2    0    0 -0.18340169511E+01 -0.58081831524E+01  0.30058345245E+01  0.17133468315E+03  0.17120000000E+03 0.  0.
        998    1    1    2    0    0  0.86985364316E+01 -0.85707166401E+01  0.14528128542E+04  0.14528985894E+04  0.10000000000E+02 0.  1.
</event>
<event>
 5    1  0.1440459E-008  0.3778735E+03  0.7957747E-01  0.3460470E+00
         13   -1    0    0    0    0  0.00000000000E+00  0.00000000000E+00  0.14999999963E+04  0.15000000000E+04  0.10566000000E+00 0.  1.
        994   -1    0    0    0    0 -0.00000000000E+00 -0.00000000000E+00  0.11368683772E-12  0.17120000000E+03  0.17120000000E+03 0.  0.
         13    1    1    2    0    0  0.98883739687E+01  0.26471344158E+02  0.84658461950E+02  0.89250088768E+02  0.10566000000E+00 0.  1.
        994    1    1    2    0    0  0.53910063958E+00  0.11499028069E+02  0.56567183094E+01  0.17167980877E+03  0.17120000000E+03 0.  0.
        998    1    1    2    0    0 -0.10427474608E+02 -0.37970372227E+02  0.14096848160E+04  0.14102701025E+04  0.10000000000E+02 0.  1.
</event>
<event>
 5    1  0.1440459E-008  0.3814280E+03  0.7957747E-01  0.3444964E+00
         13   -1    0    0    0    0  0.00000000000E+00  0.00000000000E+00  0.14999999963E+04  0.15000000000E+04  0.10566000000E+00 0.  1.
        994   -1    0    0    0    0 -0.00000000000E+00 -0.00000000000E+00  0.11368683772E-12  0.17120000000E+03  0.17120000000E+03 0.  0.
         13    1    1    2    0    0 -0.72014565864E+00  0.22070025982E+02  0.68659862394E+02  0.72123453360E+02  0.10566000000E+00 0.  1.
        994    1    1    2    0    0  0.15231183010E+02 -0.18563356351E+02  0.53348412863E+01  0.17295805175E+03  0.17120000000E+03 0.  0.
        998    1    1    2    0    0 -0.14511037351E+02 -0.35066696311E+01  0.14260052926E+04  0.14261184949E+04  0.10000000000E+02 0.  1.
</event>
<event>
 5    1  0.1440459E-008  0.3739729E+03  0.7957747E-01  0.3477829E+00
         13   -1    0    0    0    0  0.00000000000E+00  0.00000000000E+00  0.14999999963E+04  0.15000000000E+04  0.10566000000E+00 0. -1.
        994   -1    0    0    0    0 -0.00000000000E+00 -0.00000000000E+00  0.11368683772E-12  0.17120000000E+03  0.17120000000E+03 0.  0.
         13    1    1    2    0    0 -0.13350529304E+01 -0.12061758718E+02  0.66513766632E+01  0.13839088310E+02  0.10566000000E+00 0. -1.
        994    1    1    2    0    0 -0.14855847575E+02  0.26661087559E+02  0.10391088048E+02  0.17420942715E+03  0.17120000000E+03 0.  0.
        998    1    1    2    0    0  0.16190900506E+02 -0.14599328841E+02  0.14829575316E+04  0.14831514845E+04  0.10000000000E+02 0. -1.
</event>
<event>
 5    1  0.1440459E-008  0.3812490E+03  0.7957747E-01  0.3445738E+00
         13   -1    0    0    0    0  0.00000000000E+00  0.00000000000E+00  0.14999999963E+04  0.15000000000E+04  0.10566000000E+00 0.  1.
        994   -1    0    0    0    0 -0.00000000000E+00 -0.00000000000E+00  0.11368683772E-12  0.17120000000E+03  0.17120000000E+03 0.  0.
         13    1    1    2    0    0  0.16939817755E+02 -0.15922703718E+02  0.79904241363E+02  0.83217719694E+02  0.10566000000E+00 0.  1.
        994    1    1    2    0    0 -0.21312836354E+02 -0.15563917349E+02  0.58261343878E+01  0.17332009797E+03  0.17120000000E+03 0.  0.
        998    1    1    2    0    0  0.43730185996E+01  0.31486621067E+02  0.14142696205E+04  0.14146621823E+04  0.10000000000E+02 0.  1.
</event>
<event>
 5    1  0.1440459E-008  0.3763088E+03  0.7957747E-01  0.3467390E+00
         13   -1    0    0    0    0  0.00000000000E+00  0.00000000000E+00  0.14999999963E+04  0.15000000000E+04  0.10566000000E+00 0.  1.
        994   -1    0    0    0    0 -0.00000000000E+00 -0.00000000000E+00  0.11368683772E-12  0.17120000000E+03  0.17120000000E+03 0.  0.
         13    1    1    2    0    0 -0.56387546515E+02 -0.39299079097E+02  0.33497507863E+03  0.34195363353E+03  0.10566000000E+00 0.  1.
        994    1    1    2    0    0  0.43933249387E+02  0.38322956899E+02  0.17598481046E+02  0.18170835413E+03  0.17120000000E+03 0.  0.
        998    1    1    2    0    0  0.12454297128E+02  0.97612219824E+00  0.11474264366E+04  0.11475380123E+04  0.10000000000E+02 0.  0.
</event>
<event>
 5    1  0.1440459E-008  0.3815165E+03  0.7957747E-01  0.3444582E+00
         13   -1    0    0    0    0  0.00000000000E+00  0.00000000000E+00  0.14999999963E+04  0.15000000000E+04  0.10566000000E+00 0. -1.
        994   -1    0    0    0    0 -0.00000000000E+00 -0.00000000000E+00  0.11368683772E-12  0.17120000000E+03  0.17120000000E+03 0.  0.
         13    1    1    2    0    0  0.78867005016E+01  0.17971832949E+02  0.54637574311E+02  0.58055684605E+02  0.10566000000E+00 0. -1.
        994    1    1    2    0    0 -0.63605153306E+01 -0.17422462632E+02  0.45146283759E+01  0.17226090743E+03  0.17120000000E+03 0.  0.
        998    1    1    2    0    0 -0.15261851710E+01 -0.54937031646E+00  0.14408477936E+04  0.14408834080E+04  0.10000000000E+02 0. -1.
</event>
<event>
 5    1  0.1440459E-008  0.3184732E+03  0.7957747E-01  0.3772369E+00
         13   -1    0    0    0    0  0.00000000000E+00  0.00000000000E+00  0.14999999963E+04  0.15000000000E+04  0.10566000000E+00 0. -1.
        994   -1    0    0    0    0 -0.00000000000E+00 -0.00000000000E+00  0.11368683772E-12  0.17120000000E+03  0.17120000000E+03 0.  0.
         13    1    1    2    0    0 -0.14627096803E+03  0.11111772130E+03  0.81508083241E+03  0.83552326036E+03  0.10566000000E+00 0. -1.
        994    1    1    2    0    0  0.14579890494E+03 -0.79338333615E+02  0.11491805772E+03  0.26470264799E+03  0.17120000000E+03 0.  0.
        998    1    1    2    0    0  0.47206308817E+00 -0.31779387681E+02  0.57000110615E+03  0.57097409165E+03  0.10000000000E+02 0. -1.
</event>
<event>
 5    1  0.1440459E-008  0.3857411E+03  0.7957747E-01  0.3426535E+00
         13   -1    0    0    0    0  0.00000000000E+00  0.00000000000E+00  0.14999999963E+04  0.15000000000E+04  0.10566000000E+00 0.  1.
        994   -1    0    0    0    0 -0.00000000000E+00 -0.00000000000E+00  0.11368683772E-12  0.17120000000E+03  0.17120000000E+03 0.  0.
         13    1    1    2    0    0 -0.40099533448E+01 -0.11732223076E+02  0.58599961086E+02  0.59897340404E+02  0.10566000000E+00 0.  1.
        994    1    1    2    0    0  0.11505316852E+02  0.12094964032E+02  0.21773788740E+01  0.17202569997E+03  0.17120000000E+03 0.  0.
        998    1    1    2    0    0 -0.74953635069E+01 -0.36274095595E+00  0.14392226563E+04  0.14392769596E+04  0.10000000000E+02 0.  1.
</event>
<event>
 5    1  0.1440459E-008  0.3749778E+03  0.7957747E-01  0.3473322E+00
         13   -1    0    0    0    0  0.00000000000E+00  0.00000000000E+00  0.14999999963E+04  0.15000000000E+04  0.10566000000E+00 0.  1.
        994   -1    0    0    0    0 -0.00000000000E+00 -0.00000000000E+00  0.11368683772E-12  0.17120000000E+03  0.17120000000E+03 0.  0.
         13    1    1    2    0    0 -0.30445848557E+02  0.62179685271E+02  0.28576721180E+03  0.29403430660E+03  0.10566000000E+00 0.  1.
        994    1    1    2    0    0  0.36058806848E+02 -0.60881081300E+02  0.23905402243E+02  0.18678236498E+03  0.17120000000E+03 0.  0.
        998    1    1    2    0    0 -0.56129582907E+01 -0.12986039714E+01  0.11903273822E+04  0.11903833284E+04  0.10000000000E+02 0. -1.
</event>
<event>
 5    1  0.1440459E-008  0.3845609E+03  0.7957747E-01  0.3431537E+00
         13   -1    0    0    0    0  0.00000000000E+00  0.00000000000E+00  0.14999999963E+04  0.15000000000E+04  0.10566000000E+00 0. -1.
        994   -1    0    0    0    0 -0.00000000000E+00 -0.00000000000E+00  0.11368683772E-12  0.17120000000E+03  0.17120000000E+03 0.  0.
         13    1    1    2    0    0 -0.59518020436E+01 -0.12889280507E+02  0.56247217990E+02  0.58011362639E+02  0.10566000000E+00 0. -1.
        994    1    1    2    0    0  0.97372882194E+01 -0.99602296268E+00  0.21638963054E+01  0.17149323395E+03  0.17120000000E+03 0.  0.
        998    1    1    2    0    0 -0.37854861758E+01  0.13885303469E+02  0.14415888820E+04  0.14416954034E+04  0.10000000000E+02 0. -1.
</event>
<event>
 5    1  0.1790945E-008  0.3858816E+03  0.7957747E-01  0.3425942E+00
         13   -1    0    0    0    0  0.00000000000E+00  0.00000000000E+00  0.14999999963E+04  0.15000000000E+04  0.10566000000E+00 0. -1.
        994   -1    0    0    0    0 -0.00000000000E+00 -0.00000000000E+00  0.11368683772E-12  0.17120000000E+03  0.17120000000E+03 0.  0.
         13    1    1    2    0    0 -0.54787210098E+01  0.94463827633E+01  0.50912815672E+02  0.52070879528E+02  0.10566000000E+00 0. -1.
        994    1    1    2    0    0  0.33649703673E+01 -0.49781422962E+01  0.13114676126E+01  0.17131043422E+03  0.17120000000E+03 0.  0.
        998    1    1    2    0    0  0.21137506426E+01 -0.44682404671E+01  0.14477757130E+04  0.14478186862E+04  0.10000000000E+02 0. -1.
</event>
<event>
 5    1  0.1440459E-008  0.3812667E+03  0.7957747E-01  0.3445662E+00
         13   -1    0    0    0    0  0.00000000000E+00  0.00000000000E+00  0.14999999963E+04  0.15000000000E+04  0.10566000000E+00 0. -1.
        994   -1    0    0    0    0 -0.00000000000E+00 -0.00000000000E+00  0.11368683772E-12  0.17120000000E+03  0.17120000000E+03 0.  0.
         13    1    1    2    0    0  0.76339540968E+01 -0.78248659727E+01  0.15649386956E+02  0.19089794624E+02  0.10566000000E+00 0. -1.
        994    1    1    2    0    0 -0.58200540313E+01  0.47126675216E+01  0.36818152127E+01  0.17140326143E+03  0.17120000000E+03 0.  0.
        998    1    1    2    0    0 -0.18139000655E+01  0.31121984511E+01  0.14806687941E+04  0.14807069440E+04  0.10000000000E+02 0. -1.
</event>
<event>
 5    1  0.1440459E-008  0.3805302E+03  0.7957747E-01  0.3448853E+00
         13   -1    0    0    0    0  0.00000000000E+00  0.00000000000E+00  0.14999999963E+04  0.15000000000E+04  0.10566000000E+00 0.  1.
        994   -1    0    0    0    0 -0.00000000000E+00 -0.00000000000E+00  0.11368683772E-12  0.17120000000E+03  0.17120000000E+03 0.  0.
         13    1    1    2    0    0  0.42426737433E+01  0.11344283168E+02  0.17397624987E+02  0.21198621660E+02  0.10566000000E+00 0.  1.
        994    1    1    2    0    0 -0.83516789859E+01 -0.49534959424E+01  0.41804368492E+01  0.17152610214E+03  0.17120000000E+03 0.  0.
        998    1    1    2    0    0  0.41090052426E+01 -0.63907872251E+01  0.14784219344E+04  0.14784752762E+04  0.10000000000E+02 0.  1.
</event>
<event>
 5    1  0.1440459E-008  0.3822842E+03  0.7957747E-01  0.3441272E+00
         13   -1    0    0    0    0  0.00000000000E+00  0.00000000000E+00  0.14999999963E+04  0.15000000000E+04  0.10566000000E+00 0.  1.
        994   -1    0    0    0    0 -0.00000000000E+00 -0.00000000000E+00  0.11368683772E-12  0.17120000000E+03  0.17120000000E+03 0.  0.
         13    1    1    2    0    0  0.18840634144E+02 -0.42106136986E+01  0.59372793328E+02  0.62432671850E+02  0.10566000000E+00 0.  1.
        994    1    1    2    0    0 -0.17232528718E+02  0.15015353084E+02  0.47197425410E+01  0.17278349702E+03  0.17120000000E+03 0.  0.
        998    1    1    2    0    0 -0.16081054258E+01 -0.10804739385E+02  0.14359074604E+04  0.14359838311E+04  0.10000000000E+02 0.  1.
</event>
<event>
 5    1  0.1440459E-008  0.3776536E+03  0.7957747E-01  0.3461439E+00
         13   -1    0    0    0    0  0.00000000000E+00  0.00000000000E+00  0.14999999963E+04  0.15000000000E+04  0.10566000000E+00 0. -1.
        994   -1    0    0    0    0 -0.00000000000E+00 -0.00000000000E+00  0.11368683772E-12  0.17120000000E+03  0.17120000000E+03 0.  0.
         13    1    1    2    0    0  0.23242166934E+02  0.39811456822E+02  0.21105531447E+03  0.21603126475E+03  0.10566000000E+00 0. -1.
        994    1    1    2    0    0 -0.79900967580E+01 -0.15207608586E+02  0.63172067853E+01  0.17217566642E+03  0.17120000000E+03 0.  0.
        998    1    1    2    0    0 -0.15252070175E+02 -0.24603848236E+02  0.12826274750E+04  0.12829930688E+04  0.10000000000E+02 0. -1.
</event>
<event>
 5    1  0.1440459E-008  0.3804101E+03  0.7957747E-01  0.3449375E+00
         13   -1    0    0    0    0  0.00000000000E+00  0.00000000000E+00  0.14999999963E+04  0.15000000000E+04  0.10566000000E+00 0. -1.
        994   -1    0    0    0    0 -0.00000000000E+00 -0.00000000000E+00  0.11368683772E-12  0.17120000000E+03  0.17120000000E+03 0.  0.
         13    1    1    2    0    0 -0.11048836745E+02 -0.21720614012E+03  0.11569425788E+04  0.11772071721E+04  0.10566000000E+00 0. -1.
        994    1    1    2    0    0  0.14258464642E+02  0.20942839114E+03  0.16862750559E+03  0.31907402036E+03  0.17120000000E+03 0.  0.
        998    1    1    2    0    0 -0.32096278977E+01  0.77777489817E+01  0.17442991187E+03  0.17491880758E+03  0.10000000000E+02 0.  0.
</event>
<event>
 5    1  0.1440459E-008  0.3779741E+03  0.7957747E-01  0.3460027E+00
         13   -1    0    0    0    0  0.00000000000E+00  0.00000000000E+00  0.14999999963E+04  0.15000000000E+04  0.10566000000E+00 0. -1.
        994   -1    0    0    0    0 -0.00000000000E+00 -0.00000000000E+00  0.11368683772E-12  0.17120000000E+03  0.17120000000E+03 0.  0.
         13    1    1    2    0    0 -0.45495826172E+02  0.10304761383E+02  0.22399283930E+03  0.22879873586E+03  0.10566000000E+00 0. -1.
        994    1    1    2    0    0  0.23857294979E+02  0.22374406804E+02  0.87680582892E+01  0.17451677126E+03  0.17120000000E+03 0.  0.
        998    1    1    2    0    0  0.21638531193E+02 -0.32679168187E+02  0.12672390987E+04  0.12678844929E+04  0.10000000000E+02 0. -1.
</event>
<event>
 5    1  0.1440459E-008  0.3953305E+03  0.7957747E-01  0.3387007E+00
         13   -1    0    0    0    0  0.00000000000E+00  0.00000000000E+00  0.14999999963E+04  0.15000000000E+04  0.10566000000E+00 0. -1.
        994   -1    0    0    0    0 -0.00000000000E+00 -0.00000000000E+00  0.11368683772E-12  0.17120000000E+03  0.17120000000E+03 0.  0.
         13    1    1    2    0    0  0.10370124474E+03 -0.68687686385E+02  0.44840254812E+03  0.46533515099E+03  0.10566000000E+00 0. -1.
        994    1    1    2    0    0 -0.18169247971E+02 -0.73750019560E+01  0.26495952897E+02  0.17434445143E+03  0.17120000000E+03 0.  0.
        998    1    1    2    0    0 -0.85531996772E+02  0.76062688341E+02  0.10251014953E+04  0.10315203976E+04  0.10000000000E+02 0. -1.
</event>
<event>
 5    1  0.1440459E-008  0.3836841E+03  0.7957747E-01  0.3435272E+00
         13   -1    0    0    0    0  0.00000000000E+00  0.00000000000E+00  0.14999999963E+04  0.15000000000E+04  0.10566000000E+00 0. -1.
        994   -1    0    0    0    0 -0.00000000000E+00 -0.00000000000E+00  0.11368683772E-12  0.17120000000E+03  0.17120000000E+03 0.  0.
         13    1    1    2    0    0 -0.28676590275E+01 -0.13388789178E+02  0.39807880082E+02  0.42097050070E+02  0.10566000000E+00 0. -1.
        994    1    1    2    0    0  0.35719320209E+01  0.12180158120E+02  0.28171602805E+01  0.17169301483E+03  0.17120000000E+03 0.  0.
        998    1    1    2    0    0 -0.70427299340E+00  0.12086310580E+01  0.14573749559E+04  0.14574099351E+04  0.10000000000E+02 0. -1.
</event>
<event>
 5    1  0.1440459E-008  0.3860234E+03  0.7957747E-01  0.3425343E+00
         13   -1    0    0    0    0  0.00000000000E+00  0.00000000000E+00  0.14999999963E+04  0.15000000000E+04  0.10566000000E+00 0.  1.
        994   -1    0    0    0    0 -0.00000000000E+00 -0.00000000000E+00  0.11368683772E-12  0.17120000000E+03  0.17120000000E+03 0.  0.
         13    1    1    2    0    0 -0.48688103323E+01  0.10142641713E+02  0.54929165328E+02  0.56069625133E+02  0.10566000000E+00 0.  1.
        994    1    1    2    0    0  0.10546113862E+02 -0.94298803764E+01  0.17791896448E+01  0.17179274920E+03  0.17120000000E+03 0.  0.
        998    1    1    2    0    0 -0.56773035300E+01 -0.71276133616E+00  0.14432916413E+04  0.14433376257E+04  0.10000000000E+02 0.  1.
</event>
<event>
 5    1  0.1440459E-008  0.3753427E+03  0.7957747E-01  0.3471692E+00
         13   -1    0    0    0    0  0.00000000000E+00  0.00000000000E+00  0.14999999963E+04  0.15000000000E+04  0.10566000000E+00 0. -1.
        994   -1    0    0    0    0 -0.00000000000E+00 -0.00000000000E+00  0.11368683772E-12  0.17120000000E+03  0.17120000000E+03 0.  0.
         13    1    1    2    0    0 -0.31978847201E+02 -0.13228437832E+02  0.93114705645E+02  0.99337796468E+02  0.10566000000E+00 0. -1.
        994    1    1    2    0    0 -0.41277834899E+01  0.44512143621E+02  0.13318248046E+02  0.17744065278E+03  0.17120000000E+03 0.  0.
        998    1    1    2    0    0  0.36106630691E+02 -0.31283705789E+02  0.13935670426E+04  0.13944215508E+04  0.10000000000E+02 0. -1.
</event>
<event>
 5    1  0.1440459E-008  0.3823428E+03  0.7957747E-01  0.3441021E+00
         13   -1    0    0    0    0  0.00000000000E+00  0.00000000000E+00  0.14999999963E+04  0.15000000000E+04  0.10566000000E+00 0. -1.
        994   -1    0    0    0    0 -0.00000000000E+00 -0.00000000000E+00  0.11368683772E-12  0.17120000000E+03  0.17120000000E+03 0.  0.
         13    1    1    2    0    0 -0.19944947655E+02 -0.15811137635E+02  0.10906205964E+03  0.11199257577E+03  0.10566000000E+00 0. -1.
        994    1    1    2    0    0  0.92616588267E+01  0.12469561800E+02  0.37559390895E+01  0.17194422169E+03  0.17120000000E+03 0.  0.
        998    1    1    2    0    0  0.10683288828E+02  0.33415758350E+01  0.13871819976E+04  0.13872632025E+04  0.10000000000E+02 0. -1.
</event>
<event>
 5    1  0.1440459E-008  0.3806385E+03  0.7957747E-01  0.3448383E+00
         13   -1    0    0    0    0  0.00000000000E+00  0.00000000000E+00  0.14999999963E+04  0.15000000000E+04  0.10566000000E+00 0.  1.
        994   -1    0    0    0    0 -0.00000000000E+00 -0.00000000000E+00  0.11368683772E-12  0.17120000000E+03  0.17120000000E+03 0.  0.
         13    1    1    2    0    0 -0.40238428916E+02 -0.76002723263E+02  0.51187161440E+03  0.51904537942E+03  0.10566000000E+00 0.  1.
        994    1    1    2    0    0  0.43138863611E+02  0.91715379690E+02  0.38876122262E+02  0.20271523206E+03  0.17120000000E+03 0.  0.
        998    1    1    2    0    0 -0.29004346955E+01 -0.15712656426E+02  0.94925225962E+03  0.94943938853E+03  0.10000000000E+02 0.  1.
</event>
<event>
 5    1  0.1440459E-008  0.3726636E+03  0.7957747E-01  0.3483738E+00
         13   -1    0    0    0    0  0.00000000000E+00  0.00000000000E+00  0.14999999963E+04  0.15000000000E+04  0.10566000000E+00 0.  1.
        994   -1    0    0    0    0 -0.00000000000E+00 -0.00000000000E+00  0.11368683772E-12  0.17120000000E+03  0.17120000000E+03 0.  0.
         13    1    1    2    0    0  0.72139891037E+02  0.65412247225E+02  0.46087089406E+03  0.47104661990E+03  0.10566000000E+00 0.  1.
        994    1    1    2    0    0 -0.73248020140E+02 -0.46748277199E+02  0.34214034470E+02  0.19501465081E+03  0.17120000000E+03 0.  0.
        998    1    1    2    0    0  0.11081291024E+01 -0.18663970027E+02  0.10049150678E+04  0.10051387293E+04  0.10000000000E+02 0.  1.
</event>
<event>
 5    1  0.1440459E-008  0.3852087E+03  0.7957747E-01  0.3428788E+00
         13   -1    0    0    0    0  0.00000000000E+00  0.00000000000E+00  0.14999999963E+04  0.15000000000E+04  0.10566000000E+00 0.  1.
        994   -1    0    0    0    0 -0.00000000000E+00 -0.00000000000E+00  0.11368683772E-12  0.17120000000E+03  0.17120000000E+03 0.  0.
         13    1    1    2    0    0  0.16156968843E+02  0.32894482976E+01  0.97302567473E+02  0.98689760934E+02  0.10566000000E+00 0.  1.
        994    1    1    2    0    0 -0.14528045382E+01  0.66719015995E+01  0.16797969186E+01  0.17134435103E+03  0.17120000000E+03 0.  0.
        998    1    1    2    0    0 -0.14704164305E+02 -0.99613498971E+01  0.14010176319E+04  0.14011658880E+04  0.10000000000E+02 0.  1.
</event>
<event>
 5    1  0.1440459E-008  0.3810649E+03  0.7957747E-01  0.3446535E+00
         13   -1    0    0    0    0  0.00000000000E+00  0.00000000000E+00  0.14999999963E+04  0.15000000000E+04  0.10566000000E+00 0.  1.
        994   -1    0    0    0    0 -0.00000000000E+00 -0.00000000000E+00  0.11368683772E-12  0.17120000000E+03  0.17120000000E+03 0.  0.
         13    1    1    2    0    0  0.77882394267E+01 -0.89660445298E+01  0.17989110613E+02  0.21556110330E+02  0.10566000000E+00 0.  1.
        994    1    1    2    0    0 -0.50026015844E+01  0.10384420601E+02  0.40392614037E+01  0.17163512999E+03  0.17120000000E+03 0.  0.
        998    1    1    2    0    0 -0.27856378423E+01 -0.14183760709E+01  0.14779716243E+04  0.14780087597E+04  0.10000000000E+02 0.  1.
</event>
<event>
 5    1  0.1440459E-008  0.3852618E+03  0.7957747E-01  0.3428562E+00
         13   -1    0    0    0    0  0.00000000000E+00  0.00000000000E+00  0.14999999963E+04  0.15000000000E+04  0.10566000000E+00 0.  1.
        994   -1    0    0    0    0 -0.00000000000E+00 -0.00000000000E+00  0.11368683772E-12  0.17120000000E+03  0.17120000000E+03 0.  0.
         13    1    1    2    0    0 -0.11283748796E+02  0.18307086744E+01  0.44328247508E+02  0.45778588579E+02  0.10566000000E+00 0.  1.
        994    1    1    2    0    0  0.39067756572E+01 -0.47597973258E+01  0.16247992127E+01  0.17131841273E+03  0.17120000000E+03 0.  0.
        998    1    1    2    0    0  0.73769731387E+01  0.29290886514E+01  0.14540469496E+04  0.14541029987E+04  0.10000000000E+02 0.  1.
</event>
<event>
 5    1  0.1440459E-008  0.3808010E+03  0.7957747E-01  0.3447678E+00
         13   -1    0    0    0    0  0.00000000000E+00  0.00000000000E+00  0.14999999963E+04  0.15000000000E+04  0.10566000000E+00 0.  1.
        994   -1    0    0    0    0 -0.00000000000E+00 -0.00000000000E+00  0.11368683772E-12  0.17120000000E+03  0.17120000000E+03 0.  0.
         13    1    1    2    0    0  0.19869371754E+02  0.10775245841E+01  0.52413149201E+02  0.56063378121E+02  0.10566000000E+00 0.  1.
        994    1    1    2    0    0 -0.94158641160E+01 -0.57037685136E+01  0.41334999098E+01  0.17160337204E+03  0.17120000000E+03 0.  0.
        998    1    1    2    0    0 -0.10453507638E+02  0.46262439296E+01  0.14434533472E+04  0.14435332498E+04  0.10000000000E+02 0.  1.
</event>
<event>
 5    1  0.1440459E-008  0.3840873E+03  0.7957747E-01  0.3433552E+00
         13   -1    0    0    0    0  0.00000000000E+00  0.00000000000E+00  0.14999999963E+04  0.15000000000E+04  0.10566000000E+00 0.  1.
        994   -1    0    0    0    0 -0.00000000000E+00 -0.00000000000E+00  0.11368683772E-12  0.17120000000E+03  0.17120000000E+03 0.  0.
         13    1    1    2    0    0 -0.15617247669E+02  0.41898996068E+01  0.57140547412E+02  0.59384400360E+02  0.10566000000E+00 0.  1.
        994    1    1    2    0    0  0.18279773979E+02 -0.40275557605E+02  0.85634054122E+01  0.17702836662E+03  0.17120000000E+03 0.  0.
        998    1    1    2    0    0 -0.26625263102E+01  0.36085657999E+02  0.14342960435E+04  0.14347872330E+04  0.10000000000E+02 0.  1.
</event>
<event>
 5    1  0.1440459E-008  0.3816451E+03  0.7957747E-01  0.3444027E+00
         13   -1    0    0    0    0  0.00000000000E+00  0.00000000000E+00  0.14999999963E+04  0.15000000000E+04  0.10566000000E+00 0.  1.
        994   -1    0    0    0    0 -0.00000000000E+00 -0.00000000000E+00  0.11368683772E-12  0.17120000000E+03  0.17120000000E+03 0.  0.
         13    1    1    2    0    0 -0.22670438740E+02  0.40542829790E+02  0.28046979468E+03  0.28429032120E+03  0.10566000000E+00 0.  1.
        994    1    1    2    0    0  0.21956699633E+02 -0.35631665062E+02  0.91511714995E+01  0.17647916634E+03  0.17120000000E+03 0.  0.
        998    1    1    2    0    0  0.71373910712E+00 -0.49111647275E+01  0.12103790301E+04  0.12104305125E+04  0.10000000000E+02 0.  1.
</event>
<event>
 5    1  0.1440459E-008  0.3825762E+03  0.7957747E-01  0.3440017E+00
         13   -1    0    0    0    0  0.00000000000E+00  0.00000000000E+00  0.14999999963E+04  0.15000000000E+04  0.10566000000E+00 0.  1.
        994   -1    0    0    0    0 -0.00000000000E+00 -0.00000000000E+00  0.11368683772E-12  0.17120000000E+03  0.17120000000E+03 0.  0.
         13    1    1    2    0    0 -0.23896436308E+02 -0.60477964053E+01  0.10291658835E+03  0.10582745783E+03  0.10566000000E+00 0.  1.
        994    1    1    2    0    0  0.19611027118E+02  0.49382172432E+01  0.41951413479E+01  0.17244134535E+03  0.17120000000E+03 0.  0.
        998    1    1    2    0    0  0.42854091904E+01  0.11095791621E+01  0.13928882666E+04  0.13929311968E+04  0.10000000000E+02 0.  1.
</event>
<event>
 5    1  0.1440459E-008  0.3753329E+03  0.7957747E-01  0.3471735E+00
         13   -1    0    0    0    0  0.00000000000E+00  0.00000000000E+00  0.14999999963E+04  0.15000000000E+04  0.10566000000E+00 0. -1.
        994   -1    0    0    0    0 -0.00000000000E+00 -0.00000000000E+00  0.11368683772E-12  0.17120000000E+03  0.17120000000E+03 0.  0.
         13    1    1    2    0    0  0.41953577327E+02  0.18600887551E+01  0.61970544825E+02  0.74859349253E+02  0.10566000000E+00 0. -1.
        994    1    1    2    0    0 -0.10536723090E+02  0.12151804539E+01  0.14187801435E+02  0.17211401136E+03  0.17120000000E+03 0.  0.
        998    1    1    2    0    0 -0.31416854237E+02 -0.30752692091E+01  0.14238416500E+04  0.14242266394E+04  0.10000000000E+02 0. -1.
</event>
<event>
 5    1  0.1440459E-008  0.3773448E+03  0.7957747E-01  0.3462802E+00
         13   -1    0    0    0    0  0.00000000000E+00  0.00000000000E+00  0.14999999963E+04  0.15000000000E+04  0.10566000000E+00 0. -1.
        994   -1    0    0    0    0 -0.00000000000E+00 -0.00000000000E+00  0.11368683772E-12  0.17120000000E+03  0.17120000000E+03 0.  0.
         13    1    1    2    0    0 -0.43591195386E+01 -0.22440775592E+02  0.46527531066E+02  0.51840260835E+02  0.10566000000E+00 0. -1.
        994    1    1    2    0    0  0.94873574473E+01  0.69222940686E+01  0.59448277300E+01  0.17170529719E+03  0.17120000000E+03 0.  0.
        998    1    1    2    0    0 -0.51282379087E+01  0.15518481523E+02  0.14475276375E+04  0.14476544420E+04  0.10000000000E+02 0. -1.
</event>
<event>
 5    1  0.1440459E-008  0.3848834E+03  0.7957747E-01  0.3430167E+00
         13   -1    0    0    0    0  0.00000000000E+00  0.00000000000E+00  0.14999999963E+04  0.15000000000E+04  0.10566000000E+00 0.  1.
        994   -1    0    0    0    0 -0.00000000000E+00 -0.00000000000E+00  0.11368683772E-12  0.17120000000E+03  0.17120000000E+03 0.  0.
         13    1    1    2    0    0 -0.86564471814E+00 -0.16131727559E+02  0.80431004083E+02  0.82037427779E+02  0.10566000000E+00 0.  1.
        994    1    1    2    0    0 -0.56815183084E+01  0.51326542740E+01  0.18809223227E+01  0.17138145074E+03  0.17120000000E+03 0.  0.
        998    1    1    2    0    0  0.65471630266E+01  0.10999073285E+02  0.14176880699E+04  0.14177811215E+04  0.10000000000E+02 0.  1.
</event>
<event>
 5    1  0.1440459E-008  0.3802854E+03  0.7957747E-01  0.3449917E+00
         13   -1    0    0    0    0  0.00000000000E+00  0.00000000000E+00  0.14999999963E+04  0.15000000000E+04  0.10566000000E+00 0. -1.
        994   -1    0    0    0    0 -0.00000000000E+00 -0.00000000000E+00  0.11368683772E-12  0.17120000000E+03  0.17120000000E+03 0.  0.
         13    1    1    2    0    0  0.16728111102E+02  0.90613042396E+01  0.42750288254E+02  0.46792469964E+02  0.10566000000E+00 0. -1.
        994    1    1    2    0    0 -0.20675779124E+02 -0.33997909454E+01  0.54568183077E+01  0.17256379483E+03  0.17120000000E+03 0.  0.
        998    1    1    2    0    0  0.39476680227E+01 -0.56615132942E+01  0.14517928897E+04  0.14518437352E+04  0.10000000000E+02 0. -1.
</event>
<event>
 5    1  0.1440459E-008  0.3839600E+03  0.7957747E-01  0.3434095E+00
         13   -1    0    0    0    0  0.00000000000E+00  0.00000000000E+00  0.14999999963E+04  0.15000000000E+04  0.10566000000E+00 0.  1.
        994   -1    0    0    0    0 -0.00000000000E+00 -0.00000000000E+00  0.11368683772E-12  0.17120000000E+03  0.17120000000E+03 0.  0.
         13    1    1    2    0    0 -0.19374760500E+02  0.13373664342E+02  0.10842313491E+03  0.11094964439E+03  0.10566000000E+00 0.  1.
        994    1    1    2    0    0  0.29451858447E+02 -0.25945835200E+02  0.72476435204E+01  0.17579125879E+03  0.17120000000E+03 0.  0.
        998    1    1    2    0    0 -0.10077097947E+02  0.12572170858E+02  0.13843292178E+04  0.13844590968E+04  0.10000000000E+02 0.  1.
</event>
<event>
 5    1  0.1440459E-008  0.3856109E+03  0.7957747E-01  0.3427086E+00
         13   -1    0    0    0    0  0.00000000000E+00  0.00000000000E+00  0.14999999963E+04  0.15000000000E+04  0.10566000000E+00 0. -1.
        994   -1    0    0    0    0 -0.00000000000E+00 -0.00000000000E+00  0.11368683772E-12  0.17120000000E+03  0.17120000000E+03 0.  0.
         13    1    1    2    0    0 -0.13496204331E+02 -0.67959324645E+00  0.72439382387E+02  0.73689108171E+02  0.10566000000E+00 0. -1.
        994    1    1    2    0    0  0.30895637635E+01 -0.42956408602E+01  0.14190550165E+01  0.17128762843E+03  0.17120000000E+03 0.  0.
        998    1    1    2    0    0  0.10406640568E+02  0.49752341066E+01  0.14261415589E+04  0.14262232634E+04  0.10000000000E+02 0. -1.
</event>
<event>
 5    1  0.1440459E-008  0.3711501E+03  0.7957747E-01  0.3490622E+00
         13   -1    0    0    0    0  0.00000000000E+00  0.00000000000E+00  0.14999999963E+04  0.15000000000E+04  0.10566000000E+00 0. -1.
        994   -1    0    0    0    0 -0.00000000000E+00 -0.00000000000E+00  0.11368683772E-12  0.17120000000E+03  0.17120000000E+03 0.  0.
         13    1    1    2    0    0 -0.10796032509E+02  0.29759413032E+02  0.52996321182E+02  0.61731662903E+02  0.10566000000E+00 0. -1.
        994    1    1    2    0    0  0.38738957923E+01 -0.30644853710E+02  0.11962167334E+02  0.17437501993E+03  0.17120000000E+03 0.  0.
        998    1    1    2    0    0  0.69221367169E+01  0.88544067831E+00  0.14350415078E+04  0.14350933172E+04  0.10000000000E+02 0. -1.
</event>
<event>
 5    1  0.1440459E-008  0.3808778E+03  0.7957747E-01  0.3447345E+00
         13   -1    0    0    0    0  0.00000000000E+00  0.00000000000E+00  0.14999999963E+04  0.15000000000E+04  0.10566000000E+00 0.  1.
        994   -1    0    0    0    0 -0.00000000000E+00 -0.00000000000E+00  0.11368683772E-12  0.17120000000E+03  0.17120000000E+03 0.  0.
         13    1    1    2    0    0  0.11014105031E+02 -0.49876363683E+01  0.17916261943E+02  0.21614593038E+02  0.10566000000E+00 0.  1.
        994    1    1    2    0    0  0.10406506420E+01  0.39482188328E+02  0.89078248902E+01  0.17592247012E+03  0.17120000000E+03 0.  0.
        998    1    1    2    0    0 -0.12054755673E+02 -0.34494551960E+02  0.14731759094E+04  0.14736629368E+04  0.10000000000E+02 0.  1.
</event>
<event>
 5    1  0.1440459E-008  0.3841413E+03  0.7957747E-01  0.3433322E+00
         13   -1    0    0    0    0  0.00000000000E+00  0.00000000000E+00  0.14999999963E+04  0.15000000000E+04  0.10566000000E+00 0.  1.
        994   -1    0    0    0    0 -0.00000000000E+00 -0.00000000000E+00  0.11368683772E-12  0.17120000000E+03  0.17120000000E+03 0.  0.
         13    1    1    2    0    0  0.21061125895E+02  0.33245894332E+00  0.11001564102E+03  0.11201399014E+03  0.10566000000E+00 0.  1.
        994    1    1    2    0    0 -0.99654773821E+01 -0.78967878268E+01  0.25904308708E+01  0.17169106072E+03  0.17120000000E+03 0.  0.
        998    1    1    2    0    0 -0.11095648513E+02  0.75643288835E+01  0.13873939244E+04  0.13874949491E+04  0.10000000000E+02 0.  1.
</event>
<event>
 5    1  0.1440459E-008  0.3760669E+03  0.7957747E-01  0.3468465E+00
         13   -1    0    0    0    0  0.00000000000E+00  0.00000000000E+00  0.14999999963E+04  0.15000000000E+04  0.10566000000E+00 0. -1.
        994   -1    0    0    0    0 -0.00000000000E+00 -0.00000000000E+00  0.11368683772E-12  0.17120000000E+03  0.17120000000E+03 0.  0.
         13    1    1    2    0    0 -0.32914487701E+02  0.44403460614E+02  0.22463751318E+03  0.23133753329E+03  0.10566000000E+00 0. -1.
        994    1    1    2    0    0 -0.48354547068E+01 -0.63849287358E+02  0.20147779226E+02  0.18388987500E+03  0.17120000000E+03 0.  0.
        998    1    1    2    0    0  0.37749942408E+02  0.19445826743E+02  0.12552147039E+04  0.12559725917E+04  0.10000000000E+02 0. -1.
</event>
<event>
 5    1  0.1440459E-008  0.3846885E+03  0.7957747E-01  0.3430994E+00
         13   -1    0    0    0    0  0.00000000000E+00  0.00000000000E+00  0.14999999963E+04  0.15000000000E+04  0.10566000000E+00 0. -1.
        994   -1    0    0    0    0 -0.00000000000E+00 -0.00000000000E+00  0.11368683772E-12  0.17120000000E+03  0.17120000000E+03 0.  0.
         13    1    1    2    0    0  0.11294719687E+02 -0.16372861273E+01  0.35872582967E+02  0.37644452067E+02  0.10566000000E+00 0. -1.
        994    1    1    2    0    0 -0.80662861218E+01  0.12266509521E+02  0.24947168325E+01  0.17184643098E+03  0.17120000000E+03 0.  0.
        998    1    1    2    0    0 -0.32284335654E+01 -0.10629223394E+02  0.14616326965E+04  0.14617091170E+04  0.10000000000E+02 0. -1.
</event>
<event>
 5    1  0.1440459E-008  0.3837886E+03  0.7957747E-01  0.3434826E+00
         13   -1    0    0    0    0  0.00000000000E+00  0.00000000000E+00  0.14999999963E+04  0.15000000000E+04  0.10566000000E+00 0. -1.
        994   -1    0    0    0    0 -0.00000000000E+00 -0.00000000000E+00  0.11368683772E-12  0.17120000000E+03  0.17120000000E+03 0.  0.
         13    1    1    2    0    0 -0.23568921895E+00 -0.12120294545E+02  0.31842839171E+02  0.34072491247E+02  0.10566000000E+00 0. -1.
        994    1    1    2    0    0  0.38710548153E+01  0.11549215674E+02  0.27227582469E+01  0.17165437035E+03  0.17120000000E+03 0.  0.
        998    1    1    2    0    0 -0.36353655963E+01  0.57107887038E+00  0.14654343989E+04  0.14654731384E+04  0.10000000000E+02 0. -1.
</event>
<event>
 5    1  0.1440459E-008  0.3819255E+03  0.7957747E-01  0.3442817E+00
         13   -1    0    0    0    0  0.00000000000E+00  0.00000000000E+00  0.14999999963E+04  0.15000000000E+04  0.10566000000E+00 0. -1.
        994   -1    0    0    0    0 -0.00000000000E+00 -0.00000000000E+00  0.11368683772E-12  0.17120000000E+03  0.17120000000E+03 0.  0.
         13    1    1    2    0    0  0.36173172649E+00 -0.15361972382E+02  0.37693058835E+02  0.40705022954E+02  0.10566000000E+00 0. -1.
        994    1    1    2    0    0  0.50953639910E+01 -0.62610096179E+00  0.32518457742E+01  0.17130782013E+03  0.17120000000E+03 0.  0.
        998    1    1    2    0    0 -0.54570957175E+01  0.15988073344E+02  0.14590550917E+04  0.14591871569E+04  0.10000000000E+02 0. -1.
</event>
<event>
 5    1  0.1440459E-008  0.3798131E+03  0.7957747E-01  0.3451973E+00
         13   -1    0    0    0    0  0.00000000000E+00  0.00000000000E+00  0.14999999963E+04  0.15000000000E+04  0.10566000000E+00 0.  1.
        994   -1    0    0    0    0 -0.00000000000E+00 -0.00000000000E+00  0.11368683772E-12  0.17120000000E+03  0.17120000000E+03 0.  0.
         13    1    1    2    0    0  0.61142637124E+02 -0.80733177003E+02  0.45022881309E+03  0.46147834537E+03  0.10566000000E+00 0.  1.
        994    1    1    2    0    0 -0.22385605000E+02 -0.59312307861E+01  0.18168901416E+02  0.17371195638E+03  0.17120000000E+03 0.  0.
        998    1    1    2    0    0 -0.38757032124E+02  0.86664407789E+02  0.10316022818E+04  0.10360096983E+04  0.10000000000E+02 0.  1.
</event>
<event>
 5    1  0.1440459E-008  0.3782710E+03  0.7957747E-01  0.3458722E+00
         13   -1    0    0    0    0  0.00000000000E+00  0.00000000000E+00  0.14999999963E+04  0.15000000000E+04  0.10566000000E+00 0. -1.
        994   -1    0    0    0    0 -0.00000000000E+00 -0.00000000000E+00  0.11368683772E-12  0.17120000000E+03  0.17120000000E+03 0.  0.
         13    1    1    2    0    0  0.18534577425E+02  0.14361196922E+02  0.54810022739E+02  0.59614799287E+02  0.10566000000E+00 0. -1.
        994    1    1    2    0    0 -0.54380524972E+01 -0.25309104031E+01  0.51294558323E+01  0.17138182296E+03  0.17120000000E+03 0.  0.
        998    1    1    2    0    0 -0.13096524928E+02 -0.11830286518E+02  0.14400605177E+04  0.14402033778E+04  0.10000000000E+02 0. -1.
</event>
<event>
 5    1  0.1440459E-008  0.3777151E+03  0.7957747E-01  0.3461168E+00
         13   -1    0    0    0    0  0.00000000000E+00  0.00000000000E+00  0.14999999963E+04  0.15000000000E+04  0.10566000000E+00 0.  1.
        994   -1    0    0    0    0 -0.00000000000E+00 -0.00000000000E+00  0.11368683772E-12  0.17120000000E+03  0.17120000000E+03 0.  0.
         13    1    1    2    0    0 -0.32452732660E+02 -0.15406556322E+02  0.15156632496E+03  0.15576554132E+03  0.10566000000E+00 0.  1.
        994    1    1    2    0    0  0.94647117062E+00 -0.40682199573E+02  0.10889155165E+02  0.17630641188E+03  0.17120000000E+03 0.  0.
        998    1    1    2    0    0  0.31506261489E+02  0.56088755895E+02  0.13375445161E+04  0.13391280468E+04  0.10000000000E+02 0.  1.
</event>
<event>
 5    1  0.1440459E-008  0.3809834E+03  0.7957747E-01  0.3446888E+00
         13   -1    0    0    0    0  0.00000000000E+00  0.00000000000E+00  0.14999999963E+04  0.15000000000E+04  0.10566000000E+00 0. -1.
        994   -1    0    0    0    0 -0.00000000000E+00 -0.00000000000E+00  0.11368683772E-12  0.17120000000E+03  0.17120000000E+03 0.  0.
         13    1    1    2    0    0 -0.14050803908E+02  0.99637768161E+01  0.37946815811E+02  0.41673419984E+02  0.10566000000E+00 0. -1.
        994    1    1    2    0    0  0.13001744622E+02 -0.20368398206E+02  0.55856263176E+01  0.17298715626E+03  0.17120000000E+03 0.  0.
        998    1    1    2    0    0  0.10490592866E+01  0.10404621390E+02  0.14564675541E+04  0.14565394238E+04  0.10000000000E+02 0. -1.
</event>
<event>
 5    1  0.1440459E-008  0.3856206E+03  0.7957747E-01  0.3427044E+00
         13   -1    0    0    0    0  0.00000000000E+00  0.00000000000E+00  0.14999999963E+04  0.15000000000E+04  0.10566000000E+00 0.  1.
        994   -1    0    0    0    0 -0.00000000000E+00 -0.00000000000E+00  0.11368683772E-12  0.17120000000E+03  0.17120000000E+03 0.  0.
         13    1    1    2    0    0  0.11405647899E+02 -0.50733590069E+01  0.61676255036E+02  0.62926936799E+02  0.10566000000E+00 0.  1.
        994    1    1    2    0    0 -0.87010322989E+00  0.44785327730E+01  0.13906434202E+01  0.17126642469E+03  0.17120000000E+03 0.  0.
        998    1    1    2    0    0 -0.10535544669E+02  0.59482623394E+00  0.14369330978E+04  0.14370066385E+04  0.10000000000E+02 0.  1.
</event>
<event>
 5    1  0.1440459E-008  0.3836942E+03  0.7957747E-01  0.3435229E+00
         13   -1    0    0    0    0  0.00000000000E+00  0.00000000000E+00  0.14999999963E+04  0.15000000000E+04  0.10566000000E+00 0.  1.
        994   -1    0    0    0    0 -0.00000000000E+00 -0.00000000000E+00  0.11368683772E-12  0.17120000000E+03  0.17120000000E+03 0.  0.
         13    1    1    2    0    0  0.20038661400E+02  0.24963212919E+02  0.19366034824E+03  0.19628818506E+03  0.10566000000E+00 0.  1.
        994    1    1    2    0    0 -0.26025600300E+02 -0.23450509907E+02  0.63435898922E+01  0.17486263014E+03  0.17120000000E+03 0.  0.
        998    1    1    2    0    0  0.59869388995E+01 -0.15127030120E+01  0.12999960581E+04  0.13000491848E+04  0.10000000000E+02 0.  1.
</event>
<event>
 5    1  0.1440459E-008  0.3855213E+03  0.7957747E-01  0.3427464E+00
         13   -1    0    0    0    0  0.00000000000E+00  0.00000000000E+00  0.14999999963E+04  0.15000000000E+04  0.10566000000E+00 0. -1.
        994   -1    0    0    0    0 -0.00000000000E+00 -0.00000000000E+00  0.11368683772E-12  0.17120000000E+03  0.17120000000E+03 0.  0.
         13    1    1    2    0    0 -0.48480794325E+02 -0.12339364419E+02  0.61572822583E+02  0.79333920725E+02  0.10566000000E+00 0. -1.
        994    1    1    2    0    0  0.74188223843E+01  0.13717140820E+02  0.20293867650E+02  0.17310251281E+03  0.17120000000E+03 0.  0.
        998    1    1    2    0    0  0.41061971941E+02 -0.13777764009E+01  0.14181333060E+04  0.14187635665E+04  0.10000000000E+02 0. -1.
</event>
<event>
 5    1  0.1440459E-008  0.3839944E+03  0.7957747E-01  0.3433948E+00
         13   -1    0    0    0    0  0.00000000000E+00  0.00000000000E+00  0.14999999963E+04  0.15000000000E+04  0.10566000000E+00 0. -1.
        994   -1    0    0    0    0 -0.00000000000E+00 -0.00000000000E+00  0.11368683772E-12  0.17120000000E+03  0.17120000000E+03 0.  0.
         13    1    1    2    0    0 -0.10011235119E+02 -0.91593108438E+01  0.44299028232E+02  0.46330690369E+02  0.10566000000E+00 0. -1.
        994    1    1    2    0    0 -0.23775223171E+01  0.45963275143E+01  0.22185750984E+01  0.17129255943E+03  0.17120000000E+03 0.  0.
        998    1    1    2    0    0  0.12388757436E+02  0.45629833294E+01  0.14534823929E+04  0.14535767502E+04  0.10000000000E+02 0.  1.
</event>
<event>
 5    1  0.1440459E-008  0.3728734E+03  0.7957747E-01  0.3482789E+00
         13   -1    0    0    0    0  0.00000000000E+00  0.00000000000E+00  0.14999999963E+04  0.15000000000E+04  0.10566000000E+00 0. -1.
        994   -1    0    0    0    0 -0.00000000000E+00 -0.00000000000E+00  0.11368683772E-12  0.17120000000E+03  0.17120000000E+03 0.  0.
         13    1    1    2    0    0 -0.19632166070E+02  0.46252697298E+01  0.22457075036E+02  0.30185202466E+02  0.10566000000E+00 0. -1.
        994    1    1    2    0    0  0.17847427598E+02 -0.18035038746E+02  0.99821995331E+01  0.17335765804E+03  0.17120000000E+03 0.  0.
        998    1    1    2    0    0  0.17847384723E+01  0.13409769016E+02  0.14675607217E+04  0.14676571395E+04  0.10000000000E+02 0. -1.
</event>
<event>
 5    1  0.1440459E-008  0.3861249E+03  0.7957747E-01  0.3424915E+00
         13   -1    0    0    0    0  0.00000000000E+00  0.00000000000E+00  0.14999999963E+04  0.15000000000E+04  0.10566000000E+00 0. -1.
        994   -1    0    0    0    0 -0.00000000000E+00 -0.00000000000E+00  0.11368683772E-12  0.17120000000E+03  0.17120000000E+03 0.  0.
         13    1    1    2    0    0  0.10843334247E+02 -0.60232323031E+00  0.60045998090E+02  0.61020273201E+02  0.10566000000E+00 0. -1.
        994    1    1    2    0    0  0.27893907357E+01  0.50366977035E+01  0.11812990908E+01  0.17130085958E+03  0.17120000000E+03 0.  0.
        998    1    1    2    0    0 -0.13632724982E+02 -0.44343744732E+01  0.14387726991E+04  0.14388788672E+04  0.10000000000E+02 0. -1.
</event>
<event>
 5    1  0.1440459E-008  0.3743067E+03  0.7957747E-01  0.3476329E+00
         13   -1    0    0    0    0  0.00000000000E+00  0.00000000000E+00  0.14999999963E+04  0.15000000000E+04  0.10566000000E+00 0.  1.
        994   -1    0    0    0    0 -0.00000000000E+00 -0.00000000000E+00  0.11368683772E-12  0.17120000000E+03  0.17120000000E+03 0.  0.
         13    1    1    2    0    0  0.38100310707E+02 -0.63845972248E+02  0.16661696763E+03  0.18245319102E+03  0.10566000000E+00 0.  1.
        994    1    1    2    0    0 -0.33270490364E+02  0.89997709263E+02  0.46679771206E+02  0.20172990418E+03  0.17120000000E+03 0.  0.
        998    1    1    2    0    0 -0.48298203426E+01 -0.26151737015E+02  0.12867032574E+04  0.12870169048E+04  0.10000000000E+02 0.  1.
</event>
<event>
 5    1  0.1440459E-008  0.3842387E+03  0.7957747E-01  0.3432908E+00
         13   -1    0    0    0    0  0.00000000000E+00  0.00000000000E+00  0.14999999963E+04  0.15000000000E+04  0.10566000000E+00 0.  1.
        994   -1    0    0    0    0 -0.00000000000E+00 -0.00000000000E+00  0.11368683772E-12  0.17120000000E+03  0.17120000000E+03 0.  0.
         13    1    1    2    0    0  0.17140779409E+02 -0.65776339685E+01  0.83586078147E+02  0.85578707699E+02  0.10566000000E+00 0.  1.
        994    1    1    2    0    0 -0.89238638407E+01  0.96543740528E+01  0.25786305405E+01  0.17172341605E+03  0.17120000000E+03 0.  0.
        998    1    1    2    0    0 -0.82169155686E+01 -0.30767400843E+01  0.14138352876E+04  0.14138978763E+04  0.10000000000E+02 0.  1.
</event>
<event>
 5    1  0.1440459E-008  0.3836559E+03  0.7957747E-01  0.3435393E+00
         13   -1    0    0    0    0  0.00000000000E+00  0.00000000000E+00  0.14999999963E+04  0.15000000000E+04  0.10566000000E+00 0. -1.
        994   -1    0    0    0    0 -0.00000000000E+00 -0.00000000000E+00  0.11368683772E-12  0.17120000000E+03  0.17120000000E+03 0.  0.
         13    1    1    2    0    0 -0.18681101687E+02  0.11871012369E+02  0.10507437593E+03  0.10738035266E+03  0.10566000000E+00 0. -1.
        994    1    1    2    0    0  0.14776923166E+02 -0.48124725061E+01  0.30970856612E+01  0.17193181582E+03  0.17120000000E+03 0.  0.
        998    1    1    2    0    0  0.39041785216E+01 -0.70585398628E+01  0.13918285347E+04  0.13918878315E+04  0.10000000000E+02 0. -1.
</event>
<event>
 5    1  0.1440459E-008  0.3802759E+03  0.7957747E-01  0.3449958E+00
         13   -1    0    0    0    0  0.00000000000E+00  0.00000000000E+00  0.14999999963E+04  0.15000000000E+04  0.10566000000E+00 0. -1.
        994   -1    0    0    0    0 -0.00000000000E+00 -0.00000000000E+00  0.11368683772E-12  0.17120000000E+03  0.17120000000E+03 0.  0.
         13    1    1    2    0    0  0.60134928899E+01 -0.11502303299E+02  0.19546304056E+02  0.23463466159E+02  0.10566000000E+00 0. -1.
        994    1    1    2    0    0 -0.31448997990E+01  0.61253594555E+01  0.41523215846E+01  0.17138871666E+03  0.17120000000E+03 0.  0.
        998    1    1    2    0    0 -0.28685930909E+01  0.53769438438E+01  0.14763013706E+04  0.14763478172E+04  0.10000000000E+02 0. -1.
</event>
<event>
 5    1  0.1440459E-008  0.3796109E+03  0.7957747E-01  0.3452855E+00
         13   -1    0    0    0    0  0.00000000000E+00  0.00000000000E+00  0.14999999963E+04  0.15000000000E+04  0.10566000000E+00 0. -1.
        994   -1    0    0    0    0 -0.00000000000E+00 -0.00000000000E+00  0.11368683772E-12  0.17120000000E+03  0.17120000000E+03 0.  0.
         13    1    1    2    0    0  0.80956025298E+01  0.13398598083E+02  0.26313432184E+02  0.30618116994E+02  0.10566000000E+00 0. -1.
        994    1    1    2    0    0 -0.70098078154E+01 -0.11844598986E+02  0.49640244143E+01  0.17182407709E+03  0.17120000000E+03 0.  0.
        998    1    1    2    0    0 -0.10857947144E+01 -0.15539990972E+01  0.14687225397E+04  0.14687578059E+04  0.10000000000E+02 0. -1.
</event>
<event>
 5    1  0.1440459E-008  0.3816202E+03  0.7957747E-01  0.3444134E+00
         13   -1    0    0    0    0  0.00000000000E+00  0.00000000000E+00  0.14999999963E+04  0.15000000000E+04  0.10566000000E+00 0. -1.
        994   -1    0    0    0    0 -0.00000000000E+00 -0.00000000000E+00  0.11368683772E-12  0.17120000000E+03  0.17120000000E+03 0.  0.
         13    1    1    2    0    0 -0.44960405030E+02  0.19333424038E+02  0.29602295127E+03  0.30004136073E+03  0.10566000000E+00 0. -1.
        994    1    1    2    0    0  0.43624996682E+02 -0.19054238533E+02  0.10889834693E+02  0.17802874162E+03  0.17120000000E+03 0.  0.
        998    1    1    2    0    0  0.13354083485E+01 -0.27918550476E+00  0.11930872103E+04  0.11931298977E+04  0.10000000000E+02 0. -1.
</event>
<event>
 5    1  0.1440459E-008  0.3910214E+03  0.7957747E-01  0.3404529E+00
         13   -1    0    0    0    0  0.00000000000E+00  0.00000000000E+00  0.14999999963E+04  0.15000000000E+04  0.10566000000E+00 0.  1.
        994   -1    0    0    0    0 -0.00000000000E+00 -0.00000000000E+00  0.11368683772E-12  0.17120000000E+03  0.17120000000E+03 0.  0.
         13    1    1    2    0    0  0.23482896278E+02  0.48065134466E+01  0.36069702665E+01  0.24239851230E+02  0.10566000000E+00 0.  1.
        994    1    1    2    0    0  0.16293697298E+02 -0.16118808874E+02  0.24504567334E+02  0.17445691271E+03  0.17120000000E+03 0.  0.
        998    1    1    2    0    0 -0.39776593576E+02  0.11312295427E+02  0.14718884587E+04  0.14725032361E+04  0.10000000000E+02 0.  1.
</event>
<event>
 5    1  0.2142140E-008  0.3860485E+03  0.7957747E-01  0.3425237E+00
         13   -1    0    0    0    0  0.00000000000E+00  0.00000000000E+00  0.14999999963E+04  0.15000000000E+04  0.10566000000E+00 0.  1.
        994   -1    0    0    0    0 -0.00000000000E+00 -0.00000000000E+00  0.11368683772E-12  0.17120000000E+03  0.17120000000E+03 0.  0.
         13    1    1    2    0    0  0.24961717306E+01 -0.12543779802E+02  0.75447765877E+02  0.76524204177E+02  0.10566000000E+00 0.  1.
        994    1    1    2    0    0 -0.71706010497E+01  0.57776014648E+01  0.13884285649E+01  0.17145310126E+03  0.17120000000E+03 0.  0.
        998    1    1    2    0    0  0.46744293191E+01  0.67661783371E+01  0.14231638018E+04  0.14232226946E+04  0.10000000000E+02 0.  1.
</event>
<event>
 5    1  0.1440459E-008  0.4307736E+03  0.7957747E-01  0.3256070E+00
         13   -1    0    0    0    0  0.00000000000E+00  0.00000000000E+00  0.14999999963E+04  0.15000000000E+04  0.10566000000E+00 0.  1.
        994   -1    0    0    0    0 -0.00000000000E+00 -0.00000000000E+00  0.11368683772E-12  0.17120000000E+03  0.17120000000E+03 0.  0.
         13    1    1    2    0    0 -0.73971974892E+01 -0.37659372640E+02 -0.33691203860E+01  0.38526731169E+02  0.10566000000E+00 0.  1.
        994    1    1    2    0    0  0.21517143075E+02  0.37250362434E+02  0.55987327192E+02  0.18518800651E+03  0.17120000000E+03 0.  0.
        998    1    1    2    0    0 -0.14119945586E+02  0.40901020620E+00  0.14473817895E+04  0.14474852623E+04  0.10000000000E+02 0.  1.
</event>
<event>
 5    1  0.1729296E-008  0.3861888E+03  0.7957747E-01  0.3424646E+00
         13   -1    0    0    0    0  0.00000000000E+00  0.00000000000E+00  0.14999999963E+04  0.15000000000E+04  0.10566000000E+00 0. -1.
        994   -1    0    0    0    0 -0.00000000000E+00 -0.00000000000E+00  0.11368683772E-12  0.17120000000E+03  0.17120000000E+03 0.  0.
         13    1    1    2    0    0  0.34299149776E+01 -0.11111668665E+02  0.67043366230E+02  0.68044526722E+02  0.10566000000E+00 0. -1.
        994    1    1    2    0    0 -0.58567309810E+01  0.41333863003E+01  0.12094196299E+01  0.17135427884E+03  0.17120000000E+03 0.  0.
        998    1    1    2    0    0  0.24268160034E+01  0.69782823647E+01  0.14317472104E+04  0.14318011944E+04  0.10000000000E+02 0. -1.
</event>
<event>
 5    1  0.1440459E-008  0.3847093E+03  0.7957747E-01  0.3430906E+00
         13   -1    0    0    0    0  0.00000000000E+00  0.00000000000E+00  0.14999999963E+04  0.15000000000E+04  0.10566000000E+00 0. -1.
        994   -1    0    0    0    0 -0.00000000000E+00 -0.00000000000E+00  0.11368683772E-12  0.17120000000E+03  0.17120000000E+03 0.  0.
         13    1    1    2    0    0 -0.19975504763E+02  0.78828810897E+01  0.12667991760E+03  0.12848724953E+03  0.10566000000E+00 0. -1.
        994    1    1    2    0    0  0.26935631122E+02  0.20004825911E+02  0.54889277677E+01  0.17454308812E+03  0.17120000000E+03 0.  0.
        998    1    1    2    0    0 -0.69601263588E+01 -0.27887707000E+02  0.13678311509E+04  0.13681696623E+04  0.10000000000E+02 0. -1.
</event>
<event>
 5    1  0.1440459E-008  0.3852114E+03  0.7957747E-01  0.3428776E+00
         13   -1    0    0    0    0  0.00000000000E+00  0.00000000000E+00  0.14999999963E+04  0.15000000000E+04  0.10566000000E+00 0.  1.
        994   -1    0    0    0    0 -0.00000000000E+00 -0.00000000000E+00  0.11368683772E-12  0.17120000000E+03  0.17120000000E+03 0.  0.
         13    1    1    2    0    0  0.16586122947E+02 -0.43384865768E+01  0.92889616100E+02  0.94458529966E+02  0.10566000000E+00 0.  1.
        994    1    1    2    0    0 -0.16005651811E+02  0.21650395148E+01  0.23830099790E+01  0.17197670488E+03  0.17120000000E+03 0.  0.
        998    1    1    2    0    0 -0.58047113597E+00  0.21734470620E+01  0.14047273702E+04  0.14047647652E+04  0.10000000000E+02 0.  0.
</event>
<event>
 5    1  0.1440459E-008  0.3932918E+03  0.7957747E-01  0.3395249E+00
         13   -1    0    0    0    0  0.00000000000E+00  0.00000000000E+00  0.14999999963E+04  0.15000000000E+04  0.10566000000E+00 0. -1.
        994   -1    0    0    0    0 -0.00000000000E+00 -0.00000000000E+00  0.11368683772E-12  0.17120000000E+03  0.17120000000E+03 0.  0.
         13    1    1    2    0    0  0.28855435051E+02  0.24087754777E+02  0.19794227315E+02  0.42481509639E+02  0.10566000000E+00 0. -1.
        994    1    1    2    0    0 -0.29659900195E+02 -0.22526380958E+02  0.29132782843E+02  0.17760998439E+03  0.17120000000E+03 0.  0.
        998    1    1    2    0    0  0.80446514338E+00 -0.15613738190E+01  0.14510729861E+04  0.14511085060E+04  0.10000000000E+02 0. -1.
</event>
<event>
 5    1  0.3212458E-008  0.3866197E+03  0.7957747E-01  0.3422832E+00
         13   -1    0    0    0    0  0.00000000000E+00  0.00000000000E+00  0.14999999963E+04  0.15000000000E+04  0.10566000000E+00 0. -1.
        994   -1    0    0    0    0 -0.00000000000E+00 -0.00000000000E+00  0.11368683772E-12  0.17120000000E+03  0.17120000000E+03 0.  0.
         13    1    1    2    0    0 -0.75403533684E+01 -0.66772152316E+01  0.60502568579E+02  0.61335259850E+02  0.10566000000E+00 0. -1.
        994    1    1    2    0    0  0.97750251170E+01  0.58092024901E+01  0.12512187631E+01  0.17158176913E+03  0.17120000000E+03 0.  0.
        998    1    1    2    0    0 -0.22346717485E+01  0.86801274149E+00  0.14382462089E+04  0.14382829710E+04  0.10000000000E+02 0. -1.
</event>
<event>
 5    1  0.1440459E-008  0.3689620E+03  0.7957747E-01  0.3500675E+00
         13   -1    0    0    0    0  0.00000000000E+00  0.00000000000E+00  0.14999999963E+04  0.15000000000E+04  0.10566000000E+00 0. -1.
        994   -1    0    0    0    0 -0.00000000000E+00 -0.00000000000E+00  0.11368683772E-12  0.17120000000E+03  0.17120000000E+03 0.  0.
         13    1    1    2    0    0 -0.10511641574E+02 -0.30727687879E+01  0.15647443695E+01  0.11063277343E+02  0.10566000000E+00 0. -1.
        994    1    1    2    0    0  0.59980294607E+01 -0.11449933552E+01  0.99420595628E+01  0.17159712094E+03  0.17120000000E+03 0.  0.
        998    1    1    2    0    0  0.45136121130E+01  0.42177621431E+01  0.14884931923E+04  0.14885396017E+04  0.10000000000E+02 0. -1.
</event>
<event>
 5    1  0.1440459E-008  0.3800095E+03  0.7957747E-01  0.3451117E+00
         13   -1    0    0    0    0  0.00000000000E+00  0.00000000000E+00  0.14999999963E+04  0.15000000000E+04  0.10566000000E+00 0.  1.
        994   -1    0    0    0    0 -0.00000000000E+00 -0.00000000000E+00  0.11368683772E-12  0.17120000000E+03  0.17120000000E+03 0.  0.
         13    1    1    2    0    0  0.30382123494E+02 -0.18716230454E+02  0.14549838866E+03  0.14981042346E+03  0.10566000000E+00 0.  1.
        994    1    1    2    0    0 -0.20860555438E+02  0.21433731801E+02  0.71244940823E+01  0.17393897219E+03  0.17120000000E+03 0.  0.
        998    1    1    2    0    0 -0.95215680562E+01 -0.27175013465E+01  0.13473771135E+04  0.13474506043E+04  0.10000000000E+02 0.  1.
</event>
<event>
 5    1  0.1440459E-008  0.3702439E+03  0.7957747E-01  0.3494771E+00
         13   -1    0    0    0    0  0.00000000000E+00  0.00000000000E+00  0.14999999963E+04  0.15000000000E+04  0.10566000000E+00 0. -1.
        994   -1    0    0    0    0 -0.00000000000E+00 -0.00000000000E+00  0.11368683772E-12  0.17120000000E+03  0.17120000000E+03 0.  0.
         13    1    1    2    0    0  0.21818055705E+02 -0.12929395128E+02  0.29994630535E+02  0.39279585513E+02  0.10566000000E+00 0. -1.
        994    1    1    2    0    0 -0.46950229108E+02 -0.99992673325E+01  0.17144854747E+02  0.17862725269E+03  0.17120000000E+03 0.  0.
        998    1    1    2    0    0  0.25132173404E+02  0.22928662460E+02  0.14528605110E+04  0.14532931618E+04  0.10000000000E+02 0. -1.
</event>
<event>
 5    1  0.1440459E-008  0.3825256E+03  0.7957747E-01  0.3440235E+00
         13   -1    0    0    0    0  0.00000000000E+00  0.00000000000E+00  0.14999999963E+04  0.15000000000E+04  0.10566000000E+00 0.  1.
        994   -1    0    0    0    0 -0.00000000000E+00 -0.00000000000E+00  0.11368683772E-12  0.17120000000E+03  0.17120000000E+03 0.  0.
         13    1    1    2    0    0  0.81239745932E+01  0.12846807932E+02  0.41064426237E+02  0.43787414898E+02  0.10566000000E+00 0.  1.
        994    1    1    2    0    0 -0.49497756161E+01  0.34602774727E+01  0.29845916786E+01  0.17133248841E+03  0.17120000000E+03 0.  0.
        998    1    1    2    0    0 -0.31741989771E+01 -0.16307085404E+02  0.14559509784E+04  0.14560800967E+04  0.10000000000E+02 0.  1.
</event>
<event>
 5    1  0.1440459E-008  0.3817346E+03  0.7957747E-01  0.3443640E+00
         13   -1    0    0    0    0  0.00000000000E+00  0.00000000000E+00  0.14999999963E+04  0.15000000000E+04  0.10566000000E+00 0.  1.
        994   -1    0    0    0    0 -0.00000000000E+00 -0.00000000000E+00  0.11368683772E-12  0.17120000000E+03  0.17120000000E+03 0.  0.
         13    1    1    2    0    0 -0.39759803271E+01 -0.13175362290E+02  0.28416886296E+02  0.31574185371E+02  0.10566000000E+00 0.  1.
        994    1    1    2    0    0 -0.98544569126E+01  0.59640570750E+01  0.37011992415E+01  0.17162697682E+03  0.17120000000E+03 0.  0.
        998    1    1    2    0    0  0.13830437240E+02  0.72113052150E+01  0.14678819107E+04  0.14679988378E+04  0.10000000000E+02 0.  1.
</event>
<event>
 5    1  0.1440459E-008  0.3812399E+03  0.7957747E-01  0.3445777E+00
         13   -1    0    0    0    0  0.00000000000E+00  0.00000000000E+00  0.14999999963E+04  0.15000000000E+04  0.10566000000E+00 0.  1.
        994   -1    0    0    0    0 -0.00000000000E+00 -0.00000000000E+00  0.11368683772E-12  0.17120000000E+03  0.17120000000E+03 0.  0.
         13    1    1    2    0    0  0.85034875424E+01 -0.67697487198E+02  0.39707959362E+03  0.40289883830E+03  0.10566000000E+00 0.  1.
        994    1    1    2    0    0 -0.28592264149E+02  0.83380669909E+02  0.29824201431E+02  0.19485578430E+03  0.17120000000E+03 0.  0.
        998    1    1    2    0    0  0.20088776607E+02 -0.15683182711E+02  0.10730962012E+04  0.10734453774E+04  0.10000000000E+02 0.  1.
</event>
<event>
 5    1  0.1440459E-008  0.3846099E+03  0.7957747E-01  0.3431328E+00
         13   -1    0    0    0    0  0.00000000000E+00  0.00000000000E+00  0.14999999963E+04  0.15000000000E+04  0.10566000000E+00 0.  1.
        994   -1    0    0    0    0 -0.00000000000E+00 -0.00000000000E+00  0.11368683772E-12  0.17120000000E+03  0.17120000000E+03 0.  0.
         13    1    1    2    0    0  0.17940770639E+02  0.95248455917E+01  0.91679155131E+02  0.93902463142E+02  0.10566000000E+00 0.  1.
        994    1    1    2    0    0 -0.27663875489E+02 -0.41617114623E+02  0.10090700696E+02  0.17862960694E+03  0.17120000000E+03 0.  0.
        998    1    1    2    0    0  0.97231048503E+01  0.32092269031E+02  0.13982301405E+04  0.13986679299E+04  0.10000000000E+02 0.  1.
</event>
<event>
 5    1  0.1440459E-008  0.3698676E+03  0.7957747E-01  0.3496500E+00
         13   -1    0    0    0    0  0.00000000000E+00  0.00000000000E+00  0.14999999963E+04  0.15000000000E+04  0.10566000000E+00 0.  1.
        994   -1    0    0    0    0 -0.00000000000E+00 -0.00000000000E+00  0.11368683772E-12  0.17120000000E+03  0.17120000000E+03 0.  0.
         13    1    1    2    0    0  0.15523417346E+02 -0.51972175066E+02  0.13834698550E+03  0.14860007749E+03  0.10566000000E+00 0.  1.
        994    1    1    2    0    0  0.73435995147E+01  0.24634280217E+02  0.13181235311E+02  0.17362016352E+03  0.17120000000E+03 0.  0.
        998    1    1    2    0    0 -0.22867016861E+02  0.27337894849E+02  0.13484717755E+04  0.13489797590E+04  0.10000000000E+02 0.  1.
</event>
<event>
 5    1  0.1440459E-008  0.3855987E+03  0.7957747E-01  0.3427137E+00
         13   -1    0    0    0    0  0.00000000000E+00  0.00000000000E+00  0.14999999963E+04  0.15000000000E+04  0.10566000000E+00 0. -1.
        994   -1    0    0    0    0 -0.00000000000E+00 -0.00000000000E+00  0.11368683772E-12  0.17120000000E+03  0.17120000000E+03 0.  0.
         13    1    1    2    0    0  0.95656496850E+01  0.57626301892E+01  0.47127998714E+02  0.48433139351E+02  0.10566000000E+00 0. -1.
        994    1    1    2    0    0 -0.73881993744E+01 -0.15943614575E+01  0.15207163518E+01  0.17137351037E+03  0.17120000000E+03 0.  0.
        998    1    1    2    0    0 -0.21774503105E+01 -0.41682687317E+01  0.14513512812E+04  0.14513933503E+04  0.10000000000E+02 0. -1.
</event>
<event>
 5    1  0.1440459E-008  0.3807219E+03  0.7957747E-01  0.3448021E+00
         13   -1    0    0    0    0  0.00000000000E+00  0.00000000000E+00  0.14999999963E+04  0.15000000000E+04  0.10566000000E+00 0.  1.
        994   -1    0    0    0    0 -0.00000000000E+00 -0.00000000000E+00  0.11368683772E-12  0.17120000000E+03  0.17120000000E+03 0.  0.
         13    1    1    2    0    0 -0.98418758463E+01  0.51549850280E+01  0.15296667474E+02  0.18905967065E+02  0.10566000000E+00 0.  1.
        994    1    1    2    0    0 -0.37526460097E+01  0.52187863795E+01  0.39069679442E+01  0.17136517290E+03  0.17120000000E+03 0.  0.
        998    1    1    2    0    0  0.13594521856E+02 -0.10373771408E+02  0.14807963609E+04  0.14809288600E+04  0.10000000000E+02 0.  1.
</event>
<event>
 5    1  0.1440459E-008  0.3747638E+03  0.7957747E-01  0.3474280E+00
         13   -1    0    0    0    0  0.00000000000E+00  0.00000000000E+00  0.14999999963E+04  0.15000000000E+04  0.10566000000E+00 0.  1.
        994   -1    0    0    0    0 -0.00000000000E+00 -0.00000000000E+00  0.11368683772E-12  0.17120000000E+03  0.17120000000E+03 0.  0.
         13    1    1    2    0    0  0.43226652744E+02  0.24050182881E+02  0.21339799534E+03  0.21905631784E+03  0.10566000000E+00 0.  1.
        994    1    1    2    0    0 -0.67640909301E+01  0.12332947126E+02  0.74734579999E+01  0.17193937038E+03  0.17120000000E+03 0.  0.
        998    1    1    2    0    0 -0.36462561814E+02 -0.36383130007E+02  0.12791285429E+04  0.12802043118E+04  0.10000000000E+02 0.  1.
</event>
<event>
 5    1  0.1440459E-008  0.3842970E+03  0.7957747E-01  0.3432659E+00
         13   -1    0    0    0    0  0.00000000000E+00  0.00000000000E+00  0.14999999963E+04  0.15000000000E+04  0.10566000000E+00 0. -1.
        994   -1    0    0    0    0 -0.00000000000E+00 -0.00000000000E+00  0.11368683772E-12  0.17120000000E+03  0.17120000000E+03 0.  0.
         13    1    1    2    0    0 -0.12989193062E+02 -0.15532800602E+02  0.10814412588E+03  0.11002340731E+03  0.10566000000E+00 0. -1.
        994    1    1    2    0    0  0.11412975275E+02 -0.81560730521E+00  0.24112084926E+01  0.17159887863E+03  0.17120000000E+03 0.  0.
        998    1    1    2    0    0  0.15762177872E+01  0.16348407907E+02  0.13894446619E+04  0.13895777141E+04  0.10000000000E+02 0.  1.
</event>
<event>
 5    1  0.1440459E-008  0.3765092E+03  0.7957747E-01  0.3466500E+00
         13   -1    0    0    0    0  0.00000000000E+00  0.00000000000E+00  0.14999999963E+04  0.15000000000E+04  0.10566000000E+00 0.  1.
        994   -1    0    0    0    0 -0.00000000000E+00 -0.00000000000E+00  0.11368683772E-12  0.17120000000E+03  0.17120000000E+03 0.  0.
         13    1    1    2    0    0 -0.28905119691E+02  0.10592849699E+02  0.67699427862E+02  0.74370277033E+02  0.10566000000E+00 0.  1.
        994    1    1    2    0    0  0.54341079766E+02 -0.18880166299E+02  0.17181314315E+02  0.18142230070E+03  0.17120000000E+03 0.  0.
        998    1    1    2    0    0 -0.25435960075E+02  0.82873166006E+01  0.14151192541E+04  0.14154074223E+04  0.10000000000E+02 0.  1.
</event>
<event>
 5    1  0.1440459E-008  0.3721353E+03  0.7957747E-01  0.3486135E+00
         13   -1    0    0    0    0  0.00000000000E+00  0.00000000000E+00  0.14999999963E+04  0.15000000000E+04  0.10566000000E+00 0.  1.
        994   -1    0    0    0    0 -0.00000000000E+00 -0.00000000000E+00  0.11368683772E-12  0.17120000000E+03  0.17120000000E+03 0.  0.
         13    1    1    2    0    0  0.65241933196E+02 -0.74766462984E+02  0.42908127407E+03  0.44040581826E+03  0.10566000000E+00 0.  1.
        994    1    1    2    0    0 -0.54068652676E+02  0.82483712836E+02  0.42320885855E+02  0.20205810913E+03  0.17120000000E+03 0.  0.
        998    1    1    2    0    0 -0.11173280520E+02 -0.77172498523E+01  0.10285978364E+04  0.10287360726E+04  0.10000000000E+02 0.  1.
</event>
<event>
 5    1  0.1440459E-008  0.3832483E+03  0.7957747E-01  0.3437135E+00
         13   -1    0    0    0    0  0.00000000000E+00  0.00000000000E+00  0.14999999963E+04  0.15000000000E+04  0.10566000000E+00 0.  1.
        994   -1    0    0    0    0 -0.00000000000E+00 -0.00000000000E+00  0.11368683772E-12  0.17120000000E+03  0.17120000000E+03 0.  0.
         13    1    1    2    0    0 -0.13783097796E+02 -0.16829209129E+02  0.94474773449E+02  0.96946841346E+02  0.10566000000E+00 0.  1.
        994    1    1    2    0    0  0.97434734417E+01  0.82930151891E+01  0.30439499979E+01  0.17170444085E+03  0.17120000000E+03 0.  0.
        998    1    1    2    0    0  0.40396243545E+01  0.85361939401E+01  0.14024812728E+04  0.14025487178E+04  0.10000000000E+02 0.  1.
</event>
<event>
 5    1  0.1440459E-008  0.3728126E+03  0.7957747E-01  0.3483064E+00
         13   -1    0    0    0    0  0.00000000000E+00  0.00000000000E+00  0.14999999963E+04  0.15000000000E+04  0.10566000000E+00 0.  1.
        994   -1    0    0    0    0 -0.00000000000E+00 -0.00000000000E+00  0.11368683772E-12  0.17120000000E+03  0.17120000000E+03 0.  0.
         13    1    1    2    0    0 -0.70379530540E+01 -0.23723999680E+02  0.19133265052E+02  0.31280248394E+02  0.10566000000E+00 0.  1.
        994    1    1    2    0    0  0.90168248516E+01  0.21753367627E+02  0.14394059563E+02  0.17341032577E+03  0.17120000000E+03 0.  0.
        998    1    1    2    0    0 -0.19788717975E+01  0.19706320534E+01  0.14664726717E+04  0.14665094258E+04  0.10000000000E+02 0.  1.
</event>
<event>
 5    1  0.1440459E-008  0.3692808E+03  0.7957747E-01  0.3499203E+00
         13   -1    0    0    0    0  0.00000000000E+00  0.00000000000E+00  0.14999999963E+04  0.15000000000E+04  0.10566000000E+00 0.  1.
        994   -1    0    0    0    0 -0.00000000000E+00 -0.00000000000E+00  0.11368683772E-12  0.17120000000E+03  0.17120000000E+03 0.  0.
         13    1    1    2    0    0 -0.11684423673E+02  0.96022219687E+02  0.35595760530E+03  0.36886667018E+03  0.10566000000E+00 0.  1.
        994    1    1    2    0    0  0.95925316131E+01 -0.86605919000E+02  0.37526386414E+02  0.19573009872E+03  0.17120000000E+03 0.  0.
        998    1    1    2    0    0  0.20918920600E+01 -0.94163006865E+01  0.11065160046E+04  0.11066032311E+04  0.10000000000E+02 0.  0.
</event>
<event>
 5    1  0.1443876E-008  0.3861097E+03  0.7957747E-01  0.3424979E+00
         13   -1    0    0    0    0  0.00000000000E+00  0.00000000000E+00  0.14999999963E+04  0.15000000000E+04  0.10566000000E+00 0.  1.
        994   -1    0    0    0    0 -0.00000000000E+00 -0.00000000000E+00  0.11368683772E-12  0.17120000000E+03  0.17120000000E+03 0.  0.
         13    1    1    2    0    0 -0.70837441258E+01 -0.89299811106E+01  0.58209597617E+02  0.59315195458E+02  0.10566000000E+00 0.  1.
        994    1    1    2    0    0  0.59498799930E+01  0.13183925560E+02  0.17660657287E+01  0.17181902093E+03  0.17120000000E+03 0.  0.
        998    1    1    2    0    0  0.11338641328E+01 -0.42539444494E+01  0.14400243329E+04  0.14400657836E+04  0.10000000000E+02 0.  1.
</event>
<event>
 5    1  0.1440459E-008  0.3833371E+03  0.7957747E-01  0.3436756E+00
         13   -1    0    0    0    0  0.00000000000E+00  0.00000000000E+00  0.14999999963E+04  0.15000000000E+04  0.10566000000E+00 0. -1.
        994   -1    0    0    0    0 -0.00000000000E+00 -0.00000000000E+00  0.11368683772E-12  0.17120000000E+03  0.17120000000E+03 0.  0.
         13    1    1    2    0    0 -0.24621602896E+02 -0.97201645807E+01  0.14386438958E+03  0.14627945407E+03  0.10566000000E+00 0. -1.
        994    1    1    2    0    0  0.10717300379E+02  0.11580685917E+02  0.32816665402E+01  0.17195691946E+03  0.17120000000E+03 0.  0.
        998    1    1    2    0    0  0.13904302517E+02 -0.18605213368E+01  0.13528539402E+04  0.13529636265E+04  0.10000000000E+02 0. -1.
</event>
<event>
 5    1  0.1440459E-008  0.3764456E+03  0.7957747E-01  0.3466783E+00
         13   -1    0    0    0    0  0.00000000000E+00  0.00000000000E+00  0.14999999963E+04  0.15000000000E+04  0.10566000000E+00 0.  1.
        994   -1    0    0    0    0 -0.00000000000E+00 -0.00000000000E+00  0.11368683772E-12  0.17120000000E+03  0.17120000000E+03 0.  0.
         13    1    1    2    0    0 -0.27344560415E+02  0.74726253064E+01  0.63326523700E+02  0.69381733051E+02  0.10566000000E+00 0.  1.
        994    1    1    2    0    0  0.26516036861E+02 -0.58758269202E+01  0.84374682240E+01  0.17354612189E+03  0.17120000000E+03 0.  0.
        998    1    1    2    0    0  0.82852355439E+00 -0.15967983862E+01  0.14282360044E+04  0.14282721451E+04  0.10000000000E+02 0.  1.
</event>
<event>
 5    1  0.1440459E-008  0.3844295E+03  0.7957747E-01  0.3432095E+00
         13   -1    0    0    0    0  0.00000000000E+00  0.00000000000E+00  0.14999999963E+04  0.15000000000E+04  0.10566000000E+00 0.  1.
        994   -1    0    0    0    0 -0.00000000000E+00 -0.00000000000E+00  0.11368683772E-12  0.17120000000E+03  0.17120000000E+03 0.  0.
         13    1    1    2    0    0 -0.42168067546E+01 -0.11020757820E+02  0.35435184401E+02  0.37348387110E+02  0.10566000000E+00 0.  1.
        994    1    1    2    0    0  0.85977394632E+01  0.90132846905E+01  0.24250223100E+01  0.17166968619E+03  0.17120000000E+03 0.  0.
        998    1    1    2    0    0 -0.43809327087E+01  0.20074731294E+01  0.14621397896E+04  0.14621819267E+04  0.10000000000E+02 0.  1.
</event>
<event>
 5    1  0.1440459E-008  0.3862119E+03  0.7957747E-01  0.3424549E+00
         13   -1    0    0    0    0  0.00000000000E+00  0.00000000000E+00  0.14999999963E+04  0.15000000000E+04  0.10566000000E+00 0. -1.
        994   -1    0    0    0    0 -0.00000000000E+00 -0.00000000000E+00  0.11368683772E-12  0.17120000000E+03  0.17120000000E+03 0.  0.
         13    1    1    2    0    0 -0.65377431917E+01  0.77475557813E+01  0.48578668063E+02  0.49625244195E+02  0.10566000000E+00 0. -1.
        994    1    1    2    0    0  0.82996223589E+00 -0.16603756215E+02  0.19355202658E+01  0.17201616144E+03  0.17120000000E+03 0.  0.
        998    1    1    2    0    0  0.57077809558E+01  0.88562004333E+01  0.14494858080E+04  0.14495585944E+04  0.10000000000E+02 0. -1.
</event>
<event>
 5    1  0.1440459E-008  0.3811040E+03  0.7957747E-01  0.3446366E+00
         13   -1    0    0    0    0  0.00000000000E+00  0.00000000000E+00  0.14999999963E+04  0.15000000000E+04  0.10566000000E+00 0. -1.
        994   -1    0    0    0    0 -0.00000000000E+00 -0.00000000000E+00  0.11368683772E-12  0.17120000000E+03  0.17120000000E+03 0.  0.
         13    1    1    2    0    0  0.18953807718E+02  0.41423572956E+02  0.24728617440E+03  0.25144705693E+03  0.10566000000E+00 0. -1.
        994    1    1    2    0    0 -0.19424191430E+02 -0.39474089019E+02  0.10050630171E+02  0.17704789771E+03  0.17120000000E+03 0.  0.
        998    1    1    2    0    0  0.47038371236E+00 -0.19494839368E+01  0.12426631917E+04  0.12427050454E+04  0.10000000000E+02 0. -1.
</event>
<event>
 5    1  0.1440459E-008  0.3846680E+03  0.7957747E-01  0.3431081E+00
         13   -1    0    0    0    0  0.00000000000E+00  0.00000000000E+00  0.14999999963E+04  0.15000000000E+04  0.10566000000E+00 0.  1.
        994   -1    0    0    0    0 -0.00000000000E+00 -0.00000000000E+00  0.11368683772E-12  0.17120000000E+03  0.17120000000E+03 0.  0.
         13    1    1    2    0    0 -0.54490972128E+01  0.16908065410E+02  0.88287103722E+02  0.90056644308E+02  0.10566000000E+00 0.  1.
        994    1    1    2    0    0 -0.20110781224E+01 -0.11803737525E+02  0.22671889219E+01  0.17163319260E+03  0.17120000000E+03 0.  0.
        998    1    1    2    0    0  0.74601753353E+01 -0.51043278846E+01  0.14094457036E+04  0.14095101631E+04  0.10000000000E+02 0.  1.
</event>
<event>
 5    1  0.1440459E-008  0.3830646E+03  0.7957747E-01  0.3437922E+00
         13   -1    0    0    0    0  0.00000000000E+00  0.00000000000E+00  0.14999999963E+04  0.15000000000E+04  0.10566000000E+00 0.  1.
        994   -1    0    0    0    0 -0.00000000000E+00 -0.00000000000E+00  0.11368683772E-12  0.17120000000E+03  0.17120000000E+03 0.  0.
         13    1    1    2    0    0  0.24684816955E+01 -0.13964166794E+02  0.39043809351E+02  0.41539397791E+02  0.10566000000E+00 0.  1.
        994    1    1    2    0    0 -0.12824011657E+02  0.34846679769E+00  0.31389164465E+01  0.17170867625E+03  0.17120000000E+03 0.  0.
        998    1    1    2    0    0  0.10355529962E+02  0.13615699996E+02  0.14578172705E+04  0.14579519260E+04  0.10000000000E+02 0.  1.
</event>
<event>
 5    1  0.1440459E-008  0.3845777E+03  0.7957747E-01  0.3431465E+00
         13   -1    0    0    0    0  0.00000000000E+00  0.00000000000E+00  0.14999999963E+04  0.15000000000E+04  0.10566000000E+00 0. -1.
        994   -1    0    0    0    0 -0.00000000000E+00 -0.00000000000E+00  0.11368683772E-12  0.17120000000E+03  0.17120000000E+03 0.  0.
         13    1    1    2    0    0  0.88136722503E+01  0.15600433978E+02  0.92518551369E+02  0.94237719998E+02  0.10566000000E+00 0. -1.
        994    1    1    2    0    0  0.74590921562E+01 -0.79129046862E+01  0.22294861987E+01  0.17155950200E+03  0.17120000000E+03 0.  0.
        998    1    1    2    0    0 -0.16272764407E+02 -0.76875292923E+01  0.14052519587E+04  0.14054027780E+04  0.10000000000E+02 0. -1.
</event>
<event>
 5    1  0.1440459E-008  0.3795499E+03  0.7957747E-01  0.3453121E+00
         13   -1    0    0    0    0  0.00000000000E+00  0.00000000000E+00  0.14999999963E+04  0.15000000000E+04  0.10566000000E+00 0.  1.
        994   -1    0    0    0    0 -0.00000000000E+00 -0.00000000000E+00  0.11368683772E-12  0.17120000000E+03  0.17120000000E+03 0.  0.
         13    1    1    2    0    0 -0.22458521313E+01 -0.15703203065E+02  0.27189910154E+02  0.31479148916E+02  0.10566000000E+00 0.  1.
        994    1    1    2    0    0  0.12551149610E+01  0.95212392316E+01  0.46693552042E+01  0.17153271463E+03  0.17120000000E+03 0.  0.
        998    1    1    2    0    0  0.99073717029E+00  0.61819638333E+01  0.14681407309E+04  0.14681881365E+04  0.10000000000E+02 0.  1.
</event>
<event>
 5    1  0.1440459E-008  0.3840314E+03  0.7957747E-01  0.3433790E+00
         13   -1    0    0    0    0  0.00000000000E+00  0.00000000000E+00  0.14999999963E+04  0.15000000000E+04  0.10566000000E+00 0.  1.
        994   -1    0    0    0    0 -0.00000000000E+00 -0.00000000000E+00  0.11368683772E-12  0.17120000000E+03  0.17120000000E+03 0.  0.
         13    1    1    2    0    0  0.42829919825E+01 -0.18907327069E+02  0.91930530457E+02  0.93952459422E+02  0.10566000000E+00 0.  1.
        994    1    1    2    0    0  0.56990042912E+01  0.82951223229E+01  0.24460000459E+01  0.17151300423E+03  0.17120000000E+03 0.  0.
        998    1    1    2    0    0 -0.99819962737E+01  0.10612204746E+02  0.14056234658E+04  0.14057345363E+04  0.10000000000E+02 0.  1.
</event>
<event>
 5    1  0.1440459E-008  0.3844728E+03  0.7957747E-01  0.3431911E+00
         13   -1    0    0    0    0  0.00000000000E+00  0.00000000000E+00  0.14999999963E+04  0.15000000000E+04  0.10566000000E+00 0.  1.
        994   -1    0    0    0    0 -0.00000000000E+00 -0.00000000000E+00  0.11368683772E-12  0.17120000000E+03  0.17120000000E+03 0.  0.
         13    1    1    2    0    0  0.95883745312E+01  0.10742761282E+02  0.55760890740E+02  0.57590207034E+02  0.10566000000E+00 0.  1.
        994    1    1    2    0    0 -0.43044743067E+00 -0.69518033517E+01  0.20519521267E+01  0.17135391260E+03  0.17120000000E+03 0.  0.
        998    1    1    2    0    0 -0.91579271005E+01 -0.37909579300E+01  0.14421871534E+04  0.14422558804E+04  0.10000000000E+02 0.  1.
</event>
<event>
 5    1  0.1440459E-008  0.3824472E+03  0.7957747E-01  0.3440571E+00
         13   -1    0    0    0    0  0.00000000000E+00  0.00000000000E+00  0.14999999963E+04  0.15000000000E+04  0.10566000000E+00 0.  1.
        994   -1    0    0    0    0 -0.00000000000E+00 -0.00000000000E+00  0.11368683772E-12  0.17120000000E+03  0.17120000000E+03 0.  0.
         13    1    1    2    0    0  0.30680809375E+02  0.24922857712E+02  0.21918525922E+03  0.22272101366E+03  0.10566000000E+00 0.  1.
        994    1    1    2    0    0 -0.38460927940E+02 -0.25151707567E+02  0.99377994696E+01  0.17753887245E+03  0.17120000000E+03 0.  0.
        998    1    1    2    0    0  0.77801185656E+01  0.22884985448E+00  0.12708769376E+04  0.12709401139E+04  0.10000000000E+02 0.  1.
</event>
<event>
 5    1  0.1440459E-008  0.3839213E+03  0.7957747E-01  0.3434260E+00
         13   -1    0    0    0    0  0.00000000000E+00  0.00000000000E+00  0.14999999963E+04  0.15000000000E+04  0.10566000000E+00 0. -1.
        994   -1    0    0    0    0 -0.00000000000E+00 -0.00000000000E+00  0.11368683772E-12  0.17120000000E+03  0.17120000000E+03 0.  0.
         13    1    1    2    0    0  0.19623499941E+02 -0.16041577600E+02  0.13751098116E+03  0.13982737595E+03  0.10566000000E+00 0. -1.
        994    1    1    2    0    0 -0.17438718586E+02  0.17146811334E+02  0.41430563775E+01  0.17298764974E+03  0.17120000000E+03 0.  0.
        998    1    1    2    0    0 -0.21847813557E+01 -0.11052337345E+01  0.13583459587E+04  0.13583849743E+04  0.10000000000E+02 0. -1.
</event>
<event>
 5    1  0.1440459E-008  0.3842970E+03  0.7957747E-01  0.3432659E+00
         13   -1    0    0    0    0  0.00000000000E+00  0.00000000000E+00  0.14999999963E+04  0.15000000000E+04  0.10566000000E+00 0. -1.
        994   -1    0    0    0    0 -0.00000000000E+00 -0.00000000000E+00  0.11368683772E-12  0.17120000000E+03  0.17120000000E+03 0.  0.
         13    1    1    2    0    0  0.22362084880E+02 -0.41040199693E+00  0.50346974345E+01  0.22925763069E+02  0.10566000000E+00 0. -1.
        994    1    1    2    0    0 -0.25147636166E+02 -0.60416543599E+01  0.21174231892E+02  0.17443248920E+03  0.17120000000E+03 0.  0.
        998    1    1    2    0    0  0.27855512858E+01  0.64520563569E+01  0.14737910670E+04  0.14738417477E+04  0.10000000000E+02 0. -1.
</event>
<event>
 5    1  0.1440459E-008  0.3806140E+03  0.7957747E-01  0.3448489E+00
         13   -1    0    0    0    0  0.00000000000E+00  0.00000000000E+00  0.14999999963E+04  0.15000000000E+04  0.10566000000E+00 0.  1.
        994   -1    0    0    0    0 -0.00000000000E+00 -0.00000000000E+00  0.11368683772E-12  0.17120000000E+03  0.17120000000E+03 0.  0.
         13    1    1    2    0    0  0.11447057778E+02  0.18405308042E+02  0.58586299536E+02  0.62467240641E+02  0.10566000000E+00 0.  1.
        994    1    1    2    0    0 -0.97369515674E+01 -0.17423119914E+02  0.51536824820E+01  0.17243657900E+03  0.17120000000E+03 0.  0.
        998    1    1    2    0    0 -0.17101062108E+01 -0.98218812867E+00  0.14362600143E+04  0.14362961804E+04  0.10000000000E+02 0.  1.
</event>
<event>
 5    1  0.1440459E-008  0.3838838E+03  0.7957747E-01  0.3434420E+00
         13   -1    0    0    0    0  0.00000000000E+00  0.00000000000E+00  0.14999999963E+04  0.15000000000E+04  0.10566000000E+00 0.  1.
        994   -1    0    0    0    0 -0.00000000000E+00 -0.00000000000E+00  0.11368683772E-12  0.17120000000E+03  0.17120000000E+03 0.  0.
         13    1    1    2    0    0  0.33760725291E+02 -0.26349312787E+03  0.11057267323E+04  0.11371895325E+04  0.10566000000E+00 0.  1.
        994    1    1    2    0    0 -0.26494750980E+02  0.26767035445E+03  0.29658760031E+03  0.43545727131E+03  0.17120000000E+03 0.  0.
        998    1    1    2    0    0 -0.72659743117E+01 -0.41772265733E+01  0.97685663653E+02  0.98553196233E+02  0.10000000000E+02 0. -1.
</event>
<event>
 5    1  0.1440459E-008  0.3805564E+03  0.7957747E-01  0.3448739E+00
         13   -1    0    0    0    0  0.00000000000E+00  0.00000000000E+00  0.14999999963E+04  0.15000000000E+04  0.10566000000E+00 0. -1.
        994   -1    0    0    0    0 -0.00000000000E+00 -0.00000000000E+00  0.11368683772E-12  0.17120000000E+03  0.17120000000E+03 0.  0.
         13    1    1    2    0    0 -0.17303121611E+02 -0.14822205573E+02  0.63433650815E+02  0.67401298321E+02  0.10566000000E+00 0. -1.
        994    1    1    2    0    0  0.16892697593E+02  0.16854682826E+02  0.57549600893E+01  0.17295086912E+03  0.17120000000E+03 0.  0.
        998    1    1    2    0    0  0.41042401796E+00 -0.20324772532E+01  0.14308113854E+04  0.14308478326E+04  0.10000000000E+02 0. -1.
</event>
<event>
 5    1  0.1440459E-008  0.3792971E+03  0.7957747E-01  0.3454225E+00
         13   -1    0    0    0    0  0.00000000000E+00  0.00000000000E+00  0.14999999963E+04  0.15000000000E+04  0.10566000000E+00 0. -1.
        994   -1    0    0    0    0 -0.00000000000E+00 -0.00000000000E+00  0.11368683772E-12  0.17120000000E+03  0.17120000000E+03 0.  0.
         13    1    1    2    0    0  0.24117777849E+02  0.45575511966E+02  0.31155336008E+03  0.31579154808E+03  0.10566000000E+00 0. -1.
        994    1    1    2    0    0 -0.50139633586E+01 -0.23871622614E+02  0.64846010597E+01  0.17305052512E+03  0.17120000000E+03 0.  0.
        998    1    1    2    0    0 -0.19103814491E+02 -0.21703889352E+02  0.11819620351E+04  0.11823579268E+04  0.10000000000E+02 0. -1.
</event>
<event>
 5    1  0.1440459E-008  0.3844692E+03  0.7957747E-01  0.3431927E+00
         13   -1    0    0    0    0  0.00000000000E+00  0.00000000000E+00  0.14999999963E+04  0.15000000000E+04  0.10566000000E+00 0. -1.
        994   -1    0    0    0    0 -0.00000000000E+00 -0.00000000000E+00  0.11368683772E-12  0.17120000000E+03  0.17120000000E+03 0.  0.
         13    1    1    2    0    0 -0.94778786041E+01  0.54010132267E+01  0.30820329219E+02  0.32694112374E+02  0.10566000000E+00 0. -1.
        994    1    1    2    0    0  0.50296525100E+01 -0.89157526304E+01  0.22392019444E+01  0.17152038385E+03  0.17120000000E+03 0.  0.
        998    1    1    2    0    0  0.44482260941E+01  0.35147394036E+01  0.14669404651E+04  0.14669855038E+04  0.10000000000E+02 0. -1.
</event>
<event>
 5    1  0.1440459E-008  0.3810197E+03  0.7957747E-01  0.3446731E+00
         13   -1    0    0    0    0  0.00000000000E+00  0.00000000000E+00  0.14999999963E+04  0.15000000000E+04  0.10566000000E+00 0. -1.
        994   -1    0    0    0    0 -0.00000000000E+00 -0.00000000000E+00  0.11368683772E-12  0.17120000000E+03  0.17120000000E+03 0.  0.
         13    1    1    2    0    0 -0.83263759930E+01  0.10609819055E+02  0.24039816200E+02  0.27564845810E+02  0.10566000000E+00 0. -1.
        994    1    1    2    0    0  0.82228210638E+01  0.96072499343E+00  0.38476976072E+01  0.17144323421E+03  0.17120000000E+03 0.  0.
        998    1    1    2    0    0  0.10355492917E+00 -0.11570544048E+02  0.14721124825E+04  0.14721919200E+04  0.10000000000E+02 0. -1.
</event>
<event>
 5    1  0.1440459E-008  0.3701536E+03  0.7957747E-01  0.3495185E+00
         13   -1    0    0    0    0  0.00000000000E+00  0.00000000000E+00  0.14999999963E+04  0.15000000000E+04  0.10566000000E+00 0. -1.
        994   -1    0    0    0    0 -0.00000000000E+00 -0.00000000000E+00  0.11368683772E-12  0.17120000000E+03  0.17120000000E+03 0.  0.
         13    1    1    2    0    0 -0.39678921169E+02 -0.19941746321E+03  0.61425705120E+03  0.64703437121E+03  0.10566000000E+00 0. -1.
        994    1    1    2    0    0  0.36242085334E+02  0.24159313330E+03  0.25650514599E+03  0.39342732585E+03  0.17120000000E+03 0.  0.
        998    1    1    2    0    0  0.34368358353E+01 -0.42175670093E+02  0.62923779910E+03  0.63073830294E+03  0.10000000000E+02 0. -1.
</event>
<event>
 5    1  0.1440459E-008  0.3813492E+03  0.7957747E-01  0.3445305E+00
         13   -1    0    0    0    0  0.00000000000E+00  0.00000000000E+00  0.14999999963E+04  0.15000000000E+04  0.10566000000E+00 0. -1.
        994   -1    0    0    0    0 -0.00000000000E+00 -0.00000000000E+00  0.11368683772E-12  0.17120000000E+03  0.17120000000E+03 0.  0.
         13    1    1    2    0    0 -0.13513715412E+02 -0.15245815808E+01  0.25374936131E+02  0.28789640514E+02  0.10566000000E+00 0. -1.
        994    1    1    2    0    0  0.99640705551E+01  0.10950156439E+01  0.37880844826E+01  0.17153504407E+03  0.17120000000E+03 0.  0.
        998    1    1    2    0    0  0.35496448574E+01  0.42956593692E+00  0.14708369757E+04  0.14708753154E+04  0.10000000000E+02 0. -1.
</event>
<event>
 5    1  0.1440459E-008  0.3829512E+03  0.7957747E-01  0.3438408E+00
         13   -1    0    0    0    0  0.00000000000E+00  0.00000000000E+00  0.14999999963E+04  0.15000000000E+04  0.10566000000E+00 0. -1.
        994   -1    0    0    0    0 -0.00000000000E+00 -0.00000000000E+00  0.11368683772E-12  0.17120000000E+03  0.17120000000E+03 0.  0.
         13    1    1    2    0    0  0.18832057549E+02  0.77709748006E+01  0.72774435025E+02  0.75572243570E+02  0.10566000000E+00 0. -1.
        994    1    1    2    0    0 -0.20567391877E+02 -0.15407105780E+02  0.48401450352E+01  0.17318563313E+03  0.17120000000E+03 0.  0.
        998    1    1    2    0    0  0.17353343280E+01  0.76361309794E+01  0.14223854162E+04  0.14224421233E+04  0.10000000000E+02 0. -1.
</event>
<event>
 5    1  0.1440459E-008  0.3850192E+03  0.7957747E-01  0.3429591E+00
         13   -1    0    0    0    0  0.00000000000E+00  0.00000000000E+00  0.14999999963E+04  0.15000000000E+04  0.10566000000E+00 0. -1.
        994   -1    0    0    0    0 -0.00000000000E+00 -0.00000000000E+00  0.11368683772E-12  0.17120000000E+03  0.17120000000E+03 0.  0.
         13    1    1    2    0    0  0.55756635367E+01  0.13333839063E+02  0.63162958521E+02  0.64795445682E+02  0.10566000000E+00 0. -1.
        994    1    1    2    0    0 -0.10778337388E+02 -0.94317188540E+01  0.22954626466E+01  0.17181338430E+03  0.17120000000E+03 0.  0.
        998    1    1    2    0    0  0.52026738512E+01 -0.39021202089E+01  0.14345415751E+04  0.14345911700E+04  0.10000000000E+02 0. -1.
</event>
<event>
 5    1  0.1440459E-008  0.3846870E+03  0.7957747E-01  0.3431001E+00
         13   -1    0    0    0    0  0.00000000000E+00  0.00000000000E+00  0.14999999963E+04  0.15000000000E+04  0.10566000000E+00 0. -1.
        994   -1    0    0    0    0 -0.00000000000E+00 -0.00000000000E+00  0.11368683772E-12  0.17120000000E+03  0.17120000000E+03 0.  0.
         13    1    1    2    0    0 -0.12808706419E+01 -0.17371252174E+02  0.84056999375E+02  0.85842829285E+02  0.10566000000E+00 0. -1.
        994    1    1    2    0    0 -0.53962008018E+00  0.12639047524E+02  0.23126256211E+01  0.17168233733E+03  0.17120000000E+03 0.  0.
        998    1    1    2    0    0  0.18204907221E+01  0.47322046495E+01  0.14136303713E+04  0.14136748334E+04  0.10000000000E+02 0. -1.
</event>
<event>
 5    1  0.1440459E-008  0.3710094E+03  0.7957747E-01  0.3491265E+00
         13   -1    0    0    0    0  0.00000000000E+00  0.00000000000E+00  0.14999999963E+04  0.15000000000E+04  0.10566000000E+00 0.  1.
        994   -1    0    0    0    0 -0.00000000000E+00 -0.00000000000E+00  0.11368683772E-12  0.17120000000E+03  0.17120000000E+03 0.  0.
         13    1    1    2    0    0 -0.22704751035E+02  0.10988568213E+02  0.31381996317E+02  0.40262826624E+02  0.10566000000E+00 0.  1.
        994    1    1    2    0    0  0.26499166691E+02 -0.24794099236E+02  0.13293777014E+02  0.17550816989E+03  0.17120000000E+03 0.  0.
        998    1    1    2    0    0 -0.37944156559E+01  0.13805531023E+02  0.14553242229E+04  0.14554290035E+04  0.10000000000E+02 0.  1.
</event>
<event>
 5    1  0.1440459E-008  0.3081976E+03  0.7957747E-01  0.3839180E+00
         13   -1    0    0    0    0  0.00000000000E+00  0.00000000000E+00  0.14999999963E+04  0.15000000000E+04  0.10566000000E+00 0.  1.
        994   -1    0    0    0    0 -0.00000000000E+00 -0.00000000000E+00  0.11368683772E-12  0.17120000000E+03  0.17120000000E+03 0.  0.
         13    1    1    2    0    0 -0.72532850940E+02  0.18814586485E+03  0.68504465435E+03  0.71410508368E+03  0.10566000000E+00 0.  1.
        994    1    1    2    0    0  0.78632351032E+02 -0.17495347532E+03  0.16196196809E+03  0.30386326574E+03  0.17120000000E+03 0.  0.
        998    1    1    2    0    0 -0.60995000921E+01 -0.13192389523E+02  0.65299337384E+03  0.65323165058E+03  0.10000000000E+02 0.  1.
</event>
<event>
 5    1  0.1440459E-008  0.3744143E+03  0.7957747E-01  0.3475846E+00
         13   -1    0    0    0    0  0.00000000000E+00  0.00000000000E+00  0.14999999963E+04  0.15000000000E+04  0.10566000000E+00 0. -1.
        994   -1    0    0    0    0 -0.00000000000E+00 -0.00000000000E+00  0.11368683772E-12  0.17120000000E+03  0.17120000000E+03 0.  0.
         13    1    1    2    0    0  0.10643391452E+03 -0.66396542777E+01  0.35374209910E+03  0.36946684156E+03  0.10566000000E+00 0. -1.
        994    1    1    2    0    0 -0.91137229776E+02  0.73695311338E+02  0.63825428021E+02  0.21707169052E+03  0.17120000000E+03 0.  0.
        998    1    1    2    0    0 -0.15296684745E+02 -0.67055657060E+02  0.10824324692E+04  0.10846614679E+04  0.10000000000E+02 0. -1.
</event>
<event>
 5    1  0.1440459E-008  0.3840274E+03  0.7957747E-01  0.3433808E+00
         13   -1    0    0    0    0  0.00000000000E+00  0.00000000000E+00  0.14999999963E+04  0.15000000000E+04  0.10566000000E+00 0. -1.
        994   -1    0    0    0    0 -0.00000000000E+00 -0.00000000000E+00  0.11368683772E-12  0.17120000000E+03  0.17120000000E+03 0.  0.
         13    1    1    2    0    0 -0.88148709827E+01  0.13268594438E+02  0.57514959411E+02  0.59680308888E+02  0.10566000000E+00 0. -1.
        994    1    1    2    0    0  0.77817141628E+01 -0.15468256492E+02  0.31035401176E+01  0.17210140614E+03  0.17120000000E+03 0.  0.
        998    1    1    2    0    0  0.10331568199E+01  0.21996620531E+01  0.14393814967E+04  0.14394182850E+04  0.10000000000E+02 0. -1.
</event>
<event>
 5    1  0.1440459E-008  0.3809864E+03  0.7957747E-01  0.3446875E+00
         13   -1    0    0    0    0  0.00000000000E+00  0.00000000000E+00  0.14999999963E+04  0.15000000000E+04  0.10566000000E+00 0.  1.
        994   -1    0    0    0    0 -0.00000000000E+00 -0.00000000000E+00  0.11368683772E-12  0.17120000000E+03  0.17120000000E+03 0.  0.
         13    1    1    2    0    0  0.27786048747E+02  0.17532943268E+02  0.15510524253E+03  0.15854688906E+03  0.10566000000E+00 0.  1.
        994    1    1    2    0    0  0.13566128974E+02 -0.49710630399E+02  0.12534404846E+02  0.17922538307E+03  0.17120000000E+03 0.  0.
        998    1    1    2    0    0 -0.41352177721E+02  0.32177687131E+02  0.13323603489E+04  0.13334277279E+04  0.10000000000E+02 0.  1.
</event>
<event>
 5    1  0.1440459E-008  0.3695650E+03  0.7957747E-01  0.3497893E+00
         13   -1    0    0    0    0  0.00000000000E+00  0.00000000000E+00  0.14999999963E+04  0.15000000000E+04  0.10566000000E+00 0. -1.
        994   -1    0    0    0    0 -0.00000000000E+00 -0.00000000000E+00  0.11368683772E-12  0.17120000000E+03  0.17120000000E+03 0.  0.
         13    1    1    2    0    0  0.16764750754E+02  0.18424920562E+01  0.10587279560E+02  0.19913646008E+02  0.10566000000E+00 0. -1.
        994    1    1    2    0    0 -0.18809541270E+02 -0.28350218047E+01  0.10750601139E+02  0.17258867754E+03  0.17120000000E+03 0.  0.
        998    1    1    2    0    0  0.20447905165E+01  0.99252974855E+00  0.14786621156E+04  0.14786976764E+04  0.10000000000E+02 0. -1.
</event>
<event>
 5    1  0.1440459E-008  0.3828839E+03  0.7957747E-01  0.3438697E+00
         13   -1    0    0    0    0  0.00000000000E+00  0.00000000000E+00  0.14999999963E+04  0.15000000000E+04  0.10566000000E+00 0. -1.
        994   -1    0    0    0    0 -0.00000000000E+00 -0.00000000000E+00  0.11368683772E-12  0.17120000000E+03  0.17120000000E+03 0.  0.
         13    1    1    2    0    0  0.11075742404E+02  0.10529677861E+02  0.43536411868E+02  0.46140833413E+02  0.10566000000E+00 0. -1.
        994    1    1    2    0    0  0.12638866162E+01 -0.90875451991E+01  0.29631940508E+01  0.17147128449E+03  0.17120000000E+03 0.  0.
        998    1    1    2    0    0 -0.12339629020E+02 -0.14421326622E+01  0.14535003904E+04  0.14535878821E+04  0.10000000000E+02 0. -1.
</event>
<event>
 5    1  0.1440459E-008  0.3826399E+03  0.7957747E-01  0.3439744E+00
         13   -1    0    0    0    0  0.00000000000E+00  0.00000000000E+00  0.14999999963E+04  0.15000000000E+04  0.10566000000E+00 0.  1.
        994   -1    0    0    0    0 -0.00000000000E+00 -0.00000000000E+00  0.11368683772E-12  0.17120000000E+03  0.17120000000E+03 0.  0.
         13    1    1    2    0    0  0.57220898114E+01  0.99293758922E+01 -0.45557730666E+01  0.12332925431E+02  0.10566000000E+00 0.  1.
        994    1    1    2    0    0 -0.81821126907E+01 -0.97113771149E+01  0.18375340866E+02  0.17265095124E+03  0.17120000000E+03 0.  0.
        998    1    1    2    0    0  0.24600228794E+01 -0.21799877729E+00  0.14861804285E+04  0.14862161233E+04  0.10000000000E+02 0.  1.
</event>
<event>
 5    1  0.1440459E-008  0.3732975E+03  0.7957747E-01  0.3480872E+00
         13   -1    0    0    0    0  0.00000000000E+00  0.00000000000E+00  0.14999999963E+04  0.15000000000E+04  0.10566000000E+00 0. -1.
        994   -1    0    0    0    0 -0.00000000000E+00 -0.00000000000E+00  0.11368683772E-12  0.17120000000E+03  0.17120000000E+03 0.  0.
         13    1    1    2    0    0  0.58964924279E+01  0.19161566781E+02  0.23966724655E+02  0.31246588921E+02  0.10566000000E+00 0. -1.
        994    1    1    2    0    0 -0.11662861514E+02 -0.10475193095E+01  0.80245147701E+01  0.17178752130E+03  0.17120000000E+03 0.  0.
        998    1    1    2    0    0  0.57663690864E+01 -0.18114047471E+02  0.14680087569E+04  0.14681658898E+04  0.10000000000E+02 0. -1.
</event>
<event>
 5    1  0.1440459E-008  0.3828458E+03  0.7957747E-01  0.3438860E+00
         13   -1    0    0    0    0  0.00000000000E+00  0.00000000000E+00  0.14999999963E+04  0.15000000000E+04  0.10566000000E+00 0. -1.
        994   -1    0    0    0    0 -0.00000000000E+00 -0.00000000000E+00  0.11368683772E-12  0.17120000000E+03  0.17120000000E+03 0.  0.
         13    1    1    2    0    0 -0.33464842286E+01 -0.17889121936E+02  0.60627713564E+02  0.63300477537E+02  0.10566000000E+00 0. -1.
        994    1    1    2    0    0  0.47601167186E+01  0.10507257330E+02  0.31442172093E+01  0.17161697838E+03  0.17120000000E+03 0.  0.
        998    1    1    2    0    0 -0.14136324900E+01  0.73818646058E+01  0.14362280655E+04  0.14362825441E+04  0.10000000000E+02 0. -1.
</event>
<event>
 5    1  0.1440459E-008  0.3797242E+03  0.7957747E-01  0.3452360E+00
         13   -1    0    0    0    0  0.00000000000E+00  0.00000000000E+00  0.14999999963E+04  0.15000000000E+04  0.10566000000E+00 0. -1.
        994   -1    0    0    0    0 -0.00000000000E+00 -0.00000000000E+00  0.11368683772E-12  0.17120000000E+03  0.17120000000E+03 0.  0.
         13    1    1    2    0    0 -0.26583902377E+02  0.40534063473E+02  0.23482086195E+03  0.23977189689E+03  0.10566000000E+00 0. -1.
        994    1    1    2    0    0  0.25257866661E+02 -0.40062740224E+02  0.11814177483E+02  0.17802246423E+03  0.17120000000E+03 0.  0.
        998    1    1    2    0    0  0.13260357155E+01 -0.47132324873E+00  0.12533649568E+04  0.12534056389E+04  0.10000000000E+02 0. -1.
</event>
<event>
 5    1  0.1440459E-008  0.4399524E+03  0.7957747E-01  0.3225536E+00
         13   -1    0    0    0    0  0.00000000000E+00  0.00000000000E+00  0.14999999963E+04  0.15000000000E+04  0.10566000000E+00 0.  1.
        994   -1    0    0    0    0 -0.00000000000E+00 -0.00000000000E+00  0.11368683772E-12  0.17120000000E+03  0.17120000000E+03 0.  0.
         13    1    1    2    0    0  0.10222319896E+03  0.55932048262E+02  0.10769010670E+03  0.15866677873E+03  0.10566000000E+00 0.  1.
        994    1    1    2    0    0 -0.86821666764E+02 -0.53782621002E+02  0.10541329825E+03  0.22550382611E+03  0.17120000000E+03 0.  0.
        998    1    1    2    0    0 -0.15401532197E+02 -0.21494272602E+01  0.12868965913E+04  0.12870293952E+04  0.10000000000E+02 0.  1.
</event>
<event>
 5    1  0.1440459E-008  0.3828866E+03  0.7957747E-01  0.3438685E+00
         13   -1    0    0    0    0  0.00000000000E+00  0.00000000000E+00  0.14999999963E+04  0.15000000000E+04  0.10566000000E+00 0.  1.
        994   -1    0    0    0    0 -0.00000000000E+00 -0.00000000000E+00  0.11368683772E-12  0.17120000000E+03  0.17120000000E+03 0.  0.
         13    1    1    2    0    0 -0.11354716150E+02 -0.38475989898E+01  0.25581777919E+02  0.28251940152E+02  0.10566000000E+00 0.  1.
        994    1    1    2    0    0  0.99050901270E+01  0.55856018478E+01  0.31113311638E+01  0.17160544904E+03  0.17120000000E+03 0.  0.
        998    1    1    2    0    0  0.14496260234E+01 -0.17380028580E+01  0.14713068872E+04  0.14713426108E+04  0.10000000000E+02 0.  1.
</event>
<event>
 5    1  0.1440459E-008  0.3766957E+03  0.7957747E-01  0.3465673E+00
         13   -1    0    0    0    0  0.00000000000E+00  0.00000000000E+00  0.14999999963E+04  0.15000000000E+04  0.10566000000E+00 0.  1.
        994   -1    0    0    0    0 -0.00000000000E+00 -0.00000000000E+00  0.11368683772E-12  0.17120000000E+03  0.17120000000E+03 0.  0.
         13    1    1    2    0    0  0.21846642479E+02 -0.19703748523E+00  0.35757656588E+02  0.41903887410E+02  0.10566000000E+00 0.  1.
        994    1    1    2    0    0 -0.41578752756E+02  0.10353804552E+02  0.12041216019E+02  0.17689099704E+03  0.17120000000E+03 0.  0.
        998    1    1    2    0    0  0.19732110276E+02 -0.10156767067E+02  0.14522011237E+04  0.14524051156E+04  0.10000000000E+02 0.  1.
</event>
<event>
 5    1  0.1440459E-008  0.3792998E+03  0.7957747E-01  0.3454213E+00
         13   -1    0    0    0    0  0.00000000000E+00  0.00000000000E+00  0.14999999963E+04  0.15000000000E+04  0.10566000000E+00 0.  1.
        994   -1    0    0    0    0 -0.00000000000E+00 -0.00000000000E+00  0.11368683772E-12  0.17120000000E+03  0.17120000000E+03 0.  0.
         13    1    1    2    0    0 -0.12250565860E+02  0.90298873481E+01  0.23733722001E+02  0.28194253908E+02  0.10566000000E+00 0.  1.
        994    1    1    2    0    0  0.75495365562E+01 -0.13250883195E+02  0.52666835356E+01  0.17195859782E+03  0.17120000000E+03 0.  0.
        998    1    1    2    0    0  0.47010293042E+01  0.42209958474E+01  0.14709995907E+04  0.14710471483E+04  0.10000000000E+02 0.  1.
</event>
<event>
 5    1  0.1440459E-008  0.3723444E+03  0.7957747E-01  0.3485185E+00
         13   -1    0    0    0    0  0.00000000000E+00  0.00000000000E+00  0.14999999963E+04  0.15000000000E+04  0.10566000000E+00 0. -1.
        994   -1    0    0    0    0 -0.00000000000E+00 -0.00000000000E+00  0.11368683772E-12  0.17120000000E+03  0.17120000000E+03 0.  0.
         13    1    1    2    0    0 -0.36928717602E+02 -0.36870478310E+02  0.22671012550E+03  0.23263846312E+03  0.10566000000E+00 0. -1.
        994    1    1    2    0    0 -0.20853874683E+02 -0.63629142405E+01  0.96809844283E+01  0.17285407784E+03  0.17120000000E+03 0.  0.
        998    1    1    2    0    0  0.57782592285E+02  0.43233392550E+02  0.12636088863E+04  0.12657074590E+04  0.10000000000E+02 0. -1.
</event>
<event>
 5    1  0.1440459E-008  0.3689610E+03  0.7957747E-01  0.3500680E+00
         13   -1    0    0    0    0  0.00000000000E+00  0.00000000000E+00  0.14999999963E+04  0.15000000000E+04  0.10566000000E+00 0.  1.
        994   -1    0    0    0    0 -0.00000000000E+00 -0.00000000000E+00  0.11368683772E-12  0.17120000000E+03  0.17120000000E+03 0.  0.
         13    1    1    2    0    0  0.14901436525E+02 -0.74998666949E+01  0.10002310169E+02  0.19451431405E+02  0.10566000000E+00 0.  1.
        994    1    1    2    0    0 -0.15088633369E+01  0.57080290060E+01  0.99341590391E+01  0.17158958529E+03  0.17120000000E+03 0.  0.
        998    1    1    2    0    0 -0.13392573188E+02  0.17918376889E+01  0.14800635271E+04  0.14801589833E+04  0.10000000000E+02 0.  1.
</event>
<event>
 5    1  0.1440459E-008  0.3763142E+03  0.7957747E-01  0.3467366E+00
         13   -1    0    0    0    0  0.00000000000E+00  0.00000000000E+00  0.14999999963E+04  0.15000000000E+04  0.10566000000E+00 0.  1.
        994   -1    0    0    0    0 -0.00000000000E+00 -0.00000000000E+00  0.11368683772E-12  0.17120000000E+03  0.17120000000E+03 0.  0.
         13    1    1    2    0    0  0.48626625043E+01  0.17378157992E+02  0.24386982230E+02  0.30337797022E+02  0.10566000000E+00 0.  1.
        994    1    1    2    0    0  0.10205651465E+02 -0.19129078945E+02  0.75978508405E+01  0.17273460661E+03  0.17120000000E+03 0.  0.
        998    1    1    2    0    0 -0.15068313969E+02  0.17509209525E+01  0.14680151632E+04  0.14681275964E+04  0.10000000000E+02 0.  1.
</event>
<event>
 5    1  0.1440459E-008  0.3750561E+03  0.7957747E-01  0.3472972E+00
         13   -1    0    0    0    0  0.00000000000E+00  0.00000000000E+00  0.14999999963E+04  0.15000000000E+04  0.10566000000E+00 0. -1.
        994   -1    0    0    0    0 -0.00000000000E+00 -0.00000000000E+00  0.11368683772E-12  0.17120000000E+03  0.17120000000E+03 0.  0.
         13    1    1    2    0    0  0.12478256624E+02  0.35414643367E+02  0.10205565899E+03  0.10874406903E+03  0.10566000000E+00 0. -1.
        994    1    1    2    0    0 -0.13174099080E+01 -0.27766708685E+02  0.92805437900E+01  0.17369022475E+03  0.17120000000E+03 0.  0.
        998    1    1    2    0    0 -0.11160846716E+02 -0.76479346815E+01  0.13886637935E+04  0.13887657062E+04  0.10000000000E+02 0. -1.
</event>
<event>
 5    1  0.1440459E-008  0.4269234E+03  0.7957747E-01  0.3269258E+00
         13   -1    0    0    0    0  0.00000000000E+00  0.00000000000E+00  0.14999999963E+04  0.15000000000E+04  0.10566000000E+00 0.  1.
        994   -1    0    0    0    0 -0.00000000000E+00 -0.00000000000E+00  0.11368683772E-12  0.17120000000E+03  0.17120000000E+03 0.  0.
         13    1    1    2    0    0 -0.27388687749E+02  0.34838748400E+02  0.44200843917E+01  0.44535681389E+02  0.10566000000E+00 0.  1.
        994    1    1    2    0    0  0.32577703144E+02 -0.33346390345E+02  0.54606982767E+02  0.18564657567E+03  0.17120000000E+03 0.  0.
        998    1    1    2    0    0 -0.51890153947E+01 -0.14923580550E+01  0.14409729291E+04  0.14410177429E+04  0.10000000000E+02 0.  1.
</event>
<event>
 5    1  0.1753799E-008  0.3859731E+03  0.7957747E-01  0.3425556E+00
         13   -1    0    0    0    0  0.00000000000E+00  0.00000000000E+00  0.14999999963E+04  0.15000000000E+04  0.10566000000E+00 0.  1.
        994   -1    0    0    0    0 -0.00000000000E+00 -0.00000000000E+00  0.11368683772E-12  0.17120000000E+03  0.17120000000E+03 0.  0.
         13    1    1    2    0    0  0.10019026881E+02  0.21286821408E+01  0.46781188836E+02  0.47889487158E+02  0.10566000000E+00 0.  1.
        994    1    1    2    0    0 -0.48016485751E+01 -0.13633714773E+01  0.12294667726E+01  0.17127716193E+03  0.17120000000E+03 0.  0.
        998    1    1    2    0    0 -0.52173783059E+01 -0.76531066344E+00  0.14519893407E+04  0.14520333509E+04  0.10000000000E+02 0.  1.
</event>
<event>
 5    1  0.1440459E-008  0.3694428E+03  0.7957747E-01  0.3498456E+00
         13   -1    0    0    0    0  0.00000000000E+00  0.00000000000E+00  0.14999999963E+04  0.15000000000E+04  0.10566000000E+00 0. -1.
        994   -1    0    0    0    0 -0.00000000000E+00 -0.00000000000E+00  0.11368683772E-12  0.17120000000E+03  0.17120000000E+03 0.  0.
         13    1    1    2    0    0  0.52066882557E+02 -0.25622769055E+02  0.17211387984E+03  0.18163338170E+03  0.10566000000E+00 0. -1.
        994    1    1    2    0    0 -0.37821580728E+02  0.42012093376E+01  0.14594014027E+02  0.17598450890E+03  0.17120000000E+03 0.  0.
        998    1    1    2    0    0 -0.14245301829E+02  0.21421559717E+02  0.13132921024E+04  0.13135821094E+04  0.10000000000E+02 0. -1.
</event>
<event>
 5    1  0.1440459E-008  0.3861002E+03  0.7957747E-01  0.3425019E+00
         13   -1    0    0    0    0  0.00000000000E+00  0.00000000000E+00  0.14999999963E+04  0.15000000000E+04  0.10566000000E+00 0.  1.
        994   -1    0    0    0    0 -0.00000000000E+00 -0.00000000000E+00  0.11368683772E-12  0.17120000000E+03  0.17120000000E+03 0.  0.
         13    1    1    2    0    0 -0.12566653147E+02 -0.16215704698E+01  0.70172087589E+02  0.71306965317E+02  0.10566000000E+00 0.  1.
        994    1    1    2    0    0  0.17634802606E+02 -0.50491677310E+01  0.21882885639E+01  0.17219381221E+03  0.17120000000E+03 0.  0.
        998    1    1    2    0    0 -0.50681494594E+01  0.66707382008E+01  0.14276396201E+04  0.14276992225E+04  0.10000000000E+02 0.  1.
</event>
<event>
 5    1  0.1440459E-008  0.3843758E+03  0.7957747E-01  0.3432324E+00
         13   -1    0    0    0    0  0.00000000000E+00  0.00000000000E+00  0.14999999963E+04  0.15000000000E+04  0.10566000000E+00 0. -1.
        994   -1    0    0    0    0 -0.00000000000E+00 -0.00000000000E+00  0.11368683772E-12  0.17120000000E+03  0.17120000000E+03 0.  0.
         13    1    1    2    0    0 -0.21427965740E+03 -0.12617092852E+03  0.11115850098E+04  0.11390593137E+04  0.10566000000E+00 0. -1.
        994    1    1    2    0    0  0.21578144333E+03  0.13653151206E+03  0.25919405738E+03  0.40211128367E+03  0.17120000000E+03 0.  0.
        998    1    1    2    0    0 -0.15017859297E+01 -0.10360583547E+02  0.12922092906E+03  0.13002940268E+03  0.10000000000E+02 0.  1.
</event>
<event>
 5    1  0.1440459E-008  0.3719152E+03  0.7957747E-01  0.3487135E+00
         13   -1    0    0    0    0  0.00000000000E+00  0.00000000000E+00  0.14999999963E+04  0.15000000000E+04  0.10566000000E+00 0.  1.
        994   -1    0    0    0    0 -0.00000000000E+00 -0.00000000000E+00  0.11368683772E-12  0.17120000000E+03  0.17120000000E+03 0.  0.
         13    1    1    2    0    0 -0.17728942414E+02 -0.47105801588E+01  0.88344647329E+01  0.20360842215E+02  0.10566000000E+00 0.  1.
        994    1    1    2    0    0  0.46541305823E+00  0.33100696508E+02  0.15821903684E+02  0.17508753626E+03  0.17120000000E+03 0.  0.
        998    1    1    2    0    0  0.17263529356E+02 -0.28390116349E+02  0.14753436279E+04  0.14757516215E+04  0.10000000000E+02 0.  1.
</event>
<event>
 5    1  0.1440459E-008  0.3765682E+03  0.7957747E-01  0.3466239E+00
         13   -1    0    0    0    0  0.00000000000E+00  0.00000000000E+00  0.14999999963E+04  0.15000000000E+04  0.10566000000E+00 0. -1.
        994   -1    0    0    0    0 -0.00000000000E+00 -0.00000000000E+00  0.11368683772E-12  0.17120000000E+03  0.17120000000E+03 0.  0.
         13    1    1    2    0    0 -0.41000765054E+01 -0.41677306590E+02  0.17928832938E+03  0.18411443379E+03  0.10566000000E+00 0. -1.
        994    1    1    2    0    0 -0.36327178162E+01 -0.72685849784E+01  0.60989114143E+01  0.17150121191E+03  0.17120000000E+03 0.  0.
        998    1    1    2    0    0  0.77327943216E+01  0.48945891569E+02  0.13146127555E+04  0.13155843543E+04  0.10000000000E+02 0. -1.
</event>
<event>
 5    1  0.1440459E-008  0.3787269E+03  0.7957747E-01  0.3456721E+00
         13   -1    0    0    0    0  0.00000000000E+00  0.00000000000E+00  0.14999999963E+04  0.15000000000E+04  0.10566000000E+00 0. -1.
        994   -1    0    0    0    0 -0.00000000000E+00 -0.00000000000E+00  0.11368683772E-12  0.17120000000E+03  0.17120000000E+03 0.  0.
         13    1    1    2    0    0 -0.14644248775E+02 -0.17890268092E+02  0.53656897493E+02  0.58425931976E+02  0.10566000000E+00 0. -1.
        994    1    1    2    0    0  0.17006064070E+02  0.86098876647E+01  0.59978423117E+01  0.17236226528E+03  0.17120000000E+03 0.  0.
        998    1    1    2    0    0 -0.23618152944E+01  0.92803804277E+01  0.14403452565E+04  0.14404118027E+04  0.10000000000E+02 0. -1.
</event>
<event>
 5    1  0.1440459E-008  0.3749887E+03  0.7957747E-01  0.3473273E+00
         13   -1    0    0    0    0  0.00000000000E+00  0.00000000000E+00  0.14999999963E+04  0.15000000000E+04  0.10566000000E+00 0. -1.
        994   -1    0    0    0    0 -0.00000000000E+00 -0.00000000000E+00  0.11368683772E-12  0.17120000000E+03  0.17120000000E+03 0.  0.
         13    1    1    2    0    0  0.35789526966E+02 -0.39497146023E+02  0.23052905342E+03  0.23661058813E+03  0.10566000000E+00 0. -1.
        994    1    1    2    0    0 -0.22589493950E+02  0.24575978648E+01  0.84416362400E+01  0.17290756561E+03  0.17120000000E+03 0.  0.
        998    1    1    2    0    0 -0.13200033016E+02  0.37039548158E+02  0.12610293066E+04  0.12616818463E+04  0.10000000000E+02 0. -1.
</event>
<event>
 5    1  0.1440459E-008  0.3763987E+03  0.7957747E-01  0.3466991E+00
         13   -1    0    0    0    0  0.00000000000E+00  0.00000000000E+00  0.14999999963E+04  0.15000000000E+04  0.10566000000E+00 0.  1.
        994   -1    0    0    0    0 -0.00000000000E+00 -0.00000000000E+00  0.11368683772E-12  0.17120000000E+03  0.17120000000E+03 0.  0.
         13    1    1    2    0    0 -0.29699973452E+02  0.35432719667E+02  0.19816773159E+03  0.20348962394E+03  0.10566000000E+00 0.  1.
        994    1    1    2    0    0  0.24905998028E+02  0.79155836169E+01  0.82763178295E+01  0.17338080239E+03  0.17120000000E+03 0.  0.
        998    1    1    2    0    0  0.47939754242E+01 -0.43348303284E+02  0.12935559469E+04  0.12943295737E+04  0.10000000000E+02 0.  1.
</event>
<event>
 5    1  0.1440459E-008  0.3796890E+03  0.7957747E-01  0.3452514E+00
         13   -1    0    0    0    0  0.00000000000E+00  0.00000000000E+00  0.14999999963E+04  0.15000000000E+04  0.10566000000E+00 0. -1.
        994   -1    0    0    0    0 -0.00000000000E+00 -0.00000000000E+00  0.11368683772E-12  0.17120000000E+03  0.17120000000E+03 0.  0.
         13    1    1    2    0    0 -0.10670473308E+02 -0.28970841927E+02  0.10194188232E+03  0.10651444605E+03  0.10566000000E+00 0. -1.
        994    1    1    2    0    0  0.57905172291E+01  0.33035631478E+02  0.80636585323E+01  0.17464061849E+03  0.17120000000E+03 0.  0.
        998    1    1    2    0    0  0.48799560791E+01 -0.40647895512E+01  0.13899944554E+04  0.13900449355E+04  0.10000000000E+02 0. -1.
</event>
<event>
 5    1  0.1440459E-008  0.3854210E+03  0.7957747E-01  0.3427889E+00
         13   -1    0    0    0    0  0.00000000000E+00  0.00000000000E+00  0.14999999963E+04  0.15000000000E+04  0.10566000000E+00 0. -1.
        994   -1    0    0    0    0 -0.00000000000E+00 -0.00000000000E+00  0.11368683772E-12  0.17120000000E+03  0.17120000000E+03 0.  0.
         13    1    1    2    0    0 -0.94155766220E+00 -0.13686150694E+02  0.69741256688E+02  0.71077783450E+02  0.10566000000E+00 0. -1.
        994    1    1    2    0    0 -0.96663206464E+01  0.31093832435E+01  0.17599557779E+01  0.17150989319E+03  0.17120000000E+03 0.  0.
        998    1    1    2    0    0  0.10607878309E+02  0.10576767451E+02  0.14284987838E+04  0.14286123234E+04  0.10000000000E+02 0. -1.
</event>
<event>
 5    1  0.1440459E-008  0.3802289E+03  0.7957747E-01  0.3450162E+00
         13   -1    0    0    0    0  0.00000000000E+00  0.00000000000E+00  0.14999999963E+04  0.15000000000E+04  0.10566000000E+00 0. -1.
        994   -1    0    0    0    0 -0.00000000000E+00 -0.00000000000E+00  0.11368683772E-12  0.17120000000E+03  0.17120000000E+03 0.  0.
         13    1    1    2    0    0  0.22792496079E+02 -0.58045371626E+01  0.66763889281E+02  0.70785723173E+02  0.10566000000E+00 0. -1.
        994    1    1    2    0    0 -0.17276284548E+02  0.16283732121E+01  0.50241218188E+01  0.17215052543E+03  0.17120000000E+03 0.  0.
        998    1    1    2    0    0 -0.55162115309E+01  0.41761639505E+01  0.14282119852E+04  0.14282637514E+04  0.10000000000E+02 0. -1.
</event>
<event>
 5    1  0.1440459E-008  0.3746955E+03  0.7957747E-01  0.3474586E+00
         13   -1    0    0    0    0  0.00000000000E+00  0.00000000000E+00  0.14999999963E+04  0.15000000000E+04  0.10566000000E+00 0. -1.
        994   -1    0    0    0    0 -0.00000000000E+00 -0.00000000000E+00  0.11368683772E-12  0.17120000000E+03  0.17120000000E+03 0.  0.
         13    1    1    2    0    0 -0.16950729498E+02 -0.14721189457E+02  0.35250985334E+02  0.41793346128E+02  0.10566000000E+00 0. -1.
        994    1    1    2    0    0  0.92247737859E+01 -0.56620862587E+01  0.72339340928E+01  0.17169427910E+03  0.17120000000E+03 0.  0.
        998    1    1    2    0    0  0.77259557124E+01  0.20383275715E+02  0.14575150769E+04  0.14577123748E+04  0.10000000000E+02 0. -1.
</event>
<event>
 5    1  0.1440459E-008  0.3721232E+03  0.7957747E-01  0.3486189E+00
         13   -1    0    0    0    0  0.00000000000E+00  0.00000000000E+00  0.14999999963E+04  0.15000000000E+04  0.10566000000E+00 0.  1.
        994   -1    0    0    0    0 -0.00000000000E+00 -0.00000000000E+00  0.11368683772E-12  0.17120000000E+03  0.17120000000E+03 0.  0.
         13    1    1    2    0    0  0.30150455048E+02  0.20663442817E+01  0.50117185912E+02  0.58524039557E+02  0.10566000000E+00 0.  1.
        994    1    1    2    0    0 -0.37013483365E+02 -0.49882124656E+01  0.12966591315E+02  0.17570558530E+03  0.17120000000E+03 0.  0.
        998    1    1    2    0    0  0.68630283166E+01  0.29218681839E+01  0.14369162191E+04  0.14369703751E+04  0.10000000000E+02 0.  1.
</event>
<event>
 5    1  0.1440459E-008  0.4412431E+03  0.7957747E-01  0.3221341E+00
         13   -1    0    0    0    0  0.00000000000E+00  0.00000000000E+00  0.14999999963E+04  0.15000000000E+04  0.10566000000E+00 0. -1.
        994   -1    0    0    0    0 -0.00000000000E+00 -0.00000000000E+00  0.11368683772E-12  0.17120000000E+03  0.17120000000E+03 0.  0.
         13    1    1    2    0    0  0.35540833747E+02  0.11802175326E+03  0.14119206836E+03  0.18742330815E+03  0.10566000000E+00 0. -1.
        994    1    1    2    0    0 -0.79675606864E+01 -0.55564808046E+02  0.70260034116E+02  0.19338263187E+03  0.17120000000E+03 0.  0.
        998    1    1    2    0    0 -0.27573273061E+02 -0.62456945216E+02  0.12885478938E+04  0.12903940600E+04  0.10000000000E+02 0. -1.
</event>
<event>
 5    1  0.1440459E-008  0.3784716E+03  0.7957747E-01  0.3457841E+00
         13   -1    0    0    0    0  0.00000000000E+00  0.00000000000E+00  0.14999999963E+04  0.15000000000E+04  0.10566000000E+00 0. -1.
        994   -1    0    0    0    0 -0.00000000000E+00 -0.00000000000E+00  0.11368683772E-12  0.17120000000E+03  0.17120000000E+03 0.  0.
         13    1    1    2    0    0  0.34324481707E+02 -0.21070605363E+02  0.13882121020E+03  0.14454577136E+03  0.10566000000E+00 0. -1.
        994    1    1    2    0    0 -0.30501446814E+02  0.53939342475E+02  0.17918162260E+02  0.18294887664E+03  0.17120000000E+03 0.  0.
        998    1    1    2    0    0 -0.38230348922E+01 -0.32868737111E+02  0.13432606238E+04  0.13437053520E+04  0.10000000000E+02 0. -1.
</event>
<event>
 5    1  0.3168661E-008  0.3861427E+03  0.7957747E-01  0.3424840E+00
         13   -1    0    0    0    0  0.00000000000E+00  0.00000000000E+00  0.14999999963E+04  0.15000000000E+04  0.10566000000E+00 0.  1.
        994   -1    0    0    0    0 -0.00000000000E+00 -0.00000000000E+00  0.11368683772E-12  0.17120000000E+03  0.17120000000E+03 0.  0.
         13    1    1    2    0    0  0.81761865575E+01  0.66634675407E+01  0.54723264687E+02  0.55730590238E+02  0.10566000000E+00 0.  1.
        994    1    1    2    0    0 -0.45442946980E+01  0.12076067859E+01  0.11362879607E+01  0.17126832772E+03  0.17120000000E+03 0.  0.
        998    1    1    2    0    0 -0.36318918595E+01 -0.78710743266E+01  0.14441404436E+04  0.14442010820E+04  0.10000000000E+02 0.  1.
</event>
<event>
 5    1  0.1440459E-008  0.3835685E+03  0.7957747E-01  0.3435766E+00
         13   -1    0    0    0    0  0.00000000000E+00  0.00000000000E+00  0.14999999963E+04  0.15000000000E+04  0.10566000000E+00 0. -1.
        994   -1    0    0    0    0 -0.00000000000E+00 -0.00000000000E+00  0.11368683772E-12  0.17120000000E+03  0.17120000000E+03 0.  0.
         13    1    1    2    0    0  0.14004958805E+02  0.45802196096E+01  0.52661252178E+02  0.54683964083E+02  0.10566000000E+00 0. -1.
        994    1    1    2    0    0  0.14349860799E+02  0.16150654794E+02  0.38862177359E+01  0.17260157833E+03  0.17120000000E+03 0.  0.
        998    1    1    2    0    0 -0.28354819604E+02 -0.20730874403E+02  0.14434525264E+04  0.14439144576E+04  0.10000000000E+02 0. -1.
</event>
<event>
 5    1  0.1440459E-008  0.3787519E+03  0.7957747E-01  0.3456611E+00
         13   -1    0    0    0    0  0.00000000000E+00  0.00000000000E+00  0.14999999963E+04  0.15000000000E+04  0.10566000000E+00 0.  1.
        994   -1    0    0    0    0 -0.00000000000E+00 -0.00000000000E+00  0.11368683772E-12  0.17120000000E+03  0.17120000000E+03 0.  0.
         13    1    1    2    0    0 -0.79263141201E+01 -0.86204482309E+01  0.12214078519E+02  0.16921390644E+02  0.10566000000E+00 0.  1.
        994    1    1    2    0    0  0.62103289178E+01  0.94587949155E+01  0.51944077367E+01  0.17165214493E+03  0.17120000000E+03 0.  0.
        998    1    1    2    0    0  0.17159852024E+01 -0.83834668467E+00  0.14825915100E+04  0.14826264644E+04  0.10000000000E+02 0.  1.
</event>
<event>
 5    1  0.1440459E-008  0.3845418E+03  0.7957747E-01  0.3431618E+00
         13   -1    0    0    0    0  0.00000000000E+00  0.00000000000E+00  0.14999999963E+04  0.15000000000E+04  0.10566000000E+00 0.  1.
        994   -1    0    0    0    0 -0.00000000000E+00 -0.00000000000E+00  0.11368683772E-12  0.17120000000E+03  0.17120000000E+03 0.  0.
         13    1    1    2    0    0  0.12238998259E+02  0.19159450737E+02  0.12882157781E+03  0.13081241418E+03  0.10566000000E+00 0.  1.
        994    1    1    2    0    0 -0.17174185780E+02 -0.16468194618E+02  0.37246554970E+01  0.17288570545E+03  0.17120000000E+03 0.  0.
        998    1    1    2    0    0  0.49351875213E+01 -0.26912561193E+01  0.13674537630E+04  0.13675018804E+04  0.10000000000E+02 0.  1.
</event>
<event>
 5    1  0.1440459E-008  0.3760027E+03  0.7957747E-01  0.3468750E+00
         13   -1    0    0    0    0  0.00000000000E+00  0.00000000000E+00  0.14999999963E+04  0.15000000000E+04  0.10566000000E+00 0.  1.
        994   -1    0    0    0    0 -0.00000000000E+00 -0.00000000000E+00  0.11368683772E-12  0.17120000000E+03  0.17120000000E+03 0.  0.
         13    1    1    2    0    0  0.21294559229E+02 -0.36607857962E+02  0.13557659811E+03  0.14203738465E+03  0.10566000000E+00 0.  1.
        994    1    1    2    0    0 -0.17569781237E+02  0.31729777547E+02  0.10634193676E+02  0.17532256578E+03  0.17120000000E+03 0.  0.
        998    1    1    2    0    0 -0.37247779918E+01  0.48780804152E+01  0.13537892045E+04  0.13538400496E+04  0.10000000000E+02 0.  0.
</event>
<event>
 5    1  0.1440459E-008  0.3833877E+03  0.7957747E-01  0.3436539E+00
         13   -1    0    0    0    0  0.00000000000E+00  0.00000000000E+00  0.14999999963E+04  0.15000000000E+04  0.10566000000E+00 0. -1.
        994   -1    0    0    0    0 -0.00000000000E+00 -0.00000000000E+00  0.11368683772E-12  0.17120000000E+03  0.17120000000E+03 0.  0.
         13    1    1    2    0    0  0.11979979937E+02 -0.38240951303E+00  0.27963900844E+02  0.30424612911E+02  0.10566000000E+00 0. -1.
        994    1    1    2    0    0 -0.15898813515E+02 -0.40713473084E+01  0.33236936256E+01  0.17201696160E+03  0.17120000000E+03 0.  0.
        998    1    1    2    0    0  0.39188335783E+01  0.44537568215E+01  0.14687124018E+04  0.14687584255E+04  0.10000000000E+02 0. -1.
</event>
<event>
 5    1  0.1440459E-008  0.3843903E+03  0.7957747E-01  0.3432262E+00
         13   -1    0    0    0    0  0.00000000000E+00  0.00000000000E+00  0.14999999963E+04  0.15000000000E+04  0.10566000000E+00 0. -1.
        994   -1    0    0    0    0 -0.00000000000E+00 -0.00000000000E+00  0.11368683772E-12  0.17120000000E+03  0.17120000000E+03 0.  0.
         13    1    1    2    0    0 -0.56575409960E+01 -0.13568565031E+02  0.73904360934E+02  0.75352368617E+02  0.10566000000E+00 0. -1.
        994    1    1    2    0    0 -0.28958404765E+02 -0.23907277148E+02  0.65936995815E+01  0.17539402493E+03  0.17120000000E+03 0.  0.
        998    1    1    2    0    0  0.34615945761E+02  0.37475842179E+02  0.14195019358E+04  0.14204536065E+04  0.10000000000E+02 0. -1.
</event>
<event>
 5    1  0.1440459E-008  0.3811860E+03  0.7957747E-01  0.3446011E+00
         13   -1    0    0    0    0  0.00000000000E+00  0.00000000000E+00  0.14999999963E+04  0.15000000000E+04  0.10566000000E+00 0. -1.
        994   -1    0    0    0    0 -0.00000000000E+00 -0.00000000000E+00  0.11368683772E-12  0.17120000000E+03  0.17120000000E+03 0.  0.
         13    1    1    2    0    0  0.32173513768E+01  0.39943299923E+02  0.18944121172E+03  0.19363316457E+03  0.10566000000E+00 0. -1.
        994    1    1    2    0    0  0.63170075242E+01 -0.47538939193E+02  0.11232087891E+02  0.17814447822E+03  0.17120000000E+03 0.  0.
        998    1    1    2    0    0 -0.95343589011E+01  0.75956392699E+01  0.12993266967E+04  0.12994223572E+04  0.10000000000E+02 0. -1.
</event>
<event>
 5    1  0.1440459E-008  0.3813177E+03  0.7957747E-01  0.3445441E+00
         13   -1    0    0    0    0  0.00000000000E+00  0.00000000000E+00  0.14999999963E+04  0.15000000000E+04  0.10566000000E+00 0. -1.
        994   -1    0    0    0    0 -0.00000000000E+00 -0.00000000000E+00  0.11368683772E-12  0.17120000000E+03  0.17120000000E+03 0.  0.
         13    1    1    2    0    0 -0.26375546190E+02 -0.11493100723E+02  0.10262253562E+03  0.10657934501E+03  0.10566000000E+00 0. -1.
        994    1    1    2    0    0  0.48102330490E+02 -0.19757383031E+01  0.11222626430E+02  0.17819406579E+03  0.17120000000E+03 0.  0.
        998    1    1    2    0    0 -0.21726784300E+02  0.13468839027E+02  0.13861548342E+04  0.13864265892E+04  0.10000000000E+02 0. -1.
</event>
<event>
 5    1  0.1440459E-008  0.3852413E+03  0.7957747E-01  0.3428649E+00
         13   -1    0    0    0    0  0.00000000000E+00  0.00000000000E+00  0.14999999963E+04  0.15000000000E+04  0.10566000000E+00 0.  1.
        994   -1    0    0    0    0 -0.00000000000E+00 -0.00000000000E+00  0.11368683772E-12  0.17120000000E+03  0.17120000000E+03 0.  0.
         13    1    1    2    0    0  0.95738257511E+01  0.13130400554E+02  0.82184572606E+02  0.83775776312E+02  0.10566000000E+00 0.  1.
        994    1    1    2    0    0 -0.14388135569E+02 -0.13490133742E+02  0.27897078091E+01  0.17235493791E+03  0.17120000000E+03 0.  0.
        998    1    1    2    0    0  0.48143098178E+01  0.35973318774E+00  0.14150257159E+04  0.14150692858E+04  0.10000000000E+02 0.  1.
</event>
<event>
 5    1  0.1440459E-008  0.3713715E+03  0.7957747E-01  0.3489611E+00
         13   -1    0    0    0    0  0.00000000000E+00  0.00000000000E+00  0.14999999963E+04  0.15000000000E+04  0.10566000000E+00 0. -1.
        994   -1    0    0    0    0 -0.00000000000E+00 -0.00000000000E+00  0.11368683772E-12  0.17120000000E+03  0.17120000000E+03 0.  0.
         13    1    1    2    0    0 -0.29389474814E+02 -0.14034943122E+02  0.38863332818E+02  0.50705923323E+02  0.10566000000E+00 0. -1.
        994    1    1    2    0    0  0.21746515130E+02  0.50058353763E+02  0.22204314940E+02  0.18105585134E+03  0.17120000000E+03 0.  0.
        998    1    1    2    0    0  0.76429596841E+01 -0.36023410641E+02  0.14389323485E+04  0.14394382253E+04  0.10000000000E+02 0. -1.
</event>
<event>
 5    1  0.1440459E-008  0.3722487E+03  0.7957747E-01  0.3485620E+00
         13   -1    0    0    0    0  0.00000000000E+00  0.00000000000E+00  0.14999999963E+04  0.15000000000E+04  0.10566000000E+00 0.  1.
        994   -1    0    0    0    0 -0.00000000000E+00 -0.00000000000E+00  0.11368683772E-12  0.17120000000E+03  0.17120000000E+03 0.  0.
         13    1    1    2    0    0  0.74260798300E+02 -0.25220091231E+02  0.34373996795E+03  0.35257324898E+03  0.10566000000E+00 0.  1.
        994    1    1    2    0    0 -0.13311873096E+02 -0.39112128927E+02  0.18171899936E+02  0.17704977419E+03  0.17120000000E+03 0.  0.
        998    1    1    2    0    0 -0.60948925204E+02  0.64332220159E+02  0.11380881284E+04  0.11415769768E+04  0.10000000000E+02 0.  1.
</event>
<event>
 5    1  0.1440459E-008  0.3711540E+03  0.7957747E-01  0.3490604E+00
         13   -1    0    0    0    0  0.00000000000E+00  0.00000000000E+00  0.14999999963E+04  0.15000000000E+04  0.10566000000E+00 0. -1.
        994   -1    0    0    0    0 -0.00000000000E+00 -0.00000000000E+00  0.11368683772E-12  0.17120000000E+03  0.17120000000E+03 0.  0.
         13    1    1    2    0    0 -0.27266849160E+02 -0.37466342242E+01  0.39100523194E+02  0.47816110351E+02  0.10566000000E+00 0. -1.
        994    1    1    2    0    0  0.28208818760E+02  0.97684531182E+01  0.11742359873E+02  0.17417945673E+03  0.17120000000E+03 0.  0.
        998    1    1    2    0    0 -0.94196960018E+00 -0.60218188940E+01  0.14491571132E+04  0.14492044329E+04  0.10000000000E+02 0. -1.
</event>
<event>
 5    1  0.1440459E-008  0.3878291E+03  0.7957747E-01  0.3417762E+00
         13   -1    0    0    0    0  0.00000000000E+00  0.00000000000E+00  0.14999999963E+04  0.15000000000E+04  0.10566000000E+00 0. -1.
        994   -1    0    0    0    0 -0.00000000000E+00 -0.00000000000E+00  0.11368683772E-12  0.17120000000E+03  0.17120000000E+03 0.  0.
         13    1    1    2    0    0  0.12934987623E+03 -0.92197280357E+02  0.39201362038E+03  0.42297330733E+03  0.10566000000E+00 0. -1.
        994    1    1    2    0    0 -0.12056862618E+03  0.11891480804E+03  0.13752948436E+03  0.27731088017E+03  0.17120000000E+03 0.  0.
        998    1    1    2    0    0 -0.87812500497E+01 -0.26717527686E+02  0.97045689154E+03  0.97091581250E+03  0.10000000000E+02 0. -1.
</event>
<event>
 5    1  0.1440459E-008  0.3842992E+03  0.7957747E-01  0.3432650E+00
         13   -1    0    0    0    0  0.00000000000E+00  0.00000000000E+00  0.14999999963E+04  0.15000000000E+04  0.10566000000E+00 0. -1.
        994   -1    0    0    0    0 -0.00000000000E+00 -0.00000000000E+00  0.11368683772E-12  0.17120000000E+03  0.17120000000E+03 0.  0.
         13    1    1    2    0    0 -0.45694483062E+01  0.11805656604E+02  0.44718935598E+02  0.46476313867E+02  0.10566000000E+00 0. -1.
        994    1    1    2    0    0 -0.35379247305E+01  0.13264732241E+02  0.25999581967E+01  0.17176923419E+03  0.17120000000E+03 0.  0.
        998    1    1    2    0    0  0.81073730367E+01 -0.25070388845E+02  0.14526811025E+04  0.14529544519E+04  0.10000000000E+02 0. -1.
</event>
<event>
 5    1  0.1440459E-008  0.3841514E+03  0.7957747E-01  0.3433279E+00
         13   -1    0    0    0    0  0.00000000000E+00  0.00000000000E+00  0.14999999963E+04  0.15000000000E+04  0.10566000000E+00 0.  1.
        994   -1    0    0    0    0 -0.00000000000E+00 -0.00000000000E+00  0.11368683772E-12  0.17120000000E+03  0.17120000000E+03 0.  0.
         13    1    1    2    0    0 -0.19535581044E+02 -0.35115231349E+01  0.96905531494E+02  0.98917455081E+02  0.10566000000E+00 0.  1.
        994    1    1    2    0    0  0.10336288773E+02  0.26007266422E+01  0.24267491640E+01  0.17154862796E+03  0.17120000000E+03 0.  0.
        998    1    1    2    0    0  0.91992922712E+01  0.91079649266E+00  0.14006677156E+04  0.14007339170E+04  0.10000000000E+02 0.  1.
</event>
<event>
 5    1  0.1440459E-008  0.3161974E+03  0.7957747E-01  0.3786766E+00
         13   -1    0    0    0    0  0.00000000000E+00  0.00000000000E+00  0.14999999963E+04  0.15000000000E+04  0.10566000000E+00 0.  1.
        994   -1    0    0    0    0 -0.00000000000E+00 -0.00000000000E+00  0.11368683772E-12  0.17120000000E+03  0.17120000000E+03 0.  0.
         13    1    1    2    0    0  0.15541654860E+03  0.49803701095E+02  0.88049292675E+03  0.89549009901E+03  0.10566000000E+00 0.  1.
        994    1    1    2    0    0 -0.11346181779E+03  0.18596550460E+01  0.62557540277E+02  0.21470893847E+03  0.17120000000E+03 0.  0.
        998    1    1    2    0    0 -0.41954730810E+02 -0.51663356141E+02  0.55694952926E+03  0.56100096252E+03  0.10000000000E+02 0. -1.
</event>
<event>
 5    1  0.1440459E-008  0.3786306E+03  0.7957747E-01  0.3457143E+00
         13   -1    0    0    0    0  0.00000000000E+00  0.00000000000E+00  0.14999999963E+04  0.15000000000E+04  0.10566000000E+00 0. -1.
        994   -1    0    0    0    0 -0.00000000000E+00 -0.00000000000E+00  0.11368683772E-12  0.17120000000E+03  0.17120000000E+03 0.  0.
         13    1    1    2    0    0 -0.43367021555E+02  0.23748853806E+02  0.69545217963E+02  0.85330270838E+02  0.10566000000E+00 0. -1.
        994    1    1    2    0    0  0.44025890724E+02 -0.24919857830E+02  0.24862367385E+02  0.18024110430E+03  0.17120000000E+03 0.  0.
        998    1    1    2    0    0 -0.65886916876E+00  0.11710040236E+01  0.14055924109E+04  0.14056286249E+04  0.10000000000E+02 0. -1.
</event>
<event>
 5    1  0.1440459E-008  0.3809780E+03  0.7957747E-01  0.3446911E+00
         13   -1    0    0    0    0  0.00000000000E+00  0.00000000000E+00  0.14999999963E+04  0.15000000000E+04  0.10566000000E+00 0.  1.
        994   -1    0    0    0    0 -0.00000000000E+00 -0.00000000000E+00  0.11368683772E-12  0.17120000000E+03  0.17120000000E+03 0.  0.
         13    1    1    2    0    0 -0.51462905378E+02 -0.59869524888E+02  0.17586209170E+03  0.19277001089E+03  0.10566000000E+00 0.  1.
        994    1    1    2    0    0  0.40894127833E+02  0.37278329929E+02  0.28086064620E+02  0.18209961724E+03  0.17120000000E+03 0.  0.
        998    1    1    2    0    0  0.10568777545E+02  0.22591194960E+02  0.12960518400E+04  0.12963303719E+04  0.10000000000E+02 0.  1.
</event>
<event>
 5    1  0.1440459E-008  0.3835524E+03  0.7957747E-01  0.3435835E+00
         13   -1    0    0    0    0  0.00000000000E+00  0.00000000000E+00  0.14999999963E+04  0.15000000000E+04  0.10566000000E+00 0.  1.
        994   -1    0    0    0    0 -0.00000000000E+00 -0.00000000000E+00  0.11368683772E-12  0.17120000000E+03  0.17120000000E+03 0.  0.
         13    1    1    2    0    0 -0.27010829629E+01  0.18158637583E+02  0.68980759051E+02  0.71381988283E+02  0.10566000000E+00 0.  1.
        994    1    1    2    0    0  0.74974222790E+00 -0.17449083900E+02  0.33590987287E+01  0.17212134146E+03  0.17120000000E+03 0.  0.
        998    1    1    2    0    0  0.19513407350E+01 -0.70955368255E+00  0.14276601385E+04  0.14276966703E+04  0.10000000000E+02 0.  1.
</event>
<event>
 5    1  0.1440459E-008  0.3836041E+03  0.7957747E-01  0.3435614E+00
         13   -1    0    0    0    0  0.00000000000E+00  0.00000000000E+00  0.14999999963E+04  0.15000000000E+04  0.10566000000E+00 0. -1.
        994   -1    0    0    0    0 -0.00000000000E+00 -0.00000000000E+00  0.11368683772E-12  0.17120000000E+03  0.17120000000E+03 0.  0.
         13    1    1    2    0    0  0.12667572438E+02 -0.26998587141E+01  0.35860221084E+02  0.38127722837E+02  0.10566000000E+00 0. -1.
        994    1    1    2    0    0 -0.55104785704E+01  0.13458284977E+01  0.24310509588E+01  0.17131119822E+03  0.17120000000E+03 0.  0.
        998    1    1    2    0    0 -0.71570938673E+01  0.13540302164E+01  0.14617087242E+04  0.14617610789E+04  0.10000000000E+02 0. -1.
</event>
<event>
 5    1  0.1440459E-008  0.3852694E+03  0.7957747E-01  0.3428531E+00
         13   -1    0    0    0    0  0.00000000000E+00  0.00000000000E+00  0.14999999963E+04  0.15000000000E+04  0.10566000000E+00 0. -1.
        994   -1    0    0    0    0 -0.00000000000E+00 -0.00000000000E+00  0.11368683772E-12  0.17120000000E+03  0.17120000000E+03 0.  0.
         13    1    1    2    0    0  0.75996635087E+01  0.76264202753E+01  0.37895898548E+02  0.39395779755E+02  0.10566000000E+00 0. -1.
        994    1    1    2    0    0 -0.63994077085E+01 -0.98342879160E+01  0.19489393928E+01  0.17161265688E+03  0.17120000000E+03 0.  0.
        998    1    1    2    0    0 -0.12002558002E+01  0.22078676407E+01  0.14601551583E+04  0.14601915634E+04  0.10000000000E+02 0. -1.
</event>
<event>
 5    1  0.1440459E-008  0.3819560E+03  0.7957747E-01  0.3442686E+00
         13   -1    0    0    0    0  0.00000000000E+00  0.00000000000E+00  0.14999999963E+04  0.15000000000E+04  0.10566000000E+00 0. -1.
        994   -1    0    0    0    0 -0.00000000000E+00 -0.00000000000E+00  0.11368683772E-12  0.17120000000E+03  0.17120000000E+03 0.  0.
         13    1    1    2    0    0  0.16317149396E+02  0.18999799026E+01  0.41046212547E+02  0.44211559762E+02  0.10566000000E+00 0. -1.
        994    1    1    2    0    0 -0.16109685005E+02  0.56226058665E+01  0.41165941372E+01  0.17209742007E+03  0.17120000000E+03 0.  0.
        998    1    1    2    0    0 -0.20746439124E+00 -0.75225857691E+01  0.14548371896E+04  0.14548910202E+04  0.10000000000E+02 0. -1.
</event>
<event>
 5    1  0.1440459E-008  0.3848807E+03  0.7957747E-01  0.3430179E+00
         13   -1    0    0    0    0  0.00000000000E+00  0.00000000000E+00  0.14999999963E+04  0.15000000000E+04  0.10566000000E+00 0. -1.
        994   -1    0    0    0    0 -0.00000000000E+00 -0.00000000000E+00  0.11368683772E-12  0.17120000000E+03  0.17120000000E+03 0.  0.
         13    1    1    2    0    0 -0.12099647249E+02  0.32753605605E+00  0.44342212720E+02  0.45964679226E+02  0.10566000000E+00 0. -1.
        994    1    1    2    0    0  0.33252203253E+01  0.54351491228E+01  0.18229787270E+01  0.17132822648E+03  0.17120000000E+03 0.  0.
        998    1    1    2    0    0  0.87744269233E+01 -0.57626851789E+01  0.14538348048E+04  0.14539070943E+04  0.10000000000E+02 0. -1.
</event>
<event>
 5    1  0.1440459E-008  0.3836784E+03  0.7957747E-01  0.3435297E+00
         13   -1    0    0    0    0  0.00000000000E+00  0.00000000000E+00  0.14999999963E+04  0.15000000000E+04  0.10566000000E+00 0.  1.
        994   -1    0    0    0    0 -0.00000000000E+00 -0.00000000000E+00  0.11368683772E-12  0.17120000000E+03  0.17120000000E+03 0.  0.
         13    1    1    2    0    0 -0.67555168797E+01  0.12135917736E+02  0.44731376502E+02  0.46838282584E+02  0.10566000000E+00 0.  1.
        994    1    1    2    0    0  0.34973793356E+01  0.96199048356E+01  0.26338281472E+01  0.17152594930E+03  0.17120000000E+03 0.  0.
        998    1    1    2    0    0  0.32581375441E+01 -0.21755822572E+02  0.14526347916E+04  0.14528357681E+04  0.10000000000E+02 0.  1.
</event>
<event>
 5    1  0.1440459E-008  0.3853586E+03  0.7957747E-01  0.3428153E+00
         13   -1    0    0    0    0  0.00000000000E+00  0.00000000000E+00  0.14999999963E+04  0.15000000000E+04  0.10566000000E+00 0. -1.
        994   -1    0    0    0    0 -0.00000000000E+00 -0.00000000000E+00  0.11368683772E-12  0.17120000000E+03  0.17120000000E+03 0.  0.
         13    1    1    2    0    0  0.43107674690E+01 -0.16138658177E+02  0.92175211078E+02  0.93676676421E+02  0.10566000000E+00 0. -1.
        994    1    1    2    0    0 -0.18671461101E+01  0.16530427500E+02  0.23617699018E+01  0.17202255441E+03  0.17120000000E+03 0.  0.
        998    1    1    2    0    0 -0.24436213589E+01 -0.39176932309E+00  0.14054630153E+04  0.14055007692E+04  0.10000000000E+02 0. -1.
</event>
<event>
 5    1  0.1440459E-008  0.3708044E+03  0.7957747E-01  0.3492202E+00
         13   -1    0    0    0    0  0.00000000000E+00  0.00000000000E+00  0.14999999963E+04  0.15000000000E+04  0.10566000000E+00 0.  1.
        994   -1    0    0    0    0 -0.00000000000E+00 -0.00000000000E+00  0.11368683772E-12  0.17120000000E+03  0.17120000000E+03 0.  0.
         13    1    1    2    0    0 -0.40347030468E+02  0.65288568548E+01  0.10431903222E+03  0.11204008428E+03  0.10566000000E+00 0.  1.
        994    1    1    2    0    0 -0.87291625869E+01  0.14715775347E+01  0.91194923690E+01  0.17167110695E+03  0.17120000000E+03 0.  0.
        998    1    1    2    0    0  0.49076193054E+02 -0.80004343895E+01  0.13865614717E+04  0.13874888088E+04  0.10000000000E+02 0.  1.
</event>
<event>
 5    1  0.1440459E-008  0.3801234E+03  0.7957747E-01  0.3450622E+00
         13   -1    0    0    0    0  0.00000000000E+00  0.00000000000E+00  0.14999999963E+04  0.15000000000E+04  0.10566000000E+00 0. -1.
        994   -1    0    0    0    0 -0.00000000000E+00 -0.00000000000E+00  0.11368683772E-12  0.17120000000E+03  0.17120000000E+03 0.  0.
         13    1    1    2    0    0 -0.28441743469E+02 -0.24689602015E+02  0.13250242917E+03  0.13775127629E+03  0.10566000000E+00 0. -1.
        994    1    1    2    0    0  0.17354997776E+02  0.88352818752E+02  0.31655872736E+02  0.19600752743E+03  0.17120000000E+03 0.  0.
        998    1    1    2    0    0  0.11086745693E+02 -0.63663216738E+02  0.13358416944E+04  0.13374411963E+04  0.10000000000E+02 0. -1.
</event>
<event>
 5    1  0.1440459E-008  0.3854985E+03  0.7957747E-01  0.3427561E+00
         13   -1    0    0    0    0  0.00000000000E+00  0.00000000000E+00  0.14999999963E+04  0.15000000000E+04  0.10566000000E+00 0.  1.
        994   -1    0    0    0    0 -0.00000000000E+00 -0.00000000000E+00  0.11368683772E-12  0.17120000000E+03  0.17120000000E+03 0.  0.
         13    1    1    2    0    0 -0.14205702119E+02 -0.47637352084E+01  0.80276845832E+02  0.81663200320E+02  0.10566000000E+00 0.  1.
        994    1    1    2    0    0  0.10524020340E+02  0.60896765629E+01  0.18684145889E+01  0.17164139984E+03  0.17120000000E+03 0.  0.
        998    1    1    2    0    0  0.36816817795E+01 -0.13259413545E+01  0.14178547359E+04  0.14178953998E+04  0.10000000000E+02 0.  1.
</event>
<event>
 5    1  0.1440459E-008  0.3842839E+03  0.7957747E-01  0.3432715E+00
         13   -1    0    0    0    0  0.00000000000E+00  0.00000000000E+00  0.14999999963E+04  0.15000000000E+04  0.10566000000E+00 0.  1.
        994   -1    0    0    0    0 -0.00000000000E+00 -0.00000000000E+00  0.11368683772E-12  0.17120000000E+03  0.17120000000E+03 0.  0.
         13    1    1    2    0    0  0.18232920341E+02 -0.14943636533E+02  0.13431555729E+03  0.13636873451E+03  0.10566000000E+00 0.  1.
        994    1    1    2    0    0 -0.17647482347E+02  0.85974680659E+01  0.32573240985E+01  0.17235254640E+03  0.17120000000E+03 0.  0.
        998    1    1    2    0    0 -0.58543799372E+00  0.63461684672E+01  0.13624271149E+04  0.13624787191E+04  0.10000000000E+02 0.  1.
</event>
<event>
 5    1  0.1440459E-008  0.3788792E+03  0.7957747E-01  0.3456053E+00
         13   -1    0    0    0    0  0.00000000000E+00  0.00000000000E+00  0.14999999963E+04  0.15000000000E+04  0.10566000000E+00 0. -1.
        994   -1    0    0    0    0 -0.00000000000E+00 -0.00000000000E+00  0.11368683772E-12  0.17120000000E+03  0.17120000000E+03 0.  0.
         13    1    1    2    0    0  0.37832264056E+01 -0.26199199971E+02  0.72022423591E+02  0.76732988637E+02  0.10566000000E+00 0. -1.
        994    1    1    2    0    0 -0.39789372995E+01  0.18937087619E+02  0.59573624136E+01  0.17239308396E+03  0.17120000000E+03 0.  0.
        998    1    1    2    0    0  0.19571089390E+00  0.72621123525E+01  0.14220202103E+04  0.14220739274E+04  0.10000000000E+02 0. -1.
</event>
<event>
 5    1  0.1440459E-008  0.3796704E+03  0.7957747E-01  0.3452595E+00
         13   -1    0    0    0    0  0.00000000000E+00  0.00000000000E+00  0.14999999963E+04  0.15000000000E+04  0.10566000000E+00 0. -1.
        994   -1    0    0    0    0 -0.00000000000E+00 -0.00000000000E+00  0.11368683772E-12  0.17120000000E+03  0.17120000000E+03 0.  0.
         13    1    1    2    0    0  0.89078901687E+02 -0.48712614890E+01  0.22902651569E+03  0.24578839673E+03  0.10566000000E+00 0. -1.
        994    1    1    2    0    0 -0.69329147677E+02 -0.43811880984E+02  0.40912752057E+02  0.19418883828E+03  0.17120000000E+03 0.  0.
        998    1    1    2    0    0 -0.19749754011E+02  0.48683142473E+02  0.12300607285E+04  0.12312227650E+04  0.10000000000E+02 0. -1.
</event>
<event>
 5    1  0.1440459E-008  0.3822666E+03  0.7957747E-01  0.3441348E+00
         13   -1    0    0    0    0  0.00000000000E+00  0.00000000000E+00  0.14999999963E+04  0.15000000000E+04  0.10566000000E+00 0. -1.
        994   -1    0    0    0    0 -0.00000000000E+00 -0.00000000000E+00  0.11368683772E-12  0.17120000000E+03  0.17120000000E+03 0.  0.
         13    1    1    2    0    0  0.11211628676E+01 -0.26579161299E+02  0.11275426310E+03  0.11585009207E+03  0.10566000000E+00 0. -1.
        994    1    1    2    0    0  0.94479363809E+01  0.22968796635E+02  0.50427096687E+01  0.17306558884E+03  0.17120000000E+03 0.  0.
        998    1    1    2    0    0 -0.10569099248E+02  0.36103646647E+01  0.13822030235E+04  0.13822843191E+04  0.10000000000E+02 0. -1.
</event>
<event>
 5    1  0.1440459E-008  0.3809956E+03  0.7957747E-01  0.3446835E+00
         13   -1    0    0    0    0  0.00000000000E+00  0.00000000000E+00  0.14999999963E+04  0.15000000000E+04  0.10566000000E+00 0. -1.
        994   -1    0    0    0    0 -0.00000000000E+00 -0.00000000000E+00  0.11368683772E-12  0.17120000000E+03  0.17120000000E+03 0.  0.
         13    1    1    2    0    0  0.37950351230E+02  0.19916124596E+02  0.22971165456E+03  0.23367570816E+03  0.10566000000E+00 0. -1.
        994    1    1    2    0    0 -0.42257959706E+02  0.22872506367E+01  0.96219437369E+01  0.17661536874E+03  0.17120000000E+03 0.  0.
        998    1    1    2    0    0  0.43076084762E+01 -0.22203375233E+02  0.12606663980E+04  0.12609089231E+04  0.10000000000E+02 0. -1.
</event>
<event>
 5    1  0.1440459E-008  0.3842347E+03  0.7957747E-01  0.3432924E+00
         13   -1    0    0    0    0  0.00000000000E+00  0.00000000000E+00  0.14999999963E+04  0.15000000000E+04  0.10566000000E+00 0. -1.
        994   -1    0    0    0    0 -0.00000000000E+00 -0.00000000000E+00  0.11368683772E-12  0.17120000000E+03  0.17120000000E+03 0.  0.
         13    1    1    2    0    0  0.31033399777E+01 -0.11538333206E+02  0.37123103404E+02  0.38998715652E+02  0.10566000000E+00 0. -1.
        994    1    1    2    0    0 -0.10261360759E+02 -0.77346748235E+01  0.25551410650E+01  0.17170058085E+03  0.17120000000E+03 0.  0.
        998    1    1    2    0    0  0.71580207813E+01  0.19273008029E+02  0.14603217518E+04  0.14605007035E+04  0.10000000000E+02 0. -1.
</event>
<event>
 5    1  0.1440459E-008  0.3852417E+03  0.7957747E-01  0.3428648E+00
         13   -1    0    0    0    0  0.00000000000E+00  0.00000000000E+00  0.14999999963E+04  0.15000000000E+04  0.10566000000E+00 0.  1.
        994   -1    0    0    0    0 -0.00000000000E+00 -0.00000000000E+00  0.11368683772E-12  0.17120000000E+03  0.17120000000E+03 0.  0.
         13    1    1    2    0    0  0.78194160041E+01 -0.16292024836E+02  0.10100698343E+03  0.10261089224E+03  0.10566000000E+00 0.  1.
        994    1    1    2    0    0 -0.58745002670E+01  0.19635206809E+02  0.28917440597E+01  0.17244666794E+03  0.17120000000E+03 0.  0.
        998    1    1    2    0    0 -0.19449157370E+01 -0.33431819738E+01  0.13961012688E+04  0.13961424398E+04  0.10000000000E+02 0.  1.
</event>
<event>
 5    1  0.1440459E-008  0.3859711E+03  0.7957747E-01  0.3425564E+00
         13   -1    0    0    0    0  0.00000000000E+00  0.00000000000E+00  0.14999999963E+04  0.15000000000E+04  0.10566000000E+00 0. -1.
        994   -1    0    0    0    0 -0.00000000000E+00 -0.00000000000E+00  0.11368683772E-12  0.17120000000E+03  0.17120000000E+03 0.  0.
         13    1    1    2    0    0 -0.71681062358E+01 -0.99285155398E+01  0.67072584503E+02  0.68181375197E+02  0.10566000000E+00 0. -1.
        994    1    1    2    0    0  0.11132842511E+02 -0.42142296353E+00  0.15557910727E+01  0.17156916467E+03  0.17120000000E+03 0.  0.
        998    1    1    2    0    0 -0.39647362755E+01  0.10349938503E+02  0.14313716207E+04  0.14314494601E+04  0.10000000000E+02 0. -1.
</event>
<event>
 5    1  0.1440459E-008  0.2941383E+03  0.7957747E-01  0.3938776E+00
         13   -1    0    0    0    0  0.00000000000E+00  0.00000000000E+00  0.14999999963E+04  0.15000000000E+04  0.10566000000E+00 0. -1.
        994   -1    0    0    0    0 -0.00000000000E+00 -0.00000000000E+00  0.11368683772E-12  0.17120000000E+03  0.17120000000E+03 0.  0.
         13    1    1    2    0    0 -0.13305419484E+03 -0.42571318867E+02  0.72047654650E+03  0.73389522493E+03  0.10566000000E+00 0. -1.
        994    1    1    2    0    0  0.76204811201E+02  0.11031991924E+03  0.79325546740E+02  0.23147276340E+03  0.17120000000E+03 0.  0.
        998    1    1    2    0    0  0.56849383642E+02 -0.67748600376E+02  0.70019790303E+03  0.70583201166E+03  0.10000000000E+02 0.  1.
</event>
<event>
 5    1  0.1440459E-008  0.3833419E+03  0.7957747E-01  0.3436735E+00
         13   -1    0    0    0    0  0.00000000000E+00  0.00000000000E+00  0.14999999963E+04  0.15000000000E+04  0.10566000000E+00 0. -1.
        994   -1    0    0    0    0 -0.00000000000E+00 -0.00000000000E+00  0.11368683772E-12  0.17120000000E+03  0.17120000000E+03 0.  0.
         13    1    1    2    0    0  0.22269205736E+01 -0.21199394690E+02  0.95008877386E+02  0.97370793653E+02  0.10566000000E+00 0. -1.
        994    1    1    2    0    0 -0.16061539954E+02  0.67157135014E+01  0.34583121709E+01  0.17211761617E+03  0.17120000000E+03 0.  0.
        998    1    1    2    0    0  0.13834619380E+02  0.14483681189E+02  0.14015328067E+04  0.14017115902E+04  0.10000000000E+02 0. -1.
</event>
<event>
 5    1  0.1440459E-008  0.3742438E+03  0.7957747E-01  0.3476612E+00
         13   -1    0    0    0    0  0.00000000000E+00  0.00000000000E+00  0.14999999963E+04  0.15000000000E+04  0.10566000000E+00 0. -1.
        994   -1    0    0    0    0 -0.00000000000E+00 -0.00000000000E+00  0.11368683772E-12  0.17120000000E+03  0.17120000000E+03 0.  0.
         13    1    1    2    0    0  0.35896851353E+02  0.24922647760E+01  0.42342291136E+02  0.55566861558E+02  0.10566000000E+00 0. -1.
        994    1    1    2    0    0 -0.39041051336E+02 -0.86203066672E+01  0.18894829920E+02  0.17681902605E+03  0.17120000000E+03 0.  0.
        998    1    1    2    0    0  0.31441999825E+01  0.61280418912E+01  0.14387628752E+04  0.14388141124E+04  0.10000000000E+02 0. -1.
</event>
<event>
 5    1  0.1440459E-008  0.3767921E+03  0.7957747E-01  0.3465246E+00
         13   -1    0    0    0    0  0.00000000000E+00  0.00000000000E+00  0.14999999963E+04  0.15000000000E+04  0.10566000000E+00 0. -1.
        994   -1    0    0    0    0 -0.00000000000E+00 -0.00000000000E+00  0.11368683772E-12  0.17120000000E+03  0.17120000000E+03 0.  0.
         13    1    1    2    0    0  0.45770941627E+01  0.98491925231E+01  0.74880969030E+01  0.13192389609E+02  0.10566000000E+00 0. -1.
        994    1    1    2    0    0 -0.11238915600E+02 -0.11478150473E+02  0.66337094833E+01  0.17207994440E+03  0.17120000000E+03 0.  0.
        998    1    1    2    0    0  0.66618214375E+01  0.16289579502E+01  0.14858781899E+04  0.14859276660E+04  0.10000000000E+02 0. -1.
</event>
<event>
 5    1  0.1440459E-008  0.3840521E+03  0.7957747E-01  0.3433702E+00
         13   -1    0    0    0    0  0.00000000000E+00  0.00000000000E+00  0.14999999963E+04  0.15000000000E+04  0.10566000000E+00 0. -1.
        994   -1    0    0    0    0 -0.00000000000E+00 -0.00000000000E+00  0.11368683772E-12  0.17120000000E+03  0.17120000000E+03 0.  0.
         13    1    1    2    0    0  0.27720080507E+01 -0.97545070261E+01  0.21700303629E+02  0.23953053617E+02  0.10566000000E+00 0. -1.
        994    1    1    2    0    0 -0.12429857101E+02  0.31784996895E+02  0.59533567651E+01  0.17467017442E+03  0.17120000000E+03 0.  0.
        998    1    1    2    0    0  0.96578490500E+01 -0.22030489869E+02  0.14723463359E+04  0.14725767720E+04  0.10000000000E+02 0. -1.
</event>
<event>
 5    1  0.1440459E-008  0.3822720E+03  0.7957747E-01  0.3441325E+00
         13   -1    0    0    0    0  0.00000000000E+00  0.00000000000E+00  0.14999999963E+04  0.15000000000E+04  0.10566000000E+00 0. -1.
        994   -1    0    0    0    0 -0.00000000000E+00 -0.00000000000E+00  0.11368683772E-12  0.17120000000E+03  0.17120000000E+03 0.  0.
         13    1    1    2    0    0 -0.10239813364E+02  0.13465968025E+02  0.50659802253E+02  0.53409856777E+02  0.10566000000E+00 0. -1.
        994    1    1    2    0    0 -0.52432047646E+01  0.46760148698E+01  0.31544012789E+01  0.17137312088E+03  0.17120000000E+03 0.  0.
        998    1    1    2    0    0  0.15483018128E+02 -0.18141982895E+02  0.14461857927E+04  0.14464170223E+04  0.10000000000E+02 0. -1.
</event>
<event>
 5    1  0.1440459E-008  0.3841229E+03  0.7957747E-01  0.3433401E+00
         13   -1    0    0    0    0  0.00000000000E+00  0.00000000000E+00  0.14999999963E+04  0.15000000000E+04  0.10566000000E+00 0. -1.
        994   -1    0    0    0    0 -0.00000000000E+00 -0.00000000000E+00  0.11368683772E-12  0.17120000000E+03  0.17120000000E+03 0.  0.
         13    1    1    2    0    0 -0.97138483649E+01  0.27777762641E+01  0.24252471010E+02  0.26272959581E+02  0.10566000000E+00 0. -1.
        994    1    1    2    0    0  0.68848329273E+01  0.52908857021E+01  0.23149087110E+01  0.17143568240E+03  0.17120000000E+03 0.  0.
        998    1    1    2    0    0  0.28290154376E+01 -0.80686619661E+01  0.14734326166E+04  0.14734913580E+04  0.10000000000E+02 0. -1.
</event>
<event>
 5    1  0.1440459E-008  0.3881950E+03  0.7957747E-01  0.3416234E+00
         13   -1    0    0    0    0  0.00000000000E+00  0.00000000000E+00  0.14999999963E+04  0.15000000000E+04  0.10566000000E+00 0.  1.
        994   -1    0    0    0    0 -0.00000000000E+00 -0.00000000000E+00  0.11368683772E-12  0.17120000000E+03  0.17120000000E+03 0.  0.
         13    1    1    2    0    0 -0.76270654749E+02 -0.44808984353E+02  0.16014895991E+03  0.18295561861E+03  0.10566000000E+00 0.  1.
        994    1    1    2    0    0  0.89478100351E+02  0.26419437881E+02  0.54212839853E+02  0.20236795484E+03  0.17120000000E+03 0.  0.
        998    1    1    2    0    0 -0.13207445602E+02  0.18389546473E+02  0.12856381965E+04  0.12858764266E+04  0.10000000000E+02 0.  1.
</event>
<event>
 5    1  0.1440459E-008  0.3827817E+03  0.7957747E-01  0.3439135E+00
         13   -1    0    0    0    0  0.00000000000E+00  0.00000000000E+00  0.14999999963E+04  0.15000000000E+04  0.10566000000E+00 0. -1.
        994   -1    0    0    0    0 -0.00000000000E+00 -0.00000000000E+00  0.11368683772E-12  0.17120000000E+03  0.17120000000E+03 0.  0.
         13    1    1    2    0    0  0.43148920384E+01  0.11733359697E+02  0.27081584217E+02  0.29828063813E+02  0.10566000000E+00 0. -1.
        994    1    1    2    0    0 -0.67356119633E+01 -0.12577563009E+02  0.34100690421E+01  0.17182733232E+03  0.17120000000E+03 0.  0.
        998    1    1    2    0    0  0.24207199249E+01  0.84420331193E+00  0.14695083430E+04  0.14695446039E+04  0.10000000000E+02 0. -1.
</event>
<event>
 5    1  0.1440459E-008  0.3786812E+03  0.7957747E-01  0.3456921E+00
         13   -1    0    0    0    0  0.00000000000E+00  0.00000000000E+00  0.14999999963E+04  0.15000000000E+04  0.10566000000E+00 0.  1.
        994   -1    0    0    0    0 -0.00000000000E+00 -0.00000000000E+00  0.11368683772E-12  0.17120000000E+03  0.17120000000E+03 0.  0.
         13    1    1    2    0    0 -0.63149626935E+00 -0.42552269984E+02  0.17152014570E+03  0.17672087034E+03  0.10566000000E+00 0.  1.
        994    1    1    2    0    0 -0.13638851451E+02  0.38942234837E+02  0.10537989412E+02  0.17641713393E+03  0.17120000000E+03 0.  0.
        998    1    1    2    0    0  0.14270347720E+02  0.36100351465E+01  0.13179418612E+04  0.13180619957E+04  0.10000000000E+02 0.  1.
</event>
<event>
 5    1  0.1440459E-008  0.3687043E+03  0.7957747E-01  0.3501867E+00
         13   -1    0    0    0    0  0.00000000000E+00  0.00000000000E+00  0.14999999963E+04  0.15000000000E+04  0.10566000000E+00 0. -1.
        994   -1    0    0    0    0 -0.00000000000E+00 -0.00000000000E+00  0.11368683772E-12  0.17120000000E+03  0.17120000000E+03 0.  0.
         13    1    1    2    0    0 -0.91262120571E+01  0.30429604331E+02  0.45272036457E+02  0.55306572984E+02  0.10566000000E+00 0. -1.
        994    1    1    2    0    0  0.96109397290E+01 -0.32587076621E+02  0.13967534306E+02  0.17509660117E+03  0.17120000000E+03 0.  0.
        998    1    1    2    0    0 -0.48472767189E+00  0.21574722900E+01  0.14407604255E+04  0.14407968259E+04  0.10000000000E+02 0. -1.
</event>
<event>
 5    1  0.1440459E-008  0.3853018E+03  0.7957747E-01  0.3428393E+00
         13   -1    0    0    0    0  0.00000000000E+00  0.00000000000E+00  0.14999999963E+04  0.15000000000E+04  0.10566000000E+00 0.  1.
        994   -1    0    0    0    0 -0.00000000000E+00 -0.00000000000E+00  0.11368683772E-12  0.17120000000E+03  0.17120000000E+03 0.  0.
         13    1    1    2    0    0 -0.12482697872E+02 -0.14205125215E+02  0.11199978724E+03  0.11358506431E+03  0.10566000000E+00 0.  1.
        994    1    1    2    0    0  0.11286558706E+02  0.18111014262E+02  0.29779799580E+01  0.17255058276E+03  0.17120000000E+03 0.  0.
        998    1    1    2    0    0  0.11961391661E+01 -0.39058890473E+01  0.13850222291E+04  0.13850643529E+04  0.10000000000E+02 0.  1.
</event>
<event>
 5    1  0.1440459E-008  0.3787489E+03  0.7957747E-01  0.3456624E+00
         13   -1    0    0    0    0  0.00000000000E+00  0.00000000000E+00  0.14999999963E+04  0.15000000000E+04  0.10566000000E+00 0. -1.
        994   -1    0    0    0    0 -0.00000000000E+00 -0.00000000000E+00  0.11368683772E-12  0.17120000000E+03  0.17120000000E+03 0.  0.
         13    1    1    2    0    0  0.11760005621E+02 -0.10302362279E+02  0.27151245264E+02  0.31331097717E+02  0.10566000000E+00 0. -1.
        994    1    1    2    0    0 -0.47613079416E+01 -0.64127319000E+02  0.18773970039E+02  0.18383929136E+03  0.17120000000E+03 0.  0.
        998    1    1    2    0    0 -0.69986976796E+01  0.74429681279E+02  0.14540747810E+04  0.14560296109E+04  0.10000000000E+02 0. -1.
</event>
<event>
 5    1  0.1440459E-008  0.3845111E+03  0.7957747E-01  0.3431748E+00
         13   -1    0    0    0    0  0.00000000000E+00  0.00000000000E+00  0.14999999963E+04  0.15000000000E+04  0.10566000000E+00 0.  1.
        994   -1    0    0    0    0 -0.00000000000E+00 -0.00000000000E+00  0.11368683772E-12  0.17120000000E+03  0.17120000000E+03 0.  0.
         13    1    1    2    0    0 -0.14529103777E+02  0.14315242451E+02  0.10737398242E+03  0.10929411827E+03  0.10566000000E+00 0.  1.
        994    1    1    2    0    0  0.22115581827E+01 -0.22430490529E+02  0.35482143523E+01  0.17271377397E+03  0.17120000000E+03 0.  0.
        998    1    1    2    0    0  0.12317545594E+02  0.81152480785E+01  0.13890777995E+04  0.13891921078E+04  0.10000000000E+02 0.  1.
</event>
<event>
 5    1  0.1440459E-008  0.3740360E+03  0.7957747E-01  0.3477545E+00
         13   -1    0    0    0    0  0.00000000000E+00  0.00000000000E+00  0.14999999963E+04  0.15000000000E+04  0.10566000000E+00 0.  1.
        994   -1    0    0    0    0 -0.00000000000E+00 -0.00000000000E+00  0.11368683772E-12  0.17120000000E+03  0.17120000000E+03 0.  0.
         13    1    1    2    0    0 -0.85306644988E+01  0.15351461267E+02  0.18098524886E+02  0.25219186484E+02  0.10566000000E+00 0.  1.
        994    1    1    2    0    0  0.94301924581E+01 -0.16936682734E+02  0.84571481609E+01  0.17250142929E+03  0.17120000000E+03 0.  0.
        998    1    1    2    0    0 -0.89952795927E+00  0.15852214676E+01  0.14734443232E+04  0.14734793842E+04  0.10000000000E+02 0.  1.
</event>
<event>
 5    1  0.1440459E-008  0.3917334E+03  0.7957747E-01  0.3401608E+00
         13   -1    0    0    0    0  0.00000000000E+00  0.00000000000E+00  0.14999999963E+04  0.15000000000E+04  0.10566000000E+00 0.  1.
        994   -1    0    0    0    0 -0.00000000000E+00 -0.00000000000E+00  0.11368683772E-12  0.17120000000E+03  0.17120000000E+03 0.  0.
         13    1    1    2    0    0 -0.16844390444E+02  0.60324340700E+02  0.72787154412E+02  0.96024687356E+02  0.10566000000E+00 0.  1.
        994    1    1    2    0    0  0.95546385363E+00 -0.71463195270E+02  0.42544496067E+02  0.19033490309E+03  0.17120000000E+03 0.  0.
        998    1    1    2    0    0  0.15888926590E+02  0.11138854570E+02  0.13846683458E+04  0.13848404096E+04  0.10000000000E+02 0.  1.
</event>
<event>
 5    1  0.1440459E-008  0.3860773E+03  0.7957747E-01  0.3425116E+00
         13   -1    0    0    0    0  0.00000000000E+00  0.00000000000E+00  0.14999999963E+04  0.15000000000E+04  0.10566000000E+00 0.  1.
        994   -1    0    0    0    0 -0.00000000000E+00 -0.00000000000E+00  0.11368683772E-12  0.17120000000E+03  0.17120000000E+03 0.  0.
         13    1    1    2    0    0  0.56672970587E+01  0.13477820058E+02  0.87260608623E+02  0.88477086700E+02  0.10566000000E+00 0.  1.
        994    1    1    2    0    0 -0.13971037166E+02 -0.19856124313E+02  0.30303492063E+01  0.17293952286E+03  0.17120000000E+03 0.  0.
        998    1    1    2    0    0  0.83037401077E+01  0.63783042550E+01  0.14097090384E+04  0.14097833904E+04  0.10000000000E+02 0.  1.
</event>
<event>
 5    1  0.1440459E-008  0.3857269E+03  0.7957747E-01  0.3426595E+00
         13   -1    0    0    0    0  0.00000000000E+00  0.00000000000E+00  0.14999999963E+04  0.15000000000E+04  0.10566000000E+00 0.  1.
        994   -1    0    0    0    0 -0.00000000000E+00 -0.00000000000E+00  0.11368683772E-12  0.17120000000E+03  0.17120000000E+03 0.  0.
         13    1    1    2    0    0  0.12114682834E+02  0.70128709971E+01  0.76551963518E+02  0.77821335007E+02  0.10566000000E+00 0.  1.
        994    1    1    2    0    0 -0.10273754224E+02 -0.46472807787E+01  0.16869270605E+01  0.17157923233E+03  0.17120000000E+03 0.  0.
        998    1    1    2    0    0 -0.18409286096E+01 -0.23655902184E+01  0.14217611057E+04  0.14217994327E+04  0.10000000000E+02 0.  1.
</event>
<event>
 5    1  0.1440459E-008  0.3703598E+03  0.7957747E-01  0.3494239E+00
         13   -1    0    0    0    0  0.00000000000E+00  0.00000000000E+00  0.14999999963E+04  0.15000000000E+04  0.10566000000E+00 0.  1.
        994   -1    0    0    0    0 -0.00000000000E+00 -0.00000000000E+00  0.11368683772E-12  0.17120000000E+03  0.17120000000E+03 0.  0.
         13    1    1    2    0    0 -0.34895067085E+02  0.61978977451E+01  0.51607224742E+02  0.62605083284E+02  0.10566000000E+00 0.  1.
        994    1    1    2    0    0  0.26929248392E+02 -0.90145250041E+01  0.13957252181E+02  0.17409965815E+03  0.17120000000E+03 0.  0.
        998    1    1    2    0    0  0.79658186928E+01  0.28166272590E+01  0.14344355194E+04  0.14344952586E+04  0.10000000000E+02 0.  1.
</event>
<event>
 5    1  0.1440459E-008  0.3789667E+03  0.7957747E-01  0.3455670E+00
         13   -1    0    0    0    0  0.00000000000E+00  0.00000000000E+00  0.14999999963E+04  0.15000000000E+04  0.10566000000E+00 0.  1.
        994   -1    0    0    0    0 -0.00000000000E+00 -0.00000000000E+00  0.11368683772E-12  0.17120000000E+03  0.17120000000E+03 0.  0.
         13    1    1    2    0    0  0.46034244135E+02 -0.22408904723E+02  0.23118120183E+03  0.23678274829E+03  0.10566000000E+00 0.  1.
        994    1    1    2    0    0 -0.42878628805E+02  0.38993649786E+02  0.16006960943E+02  0.18145176861E+03  0.17120000000E+03 0.  0.
        998    1    1    2    0    0 -0.31556153295E+01 -0.16584745063E+02  0.12528118335E+04  0.12529654831E+04  0.10000000000E+02 0.  1.
</event>
<event>
 5    1  0.1440459E-008  0.3837096E+03  0.7957747E-01  0.3435163E+00
         13   -1    0    0    0    0  0.00000000000E+00  0.00000000000E+00  0.14999999963E+04  0.15000000000E+04  0.10566000000E+00 0.  1.
        994   -1    0    0    0    0 -0.00000000000E+00 -0.00000000000E+00  0.11368683772E-12  0.17120000000E+03  0.17120000000E+03 0.  0.
         13    1    1    2    0    0 -0.71545196959E+00 -0.20744166965E+02  0.99360656081E+02  0.10150558347E+03  0.10566000000E+00 0.  1.
        994    1    1    2    0    0  0.15898921330E+01  0.52197374879E+01  0.23704659055E+01  0.17130333483E+03  0.17120000000E+03 0.  0.
        998    1    1    2    0    0 -0.87444016342E+00  0.15524429477E+02  0.13982688743E+04  0.13983910817E+04  0.10000000000E+02 0.  1.
</event>
<event>
 5    1  0.1440459E-008  0.3741616E+03  0.7957747E-01  0.3476981E+00
         13   -1    0    0    0    0  0.00000000000E+00  0.00000000000E+00  0.14999999963E+04  0.15000000000E+04  0.10566000000E+00 0. -1.
        994   -1    0    0    0    0 -0.00000000000E+00 -0.00000000000E+00  0.11368683772E-12  0.17120000000E+03  0.17120000000E+03 0.  0.
         13    1    1    2    0    0  0.89696633059E+01 -0.21397853648E+02  0.34940836938E+02  0.41942773520E+02  0.10566000000E+00 0. -1.
        994    1    1    2    0    0 -0.92639330946E+01  0.13614440020E+02  0.80347996414E+01  0.17217773212E+03  0.17120000000E+03 0.  0.
        998    1    1    2    0    0  0.29426978878E+00  0.77834136276E+01  0.14570243597E+04  0.14570794944E+04  0.10000000000E+02 0. -1.
</event>
<event>
 5    1  0.1440459E-008  0.3766810E+03  0.7957747E-01  0.3465739E+00
         13   -1    0    0    0    0  0.00000000000E+00  0.00000000000E+00  0.14999999963E+04  0.15000000000E+04  0.10566000000E+00 0. -1.
        994   -1    0    0    0    0 -0.00000000000E+00 -0.00000000000E+00  0.11368683772E-12  0.17120000000E+03  0.17120000000E+03 0.  0.
         13    1    1    2    0    0 -0.84418650870E+01  0.40523719180E+02  0.15843206652E+03  0.16375032143E+03  0.10566000000E+00 0. -1.
        994    1    1    2    0    0  0.14965891030E+02 -0.62907621169E+01  0.67093480116E+01  0.17209882897E+03  0.17120000000E+03 0.  0.
        998    1    1    2    0    0 -0.65240259427E+01 -0.34232957064E+02  0.13348585817E+04  0.13353508496E+04  0.10000000000E+02 0. -1.
</event>
<event>
 5    1  0.1440459E-008  0.3848489E+03  0.7957747E-01  0.3430313E+00
         13   -1    0    0    0    0  0.00000000000E+00  0.00000000000E+00  0.14999999963E+04  0.15000000000E+04  0.10566000000E+00 0. -1.
        994   -1    0    0    0    0 -0.00000000000E+00 -0.00000000000E+00  0.11368683772E-12  0.17120000000E+03  0.17120000000E+03 0.  0.
         13    1    1    2    0    0 -0.15405808292E+02 -0.94479239456E+00  0.70599933227E+02  0.72267512048E+02  0.10566000000E+00 0. -1.
        994    1    1    2    0    0  0.85238862564E+01 -0.24108605404E+01  0.19633987161E+01  0.17144026312E+03  0.17120000000E+03 0.  0.
        998    1    1    2    0    0  0.68819220360E+01  0.33556529349E+01  0.14274366643E+04  0.14274922248E+04  0.10000000000E+02 0. -1.
</event>
<event>
 5    1  0.1440459E-008  0.3802323E+03  0.7957747E-01  0.3450148E+00
         13   -1    0    0    0    0  0.00000000000E+00  0.00000000000E+00  0.14999999963E+04  0.15000000000E+04  0.10566000000E+00 0. -1.
        994   -1    0    0    0    0 -0.00000000000E+00 -0.00000000000E+00  0.11368683772E-12  0.17120000000E+03  0.17120000000E+03 0.  0.
         13    1    1    2    0    0  0.31576441578E+02 -0.30325681231E+02  0.22148627325E+03  0.22577178524E+03  0.10566000000E+00 0. -1.
        994    1    1    2    0    0 -0.22549562465E+02  0.25487321082E+02  0.78940424748E+01  0.17472790908E+03  0.17120000000E+03 0.  0.
        998    1    1    2    0    0 -0.90268791139E+01  0.48383601486E+01  0.12706196806E+04  0.12707003057E+04  0.10000000000E+02 0.  0.
</event>
<event>
 5    1  0.1440459E-008  0.3814108E+03  0.7957747E-01  0.3445038E+00
         13   -1    0    0    0    0  0.00000000000E+00  0.00000000000E+00  0.14999999963E+04  0.15000000000E+04  0.10566000000E+00 0. -1.
        994   -1    0    0    0    0 -0.00000000000E+00 -0.00000000000E+00  0.11368683772E-12  0.17120000000E+03  0.17120000000E+03 0.  0.
         13    1    1    2    0    0 -0.55046329479E+01  0.24506347645E+02  0.86607388354E+02  0.90176010892E+02  0.10566000000E+00 0. -1.
        994    1    1    2    0    0  0.66399687877E+01 -0.24273836772E+02  0.55327705321E+01  0.17312816029E+03  0.17120000000E+03 0.  0.
        998    1    1    2    0    0 -0.11353358398E+01 -0.23251087280E+00  0.14078598374E+04  0.14078958288E+04  0.10000000000E+02 0.  0.
</event>
<event>
 5    1  0.1440459E-008  0.3838503E+03  0.7957747E-01  0.3434563E+00
         13   -1    0    0    0    0  0.00000000000E+00  0.00000000000E+00  0.14999999963E+04  0.15000000000E+04  0.10566000000E+00 0.  1.
        994   -1    0    0    0    0 -0.00000000000E+00 -0.00000000000E+00  0.11368683772E-12  0.17120000000E+03  0.17120000000E+03 0.  0.
         13    1    1    2    0    0  0.57320440149E+01 -0.17858406856E+02  0.78830102223E+02  0.81030705320E+02  0.10566000000E+00 0.  1.
        994    1    1    2    0    0 -0.32112353086E+01  0.12827832465E+02  0.27794499454E+01  0.17173243916E+03  0.17120000000E+03 0.  0.
        998    1    1    2    0    0 -0.25208087063E+01  0.50305743916E+01  0.14183904441E+04  0.14184368555E+04  0.10000000000E+02 0.  1.
</event>
<event>
 5    1  0.1440459E-008  0.3781129E+03  0.7957747E-01  0.3459417E+00
         13   -1    0    0    0    0  0.00000000000E+00  0.00000000000E+00  0.14999999963E+04  0.15000000000E+04  0.10566000000E+00 0. -1.
        994   -1    0    0    0    0 -0.00000000000E+00 -0.00000000000E+00  0.11368683772E-12  0.17120000000E+03  0.17120000000E+03 0.  0.
         13    1    1    2    0    0 -0.14000346169E+02 -0.24168552633E+01  0.17946956074E+02  0.22890069431E+02  0.10566000000E+00 0. -1.
        994    1    1    2    0    0  0.42046186132E+01 -0.48713453155E+01  0.52280814168E+01  0.17140064661E+03  0.17120000000E+03 0.  0.
        998    1    1    2    0    0  0.97957275557E+01  0.72882005788E+01  0.14768249588E+04  0.14769092840E+04  0.10000000000E+02 0. -1.
</event>
<event>
 5    1  0.1440459E-008  0.3817525E+03  0.7957747E-01  0.3443563E+00
         13   -1    0    0    0    0  0.00000000000E+00  0.00000000000E+00  0.14999999963E+04  0.15000000000E+04  0.10566000000E+00 0.  1.
        994   -1    0    0    0    0 -0.00000000000E+00 -0.00000000000E+00  0.11368683772E-12  0.17120000000E+03  0.17120000000E+03 0.  0.
         13    1    1    2    0    0 -0.35775501781E+02 -0.10471429801E+02  0.22086449642E+03  0.22398811199E+03  0.10566000000E+00 0.  1.
        994    1    1    2    0    0  0.14537638752E+02  0.11906585303E+02  0.44255888344E+01  0.17228504158E+03  0.17120000000E+03 0.  0.
        998    1    1    2    0    0  0.21237863030E+02 -0.14351555018E+01  0.12747099110E+04  0.12749268464E+04  0.10000000000E+02 0.  1.
</event>
<event>
 5    1  0.1440459E-008  0.3706316E+03  0.7957747E-01  0.3492993E+00
         13   -1    0    0    0    0  0.00000000000E+00  0.00000000000E+00  0.14999999963E+04  0.15000000000E+04  0.10566000000E+00 0. -1.
        994   -1    0    0    0    0 -0.00000000000E+00 -0.00000000000E+00  0.11368683772E-12  0.17120000000E+03  0.17120000000E+03 0.  0.
         13    1    1    2    0    0  0.56032696567E+02  0.57928313595E+00  0.12839478717E+03  0.14009008241E+03  0.10566000000E+00 0. -1.
        994    1    1    2    0    0 -0.48680311792E+02  0.10732624348E+02  0.20031067637E+02  0.17943145112E+03  0.17120000000E+03 0.  0.
        998    1    1    2    0    0 -0.73523847756E+01 -0.11311907484E+02  0.13515741415E+04  0.13516784665E+04  0.10000000000E+02 0. -1.
</event>
<event>
 5    1  0.1440459E-008  0.3850634E+03  0.7957747E-01  0.3429403E+00
         13   -1    0    0    0    0  0.00000000000E+00  0.00000000000E+00  0.14999999963E+04  0.15000000000E+04  0.10566000000E+00 0. -1.
        994   -1    0    0    0    0 -0.00000000000E+00 -0.00000000000E+00  0.11368683772E-12  0.17120000000E+03  0.17120000000E+03 0.  0.
         13    1    1    2    0    0 -0.88172624236E+01 -0.98748134896E+01  0.55181649567E+02  0.56747525682E+02  0.10566000000E+00 0. -1.
        994    1    1    2    0    0  0.31570516216E+01  0.75132939353E+01  0.18170505198E+01  0.17140349539E+03  0.17120000000E+03 0.  0.
        998    1    1    2    0    0  0.56602108020E+01  0.23615195543E+01  0.14430012962E+04  0.14430489789E+04  0.10000000000E+02 0. -1.
</event>
<event>
 5    1  0.1440459E-008  0.3808300E+03  0.7957747E-01  0.3447552E+00
         13   -1    0    0    0    0  0.00000000000E+00  0.00000000000E+00  0.14999999963E+04  0.15000000000E+04  0.10566000000E+00 0. -1.
        994   -1    0    0    0    0 -0.00000000000E+00 -0.00000000000E+00  0.11368683772E-12  0.17120000000E+03  0.17120000000E+03 0.  0.
         13    1    1    2    0    0 -0.34401922815E+02  0.10024321024E+02  0.18718855840E+03  0.19058737331E+03  0.10566000000E+00 0. -1.
        994    1    1    2    0    0  0.56780447577E+01 -0.14908617225E+02  0.45636789333E+01  0.17200225064E+03  0.17120000000E+03 0.  0.
        998    1    1    2    0    0  0.28723878057E+02  0.48842962015E+01  0.13082477589E+04  0.13086103760E+04  0.10000000000E+02 0. -1.
</event>
<event>
 5    1  0.1440459E-008  0.3836172E+03  0.7957747E-01  0.3435558E+00
         13   -1    0    0    0    0  0.00000000000E+00  0.00000000000E+00  0.14999999963E+04  0.15000000000E+04  0.10566000000E+00 0. -1.
        994   -1    0    0    0    0 -0.00000000000E+00 -0.00000000000E+00  0.11368683772E-12  0.17120000000E+03  0.17120000000E+03 0.  0.
         13    1    1    2    0    0 -0.58888928933E+01 -0.16349567337E+02  0.66808076414E+02  0.69031280227E+02  0.10566000000E+00 0. -1.
        994    1    1    2    0    0 -0.16169791095E+01  0.59695279084E+01  0.24446016355E+01  0.17132911592E+03  0.17120000000E+03 0.  0.
        998    1    1    2    0    0  0.75058720028E+01  0.10380039429E+02  0.14307473182E+04  0.14308396039E+04  0.10000000000E+02 0. -1.
</event>
<event>
 5    1  0.1440459E-008  0.3849825E+03  0.7957747E-01  0.3429746E+00
         13   -1    0    0    0    0  0.00000000000E+00  0.00000000000E+00  0.14999999963E+04  0.15000000000E+04  0.10566000000E+00 0. -1.
        994   -1    0    0    0    0 -0.00000000000E+00 -0.00000000000E+00  0.11368683772E-12  0.17120000000E+03  0.17120000000E+03 0.  0.
         13    1    1    2    0    0 -0.10997739143E+02 -0.22668727958E+01  0.39480650036E+02  0.41046581707E+02  0.10566000000E+00 0. -1.
        994    1    1    2    0    0  0.64557791993E+00  0.49629717244E+01  0.17212102618E+01  0.17128178661E+03  0.17120000000E+03 0.  0.
        998    1    1    2    0    0  0.10352161223E+02 -0.26960989287E+01  0.14587981360E+04  0.14588716317E+04  0.10000000000E+02 0. -1.
</event>
<event>
 5    1  0.1440459E-008  0.3797645E+03  0.7957747E-01  0.3452185E+00
         13   -1    0    0    0    0  0.00000000000E+00  0.00000000000E+00  0.14999999963E+04  0.15000000000E+04  0.10566000000E+00 0.  1.
        994   -1    0    0    0    0 -0.00000000000E+00 -0.00000000000E+00  0.11368683772E-12  0.17120000000E+03  0.17120000000E+03 0.  0.
         13    1    1    2    0    0  0.14631782620E+02  0.12937897853E+02  0.43938199654E+02  0.48083831133E+02  0.10566000000E+00 0.  1.
        994    1    1    2    0    0 -0.20112540286E+02  0.10056418444E+02  0.59455415010E+01  0.17277278516E+03  0.17120000000E+03 0.  0.
        998    1    1    2    0    0  0.54807576660E+01 -0.22994316298E+02  0.14501162551E+04  0.14503433837E+04  0.10000000000E+02 0.  1.
</event>
<event>
 5    1  0.1440459E-008  0.3841063E+03  0.7957747E-01  0.3433471E+00
         13   -1    0    0    0    0  0.00000000000E+00  0.00000000000E+00  0.14999999963E+04  0.15000000000E+04  0.10566000000E+00 0.  1.
        994   -1    0    0    0    0 -0.00000000000E+00 -0.00000000000E+00  0.11368683772E-12  0.17120000000E+03  0.17120000000E+03 0.  0.
         13    1    1    2    0    0 -0.29535793492E+02  0.37228802192E+02  0.26580563953E+03  0.27002036216E+03  0.10566000000E+00 0.  1.
        994    1    1    2    0    0  0.45244005478E+02 -0.87583768286E+02  0.34813165004E+02  0.20059744005E+03  0.17120000000E+03 0.  0.
        998    1    1    2    0    0 -0.15708211986E+02  0.50354966094E+02  0.11993811917E+04  0.12005821978E+04  0.10000000000E+02 0.  1.
</event>
<event>
 5    1  0.1440459E-008  0.3758477E+03  0.7957747E-01  0.3469440E+00
         13   -1    0    0    0    0  0.00000000000E+00  0.00000000000E+00  0.14999999963E+04  0.15000000000E+04  0.10566000000E+00 0.  1.
        994   -1    0    0    0    0 -0.00000000000E+00 -0.00000000000E+00  0.11368683772E-12  0.17120000000E+03  0.17120000000E+03 0.  0.
         13    1    1    2    0    0 -0.47940411222E+01  0.13675234338E+02  0.13545400194E+02  0.19836428483E+02  0.10566000000E+00 0.  1.
        994    1    1    2    0    0  0.46797091198E+01 -0.26339615728E+02  0.86736429889E+01  0.17349451610E+03  0.17120000000E+03 0.  0.
        998    1    1    2    0    0  0.11433200237E+00  0.12664381389E+02  0.14777809531E+04  0.14778690554E+04  0.10000000000E+02 0.  1.
</event>
<event>
 5    1  0.1440459E-008  0.3803384E+03  0.7957747E-01  0.3449686E+00
         13   -1    0    0    0    0  0.00000000000E+00  0.00000000000E+00  0.14999999963E+04  0.15000000000E+04  0.10566000000E+00 0. -1.
        994   -1    0    0    0    0 -0.00000000000E+00 -0.00000000000E+00  0.11368683772E-12  0.17120000000E+03  0.17120000000E+03 0.  0.
         13    1    1    2    0    0 -0.18797675694E+02  0.71140749334E+01  0.47872892721E+02  0.51920975484E+02  0.10566000000E+00 0. -1.
        994    1    1    2    0    0  0.20813053720E+02 -0.74884784971E+01  0.55978374141E+01  0.17271374091E+03  0.17120000000E+03 0.  0.
        998    1    1    2    0    0 -0.20153780261E+01  0.37440356367E+00  0.14465292661E+04  0.14465652836E+04  0.10000000000E+02 0. -1.
</event>
<event>
 5    1  0.1440459E-008  0.3812680E+03  0.7957747E-01  0.3445656E+00
         13   -1    0    0    0    0  0.00000000000E+00  0.00000000000E+00  0.14999999963E+04  0.15000000000E+04  0.10566000000E+00 0.  1.
        994   -1    0    0    0    0 -0.00000000000E+00 -0.00000000000E+00  0.11368683772E-12  0.17120000000E+03  0.17120000000E+03 0.  0.
         13    1    1    2    0    0  0.12975668796E+01  0.12186622418E+02  0.20631638413E+02  0.23997356384E+02  0.10566000000E+00 0.  1.
        994    1    1    2    0    0 -0.66750984251E+01  0.17263971851E+01  0.36526858640E+01  0.17137771004E+03  0.17120000000E+03 0.  0.
        998    1    1    2    0    0  0.53775315454E+01 -0.13913019603E+02  0.14757156720E+04  0.14758249336E+04  0.10000000000E+02 0.  1.
</event>
<event>
 5    1  0.1440459E-008  0.3813694E+03  0.7957747E-01  0.3445217E+00
         13   -1    0    0    0    0  0.00000000000E+00  0.00000000000E+00  0.14999999963E+04  0.15000000000E+04  0.10566000000E+00 0. -1.
        994   -1    0    0    0    0 -0.00000000000E+00 -0.00000000000E+00  0.11368683772E-12  0.17120000000E+03  0.17120000000E+03 0.  0.
         13    1    1    2    0    0  0.99646142403E+01  0.23295675670E+02  0.92921132080E+02  0.96313706153E+02  0.10566000000E+00 0. -1.
        994    1    1    2    0    0 -0.27548048102E+01 -0.13954404105E+02  0.41170114889E+01  0.17183918100E+03  0.17120000000E+03 0.  0.
        998    1    1    2    0    0 -0.72098094301E+01 -0.93412715651E+01  0.14029618527E+04  0.14030471128E+04  0.10000000000E+02 0. -1.
</event>
<event>
 5    1  0.1440459E-008  0.3838197E+03  0.7957747E-01  0.3434693E+00
         13   -1    0    0    0    0  0.00000000000E+00  0.00000000000E+00  0.14999999963E+04  0.15000000000E+04  0.10566000000E+00 0. -1.
        994   -1    0    0    0    0 -0.00000000000E+00 -0.00000000000E+00  0.11368683772E-12  0.17120000000E+03  0.17120000000E+03 0.  0.
         13    1    1    2    0    0  0.15168621798E+02 -0.45732642664E+01  0.55049399343E+02  0.57283936364E+02  0.10566000000E+00 0. -1.
        994    1    1    2    0    0 -0.10268750506E+02  0.15179086862E+02  0.33267722449E+01  0.17221021842E+03  0.17120000000E+03 0.  0.
        998    1    1    2    0    0 -0.48998712921E+01 -0.10605822595E+02  0.14416238247E+04  0.14417058452E+04  0.10000000000E+02 0. -1.
</event>
<event>
 5    1  0.1440459E-008  0.3858440E+03  0.7957747E-01  0.3426101E+00
         13   -1    0    0    0    0  0.00000000000E+00  0.00000000000E+00  0.14999999963E+04  0.15000000000E+04  0.10566000000E+00 0. -1.
        994   -1    0    0    0    0 -0.00000000000E+00 -0.00000000000E+00  0.11368683772E-12  0.17120000000E+03  0.17120000000E+03 0.  0.
         13    1    1    2    0    0  0.31749628919E+01  0.13713084701E+02  0.79754060903E+02  0.80986730246E+02  0.10566000000E+00 0. -1.
        994    1    1    2    0    0 -0.83628392547E+01 -0.11905092096E+02  0.19062094134E+01  0.17182765183E+03  0.17120000000E+03 0.  0.
        998    1    1    2    0    0  0.51878763628E+01 -0.18079926044E+01  0.14183397260E+04  0.14183856179E+04  0.10000000000E+02 0. -1.
</event>
<event>
 5    1  0.1440459E-008  0.3843178E+03  0.7957747E-01  0.3432571E+00
         13   -1    0    0    0    0  0.00000000000E+00  0.00000000000E+00  0.14999999963E+04  0.15000000000E+04  0.10566000000E+00 0. -1.
        994   -1    0    0    0    0 -0.00000000000E+00 -0.00000000000E+00  0.11368683772E-12  0.17120000000E+03  0.17120000000E+03 0.  0.
         13    1    1    2    0    0 -0.16829819379E+02 -0.18456185119E+02  0.13820165662E+03  0.14044067305E+03  0.10566000000E+00 0. -1.
        994    1    1    2    0    0  0.19823240837E+02  0.24393198828E+02  0.52323560868E+01  0.17414019231E+03  0.17120000000E+03 0.  0.
        998    1    1    2    0    0 -0.29934214580E+01 -0.59370137092E+01  0.13565659836E+04  0.13566191346E+04  0.10000000000E+02 0. -1.
</event>
<event>
 5    1  0.1440459E-008  0.3853831E+03  0.7957747E-01  0.3428049E+00
         13   -1    0    0    0    0  0.00000000000E+00  0.00000000000E+00  0.14999999963E+04  0.15000000000E+04  0.10566000000E+00 0. -1.
        994   -1    0    0    0    0 -0.00000000000E+00 -0.00000000000E+00  0.11368683772E-12  0.17120000000E+03  0.17120000000E+03 0.  0.
         13    1    1    2    0    0 -0.10629744576E+02  0.28079728673E+01  0.40360799831E+02  0.41831585058E+02  0.10566000000E+00 0. -1.
        994    1    1    2    0    0  0.14829761928E+02 -0.30398182746E+01  0.21931292728E+01  0.17188197157E+03  0.17120000000E+03 0.  0.
        998    1    1    2    0    0 -0.42000173521E+01  0.23184540735E+00  0.14574460672E+04  0.14574864434E+04  0.10000000000E+02 0. -1.
</event>
<event>
 5    1  0.1440459E-008  0.3847431E+03  0.7957747E-01  0.3430763E+00
         13   -1    0    0    0    0  0.00000000000E+00  0.00000000000E+00  0.14999999963E+04  0.15000000000E+04  0.10566000000E+00 0.  1.
        994   -1    0    0    0    0 -0.00000000000E+00 -0.00000000000E+00  0.11368683772E-12  0.17120000000E+03  0.17120000000E+03 0.  0.
         13    1    1    2    0    0 -0.10664299750E+02 -0.80398024080E+01  0.50939830981E+02  0.52661591851E+02  0.10566000000E+00 0.  1.
        994    1    1    2    0    0  0.81531780873E+01  0.17446126177E+01  0.19866039961E+01  0.17141442349E+03  0.17120000000E+03 0.  0.
        998    1    1    2    0    0  0.25111216630E+01  0.62951897903E+01  0.14470735613E+04  0.14471239847E+04  0.10000000000E+02 0.  1.
</event>
<event>
 5    1  0.1440459E-008  0.3734718E+03  0.7957747E-01  0.3480086E+00
         13   -1    0    0    0    0  0.00000000000E+00  0.00000000000E+00  0.14999999963E+04  0.15000000000E+04  0.10566000000E+00 0. -1.
        994   -1    0    0    0    0 -0.00000000000E+00 -0.00000000000E+00  0.11368683772E-12  0.17120000000E+03  0.17120000000E+03 0.  0.
         13    1    1    2    0    0  0.29262061021E+02  0.73516796979E-01  0.55534252043E+02  0.62772111116E+02  0.10566000000E+00 0. -1.
        994    1    1    2    0    0 -0.13141810015E+02  0.65913770726E+01  0.82044802738E+01  0.17202589026E+03  0.17120000000E+03 0.  0.
        998    1    1    2    0    0 -0.16120251006E+02 -0.66648938695E+01  0.14362612640E+04  0.14364019986E+04  0.10000000000E+02 0. -1.
</event>
<event>
 5    1  0.1440459E-008  0.3853303E+03  0.7957747E-01  0.3428273E+00
         13   -1    0    0    0    0  0.00000000000E+00  0.00000000000E+00  0.14999999963E+04  0.15000000000E+04  0.10566000000E+00 0. -1.
        994   -1    0    0    0    0 -0.00000000000E+00 -0.00000000000E+00  0.11368683772E-12  0.17120000000E+03  0.17120000000E+03 0.  0.
         13    1    1    2    0    0  0.10241913554E+02 -0.74815066150E+01  0.65989427360E+02  0.67197361717E+02  0.10566000000E+00 0. -1.
        994    1    1    2    0    0  0.28845134634E+02  0.11041218954E+02  0.46063820393E+01  0.17402473693E+03  0.17120000000E+03 0.  0.
        998    1    1    2    0    0 -0.39087048188E+02 -0.35597123387E+01  0.14294041869E+04  0.14299779014E+04  0.10000000000E+02 0. -1.
</event>
<event>
 5    1  0.1904688E-008  0.3860245E+03  0.7957747E-01  0.3425339E+00
         13   -1    0    0    0    0  0.00000000000E+00  0.00000000000E+00  0.14999999963E+04  0.15000000000E+04  0.10566000000E+00 0.  1.
        994   -1    0    0    0    0 -0.00000000000E+00 -0.00000000000E+00  0.11368683772E-12  0.17120000000E+03  0.17120000000E+03 0.  0.
         13    1    1    2    0    0 -0.73036851886E+01  0.80960594706E+01  0.53733097621E+02  0.54828340666E+02  0.10566000000E+00 0.  1.
        994    1    1    2    0    0  0.54495721334E+01 -0.45133748114E+01  0.12864670111E+01  0.17135099470E+03  0.17120000000E+03 0.  0.
        998    1    1    2    0    0  0.18541130552E+01 -0.35826846592E+01  0.14449804316E+04  0.14450206646E+04  0.10000000000E+02 0.  1.
</event>
<event>
 5    1  0.1440459E-008  0.3829407E+03  0.7957747E-01  0.3438453E+00
         13   -1    0    0    0    0  0.00000000000E+00  0.00000000000E+00  0.14999999963E+04  0.15000000000E+04  0.10566000000E+00 0. -1.
        994   -1    0    0    0    0 -0.00000000000E+00 -0.00000000000E+00  0.11368683772E-12  0.17120000000E+03  0.17120000000E+03 0.  0.
         13    1    1    2    0    0  0.19547815975E+02 -0.17895350576E+02  0.14667208418E+03  0.14904721441E+03  0.10566000000E+00 0. -1.
        994    1    1    2    0    0 -0.94145124754E+01 -0.71797408139E+01  0.31202719299E+01  0.17163728564E+03  0.17120000000E+03 0.  0.
        998    1    1    2    0    0 -0.10133303500E+02  0.25075091390E+02  0.13502076402E+04  0.13505155000E+04  0.10000000000E+02 0. -1.
</event>
<event>
 5    1  0.1440459E-008  0.3222147E+03  0.7957747E-01  0.3749170E+00
         13   -1    0    0    0    0  0.00000000000E+00  0.00000000000E+00  0.14999999963E+04  0.15000000000E+04  0.10566000000E+00 0. -1.
        994   -1    0    0    0    0 -0.00000000000E+00 -0.00000000000E+00  0.11368683772E-12  0.17120000000E+03  0.17120000000E+03 0.  0.
         13    1    1    2    0    0 -0.20957117183E+03 -0.13687936470E+03  0.22591814170E+03  0.33718697255E+03  0.10566000000E+00 0. -1.
        994    1    1    2    0    0  0.19480424072E+03  0.15092365934E+03  0.72738356037E+03  0.78684364842E+03  0.17120000000E+03 0.  0.
        998    1    1    2    0    0  0.14766931113E+02 -0.14044294635E+02  0.54669829420E+03  0.54716937903E+03  0.10000000000E+02 0.  1.
</event>
<event>
 5    1  0.1440459E-008  0.3759724E+03  0.7957747E-01  0.3468885E+00
         13   -1    0    0    0    0  0.00000000000E+00  0.00000000000E+00  0.14999999963E+04  0.15000000000E+04  0.10566000000E+00 0. -1.
        994   -1    0    0    0    0 -0.00000000000E+00 -0.00000000000E+00  0.11368683772E-12  0.17120000000E+03  0.17120000000E+03 0.  0.
         13    1    1    2    0    0  0.17392509027E+02  0.46570100811E+01  0.24323365201E+02  0.30262590304E+02  0.10566000000E+00 0. -1.
        994    1    1    2    0    0  0.99457743597E+00 -0.82489350786E+01  0.64141598575E+01  0.17152147259E+03  0.17120000000E+03 0.  0.
        998    1    1    2    0    0 -0.18387086463E+02  0.35919249975E+01  0.14692624712E+04  0.14694159371E+04  0.10000000000E+02 0. -1.
</event>
<event>
 5    1  0.1440459E-008  0.3826687E+03  0.7957747E-01  0.3439620E+00
         13   -1    0    0    0    0  0.00000000000E+00  0.00000000000E+00  0.14999999963E+04  0.15000000000E+04  0.10566000000E+00 0.  1.
        994   -1    0    0    0    0 -0.00000000000E+00 -0.00000000000E+00  0.11368683772E-12  0.17120000000E+03  0.17120000000E+03 0.  0.
         13    1    1    2    0    0 -0.86033679170E+01 -0.10903054464E+02  0.32476783369E+02  0.35322049179E+02  0.10566000000E+00 0.  1.
        994    1    1    2    0    0  0.16784827257E+02  0.10487587685E+02  0.40911531943E+01  0.17238879736E+03  0.17120000000E+03 0.  0.
        998    1    1    2    0    0 -0.81814593402E+01  0.41546677893E+00  0.14634320597E+04  0.14634891535E+04  0.10000000000E+02 0.  1.
</event>
<event>
 5    1  0.1440459E-008  0.3838403E+03  0.7957747E-01  0.3434606E+00
         13   -1    0    0    0    0  0.00000000000E+00  0.00000000000E+00  0.14999999963E+04  0.15000000000E+04  0.10566000000E+00 0.  1.
        994   -1    0    0    0    0 -0.00000000000E+00 -0.00000000000E+00  0.11368683772E-12  0.17120000000E+03  0.17120000000E+03 0.  0.
         13    1    1    2    0    0  0.77847122808E+01 -0.14979411985E+02  0.61073120739E+02  0.63363410337E+02  0.10566000000E+00 0.  1.
        994    1    1    2    0    0 -0.29498728584E+02  0.77331728289E+01  0.52829740114E+01  0.17397507512E+03  0.17120000000E+03 0.  0.
        998    1    1    2    0    0  0.21714016303E+02  0.72462391558E+01  0.14336439015E+04  0.14338615145E+04  0.10000000000E+02 0.  1.
</event>
<event>
 5    1  0.1440459E-008  0.3835984E+03  0.7957747E-01  0.3435639E+00
         13   -1    0    0    0    0  0.00000000000E+00  0.00000000000E+00  0.14999999963E+04  0.15000000000E+04  0.10566000000E+00 0.  1.
        994   -1    0    0    0    0 -0.00000000000E+00 -0.00000000000E+00  0.11368683772E-12  0.17120000000E+03  0.17120000000E+03 0.  0.
         13    1    1    2    0    0 -0.10534425004E+02 -0.60904040008E+00  0.21283561430E+02  0.23755971703E+02  0.10566000000E+00 0.  1.
        994    1    1    2    0    0  0.31783666763E+02  0.12798232151E+02  0.62157876455E+01  0.17470567316E+03  0.17120000000E+03 0.  0.
        998    1    1    2    0    0 -0.21249241759E+02 -0.12189191751E+02  0.14725006472E+04  0.14727383551E+04  0.10000000000E+02 0.  1.
</event>
<event>
 5    1  0.1440459E-008  0.3822926E+03  0.7957747E-01  0.3441236E+00
         13   -1    0    0    0    0  0.00000000000E+00  0.00000000000E+00  0.14999999963E+04  0.15000000000E+04  0.10566000000E+00 0. -1.
        994   -1    0    0    0    0 -0.00000000000E+00 -0.00000000000E+00  0.11368683772E-12  0.17120000000E+03  0.17120000000E+03 0.  0.
         13    1    1    2    0    0 -0.73517375199E+01  0.11855254486E+02  0.30821870510E+02  0.33831848445E+02  0.10566000000E+00 0. -1.
        994    1    1    2    0    0  0.32301464246E+01 -0.17339081963E+02  0.40130625662E+01  0.17215290378E+03  0.17120000000E+03 0.  0.
        998    1    1    2    0    0  0.41215910953E+01  0.54838274778E+01  0.14651650632E+04  0.14652152478E+04  0.10000000000E+02 0. -1.
</event>
<event>
 5    1  0.1440459E-008  0.3764226E+03  0.7957747E-01  0.3466885E+00
         13   -1    0    0    0    0  0.00000000000E+00  0.00000000000E+00  0.14999999963E+04  0.15000000000E+04  0.10566000000E+00 0.  1.
        994   -1    0    0    0    0 -0.00000000000E+00 -0.00000000000E+00  0.11368683772E-12  0.17120000000E+03  0.17120000000E+03 0.  0.
         13    1    1    2    0    0 -0.96261534194E+01 -0.49543039730E+01  0.74335342060E+01  0.13133032869E+02  0.10566000000E+00 0.  1.
        994    1    1    2    0    0 -0.81772071076E+01 -0.66771961511E+01  0.63271198894E+01  0.17164184837E+03  0.17120000000E+03 0.  0.
        998    1    1    2    0    0  0.17803360527E+02  0.11631500124E+02  0.14862393422E+04  0.14864251188E+04  0.10000000000E+02 0.  1.
</event>
<event>
 5    1  0.1440459E-008  0.3793918E+03  0.7957747E-01  0.3453811E+00
         13   -1    0    0    0    0  0.00000000000E+00  0.00000000000E+00  0.14999999963E+04  0.15000000000E+04  0.10566000000E+00 0. -1.
        994   -1    0    0    0    0 -0.00000000000E+00 -0.00000000000E+00  0.11368683772E-12  0.17120000000E+03  0.17120000000E+03 0.  0.
         13    1    1    2    0    0 -0.98214454497E+01 -0.10032592581E+02  0.20318113360E+02  0.24697177960E+02  0.10566000000E+00 0. -1.
        994    1    1    2    0    0  0.13017125575E+02  0.13965973862E+01  0.50147749263E+01  0.17177305962E+03  0.17120000000E+03 0.  0.
        998    1    1    2    0    0 -0.31956801253E+01  0.86359951949E+01  0.14746671080E+04  0.14747297624E+04  0.10000000000E+02 0. -1.
</event>
<event>
 5    1  0.1440459E-008  0.3844562E+03  0.7957747E-01  0.3431982E+00
         13   -1    0    0    0    0  0.00000000000E+00  0.00000000000E+00  0.14999999963E+04  0.15000000000E+04  0.10566000000E+00 0. -1.
        994   -1    0    0    0    0 -0.00000000000E+00 -0.00000000000E+00  0.11368683772E-12  0.17120000000E+03  0.17120000000E+03 0.  0.
         13    1    1    2    0    0 -0.12337925370E+02 -0.24568152095E+01  0.43605319849E+02  0.45383867471E+02  0.10566000000E+00 0. -1.
        994    1    1    2    0    0  0.27973094512E+00 -0.13984985897E+02  0.25452381612E+01  0.17178933703E+03  0.17120000000E+03 0.  0.
        998    1    1    2    0    0  0.12058194425E+02  0.16441801107E+02  0.14538494383E+04  0.14540267955E+04  0.10000000000E+02 0. -1.
</event>
<event>
 5    1  0.1440459E-008  0.3847266E+03  0.7957747E-01  0.3430833E+00
         13   -1    0    0    0    0  0.00000000000E+00  0.00000000000E+00  0.14999999963E+04  0.15000000000E+04  0.10566000000E+00 0.  1.
        994   -1    0    0    0    0 -0.00000000000E+00 -0.00000000000E+00  0.11368683772E-12  0.17120000000E+03  0.17120000000E+03 0.  0.
         13    1    1    2    0    0 -0.19779654230E+02 -0.50384219263E+01  0.10599995588E+03  0.10794731227E+03  0.10566000000E+00 0.  1.
        994    1    1    2    0    0  0.24285623189E+02  0.13110324821E+02  0.42770560538E+01  0.17346297968E+03  0.17120000000E+03 0.  0.
        998    1    1    2    0    0 -0.45059689586E+01 -0.80719028944E+01  0.13897229843E+04  0.13897897080E+04  0.10000000000E+02 0.  1.
</event>
<event>
 5    1  0.1440459E-008  0.3078006E+03  0.7957747E-01  0.3841857E+00
         13   -1    0    0    0    0  0.00000000000E+00  0.00000000000E+00  0.14999999963E+04  0.15000000000E+04  0.10566000000E+00 0. -1.
        994   -1    0    0    0    0 -0.00000000000E+00 -0.00000000000E+00  0.11368683772E-12  0.17120000000E+03  0.17120000000E+03 0.  0.
         13    1    1    2    0    0 -0.89752512242E+02 -0.10864318174E+03  0.82405343010E+03  0.83601610106E+03  0.10566000000E+00 0. -1.
        994    1    1    2    0    0  0.52693128228E+02  0.71111693354E+02  0.39819416105E+02  0.19679548926E+03  0.17120000000E+03 0.  0.
        998    1    1    2    0    0  0.37059384014E+02  0.37531488388E+02  0.63612715007E+03  0.63838840968E+03  0.10000000000E+02 0. -1.
</event>
<event>
 5    1  0.1440459E-008  0.3796885E+03  0.7957747E-01  0.3452516E+00
         13   -1    0    0    0    0  0.00000000000E+00  0.00000000000E+00  0.14999999963E+04  0.15000000000E+04  0.10566000000E+00 0.  1.
        994   -1    0    0    0    0 -0.00000000000E+00 -0.00000000000E+00  0.11368683772E-12  0.17120000000E+03  0.17120000000E+03 0.  0.
         13    1    1    2    0    0 -0.38316942957E+02 -0.13506905971E+02  0.16285142581E+03  0.16784285114E+03  0.10566000000E+00 0.  1.
        994    1    1    2    0    0  0.44385191311E+02  0.20620463505E+02  0.12347897002E+02  0.17848573972E+03  0.17120000000E+03 0.  0.
        998    1    1    2    0    0 -0.60682483542E+01 -0.71135575333E+01  0.13248006735E+04  0.13248714091E+04  0.10000000000E+02 0.  1.
</event>
<event>
 5    1  0.1440459E-008  0.3785599E+03  0.7957747E-01  0.3457453E+00
         13   -1    0    0    0    0  0.00000000000E+00  0.00000000000E+00  0.14999999963E+04  0.15000000000E+04  0.10566000000E+00 0.  1.
        994   -1    0    0    0    0 -0.00000000000E+00 -0.00000000000E+00  0.11368683772E-12  0.17120000000E+03  0.17120000000E+03 0.  0.
         13    1    1    2    0    0  0.21999277981E+02  0.11641227024E+02  0.65030512534E+02  0.69630920738E+02  0.10566000000E+00 0.  1.
        994    1    1    2    0    0 -0.62792416834E+01  0.45608894583E+01  0.50641836143E+01  0.17145062422E+03  0.17120000000E+03 0.  0.
        998    1    1    2    0    0 -0.15720036298E+02 -0.16202116482E+02  0.14299053001E+04  0.14301184550E+04  0.10000000000E+02 0.  1.
</event>
<event>
 5    1  0.1440459E-008  0.3712992E+03  0.7957747E-01  0.3489941E+00
         13   -1    0    0    0    0  0.00000000000E+00  0.00000000000E+00  0.14999999963E+04  0.15000000000E+04  0.10566000000E+00 0.  1.
        994   -1    0    0    0    0 -0.00000000000E+00 -0.00000000000E+00  0.11368683772E-12  0.17120000000E+03  0.17120000000E+03 0.  0.
         13    1    1    2    0    0  0.11942978426E+02  0.14188168364E+01  0.44214516437E+01  0.12814373710E+02  0.10566000000E+00 0.  1.
        994    1    1    2    0    0 -0.12006448762E+02 -0.24383016475E+00  0.90881522065E+01  0.17186113224E+03  0.17120000000E+03 0.  0.
        998    1    1    2    0    0  0.63470335559E-01 -0.11749866717E+01  0.14864903924E+04  0.14865244940E+04  0.10000000000E+02 0.  1.
</event>
<event>
 5    1  0.1440459E-008  0.3698886E+03  0.7957747E-01  0.3496403E+00
         13   -1    0    0    0    0  0.00000000000E+00  0.00000000000E+00  0.14999999963E+04  0.15000000000E+04  0.10566000000E+00 0. -1.
        994   -1    0    0    0    0 -0.00000000000E+00 -0.00000000000E+00  0.11368683772E-12  0.17120000000E+03  0.17120000000E+03 0.  0.
         13    1    1    2    0    0 -0.68030825831E+02 -0.49576987975E+01  0.28987035163E+03  0.29778785059E+03  0.10566000000E+00 0. -1.
        994    1    1    2    0    0 -0.10374487887E+02 -0.90396247186E+01  0.11541842536E+02  0.17213947526E+03  0.17120000000E+03 0.  0.
        998    1    1    2    0    0  0.78405313718E+02  0.13997323516E+02  0.11985878021E+04  0.12012726741E+04  0.10000000000E+02 0. -1.
</event>
<event>
 5    1  0.1440459E-008  0.3721217E+03  0.7957747E-01  0.3486196E+00
         13   -1    0    0    0    0  0.00000000000E+00  0.00000000000E+00  0.14999999963E+04  0.15000000000E+04  0.10566000000E+00 0.  1.
        994   -1    0    0    0    0 -0.00000000000E+00 -0.00000000000E+00  0.11368683772E-12  0.17120000000E+03  0.17120000000E+03 0.  0.
         13    1    1    2    0    0 -0.50528399338E+01  0.10070341296E+02  0.30205444740E+01  0.11665239739E+02  0.10566000000E+00 0.  1.
        994    1    1    2    0    0  0.52461973638E+02 -0.66267866974E+02  0.33098794223E+02  0.19377476371E+03  0.17120000000E+03 0.  0.
        998    1    1    2    0    0 -0.47409133705E+02  0.56197525678E+02  0.14638806576E+04  0.14657599966E+04  0.10000000000E+02 0.  1.
</event>
<event>
 5    1  0.1440459E-008  0.3838253E+03  0.7957747E-01  0.3434669E+00
         13   -1    0    0    0    0  0.00000000000E+00  0.00000000000E+00  0.14999999963E+04  0.15000000000E+04  0.10566000000E+00 0. -1.
        994   -1    0    0    0    0 -0.00000000000E+00 -0.00000000000E+00  0.11368683772E-12  0.17120000000E+03  0.17120000000E+03 0.  0.
         13    1    1    2    0    0 -0.25971632842E+02 -0.13182769735E+01  0.13195098257E+03  0.13448916883E+03  0.10566000000E+00 0. -1.
        994    1    1    2    0    0  0.34103597307E+02  0.68781027940E+01  0.62204134161E+01  0.17480988871E+03  0.17120000000E+03 0.  0.
        998    1    1    2    0    0 -0.81319644645E+01 -0.55598258206E+01  0.13618286003E+04  0.13619009425E+04  0.10000000000E+02 0. -1.
</event>
<event>
 5    1  0.1440459E-008  0.3738736E+03  0.7957747E-01  0.3478276E+00
         13   -1    0    0    0    0  0.00000000000E+00  0.00000000000E+00  0.14999999963E+04  0.15000000000E+04  0.10566000000E+00 0.  1.
        994   -1    0    0    0    0 -0.00000000000E+00 -0.00000000000E+00  0.11368683772E-12  0.17120000000E+03  0.17120000000E+03 0.  0.
         13    1    1    2    0    0  0.32926583137E+02  0.69894446185E+02  0.21475827698E+03  0.22823348172E+03  0.10566000000E+00 0.  1.
        994    1    1    2    0    0 -0.11715335124E+02 -0.57208214330E+02  0.25187717536E+02  0.18263047385E+03  0.17120000000E+03 0.  0.
        998    1    1    2    0    0 -0.21211248013E+02 -0.12686231855E+02  0.12600540018E+04  0.12603360444E+04  0.10000000000E+02 0.  1.
</event>
<event>
 5    1  0.1440459E-008  0.3781955E+03  0.7957747E-01  0.3459054E+00
         13   -1    0    0    0    0  0.00000000000E+00  0.00000000000E+00  0.14999999963E+04  0.15000000000E+04  0.10566000000E+00 0.  1.
        994   -1    0    0    0    0 -0.00000000000E+00 -0.00000000000E+00  0.11368683772E-12  0.17120000000E+03  0.17120000000E+03 0.  0.
         13    1    1    2    0    0  0.26418671365E+02 -0.10107440977E+02  0.71139900010E+02  0.76557188410E+02  0.10566000000E+00 0.  1.
        994    1    1    2    0    0 -0.26281457284E+02  0.40363623914E+02  0.12888728556E+02  0.17831291724E+03  0.17120000000E+03 0.  0.
        998    1    1    2    0    0 -0.13721408108E+00 -0.30256182938E+02  0.14159713677E+04  0.14163298943E+04  0.10000000000E+02 0.  1.
</event>
<event>
 5    1  0.1440459E-008  0.3851944E+03  0.7957747E-01  0.3428848E+00
         13   -1    0    0    0    0  0.00000000000E+00  0.00000000000E+00  0.14999999963E+04  0.15000000000E+04  0.10566000000E+00 0.  1.
        994   -1    0    0    0    0 -0.00000000000E+00 -0.00000000000E+00  0.11368683772E-12  0.17120000000E+03  0.17120000000E+03 0.  0.
         13    1    1    2    0    0 -0.51296396308E+01  0.95906526885E+01  0.38265699283E+02  0.39781512382E+02  0.10566000000E+00 0.  1.
        994    1    1    2    0    0  0.14841461117E+01 -0.89903874404E+01  0.18065720543E+01  0.17145184006E+03  0.17120000000E+03 0.  0.
        998    1    1    2    0    0  0.36454935191E+01 -0.60026524808E+00  0.14599277249E+04  0.14599666476E+04  0.10000000000E+02 0.  1.
</event>
<event>
 5    1  0.1440459E-008  0.3835281E+03  0.7957747E-01  0.3435939E+00
         13   -1    0    0    0    0  0.00000000000E+00  0.00000000000E+00  0.14999999963E+04  0.15000000000E+04  0.10566000000E+00 0.  1.
        994   -1    0    0    0    0 -0.00000000000E+00 -0.00000000000E+00  0.11368683772E-12  0.17120000000E+03  0.17120000000E+03 0.  0.
         13    1    1    2    0    0 -0.66872867311E+01  0.93536307604E+01  0.27602751498E+02  0.29902061242E+02  0.10566000000E+00 0.  1.
        994    1    1    2    0    0  0.21081767227E+02  0.99110912912E+01  0.41579466189E+01  0.17282765739E+03  0.17120000000E+03 0.  0.
        998    1    1    2    0    0 -0.14394480496E+02 -0.19264722052E+02  0.14682392982E+04  0.14684702814E+04  0.10000000000E+02 0.  1.
</event>
<event>
 5    1  0.1440459E-008  0.3803461E+03  0.7957747E-01  0.3449653E+00
         13   -1    0    0    0    0  0.00000000000E+00  0.00000000000E+00  0.14999999963E+04  0.15000000000E+04  0.10566000000E+00 0.  1.
        994   -1    0    0    0    0 -0.00000000000E+00 -0.00000000000E+00  0.11368683772E-12  0.17120000000E+03  0.17120000000E+03 0.  0.
         13    1    1    2    0    0  0.47377740187E+02  0.34919952351E+02  0.35354588525E+03  0.35841143603E+03  0.10566000000E+00 0.  1.
        994    1    1    2    0    0 -0.44771190288E+02 -0.30429461073E+02  0.13806188696E+02  0.18008459797E+03  0.17120000000E+03 0.  0.
        998    1    1    2    0    0 -0.26065498989E+01 -0.44904912773E+01  0.11326479223E+04  0.11327039660E+04  0.10000000000E+02 0.  0.
</event>
<event>
 5    1  0.1440459E-008  0.3846928E+03  0.7957747E-01  0.3430976E+00
         13   -1    0    0    0    0  0.00000000000E+00  0.00000000000E+00  0.14999999963E+04  0.15000000000E+04  0.10566000000E+00 0. -1.
        994   -1    0    0    0    0 -0.00000000000E+00 -0.00000000000E+00  0.11368683772E-12  0.17120000000E+03  0.17120000000E+03 0.  0.
         13    1    1    2    0    0  0.86882775822E+01  0.62637142456E+01  0.31782193682E+02  0.33538623746E+02  0.10566000000E+00 0. -1.
        994    1    1    2    0    0 -0.49392956627E+01 -0.63630898309E+01  0.19963471296E+01  0.17140102379E+03  0.17120000000E+03 0.  0.
        998    1    1    2    0    0 -0.37489819194E+01  0.99375585265E-01  0.14662214555E+04  0.14662603525E+04  0.10000000000E+02 0. -1.
</event>
<event>
 5    1  0.1440459E-008  0.3750739E+03  0.7957747E-01  0.3472892E+00
         13   -1    0    0    0    0  0.00000000000E+00  0.00000000000E+00  0.14999999963E+04  0.15000000000E+04  0.10566000000E+00 0. -1.
        994   -1    0    0    0    0 -0.00000000000E+00 -0.00000000000E+00  0.11368683772E-12  0.17120000000E+03  0.17120000000E+03 0.  0.
         13    1    1    2    0    0 -0.38025879976E+02 -0.47445393402E+02  0.12179625919E+03  0.13612998501E+03  0.10566000000E+00 0. -1.
        994    1    1    2    0    0  0.37417490932E+02  0.45269203011E+02  0.26028523209E+02  0.18285593616E+03  0.17120000000E+03 0.  0.
        998    1    1    2    0    0  0.60838904415E+00  0.21761903917E+01  0.13521752139E+04  0.13522140788E+04  0.10000000000E+02 0.  0.
</event>
<event>
 5    1  0.1440459E-008  0.3845064E+03  0.7957747E-01  0.3431768E+00
         13   -1    0    0    0    0  0.00000000000E+00  0.00000000000E+00  0.14999999963E+04  0.15000000000E+04  0.10566000000E+00 0.  1.
        994   -1    0    0    0    0 -0.00000000000E+00 -0.00000000000E+00  0.11368683772E-12  0.17120000000E+03  0.17120000000E+03 0.  0.
         13    1    1    2    0    0  0.65618857095E+01 -0.81074556209E+01  0.28822775834E+02  0.30652124747E+02  0.10566000000E+00 0.  1.
        994    1    1    2    0    0 -0.32232345310E+01  0.37955277062E+01  0.19570788723E+01  0.17128358190E+03  0.17120000000E+03 0.  0.
        998    1    1    2    0    0 -0.33386511785E+01  0.43119279147E+01  0.14692201416E+04  0.14692642934E+04  0.10000000000E+02 0.  1.
</event>
<event>
 5    1  0.1440459E-008  0.3210515E+03  0.7957747E-01  0.3756321E+00
         13   -1    0    0    0    0  0.00000000000E+00  0.00000000000E+00  0.14999999963E+04  0.15000000000E+04  0.10566000000E+00 0.  1.
        994   -1    0    0    0    0 -0.00000000000E+00 -0.00000000000E+00  0.11368683772E-12  0.17120000000E+03  0.17120000000E+03 0.  0.
         13    1    1    2    0    0  0.26343188695E+02 -0.17255262135E+03  0.94383345439E+03  0.95983851325E+03  0.10566000000E+00 0.  1.
        994    1    1    2    0    0  0.98254779724E+02  0.19925241071E+03  0.23575142138E+03  0.36639281870E+03  0.17120000000E+03 0.  0.
        998    1    1    2    0    0 -0.12459796842E+03 -0.26699789366E+02  0.32041512051E+03  0.34496866805E+03  0.10000000000E+02 0. -1.
</event>
<event>
 5    1  0.1440459E-008  0.3835089E+03  0.7957747E-01  0.3436021E+00
         13   -1    0    0    0    0  0.00000000000E+00  0.00000000000E+00  0.14999999963E+04  0.15000000000E+04  0.10566000000E+00 0.  1.
        994   -1    0    0    0    0 -0.00000000000E+00 -0.00000000000E+00  0.11368683772E-12  0.17120000000E+03  0.17120000000E+03 0.  0.
         13    1    1    2    0    0 -0.11646718222E+02  0.69499001086E+01  0.36591927469E+02  0.39024703417E+02  0.10566000000E+00 0.  1.
        994    1    1    2    0    0  0.12624992661E+02 -0.15750494331E+02  0.37199433904E+01  0.17242606094E+03  0.17120000000E+03 0.  0.
        998    1    1    2    0    0 -0.97827443960E+00  0.88005942225E+01  0.14596881254E+04  0.14597492356E+04  0.10000000000E+02 0.  1.
</event>
<event>
 5    1  0.1440459E-008  0.3822498E+03  0.7957747E-01  0.3441421E+00
         13   -1    0    0    0    0  0.00000000000E+00  0.00000000000E+00  0.14999999963E+04  0.15000000000E+04  0.10566000000E+00 0. -1.
        994   -1    0    0    0    0 -0.00000000000E+00 -0.00000000000E+00  0.11368683772E-12  0.17120000000E+03  0.17120000000E+03 0.  0.
         13    1    1    2    0    0 -0.91603214406E+01  0.20902368902E+02  0.78032578114E+02  0.81301383296E+02  0.10566000000E+00 0. -1.
        994    1    1    2    0    0  0.10156295900E+02 -0.31177612308E+02  0.65777222806E+01  0.17443594895E+03  0.17120000000E+03 0.  0.
        998    1    1    2    0    0 -0.99597445925E+00  0.10275243406E+02  0.14153896959E+04  0.14154626678E+04  0.10000000000E+02 0. -1.
</event>
<event>
 5    1  0.1440459E-008  0.3742156E+03  0.7957747E-01  0.3476738E+00
         13   -1    0    0    0    0  0.00000000000E+00  0.00000000000E+00  0.14999999963E+04  0.15000000000E+04  0.10566000000E+00 0.  1.
        994   -1    0    0    0    0 -0.00000000000E+00 -0.00000000000E+00  0.11368683772E-12  0.17120000000E+03  0.17120000000E+03 0.  0.
         13    1    1    2    0    0  0.10523730443E+03 -0.58633251722E+02  0.51544601793E+03  0.52933671422E+03  0.10566000000E+00 0.  1.
        994    1    1    2    0    0 -0.78943975770E+02  0.19386132505E+02  0.37021265466E+02  0.19310097758E+03  0.17120000000E+03 0.  0.
        998    1    1    2    0    0 -0.26293328661E+02  0.39247119218E+02  0.94753271288E+03  0.94876230821E+03  0.10000000000E+02 0. -1.
</event>
<event>
 5    1  0.1440459E-008  0.3824330E+03  0.7957747E-01  0.3440633E+00
         13   -1    0    0    0    0  0.00000000000E+00  0.00000000000E+00  0.14999999963E+04  0.15000000000E+04  0.10566000000E+00 0.  1.
        994   -1    0    0    0    0 -0.00000000000E+00 -0.00000000000E+00  0.11368683772E-12  0.17120000000E+03  0.17120000000E+03 0.  0.
         13    1    1    2    0    0 -0.23188563942E+02  0.13090598578E+02  0.12640208694E+03  0.12917651495E+03  0.10566000000E+00 0.  1.
        994    1    1    2    0    0  0.64638635302E+01 -0.81308627470E+01  0.32678867523E+01  0.17154594587E+03  0.17120000000E+03 0.  0.
        998    1    1    2    0    0  0.16724700412E+02 -0.49597358313E+01  0.13703300226E+04  0.13704775392E+04  0.10000000000E+02 0.  1.
</event>
<event>
 5    1  0.1440459E-008  0.3776731E+03  0.7957747E-01  0.3461353E+00
         13   -1    0    0    0    0  0.00000000000E+00  0.00000000000E+00  0.14999999963E+04  0.15000000000E+04  0.10566000000E+00 0. -1.
        994   -1    0    0    0    0 -0.00000000000E+00 -0.00000000000E+00  0.11368683772E-12  0.17120000000E+03  0.17120000000E+03 0.  0.
         13    1    1    2    0    0 -0.33413730497E+01 -0.12679908674E+02  0.13700795960E+02  0.18964910541E+02  0.10566000000E+00 0. -1.
        994    1    1    2    0    0 -0.21215038203E+01  0.15064550672E+02  0.60924461741E+01  0.17198255541E+03  0.17120000000E+03 0.  0.
        998    1    1    2    0    0  0.54628768700E+01 -0.23846419985E+01  0.14802067541E+04  0.14802525340E+04  0.10000000000E+02 0. -1.
</event>
<event>
 5    1  0.1440459E-008  0.3830603E+03  0.7957747E-01  0.3437941E+00
         13   -1    0    0    0    0  0.00000000000E+00  0.00000000000E+00  0.14999999963E+04  0.15000000000E+04  0.10566000000E+00 0. -1.
        994   -1    0    0    0    0 -0.00000000000E+00 -0.00000000000E+00  0.11368683772E-12  0.17120000000E+03  0.17120000000E+03 0.  0.
         13    1    1    2    0    0  0.22200233427E+02  0.94954787746E+01  0.10503529263E+03  0.10777494302E+03  0.10566000000E+00 0. -1.
        994    1    1    2    0    0 -0.21842255965E+02 -0.10510990578E+02  0.45432046551E+01  0.17296718121E+03  0.17120000000E+03 0.  0.
        998    1    1    2    0    0 -0.35797746278E+00  0.10155118032E+01  0.13904214990E+04  0.13904578758E+04  0.10000000000E+02 0.  0.
</event>
<event>
 5    1  0.1440459E-008  0.3845721E+03  0.7957747E-01  0.3431489E+00
         13   -1    0    0    0    0  0.00000000000E+00  0.00000000000E+00  0.14999999963E+04  0.15000000000E+04  0.10566000000E+00 0. -1.
        994   -1    0    0    0    0 -0.00000000000E+00 -0.00000000000E+00  0.11368683772E-12  0.17120000000E+03  0.17120000000E+03 0.  0.
         13    1    1    2    0    0  0.19403798614E+02  0.15005491760E+02  0.14487039751E+03  0.14693234982E+03  0.10566000000E+00 0. -1.
        994    1    1    2    0    0 -0.34414582857E+02 -0.29518133489E+01  0.57816943872E+01  0.17474537106E+03  0.17120000000E+03 0.  0.
        998    1    1    2    0    0  0.15010784243E+02 -0.12053678411E+02  0.13493479044E+04  0.13495222791E+04  0.10000000000E+02 0. -1.
</event>
<event>
 5    1  0.1440459E-008  0.3766317E+03  0.7957747E-01  0.3465957E+00
         13   -1    0    0    0    0  0.00000000000E+00  0.00000000000E+00  0.14999999963E+04  0.15000000000E+04  0.10566000000E+00 0. -1.
        994   -1    0    0    0    0 -0.00000000000E+00 -0.00000000000E+00  0.11368683772E-12  0.17120000000E+03  0.17120000000E+03 0.  0.
         13    1    1    2    0    0  0.23557180904E+02  0.19853542189E+02  0.71577365097E+02  0.77925825423E+02  0.10566000000E+00 0. -1.
        994    1    1    2    0    0 -0.21636125586E+02 -0.44776802274E+02  0.14249852040E+02  0.17884513478E+03  0.17120000000E+03 0.  0.
        998    1    1    2    0    0 -0.19210553179E+01  0.24923260085E+02  0.14141727791E+04  0.14144290398E+04  0.10000000000E+02 0. -1.
</event>
<event>
 5    1  0.1440459E-008  0.3741893E+03  0.7957747E-01  0.3476857E+00
         13   -1    0    0    0    0  0.00000000000E+00  0.00000000000E+00  0.14999999963E+04  0.15000000000E+04  0.10566000000E+00 0. -1.
        994   -1    0    0    0    0 -0.00000000000E+00 -0.00000000000E+00  0.11368683772E-12  0.17120000000E+03  0.17120000000E+03 0.  0.
         13    1    1    2    0    0 -0.74704374225E+02  0.65996861545E+02  0.28987175032E+03  0.30653217133E+03  0.10566000000E+00 0. -1.
        994    1    1    2    0    0  0.75305822177E+02 -0.71967242743E+02  0.52742352793E+02  0.20722318080E+03  0.17120000000E+03 0.  0.
        998    1    1    2    0    0 -0.60144795230E+00  0.59703811984E+01  0.11573858932E+04  0.11574446479E+04  0.10000000000E+02 0.  1.
</event>
<event>
 5    1  0.1440459E-008  0.3768854E+03  0.7957747E-01  0.3464833E+00
         13   -1    0    0    0    0  0.00000000000E+00  0.00000000000E+00  0.14999999963E+04  0.15000000000E+04  0.10566000000E+00 0. -1.
        994   -1    0    0    0    0 -0.00000000000E+00 -0.00000000000E+00  0.11368683772E-12  0.17120000000E+03  0.17120000000E+03 0.  0.
         13    1    1    2    0    0 -0.19501234029E+02  0.26611810672E+01  0.30508226756E+02  0.36306240195E+02  0.10566000000E+00 0. -1.
        994    1    1    2    0    0  0.25632698106E+02 -0.78562648508E+00  0.79382580893E+01  0.17329197432E+03  0.17120000000E+03 0.  0.
        998    1    1    2    0    0 -0.61314640772E+01 -0.18755545821E+01  0.14615535114E+04  0.14616017855E+04  0.10000000000E+02 0. -1.
</event>
<event>
 5    1  0.1440459E-008  0.3839038E+03  0.7957747E-01  0.3434335E+00
         13   -1    0    0    0    0  0.00000000000E+00  0.00000000000E+00  0.14999999963E+04  0.15000000000E+04  0.10566000000E+00 0.  1.
        994   -1    0    0    0    0 -0.00000000000E+00 -0.00000000000E+00  0.11368683772E-12  0.17120000000E+03  0.17120000000E+03 0.  0.
         13    1    1    2    0    0  0.12500293894E+02 -0.38326464214E+01  0.39013952962E+02  0.41146642825E+02  0.10566000000E+00 0.  1.
        994    1    1    2    0    0 -0.55290129697E+01  0.64542408990E+01  0.24137896409E+01  0.17142780868E+03  0.17120000000E+03 0.  0.
        998    1    1    2    0    0 -0.69712809243E+01 -0.26215944777E+01  0.14585722537E+04  0.14586255485E+04  0.10000000000E+02 0.  1.
</event>
<event>
 5    1  0.1440459E-008  0.3790334E+03  0.7957747E-01  0.3455378E+00
         13   -1    0    0    0    0  0.00000000000E+00  0.00000000000E+00  0.14999999963E+04  0.15000000000E+04  0.10566000000E+00 0. -1.
        994   -1    0    0    0    0 -0.00000000000E+00 -0.00000000000E+00  0.11368683772E-12  0.17120000000E+03  0.17120000000E+03 0.  0.
         13    1    1    2    0    0 -0.12002160643E+02  0.85799917919E+01  0.21544031702E+02  0.26111771010E+02  0.10566000000E+00 0. -1.
        994    1    1    2    0    0  0.90294202049E+01 -0.71995228281E+01  0.50692340206E+01  0.17166391785E+03  0.17120000000E+03 0.  0.
        998    1    1    2    0    0  0.29727404378E+01 -0.13804689639E+01  0.14733867306E+04  0.14734243111E+04  0.10000000000E+02 0. -1.
</event>
<event>
 5    1  0.1440459E-008  0.3822202E+03  0.7957747E-01  0.3441548E+00
         13   -1    0    0    0    0  0.00000000000E+00  0.00000000000E+00  0.14999999963E+04  0.15000000000E+04  0.10566000000E+00 0. -1.
        994   -1    0    0    0    0 -0.00000000000E+00 -0.00000000000E+00  0.11368683772E-12  0.17120000000E+03  0.17120000000E+03 0.  0.
         13    1    1    2    0    0  0.22738412809E+02 -0.20859077492E+02  0.16989211081E+03  0.17267158715E+03  0.10566000000E+00 0. -1.
        994    1    1    2    0    0 -0.82733632608E+01  0.29881401957E+01  0.32734214757E+01  0.17145708737E+03  0.17120000000E+03 0.  0.
        998    1    1    2    0    0 -0.14465049548E+02  0.17870937296E+02  0.13268344640E+04  0.13270713255E+04  0.10000000000E+02 0. -1.
</event>
<event>
 5    1  0.1440459E-008  0.3849571E+03  0.7957747E-01  0.3429854E+00
         13   -1    0    0    0    0  0.00000000000E+00  0.00000000000E+00  0.14999999963E+04  0.15000000000E+04  0.10566000000E+00 0. -1.
        994   -1    0    0    0    0 -0.00000000000E+00 -0.00000000000E+00  0.11368683772E-12  0.17120000000E+03  0.17120000000E+03 0.  0.
         13    1    1    2    0    0  0.68119863212E+01 -0.10182920725E+02  0.48108468921E+02  0.49644042725E+02  0.10566000000E+00 0. -1.
        994    1    1    2    0    0  0.66026522638E+01  0.13791449784E+01  0.18011109717E+01  0.17134229209E+03  0.17120000000E+03 0.  0.
        998    1    1    2    0    0 -0.13414638585E+02  0.88037757469E+01  0.14500904164E+04  0.14502136652E+04  0.10000000000E+02 0. -1.
</event>
<event>
 5    1  0.1440459E-008  0.3828776E+03  0.7957747E-01  0.3438724E+00
         13   -1    0    0    0    0  0.00000000000E+00  0.00000000000E+00  0.14999999963E+04  0.15000000000E+04  0.10566000000E+00 0.  1.
        994   -1    0    0    0    0 -0.00000000000E+00 -0.00000000000E+00  0.11368683772E-12  0.17120000000E+03  0.17120000000E+03 0.  0.
         13    1    1    2    0    0 -0.56924447789E+01  0.23157278776E+02  0.10436604803E+03  0.10705581084E+03  0.10566000000E+00 0.  1.
        994    1    1    2    0    0  0.40246696611E+01 -0.15141621020E+02  0.35007952650E+01  0.17195104600E+03  0.17120000000E+03 0.  0.
        998    1    1    2    0    0  0.16677751178E+01 -0.80156577562E+01  0.13921331530E+04  0.13921931432E+04  0.10000000000E+02 0.  1.
</event>
<event>
 5    1  0.1440459E-008  0.3830353E+03  0.7957747E-01  0.3438048E+00
         13   -1    0    0    0    0  0.00000000000E+00  0.00000000000E+00  0.14999999963E+04  0.15000000000E+04  0.10566000000E+00 0.  1.
        994   -1    0    0    0    0 -0.00000000000E+00 -0.00000000000E+00  0.11368683772E-12  0.17120000000E+03  0.17120000000E+03 0.  0.
         13    1    1    2    0    0  0.54959212759E+02  0.43751562344E+01  0.27799356304E+03  0.28340799091E+03  0.10566000000E+00 0.  1.
        994    1    1    2    0    0 -0.11006882416E+03  0.12123474179E+02  0.44311592700E+02  0.20865062167E+03  0.17120000000E+03 0.  0.
        998    1    1    2    0    0  0.55109611396E+02 -0.16498630413E+02  0.11776948405E+04  0.11791413874E+04  0.10000000000E+02 0.  1.
</event>
<event>
 5    1  0.1440459E-008  0.3740673E+03  0.7957747E-01  0.3477405E+00
         13   -1    0    0    0    0  0.00000000000E+00  0.00000000000E+00  0.14999999963E+04  0.15000000000E+04  0.10566000000E+00 0.  1.
        994   -1    0    0    0    0 -0.00000000000E+00 -0.00000000000E+00  0.11368683772E-12  0.17120000000E+03  0.17120000000E+03 0.  0.
         13    1    1    2    0    0 -0.90801661440E+01  0.52899021040E+02  0.94343576348E+02  0.10854251428E+03  0.10566000000E+00 0.  1.
        994    1    1    2    0    0  0.13318242766E+02 -0.66854392588E+02  0.29775043112E+02  0.18666247237E+03  0.17120000000E+03 0.  0.
        998    1    1    2    0    0 -0.42380766222E+01  0.13955371549E+02  0.13758813768E+04  0.13759950133E+04  0.10000000000E+02 0.  1.
</event>
<event>
 5    1  0.1440459E-008  0.3761154E+03  0.7957747E-01  0.3468249E+00
         13   -1    0    0    0    0  0.00000000000E+00  0.00000000000E+00  0.14999999963E+04  0.15000000000E+04  0.10566000000E+00 0.  1.
        994   -1    0    0    0    0 -0.00000000000E+00 -0.00000000000E+00  0.11368683772E-12  0.17120000000E+03  0.17120000000E+03 0.  0.
         13    1    1    2    0    0  0.53632937044E+02  0.19933107469E+02  0.29857552754E+03  0.30400851554E+03  0.10566000000E+00 0.  1.
        994    1    1    2    0    0 -0.14639563936E+02 -0.13016222774E+02  0.74076352182E+01  0.17247623589E+03  0.17120000000E+03 0.  0.
        998    1    1    2    0    0 -0.38993373108E+02 -0.69168846954E+01  0.11940168335E+04  0.11947152486E+04  0.10000000000E+02 0.  1.
</event>
<event>
 5    1  0.1440459E-008  0.3804586E+03  0.7957747E-01  0.3449164E+00
         13   -1    0    0    0    0  0.00000000000E+00  0.00000000000E+00  0.14999999963E+04  0.15000000000E+04  0.10566000000E+00 0.  1.
        994   -1    0    0    0    0 -0.00000000000E+00 -0.00000000000E+00  0.11368683772E-12  0.17120000000E+03  0.17120000000E+03 0.  0.
         13    1    1    2    0    0  0.97915295032E+01  0.15057604675E+02  0.38492860544E+02  0.42477252565E+02  0.10566000000E+00 0.  1.
        994    1    1    2    0    0 -0.27678590742E+02 -0.83959600771E+01  0.66992993158E+01  0.17375533702E+03  0.17120000000E+03 0.  0.
        998    1    1    2    0    0  0.17887061239E+02 -0.66616445984E+01  0.14548078364E+04  0.14549674104E+04  0.10000000000E+02 0.  1.
</event>
<event>
 5    1  0.1440459E-008  0.3843033E+03  0.7957747E-01  0.3432632E+00
         13   -1    0    0    0    0  0.00000000000E+00  0.00000000000E+00  0.14999999963E+04  0.15000000000E+04  0.10566000000E+00 0. -1.
        994   -1    0    0    0    0 -0.00000000000E+00 -0.00000000000E+00  0.11368683772E-12  0.17120000000E+03  0.17120000000E+03 0.  0.
         13    1    1    2    0    0  0.83727435989E+01  0.79642761509E+01  0.32589242651E+02  0.34577484445E+02  0.10566000000E+00 0. -1.
        994    1    1    2    0    0 -0.10400630310E+02 -0.81135611272E+01  0.25501521603E+01  0.17172637031E+03  0.17120000000E+03 0.  0.
        998    1    1    2    0    0  0.20278867110E+01  0.14928497629E+00  0.14648606015E+04  0.14648961452E+04  0.10000000000E+02 0. -1.
</event>
<event>
 5    1  0.1440459E-008  0.3790737E+03  0.7957747E-01  0.3455202E+00
         13   -1    0    0    0    0  0.00000000000E+00  0.00000000000E+00  0.14999999963E+04  0.15000000000E+04  0.10566000000E+00 0.  1.
        994   -1    0    0    0    0 -0.00000000000E+00 -0.00000000000E+00  0.11368683772E-12  0.17120000000E+03  0.17120000000E+03 0.  0.
         13    1    1    2    0    0  0.82819932620E+01  0.70155773313E+02  0.42050586916E+03  0.42639843000E+03  0.10566000000E+00 0.  1.
        994    1    1    2    0    0 -0.96141746335E+01 -0.63341045810E+02  0.18490030516E+02  0.18372762902E+03  0.17120000000E+03 0.  0.
        998    1    1    2    0    0  0.13321813715E+01 -0.68147275031E+01  0.10610040966E+04  0.10610739410E+04  0.10000000000E+02 0.  0.
</event>
<event>
 5    1  0.1440459E-008  0.3841347E+03  0.7957747E-01  0.3433350E+00
         13   -1    0    0    0    0  0.00000000000E+00  0.00000000000E+00  0.14999999963E+04  0.15000000000E+04  0.10566000000E+00 0. -1.
        994   -1    0    0    0    0 -0.00000000000E+00 -0.00000000000E+00  0.11368683772E-12  0.17120000000E+03  0.17120000000E+03 0.  0.
         13    1    1    2    0    0 -0.18687565365E+02  0.57376144517E+01  0.97518736662E+02  0.99458838134E+02  0.10566000000E+00 0. -1.
        994    1    1    2    0    0  0.35138706788E+01 -0.44004979717E+01  0.21649188645E+01  0.17130627117E+03  0.17120000000E+03 0.  0.
        998    1    1    2    0    0  0.15173694687E+02 -0.13371164800E+01  0.14003163408E+04  0.14004348907E+04  0.10000000000E+02 0. -1.
</event>
<event>
 5    1  0.1440459E-008  0.3908999E+03  0.7957747E-01  0.3405029E+00
         13   -1    0    0    0    0  0.00000000000E+00  0.00000000000E+00  0.14999999963E+04  0.15000000000E+04  0.10566000000E+00 0.  1.
        994   -1    0    0    0    0 -0.00000000000E+00 -0.00000000000E+00  0.11368683772E-12  0.17120000000E+03  0.17120000000E+03 0.  0.
         13    1    1    2    0    0 -0.17648192482E+02 -0.19537517265E+02  0.56543222712E+01  0.26928717072E+02  0.10566000000E+00 0.  1.
        994    1    1    2    0    0  0.21119194097E+02  0.20086694906E+02  0.25661652206E+02  0.17554901329E+03  0.17120000000E+03 0.  0.
        998    1    1    2    0    0 -0.34710016148E+01 -0.54917764059E+00  0.14686840218E+04  0.14687222696E+04  0.10000000000E+02 0.  1.
</event>
<event>
 5    1  0.1440459E-008  0.3801063E+03  0.7957747E-01  0.3450696E+00
         13   -1    0    0    0    0  0.00000000000E+00  0.00000000000E+00  0.14999999963E+04  0.15000000000E+04  0.10566000000E+00 0. -1.
        994   -1    0    0    0    0 -0.00000000000E+00 -0.00000000000E+00  0.11368683772E-12  0.17120000000E+03  0.17120000000E+03 0.  0.
         13    1    1    2    0    0  0.15552404342E+02 -0.15286849313E+01  0.28242872266E+02  0.32278245868E+02  0.10566000000E+00 0. -1.
        994    1    1    2    0    0 -0.11533714191E+02 -0.67880708212E+00  0.45256988781E+01  0.17164908765E+03  0.17120000000E+03 0.  0.
        998    1    1    2    0    0 -0.40186901505E+01  0.22074920135E+01  0.14672314251E+04  0.14672726665E+04  0.10000000000E+02 0. -1.
</event>
<event>
 5    1  0.1440459E-008  0.3730286E+03  0.7957747E-01  0.3482087E+00
         13   -1    0    0    0    0  0.00000000000E+00  0.00000000000E+00  0.14999999963E+04  0.15000000000E+04  0.10566000000E+00 0. -1.
        994   -1    0    0    0    0 -0.00000000000E+00 -0.00000000000E+00  0.11368683772E-12  0.17120000000E+03  0.17120000000E+03 0.  0.
         13    1    1    2    0    0  0.14647794735E+02 -0.18535916816E+02  0.30261195710E+02  0.38391265057E+02  0.10566000000E+00 0. -1.
        994    1    1    2    0    0 -0.10509057406E+02  0.54974351210E+02  0.18491278162E+02  0.18106348872E+03  0.17120000000E+03 0.  0.
        998    1    1    2    0    0 -0.41387373293E+01 -0.36438434394E+02  0.14512475224E+04  0.14517452462E+04  0.10000000000E+02 0. -1.
</event>
<event>
 5    1  0.1440459E-008  0.3853949E+03  0.7957747E-01  0.3427999E+00
         13   -1    0    0    0    0  0.00000000000E+00  0.00000000000E+00  0.14999999963E+04  0.15000000000E+04  0.10566000000E+00 0. -1.
        994   -1    0    0    0    0 -0.00000000000E+00 -0.00000000000E+00  0.11368683772E-12  0.17120000000E+03  0.17120000000E+03 0.  0.
         13    1    1    2    0    0  0.10174666103E+03  0.93005441024E+02  0.35411232456E+03  0.37999729560E+03  0.10566000000E+00 0. -1.
        994    1    1    2    0    0 -0.10239385774E+03 -0.93548011492E+02  0.94455739959E+02  0.23972288036E+03  0.17120000000E+03 0.  0.
        998    1    1    2    0    0  0.64719671347E+00  0.54257046772E+00  0.10514319318E+04  0.10514798240E+04  0.10000000000E+02 0.  0.
</event>
<event>
 5    1  0.1440459E-008  0.3352266E+03  0.7957747E-01  0.3672749E+00
         13   -1    0    0    0    0  0.00000000000E+00  0.00000000000E+00  0.14999999963E+04  0.15000000000E+04  0.10566000000E+00 0. -1.
        994   -1    0    0    0    0 -0.00000000000E+00 -0.00000000000E+00  0.11368683772E-12  0.17120000000E+03  0.17120000000E+03 0.  0.
         13    1    1    2    0    0 -0.23229656018E+03 -0.52386237546E+02  0.80919095012E+03  0.84350223158E+03  0.10566000000E+00 0. -1.
        994    1    1    2    0    0  0.22847736740E+03  0.56948602301E+02  0.24154649326E+03  0.37828454783E+03  0.17120000000E+03 0.  0.
        998    1    1    2    0    0  0.38191927800E+01 -0.45623647546E+01  0.44926255290E+03  0.44941322059E+03  0.10000000000E+02 0.  0.
</event>
<event>
 5    1  0.1440459E-008  0.3839965E+03  0.7957747E-01  0.3433939E+00
         13   -1    0    0    0    0  0.00000000000E+00  0.00000000000E+00  0.14999999963E+04  0.15000000000E+04  0.10566000000E+00 0. -1.
        994   -1    0    0    0    0 -0.00000000000E+00 -0.00000000000E+00  0.11368683772E-12  0.17120000000E+03  0.17120000000E+03 0.  0.
         13    1    1    2    0    0  0.15522897849E+02  0.32684569259E+01  0.57940073882E+02  0.60072510300E+02  0.10566000000E+00 0. -1.
        994    1    1    2    0    0 -0.11444925791E+02 -0.74581009973E+01  0.27451226873E+01  0.17176607725E+03  0.17120000000E+03 0.  0.
        998    1    1    2    0    0 -0.40779720577E+01  0.41896440714E+01  0.14393147997E+04  0.14393614124E+04  0.10000000000E+02 0. -1.
</event>
<event>
 5    1  0.1440459E-008  0.3813862E+03  0.7957747E-01  0.3445145E+00
         13   -1    0    0    0    0  0.00000000000E+00  0.00000000000E+00  0.14999999963E+04  0.15000000000E+04  0.10566000000E+00 0.  1.
        994   -1    0    0    0    0 -0.00000000000E+00 -0.00000000000E+00  0.11368683772E-12  0.17120000000E+03  0.17120000000E+03 0.  0.
         13    1    1    2    0    0 -0.95654852435E-01  0.36243394274E+02  0.17443809945E+03  0.17816356104E+03  0.10566000000E+00 0.  1.
        994    1    1    2    0    0  0.66211014736E-01 -0.32788532644E+02  0.70208332228E+01  0.17445292877E+03  0.17120000000E+03 0.  0.
        998    1    1    2    0    0  0.29443837699E-01 -0.34548616307E+01  0.13185410636E+04  0.13185835102E+04  0.10000000000E+02 0.  0.
</event>
<event>
 5    1  0.1440459E-008  0.3860233E+03  0.7957747E-01  0.3425344E+00
         13   -1    0    0    0    0  0.00000000000E+00  0.00000000000E+00  0.14999999963E+04  0.15000000000E+04  0.10566000000E+00 0. -1.
        994   -1    0    0    0    0 -0.00000000000E+00 -0.00000000000E+00  0.11368683772E-12  0.17120000000E+03  0.17120000000E+03 0.  0.
         13    1    1    2    0    0  0.62977260487E+00  0.12224235370E+02  0.66729442492E+02  0.67842893535E+02  0.10566000000E+00 0. -1.
        994    1    1    2    0    0  0.11282229890E+02 -0.10493065280E+02  0.19014287794E+01  0.17190243908E+03  0.17120000000E+03 0.  0.
        998    1    1    2    0    0 -0.11912002495E+02 -0.17311700897E+01  0.14313691250E+04  0.14314546674E+04  0.10000000000E+02 0. -1.
</event>
<event>
 5    1  0.1440459E-008  0.3851650E+03  0.7957747E-01  0.3428973E+00
         13   -1    0    0    0    0  0.00000000000E+00  0.00000000000E+00  0.14999999963E+04  0.15000000000E+04  0.10566000000E+00 0. -1.
        994   -1    0    0    0    0 -0.00000000000E+00 -0.00000000000E+00  0.11368683772E-12  0.17120000000E+03  0.17120000000E+03 0.  0.
         13    1    1    2    0    0 -0.12950276552E+02 -0.37121166180E+01  0.59987041349E+02  0.61481263539E+02  0.10566000000E+00 0. -1.
        994    1    1    2    0    0  0.52556488599E+01  0.14767666805E+01  0.16462265173E+01  0.17129492913E+03  0.17120000000E+03 0.  0.
        998    1    1    2    0    0  0.76946276918E+01  0.22353499375E+01  0.14383667284E+04  0.14384238073E+04  0.10000000000E+02 0. -1.
</event>
<event>
 5    1  0.1440459E-008  0.3854423E+03  0.7957747E-01  0.3427799E+00
         13   -1    0    0    0    0  0.00000000000E+00  0.00000000000E+00  0.14999999963E+04  0.15000000000E+04  0.10566000000E+00 0. -1.
        994   -1    0    0    0    0 -0.00000000000E+00 -0.00000000000E+00  0.11368683772E-12  0.17120000000E+03  0.17120000000E+03 0.  0.
         13    1    1    2    0    0 -0.10704643427E+02 -0.12671350663E+02  0.85978867153E+02  0.87564429305E+02  0.10566000000E+00 0. -1.
        994    1    1    2    0    0  0.16541754846E+02  0.22457551893E+02  0.39697081286E+01  0.17350265091E+03  0.17120000000E+03 0.  0.
        998    1    1    2    0    0 -0.58371114187E+01 -0.97862012307E+01  0.14100514210E+04  0.14101329198E+04  0.10000000000E+02 0. -1.
</event>
<event>
 5    1  0.1613358E-008  0.3858107E+03  0.7957747E-01  0.3426241E+00
         13   -1    0    0    0    0  0.00000000000E+00  0.00000000000E+00  0.14999999963E+04  0.15000000000E+04  0.10566000000E+00 0. -1.
        994   -1    0    0    0    0 -0.00000000000E+00 -0.00000000000E+00  0.11368683772E-12  0.17120000000E+03  0.17120000000E+03 0.  0.
         13    1    1    2    0    0 -0.12372996466E+02 -0.90945939811E+00  0.62532132145E+02  0.63751053894E+02  0.10566000000E+00 0. -1.
        994    1    1    2    0    0  0.97177293124E+01  0.16049162131E+01  0.15464240625E+01  0.17149006224E+03  0.17120000000E+03 0.  0.
        998    1    1    2    0    0  0.26552671532E+01 -0.69545681498E+00  0.14359214401E+04  0.14359588839E+04  0.10000000000E+02 0. -1.
</event>
<event>
 5    1  0.1440459E-008  0.3832479E+03  0.7957747E-01  0.3437137E+00
         13   -1    0    0    0    0  0.00000000000E+00  0.00000000000E+00  0.14999999963E+04  0.15000000000E+04  0.10566000000E+00 0.  1.
        994   -1    0    0    0    0 -0.00000000000E+00 -0.00000000000E+00  0.11368683772E-12  0.17120000000E+03  0.17120000000E+03 0.  0.
         13    1    1    2    0    0  0.73296716388E+01 -0.21072233809E+02  0.11529140627E+03  0.11743033104E+03  0.10566000000E+00 0.  1.
        994    1    1    2    0    0  0.73405917321E+01 -0.57814706892E+01  0.27913584566E+01  0.17147752439E+03  0.17120000000E+03 0.  0.
        998    1    1    2    0    0 -0.14670263371E+02  0.26853704498E+02  0.13819172315E+04  0.13822921446E+04  0.10000000000E+02 0.  1.
</event>
<event>
 5    1  0.1440459E-008  0.3833328E+03  0.7957747E-01  0.3436774E+00
         13   -1    0    0    0    0  0.00000000000E+00  0.00000000000E+00  0.14999999963E+04  0.15000000000E+04  0.10566000000E+00 0. -1.
        994   -1    0    0    0    0 -0.00000000000E+00 -0.00000000000E+00  0.11368683772E-12  0.17120000000E+03  0.17120000000E+03 0.  0.
         13    1    1    2    0    0 -0.64764592558E+01 -0.23250515460E+02  0.88900856670E+02  0.92118969134E+02  0.10566000000E+00 0. -1.
        994    1    1    2    0    0 -0.10275151399E+02  0.68849572189E+02  0.18651378293E+02  0.18575025233E+03  0.17120000000E+03 0.  0.
        998    1    1    2    0    0  0.16751610655E+02 -0.45599056729E+02  0.13924477613E+04  0.13933307785E+04  0.10000000000E+02 0. -1.
</event>
<event>
 5    1  0.1440459E-008  0.3825586E+03  0.7957747E-01  0.3440093E+00
         13   -1    0    0    0    0  0.00000000000E+00  0.00000000000E+00  0.14999999963E+04  0.15000000000E+04  0.10566000000E+00 0.  1.
        994   -1    0    0    0    0 -0.00000000000E+00 -0.00000000000E+00  0.11368683772E-12  0.17120000000E+03  0.17120000000E+03 0.  0.
         13    1    1    2    0    0  0.71663146785E+01  0.79321050599E+01  0.18897564967E+02  0.21711828170E+02  0.10566000000E+00 0.  1.
        994    1    1    2    0    0 -0.39681195617E+01 -0.81842695590E+01  0.31214268214E+01  0.17146985609E+03  0.17120000000E+03 0.  0.
        998    1    1    2    0    0 -0.31981951168E+01  0.25216449910E+00  0.14779810045E+04  0.14780183157E+04  0.10000000000E+02 0.  1.
</event>
<event>
 5    1  0.1440459E-008  0.3823379E+03  0.7957747E-01  0.3441041E+00
         13   -1    0    0    0    0  0.00000000000E+00  0.00000000000E+00  0.14999999963E+04  0.15000000000E+04  0.10566000000E+00 0.  1.
        994   -1    0    0    0    0 -0.00000000000E+00 -0.00000000000E+00  0.11368683772E-12  0.17120000000E+03  0.17120000000E+03 0.  0.
         13    1    1    2    0    0  0.21219975585E+01  0.13292917219E+02  0.32439987496E+02  0.35122193477E+02  0.10566000000E+00 0.  1.
        994    1    1    2    0    0 -0.61022948607E+01  0.17847750779E+02  0.41387231749E+01  0.17228566174E+03  0.17120000000E+03 0.  0.
        998    1    1    2    0    0  0.39802973021E+01 -0.31140667998E+02  0.14634212856E+04  0.14637921448E+04  0.10000000000E+02 0.  1.
</event>
<event>
 5    1  0.1440459E-008  0.3874293E+03  0.7957747E-01  0.3419434E+00
         13   -1    0    0    0    0  0.00000000000E+00  0.00000000000E+00  0.14999999963E+04  0.15000000000E+04  0.10566000000E+00 0. -1.
        994   -1    0    0    0    0 -0.00000000000E+00 -0.00000000000E+00  0.11368683772E-12  0.17120000000E+03  0.17120000000E+03 0.  0.
         13    1    1    2    0    0  0.23376142042E+02 -0.31757559549E+02  0.29285958799E+02  0.49118887936E+02  0.10566000000E+00 0. -1.
        994    1    1    2    0    0 -0.26458931484E+02  0.30342038116E+02  0.26531189743E+02  0.17785965917E+03  0.17120000000E+03 0.  0.
        998    1    1    2    0    0  0.30827894427E+01  0.14155214325E+01  0.14441828477E+04  0.14442214529E+04  0.10000000000E+02 0.  0.
</event>
<event>
 5    1  0.1440459E-008  0.3874938E+03  0.7957747E-01  0.3419164E+00
         13   -1    0    0    0    0  0.00000000000E+00  0.00000000000E+00  0.14999999963E+04  0.15000000000E+04  0.10566000000E+00 0.  1.
        994   -1    0    0    0    0 -0.00000000000E+00 -0.00000000000E+00  0.11368683772E-12  0.17120000000E+03  0.17120000000E+03 0.  0.
         13    1    1    2    0    0 -0.35773165847E+02 -0.18543479041E+02  0.33444908130E+02  0.52365571261E+02  0.10566000000E+00 0.  1.
        994    1    1    2    0    0  0.83572121896E+00  0.15925818946E+02  0.21454417434E+02  0.17327452833E+03  0.17120000000E+03 0.  0.
        998    1    1    2    0    0  0.34937444628E+02  0.26176600958E+01  0.14451006707E+04  0.14455599004E+04  0.10000000000E+02 0.  1.
</event>
<event>
 5    1  0.1440459E-008  0.3815461E+03  0.7957747E-01  0.3444454E+00
         13   -1    0    0    0    0  0.00000000000E+00  0.00000000000E+00  0.14999999963E+04  0.15000000000E+04  0.10566000000E+00 0. -1.
        994   -1    0    0    0    0 -0.00000000000E+00 -0.00000000000E+00  0.11368683772E-12  0.17120000000E+03  0.17120000000E+03 0.  0.
         13    1    1    2    0    0  0.12026485642E+02 -0.20120587855E+02  0.87848082117E+02  0.90921785664E+02  0.10566000000E+00 0. -1.
        994    1    1    2    0    0 -0.55575231204E+01 -0.45068090216E+01  0.35250226072E+01  0.17138571462E+03  0.17120000000E+03 0.  0.
        998    1    1    2    0    0 -0.64689625214E+01  0.24627396877E+02  0.14086268916E+04  0.14088924997E+04  0.10000000000E+02 0. -1.
</event>
<event>
 5    1  0.1440459E-008  0.3854789E+03  0.7957747E-01  0.3427644E+00
         13   -1    0    0    0    0  0.00000000000E+00  0.00000000000E+00  0.14999999963E+04  0.15000000000E+04  0.10566000000E+00 0. -1.
        994   -1    0    0    0    0 -0.00000000000E+00 -0.00000000000E+00  0.11368683772E-12  0.17120000000E+03  0.17120000000E+03 0.  0.
         13    1    1    2    0    0  0.33709857575E+01  0.94797903433E+01  0.36203816469E+02  0.37576022419E+02  0.10566000000E+00 0. -1.
        994    1    1    2    0    0 -0.78155099311E+01 -0.56503483351E+01  0.16979983749E+01  0.17147982922E+03  0.17120000000E+03 0.  0.
        998    1    1    2    0    0  0.44445241736E+01 -0.38294420082E+01  0.14620981814E+04  0.14621441484E+04  0.10000000000E+02 0. -1.
</event>
<event>
 5    1  0.1440459E-008  0.3791869E+03  0.7957747E-01  0.3454707E+00
         13   -1    0    0    0    0  0.00000000000E+00  0.00000000000E+00  0.14999999963E+04  0.15000000000E+04  0.10566000000E+00 0. -1.
        994   -1    0    0    0    0 -0.00000000000E+00 -0.00000000000E+00  0.11368683772E-12  0.17120000000E+03  0.17120000000E+03 0.  0.
         13    1    1    2    0    0  0.10143029108E+03 -0.79107937146E+01  0.27663641495E+03  0.29475142382E+03  0.10566000000E+00 0. -1.
        994    1    1    2    0    0 -0.89303302460E+02  0.14103859063E+02  0.46042004942E+02  0.19900579110E+03  0.17120000000E+03 0.  0.
        998    1    1    2    0    0 -0.12126988618E+02 -0.61930653483E+01  0.11773215764E+04  0.11774427851E+04  0.10000000000E+02 0. -1.
</event>
<event>
 5    1  0.1440459E-008  0.3719512E+03  0.7957747E-01  0.3486971E+00
         13   -1    0    0    0    0  0.00000000000E+00  0.00000000000E+00  0.14999999963E+04  0.15000000000E+04  0.10566000000E+00 0. -1.
        994   -1    0    0    0    0 -0.00000000000E+00 -0.00000000000E+00  0.11368683772E-12  0.17120000000E+03  0.17120000000E+03 0.  0.
         13    1    1    2    0    0  0.56883678603E+02  0.15151367143E+02  0.20481867918E+03  0.21311034542E+03  0.10566000000E+00 0. -1.
        994    1    1    2    0    0 -0.30649745336E+02 -0.28101485444E+02  0.14214847033E+02  0.17675011245E+03  0.17120000000E+03 0.  0.
        998    1    1    2    0    0 -0.26233933267E+02  0.12950118301E+02  0.12809664701E+04  0.12813395421E+04  0.10000000000E+02 0. -1.
</event>
<event>
 5    1  0.1440459E-008  0.3832558E+03  0.7957747E-01  0.3437103E+00
         13   -1    0    0    0    0  0.00000000000E+00  0.00000000000E+00  0.14999999963E+04  0.15000000000E+04  0.10566000000E+00 0. -1.
        994   -1    0    0    0    0 -0.00000000000E+00 -0.00000000000E+00  0.11368683772E-12  0.17120000000E+03  0.17120000000E+03 0.  0.
         13    1    1    2    0    0 -0.51406814672E+01 -0.17241940420E+02  0.60177518870E+02  0.62809681235E+02  0.10566000000E+00 0. -1.
        994    1    1    2    0    0  0.16600567105E+02  0.20501744592E+02  0.48035467496E+01  0.17328708671E+03  0.17120000000E+03 0.  0.
        998    1    1    2    0    0 -0.11459885638E+02 -0.32598041721E+01  0.14350189307E+04  0.14351032321E+04  0.10000000000E+02 0. -1.
</event>
<event>
 5    1  0.1440459E-008  0.3852286E+03  0.7957747E-01  0.3428703E+00
         13   -1    0    0    0    0  0.00000000000E+00  0.00000000000E+00  0.14999999963E+04  0.15000000000E+04  0.10566000000E+00 0.  1.
        994   -1    0    0    0    0 -0.00000000000E+00 -0.00000000000E+00  0.11368683772E-12  0.17120000000E+03  0.17120000000E+03 0.  0.
         13    1    1    2    0    0 -0.15496352896E+02 -0.48981607332E+01  0.87002076076E+02  0.88507069420E+02  0.10566000000E+00 0.  1.
        994    1    1    2    0    0  0.11407812858E+02  0.30239311702E+00  0.19447739300E+01  0.17159094318E+03  0.17120000000E+03 0.  0.
        998    1    1    2    0    0  0.40885400381E+01  0.45957676162E+01  0.14110531463E+04  0.14111019874E+04  0.10000000000E+02 0.  1.
</event>
<event>
 5    1  0.1440459E-008  0.3856339E+03  0.7957747E-01  0.3426988E+00
         13   -1    0    0    0    0  0.00000000000E+00  0.00000000000E+00  0.14999999963E+04  0.15000000000E+04  0.10566000000E+00 0.  1.
        994   -1    0    0    0    0 -0.00000000000E+00 -0.00000000000E+00  0.11368683772E-12  0.17120000000E+03  0.17120000000E+03 0.  0.
         13    1    1    2    0    0 -0.10787187800E+02 -0.75206558361E+01  0.63649013254E+02  0.64993320712E+02  0.10566000000E+00 0.  1.
        994    1    1    2    0    0  0.19071904725E+02 -0.19442456530E+01  0.25228326393E+01  0.17228848576E+03  0.17120000000E+03 0.  0.
        998    1    1    2    0    0 -0.82847169245E+01  0.94649014891E+01  0.14338281504E+04  0.14339181935E+04  0.10000000000E+02 0.  1.
</event>
<event>
 5    1  0.1440459E-008  0.3873117E+03  0.7957747E-01  0.3419927E+00
         13   -1    0    0    0    0  0.00000000000E+00  0.00000000000E+00  0.14999999963E+04  0.15000000000E+04  0.10566000000E+00 0. -1.
        994   -1    0    0    0    0 -0.00000000000E+00 -0.00000000000E+00  0.11368683772E-12  0.17120000000E+03  0.17120000000E+03 0.  0.
         13    1    1    2    0    0  0.32139684766E+02  0.11503339132E+03  0.52799191097E+03  0.54133271624E+03  0.10566000000E+00 0. -1.
        994    1    1    2    0    0 -0.30136900444E+02 -0.67726177339E+01  0.23963561546E+02  0.17560692868E+03  0.17120000000E+03 0.  0.
        998    1    1    2    0    0 -0.20027843222E+01 -0.10826077358E+03  0.94804452376E+03  0.95426035508E+03  0.10000000000E+02 0. -1.
</event>
<event>
 5    1  0.1440459E-008  0.3786152E+03  0.7957747E-01  0.3457210E+00
         13   -1    0    0    0    0  0.00000000000E+00  0.00000000000E+00  0.14999999963E+04  0.15000000000E+04  0.10566000000E+00 0. -1.
        994   -1    0    0    0    0 -0.00000000000E+00 -0.00000000000E+00  0.11368683772E-12  0.17120000000E+03  0.17120000000E+03 0.  0.
         13    1    1    2    0    0 -0.20995148812E+02 -0.13585463931E+02  0.60211038377E+02  0.65197710161E+02  0.10566000000E+00 0. -1.
        994    1    1    2    0    0  0.22812850712E+02  0.15104073364E+02  0.73517643543E+01  0.17352823294E+03  0.17120000000E+03 0.  0.
        998    1    1    2    0    0 -0.18177018993E+01 -0.15186094333E+01  0.14324371935E+04  0.14324740569E+04  0.10000000000E+02 0. -1.
</event>
<event>
 5    1  0.1440459E-008  0.3852585E+03  0.7957747E-01  0.3428576E+00
         13   -1    0    0    0    0  0.00000000000E+00  0.00000000000E+00  0.14999999963E+04  0.15000000000E+04  0.10566000000E+00 0. -1.
        994   -1    0    0    0    0 -0.00000000000E+00 -0.00000000000E+00  0.11368683772E-12  0.17120000000E+03  0.17120000000E+03 0.  0.
         13    1    1    2    0    0 -0.15199181589E+02  0.42080152554E+00  0.89306848542E+02  0.90592033620E+02  0.10566000000E+00 0. -1.
        994    1    1    2    0    0 -0.84039166374E+01  0.18328111317E+01  0.17449774951E+01  0.17142482305E+03  0.17120000000E+03 0.  0.
        998    1    1    2    0    0  0.23603098227E+02 -0.22536126572E+01  0.14089481702E+04  0.14091831433E+04  0.10000000000E+02 0. -1.
</event>
<event>
 5    1  0.1440459E-008  0.3850296E+03  0.7957747E-01  0.3429547E+00
         13   -1    0    0    0    0  0.00000000000E+00  0.00000000000E+00  0.14999999963E+04  0.15000000000E+04  0.10566000000E+00 0.  1.
        994   -1    0    0    0    0 -0.00000000000E+00 -0.00000000000E+00  0.11368683772E-12  0.17120000000E+03  0.17120000000E+03 0.  0.
         13    1    1    2    0    0  0.79644569070E+02  0.38809874266E+00  0.15183780547E+03  0.17145885319E+03  0.10566000000E+00 0.  1.
        994    1    1    2    0    0 -0.66173469335E+02  0.27949313370E+01  0.35498146575E+02  0.18696603460E+03  0.17120000000E+03 0.  0.
        998    1    1    2    0    0 -0.13471099735E+02 -0.31830300796E+01  0.13126640442E+04  0.13127751122E+04  0.10000000000E+02 0.  1.
</event>
<event>
 5    1  0.1440459E-008  0.3747167E+03  0.7957747E-01  0.3474491E+00
         13   -1    0    0    0    0  0.00000000000E+00  0.00000000000E+00  0.14999999963E+04  0.15000000000E+04  0.10566000000E+00 0.  1.
        994   -1    0    0    0    0 -0.00000000000E+00 -0.00000000000E+00  0.11368683772E-12  0.17120000000E+03  0.17120000000E+03 0.  0.
         13    1    1    2    0    0  0.46772938554E+02  0.63141261148E+01  0.73551526390E+02  0.87392300393E+02  0.10566000000E+00 0.  1.
        994    1    1    2    0    0 -0.49560193671E+02 -0.14231588233E+02  0.22967068673E+02  0.18026557393E+03  0.17120000000E+03 0.  0.
        998    1    1    2    0    0  0.27872551175E+01  0.79174621182E+01  0.14034814012E+04  0.14035421257E+04  0.10000000000E+02 0.  1.
</event>
<event>
 5    1  0.1440459E-008  0.3725048E+03  0.7957747E-01  0.3484458E+00
         13   -1    0    0    0    0  0.00000000000E+00  0.00000000000E+00  0.14999999963E+04  0.15000000000E+04  0.10566000000E+00 0. -1.
        994   -1    0    0    0    0 -0.00000000000E+00 -0.00000000000E+00  0.11368683772E-12  0.17120000000E+03  0.17120000000E+03 0.  0.
         13    1    1    2    0    0  0.18519634318E+02  0.12360022839E+02  0.14735081452E+02  0.26699827889E+02  0.10566000000E+00 0. -1.
        994    1    1    2    0    0 -0.17569302046E+02 -0.12553101715E+02  0.13915608806E+02  0.17311656450E+03  0.17120000000E+03 0.  0.
        998    1    1    2    0    0 -0.95033227267E+00  0.19307887632E+00  0.14713493060E+04  0.14713836076E+04  0.10000000000E+02 0. -1.
</event>
<event>
 5    1  0.1440459E-008  0.3853845E+03  0.7957747E-01  0.3428043E+00
         13   -1    0    0    0    0  0.00000000000E+00  0.00000000000E+00  0.14999999963E+04  0.15000000000E+04  0.10566000000E+00 0. -1.
        994   -1    0    0    0    0 -0.00000000000E+00 -0.00000000000E+00  0.11368683772E-12  0.17120000000E+03  0.17120000000E+03 0.  0.
         13    1    1    2    0    0 -0.12951931781E+02  0.50316235035E+01  0.67785074286E+02  0.69194632971E+02  0.10566000000E+00 0. -1.
        994    1    1    2    0    0  0.10600815375E+02  0.44358441659E+01  0.18732383305E+01  0.17159546329E+03  0.17120000000E+03 0.  0.
        998    1    1    2    0    0  0.23511164059E+01 -0.94674676694E+01  0.14303416837E+04  0.14304099037E+04  0.10000000000E+02 0. -1.
</event>
<event>
 5    1  0.1440459E-008  0.3810265E+03  0.7957747E-01  0.3446701E+00
         13   -1    0    0    0    0  0.00000000000E+00  0.00000000000E+00  0.14999999963E+04  0.15000000000E+04  0.10566000000E+00 0.  1.
        994   -1    0    0    0    0 -0.00000000000E+00 -0.00000000000E+00  0.11368683772E-12  0.17120000000E+03  0.17120000000E+03 0.  0.
         13    1    1    2    0    0 -0.62845843228E+02 -0.83884090064E+02  0.41624921435E+03  0.42924300832E+03  0.10566000000E+00 0.  1.
        994    1    1    2    0    0  0.83339462009E+02  0.17520895440E+03  0.14130514408E+03  0.29482236580E+03  0.17120000000E+03 0.  0.
        998    1    1    2    0    0 -0.20493618781E+02 -0.91324864335E+02  0.94244563785E+03  0.94713462589E+03  0.10000000000E+02 0.  1.
</event>
<event>
 5    1  0.1440459E-008  0.3850621E+03  0.7957747E-01  0.3429409E+00
         13   -1    0    0    0    0  0.00000000000E+00  0.00000000000E+00  0.14999999963E+04  0.15000000000E+04  0.10566000000E+00 0. -1.
        994   -1    0    0    0    0 -0.00000000000E+00 -0.00000000000E+00  0.11368683772E-12  0.17120000000E+03  0.17120000000E+03 0.  0.
         13    1    1    2    0    0  0.74961375510E+01  0.11718234027E+02  0.61539527481E+02  0.63092263341E+02  0.10566000000E+00 0. -1.
        994    1    1    2    0    0 -0.16489687511E+02  0.24395222713E+01  0.25134632385E+01  0.17202795866E+03  0.17120000000E+03 0.  0.
        998    1    1    2    0    0  0.89935499597E+01 -0.14157756298E+02  0.14359470056E+04  0.14360797780E+04  0.10000000000E+02 0. -1.
</event>
<event>
 5    1  0.1440459E-008  0.3853125E+03  0.7957747E-01  0.3428348E+00
         13   -1    0    0    0    0  0.00000000000E+00  0.00000000000E+00  0.14999999963E+04  0.15000000000E+04  0.10566000000E+00 0.  1.
        994   -1    0    0    0    0 -0.00000000000E+00 -0.00000000000E+00  0.11368683772E-12  0.17120000000E+03  0.17120000000E+03 0.  0.
         13    1    1    2    0    0 -0.11192510106E+02  0.80724217504E+01  0.82323147945E+02  0.83471840324E+02  0.10566000000E+00 0.  1.
        994    1    1    2    0    0 -0.15432540967E+02  0.15335555474E+02  0.30316876708E+01  0.17260351593E+03  0.17120000000E+03 0.  0.
        998    1    1    2    0    0  0.26625051073E+02 -0.23407977225E+02  0.14146451607E+04  0.14151246437E+04  0.10000000000E+02 0.  1.
</event>
<event>
 5    1  0.1440459E-008  0.3759916E+03  0.7957747E-01  0.3468800E+00
         13   -1    0    0    0    0  0.00000000000E+00  0.00000000000E+00  0.14999999963E+04  0.15000000000E+04  0.10566000000E+00 0. -1.
        994   -1    0    0    0    0 -0.00000000000E+00 -0.00000000000E+00  0.11368683772E-12  0.17120000000E+03  0.17120000000E+03 0.  0.
         13    1    1    2    0    0 -0.32357073831E+02  0.69292534166E+02  0.31705995185E+03  0.32615250995E+03  0.10566000000E+00 0. -1.
        994    1    1    2    0    0  0.11145583003E+02  0.35989853770E+02  0.19228843442E+02  0.17634818404E+03  0.17120000000E+03 0.  0.
        998    1    1    2    0    0  0.21211490828E+02 -0.10528238794E+03  0.11637112010E+04  0.11686993060E+04  0.10000000000E+02 0. -1.
</event>
<event>
 5    1  0.1440459E-008  0.3836374E+03  0.7957747E-01  0.3435472E+00
         13   -1    0    0    0    0  0.00000000000E+00  0.00000000000E+00  0.14999999963E+04  0.15000000000E+04  0.10566000000E+00 0.  1.
        994   -1    0    0    0    0 -0.00000000000E+00 -0.00000000000E+00  0.11368683772E-12  0.17120000000E+03  0.17120000000E+03 0.  0.
         13    1    1    2    0    0  0.73126021316E+01  0.16667101978E+02  0.71679874040E+02  0.73954593804E+02  0.10566000000E+00 0.  1.
        994    1    1    2    0    0  0.25814993429E+01 -0.12717959139E+02  0.28646439274E+01  0.17171504538E+03  0.17120000000E+03 0.  0.
        998    1    1    2    0    0 -0.98941014745E+01 -0.39491428390E+01  0.14254554783E+04  0.14255303608E+04  0.10000000000E+02 0.  1.
</event>
<event>
 5    1  0.1440459E-008  0.3840101E+03  0.7957747E-01  0.3433881E+00
         13   -1    0    0    0    0  0.00000000000E+00  0.00000000000E+00  0.14999999963E+04  0.15000000000E+04  0.10566000000E+00 0. -1.
        994   -1    0    0    0    0 -0.00000000000E+00 -0.00000000000E+00  0.11368683772E-12  0.17120000000E+03  0.17120000000E+03 0.  0.
         13    1    1    2    0    0  0.45173068436E+01  0.14086608455E+02  0.53191607573E+02  0.55210477983E+02  0.10566000000E+00 0. -1.
        994    1    1    2    0    0 -0.78353796002E+01  0.41213495430E+00  0.23255337550E+01  0.17139548167E+03  0.17120000000E+03 0.  0.
        998    1    1    2    0    0  0.33180727566E+01 -0.14498743410E+02  0.14444828550E+04  0.14445940403E+04  0.10000000000E+02 0. -1.
</event>
<event>
 5    1  0.1440459E-008  0.3842071E+03  0.7957747E-01  0.3433042E+00
         13   -1    0    0    0    0  0.00000000000E+00  0.00000000000E+00  0.14999999963E+04  0.15000000000E+04  0.10566000000E+00 0.  1.
        994   -1    0    0    0    0 -0.00000000000E+00 -0.00000000000E+00  0.11368683772E-12  0.17120000000E+03  0.17120000000E+03 0.  0.
         13    1    1    2    0    0 -0.74759928725E+01  0.72872527958E+01  0.25887895905E+02  0.27913954237E+02  0.10566000000E+00 0.  1.
        994    1    1    2    0    0  0.10203100989E+02 -0.66990428143E+01  0.25156654255E+01  0.17165299012E+03  0.17120000000E+03 0.  0.
        998    1    1    2    0    0 -0.27271081167E+01 -0.58820998152E+00  0.14715964349E+04  0.14716330556E+04  0.10000000000E+02 0.  1.
</event>
<event>
 5    1  0.1440459E-008  0.3736704E+03  0.7957747E-01  0.3479191E+00
         13   -1    0    0    0    0  0.00000000000E+00  0.00000000000E+00  0.14999999963E+04  0.15000000000E+04  0.10566000000E+00 0. -1.
        994   -1    0    0    0    0 -0.00000000000E+00 -0.00000000000E+00  0.11368683772E-12  0.17120000000E+03  0.17120000000E+03 0.  0.
         13    1    1    2    0    0  0.18663575092E+03 -0.15883690270E+03  0.84638270622E+03  0.88115024924E+03  0.10566000000E+00 0. -1.
        994    1    1    2    0    0 -0.23998360285E+03  0.13081195403E+03  0.33266064212E+03  0.46333188944E+03  0.17120000000E+03 0.  0.
        998    1    1    2    0    0  0.53347851935E+02  0.28024948671E+02  0.32095664794E+03  0.32671786132E+03  0.10000000000E+02 0.  1.
</event>
<event>
 5    1  0.1440459E-008  0.3860172E+03  0.7957747E-01  0.3425370E+00
         13   -1    0    0    0    0  0.00000000000E+00  0.00000000000E+00  0.14999999963E+04  0.15000000000E+04  0.10566000000E+00 0.  1.
        994   -1    0    0    0    0 -0.00000000000E+00 -0.00000000000E+00  0.11368683772E-12  0.17120000000E+03  0.17120000000E+03 0.  0.
         13    1    1    2    0    0  0.46064720014E+01  0.98775001214E+01  0.60316284360E+02  0.61293147382E+02  0.10566000000E+00 0.  1.
        994    1    1    2    0    0  0.12216222011E+02  0.41110878347E+01  0.16707114852E+01  0.17169265680E+03  0.17120000000E+03 0.  0.
        998    1    1    2    0    0 -0.16822694012E+02 -0.13988587956E+02  0.14380130004E+04  0.14382141958E+04  0.10000000000E+02 0.  1.
</event>
<event>
 5    1  0.1440459E-008  0.3799491E+03  0.7957747E-01  0.3451380E+00
         13   -1    0    0    0    0  0.00000000000E+00  0.00000000000E+00  0.14999999963E+04  0.15000000000E+04  0.10566000000E+00 0.  1.
        994   -1    0    0    0    0 -0.00000000000E+00 -0.00000000000E+00  0.11368683772E-12  0.17120000000E+03  0.17120000000E+03 0.  0.
         13    1    1    2    0    0 -0.13182797229E+02 -0.91158887232E+00  0.19471069390E+02  0.23531911191E+02  0.10566000000E+00 0.  1.
        994    1    1    2    0    0  0.48444695605E+01  0.34034656571E+01  0.42760618768E+01  0.17135570364E+03  0.17120000000E+03 0.  0.
        998    1    1    2    0    0  0.83383276682E+01 -0.24918767848E+01  0.14762528650E+04  0.14763123852E+04  0.10000000000E+02 0.  1.
</event>
<event>
 5    1  0.1440459E-008  0.3722594E+03  0.7957747E-01  0.3485571E+00
         13   -1    0    0    0    0  0.00000000000E+00  0.00000000000E+00  0.14999999963E+04  0.15000000000E+04  0.10566000000E+00 0. -1.
        994   -1    0    0    0    0 -0.00000000000E+00 -0.00000000000E+00  0.11368683772E-12  0.17120000000E+03  0.17120000000E+03 0.  0.
         13    1    1    2    0    0 -0.20068080560E+03 -0.10642468735E+03  0.11996345023E+04  0.12209512481E+04  0.10566000000E+00 0. -1.
        994    1    1    2    0    0  0.18045125000E+03  0.11934638938E+03  0.18544680325E+03  0.33242468488E+03  0.17120000000E+03 0.  0.
        998    1    1    2    0    0  0.20229555604E+02 -0.12921702027E+02  0.11491869072E+03  0.11782406707E+03  0.10000000000E+02 0.  1.
</event>
<event>
 5    1  0.1440459E-008  0.3732885E+03  0.7957747E-01  0.3480913E+00
         13   -1    0    0    0    0  0.00000000000E+00  0.00000000000E+00  0.14999999963E+04  0.15000000000E+04  0.10566000000E+00 0.  1.
        994   -1    0    0    0    0 -0.00000000000E+00 -0.00000000000E+00  0.11368683772E-12  0.17120000000E+03  0.17120000000E+03 0.  0.
         13    1    1    2    0    0 -0.33505959768E+02 -0.35255572967E+01  0.81831364969E+02  0.88495549893E+02  0.10566000000E+00 0.  1.
        994    1    1    2    0    0 -0.79953105977E+01 -0.37305562994E+02  0.12553305500E+02  0.17584838783E+03  0.17120000000E+03 0.  0.
        998    1    1    2    0    0  0.41501270365E+02  0.40831120291E+02  0.14056153258E+04  0.14068560623E+04  0.10000000000E+02 0.  1.
</event>
<event>
 5    1  0.1440459E-008  0.3830092E+03  0.7957747E-01  0.3438160E+00
         13   -1    0    0    0    0  0.00000000000E+00  0.00000000000E+00  0.14999999963E+04  0.15000000000E+04  0.10566000000E+00 0.  1.
        994   -1    0    0    0    0 -0.00000000000E+00 -0.00000000000E+00  0.11368683772E-12  0.17120000000E+03  0.17120000000E+03 0.  0.
         13    1    1    2    0    0 -0.26003988056E+02  0.33321756709E+02  0.24363414426E+03  0.24727344031E+03  0.10566000000E+00 0.  1.
        994    1    1    2    0    0  0.32925068498E+02 -0.49258766043E+02  0.14329613135E+02  0.18172854476E+03  0.17120000000E+03 0.  0.
        998    1    1    2    0    0 -0.69210804420E+01  0.15937009334E+02  0.12420362389E+04  0.12421980149E+04  0.10000000000E+02 0.  1.
</event>
<event>
 5    1  0.1440459E-008  0.3833320E+03  0.7957747E-01  0.3436777E+00
         13   -1    0    0    0    0  0.00000000000E+00  0.00000000000E+00  0.14999999963E+04  0.15000000000E+04  0.10566000000E+00 0. -1.
        994   -1    0    0    0    0 -0.00000000000E+00 -0.00000000000E+00  0.11368683772E-12  0.17120000000E+03  0.17120000000E+03 0.  0.
         13    1    1    2    0    0  0.80820575363E+00 -0.15901715816E+02  0.50317656956E+02  0.52776846515E+02  0.10566000000E+00 0. -1.
        994    1    1    2    0    0  0.48500691435E+01  0.12964792966E+02  0.30943620603E+01  0.17178656555E+03  0.17120000000E+03 0.  0.
        998    1    1    2    0    0 -0.56582748971E+01  0.29369228497E+01  0.14465879773E+04  0.14466365879E+04  0.10000000000E+02 0. -1.
</event>
<event>
 5    1  0.1440459E-008  0.3753008E+03  0.7957747E-01  0.3471879E+00
         13   -1    0    0    0    0  0.00000000000E+00  0.00000000000E+00  0.14999999963E+04  0.15000000000E+04  0.10566000000E+00 0. -1.
        994   -1    0    0    0    0 -0.00000000000E+00 -0.00000000000E+00  0.11368683772E-12  0.17120000000E+03  0.17120000000E+03 0.  0.
         13    1    1    2    0    0 -0.45027330739E+02  0.32704269580E+02  0.30652456375E+03  0.31153547006E+03  0.10566000000E+00 0. -1.
        994    1    1    2    0    0  0.12704825444E+02  0.17731603435E+02  0.81417975438E+01  0.17277601459E+03  0.17120000000E+03 0.  0.
        998    1    1    2    0    0  0.32322505295E+02 -0.50435873015E+02  0.11853336350E+04  0.11868885153E+04  0.10000000000E+02 0. -1.
</event>
<event>
 5    1  0.1440459E-008  0.3754828E+03  0.7957747E-01  0.3471066E+00
         13   -1    0    0    0    0  0.00000000000E+00  0.00000000000E+00  0.14999999963E+04  0.15000000000E+04  0.10566000000E+00 0. -1.
        994   -1    0    0    0    0 -0.00000000000E+00 -0.00000000000E+00  0.11368683772E-12  0.17120000000E+03  0.17120000000E+03 0.  0.
         13    1    1    2    0    0 -0.18126084967E+02 -0.88370576920E+02  0.44110595473E+03  0.45023592514E+03  0.10566000000E+00 0. -1.
        994    1    1    2    0    0  0.14281317217E+02  0.88968942760E+02  0.34504417197E+02  0.19651825260E+03  0.17120000000E+03 0.  0.
        998    1    1    2    0    0  0.38447677498E+01 -0.59836583965E+00  0.10243896243E+04  0.10244458223E+04  0.10000000000E+02 0. -1.
</event>
<event>
 5    1  0.1440459E-008  0.3837111E+03  0.7957747E-01  0.3435157E+00
         13   -1    0    0    0    0  0.00000000000E+00  0.00000000000E+00  0.14999999963E+04  0.15000000000E+04  0.10566000000E+00 0. -1.
        994   -1    0    0    0    0 -0.00000000000E+00 -0.00000000000E+00  0.11368683772E-12  0.17120000000E+03  0.17120000000E+03 0.  0.
         13    1    1    2    0    0  0.22923889449E+02  0.81067006455E+00  0.13360613495E+03  0.13556095438E+03  0.10566000000E+00 0. -1.
        994    1    1    2    0    0  0.22664123611E+01  0.25430688195E+02  0.44271034559E+01  0.17314992282E+03  0.17120000000E+03 0.  0.
        998    1    1    2    0    0 -0.25190301810E+02 -0.26241358260E+02  0.13619667579E+04  0.13624891228E+04  0.10000000000E+02 0. -1.
</event>
<event>
 5    1  0.1440459E-008  0.3806848E+03  0.7957747E-01  0.3448182E+00
         13   -1    0    0    0    0  0.00000000000E+00  0.00000000000E+00  0.14999999963E+04  0.15000000000E+04  0.10566000000E+00 0.  1.
        994   -1    0    0    0    0 -0.00000000000E+00 -0.00000000000E+00  0.11368683772E-12  0.17120000000E+03  0.17120000000E+03 0.  0.
         13    1    1    2    0    0  0.18822066845E+02  0.42038819586E+01  0.46177898445E+02  0.50043504001E+02  0.10566000000E+00 0.  1.
        994    1    1    2    0    0 -0.20354150143E+02 -0.67164588854E+01  0.53216547342E+01  0.17261854552E+03  0.17120000000E+03 0.  0.
        998    1    1    2    0    0  0.15320832976E+01  0.25125769269E+01  0.14485004431E+04  0.14485379505E+04  0.10000000000E+02 0.  1.
</event>
<event>
 5    1  0.1440459E-008  0.3768591E+03  0.7957747E-01  0.3464950E+00
         13   -1    0    0    0    0  0.00000000000E+00  0.00000000000E+00  0.14999999963E+04  0.15000000000E+04  0.10566000000E+00 0.  1.
        994   -1    0    0    0    0 -0.00000000000E+00 -0.00000000000E+00  0.11368683772E-12  0.17120000000E+03  0.17120000000E+03 0.  0.
         13    1    1    2    0    0 -0.17175590961E+02  0.11676826176E+02  0.34903648799E+02  0.40615576543E+02  0.10566000000E+00 0.  1.
        994    1    1    2    0    0  0.14597992716E+02 -0.11194253210E+02  0.68711311009E+01  0.17232256132E+03  0.17120000000E+03 0.  0.
        998    1    1    2    0    0  0.25775982452E+01 -0.48257296584E+00  0.14582252164E+04  0.14582618621E+04  0.10000000000E+02 0.  1.
</event>
<event>
 5    1  0.1440459E-008  0.3855635E+03  0.7957747E-01  0.3427286E+00
         13   -1    0    0    0    0  0.00000000000E+00  0.00000000000E+00  0.14999999963E+04  0.15000000000E+04  0.10566000000E+00 0.  1.
        994   -1    0    0    0    0 -0.00000000000E+00 -0.00000000000E+00  0.11368683772E-12  0.17120000000E+03  0.17120000000E+03 0.  0.
         13    1    1    2    0    0 -0.91032114564E+01  0.13271009442E+02  0.87451752927E+02  0.88920236192E+02  0.10566000000E+00 0.  1.
        994    1    1    2    0    0  0.10574462009E+02 -0.20366397848E+02  0.30812073284E+01  0.17275862713E+03  0.17120000000E+03 0.  0.
        998    1    1    2    0    0 -0.14712505531E+01  0.70953884051E+01  0.14094670360E+04  0.14095211367E+04  0.10000000000E+02 0.  1.
</event>
<event>
 5    1  0.1440459E-008  0.3818618E+03  0.7957747E-01  0.3443092E+00
         13   -1    0    0    0    0  0.00000000000E+00  0.00000000000E+00  0.14999999963E+04  0.15000000000E+04  0.10566000000E+00 0.  1.
        994   -1    0    0    0    0 -0.00000000000E+00 -0.00000000000E+00  0.11368683772E-12  0.17120000000E+03  0.17120000000E+03 0.  0.
         13    1    1    2    0    0 -0.31426312242E+02 -0.19235392263E+01  0.18628576872E+03  0.18892779545E+03  0.10566000000E+00 0.  1.
        994    1    1    2    0    0 -0.36186325082E+00 -0.34108848562E+02  0.70717703834E+01  0.17470831243E+03  0.17120000000E+03 0.  0.
        998    1    1    2    0    0  0.31788175492E+02  0.36032387788E+02  0.13066424572E+04  0.13075638921E+04  0.10000000000E+02 0.  1.
</event>
<event>
 5    1  0.1440459E-008  0.3761826E+03  0.7957747E-01  0.3467951E+00
         13   -1    0    0    0    0  0.00000000000E+00  0.00000000000E+00  0.14999999963E+04  0.15000000000E+04  0.10566000000E+00 0.  1.
        994   -1    0    0    0    0 -0.00000000000E+00 -0.00000000000E+00  0.11368683772E-12  0.17120000000E+03  0.17120000000E+03 0.  0.
         13    1    1    2    0    0  0.44886179851E+02 -0.16556734158E+02  0.74310962914E+02  0.88380003173E+02  0.10566000000E+00 0.  1.
        994    1    1    2    0    0 -0.30144025977E+02  0.24141100432E+02  0.19594639004E+02  0.17659231271E+03  0.17120000000E+03 0.  0.
        998    1    1    2    0    0 -0.14742153874E+02 -0.75843662746E+01  0.14060943944E+04  0.14062276841E+04  0.10000000000E+02 0.  1.
</event>
<event>
 5    1  0.1440459E-008  0.3829494E+03  0.7957747E-01  0.3438416E+00
         13   -1    0    0    0    0  0.00000000000E+00  0.00000000000E+00  0.14999999963E+04  0.15000000000E+04  0.10566000000E+00 0.  1.
        994   -1    0    0    0    0 -0.00000000000E+00 -0.00000000000E+00  0.11368683772E-12  0.17120000000E+03  0.17120000000E+03 0.  0.
         13    1    1    2    0    0 -0.15264148007E+02  0.25570172093E+01  0.42801806970E+02  0.45514155988E+02  0.10566000000E+00 0.  1.
        994    1    1    2    0    0  0.18515061983E+02 -0.29500527664E+01  0.38162604363E+01  0.17226582417E+03  0.17120000000E+03 0.  0.
        998    1    1    2    0    0 -0.32509139765E+01  0.39303555706E+00  0.14533819289E+04  0.14534200198E+04  0.10000000000E+02 0.  1.
</event>
<event>
 5    1  0.1440459E-008  0.3774400E+03  0.7957747E-01  0.3462382E+00
         13   -1    0    0    0    0  0.00000000000E+00  0.00000000000E+00  0.14999999963E+04  0.15000000000E+04  0.10566000000E+00 0. -1.
        994   -1    0    0    0    0 -0.00000000000E+00 -0.00000000000E+00  0.11368683772E-12  0.17120000000E+03  0.17120000000E+03 0.  0.
         13    1    1    2    0    0  0.85180888070E+00  0.29017242790E+02  0.78956590039E+02  0.84124195284E+02  0.10566000000E+00 0. -1.
        994    1    1    2    0    0 -0.60327545533E+01 -0.74532606088E+01  0.57410802778E+01  0.17156440547E+03  0.17120000000E+03 0.  0.
        998    1    1    2    0    0  0.51809456726E+01 -0.21563982181E+02  0.14153023260E+04  0.14155113992E+04  0.10000000000E+02 0. -1.
</event>
<event>
 5    1  0.1440459E-008  0.3783013E+03  0.7957747E-01  0.3458589E+00
         13   -1    0    0    0    0  0.00000000000E+00  0.00000000000E+00  0.14999999963E+04  0.15000000000E+04  0.10566000000E+00 0. -1.
        994   -1    0    0    0    0 -0.00000000000E+00 -0.00000000000E+00  0.11368683772E-12  0.17120000000E+03  0.17120000000E+03 0.  0.
         13    1    1    2    0    0  0.16570559367E+02 -0.18243580391E+02  0.55333132001E+02  0.60573742861E+02  0.10566000000E+00 0. -1.
        994    1    1    2    0    0 -0.27838585649E+02  0.19582023416E+02  0.88974026060E+01  0.17477713313E+03  0.17120000000E+03 0.  0.
        998    1    1    2    0    0  0.11268026282E+02 -0.13384430256E+01  0.14357694617E+04  0.14358491240E+04  0.10000000000E+02 0. -1.
</event>
<event>
 5    1  0.1440459E-008  0.3857294E+03  0.7957747E-01  0.3426585E+00
         13   -1    0    0    0    0  0.00000000000E+00  0.00000000000E+00  0.14999999963E+04  0.15000000000E+04  0.10566000000E+00 0.  1.
        994   -1    0    0    0    0 -0.00000000000E+00 -0.00000000000E+00  0.11368683772E-12  0.17120000000E+03  0.17120000000E+03 0.  0.
         13    1    1    2    0    0 -0.15019375597E+02 -0.18481718294E+01  0.85796592370E+02  0.87120972267E+02  0.10566000000E+00 0.  1.
        994    1    1    2    0    0  0.16262397474E+02  0.75512809000E+01  0.23239037476E+01  0.17215204891E+03  0.17120000000E+03 0.  0.
        998    1    1    2    0    0 -0.12430218764E+01 -0.57031090706E+01  0.14118795002E+04  0.14119269788E+04  0.10000000000E+02 0.  1.
</event>
<event>
 5    1  0.1440459E-008  0.3850802E+03  0.7957747E-01  0.3429332E+00
         13   -1    0    0    0    0  0.00000000000E+00  0.00000000000E+00  0.14999999963E+04  0.15000000000E+04  0.10566000000E+00 0.  1.
        994   -1    0    0    0    0 -0.00000000000E+00 -0.00000000000E+00  0.11368683772E-12  0.17120000000E+03  0.17120000000E+03 0.  0.
         13    1    1    2    0    0  0.19920579175E+02 -0.24276897379E+02  0.17850401303E+02  0.36122641262E+02  0.10566000000E+00 0.  1.
        994    1    1    2    0    0 -0.28785076375E+02  0.83792771479E+01  0.22471837038E+02  0.17525186552E+03  0.17120000000E+03 0.  0.
        998    1    1    2    0    0  0.88644972002E+01  0.15897620231E+02  0.14596777579E+04  0.14598254932E+04  0.10000000000E+02 0.  1.
</event>
<event>
 5    1  0.1440459E-008  0.3854056E+03  0.7957747E-01  0.3427954E+00
         13   -1    0    0    0    0  0.00000000000E+00  0.00000000000E+00  0.14999999963E+04  0.15000000000E+04  0.10566000000E+00 0. -1.
        994   -1    0    0    0    0 -0.00000000000E+00 -0.00000000000E+00  0.11368683772E-12  0.17120000000E+03  0.17120000000E+03 0.  0.
         13    1    1    2    0    0 -0.15126911790E+01  0.14141404438E+02  0.68578561969E+02  0.70037831776E+02  0.10566000000E+00 0. -1.
        994    1    1    2    0    0  0.24361493635E+01 -0.14381658914E+02  0.21280189932E+01  0.17183345251E+03  0.17120000000E+03 0.  0.
        998    1    1    2    0    0 -0.92345818449E+00  0.24025447611E+00  0.14292934153E+04  0.14293287157E+04  0.10000000000E+02 0. -1.
</event>
<event>
 5    1  0.1440459E-008  0.3814959E+03  0.7957747E-01  0.3444671E+00
         13   -1    0    0    0    0  0.00000000000E+00  0.00000000000E+00  0.14999999963E+04  0.15000000000E+04  0.10566000000E+00 0. -1.
        994   -1    0    0    0    0 -0.00000000000E+00 -0.00000000000E+00  0.11368683772E-12  0.17120000000E+03  0.17120000000E+03 0.  0.
         13    1    1    2    0    0  0.21247067534E+03  0.77163328982E+01  0.10080506187E+04  0.10302278344E+04  0.10566000000E+00 0. -1.
        994    1    1    2    0    0 -0.22214371771E+03 -0.13360254202E+02  0.19085043850E+03  0.33949912752E+03  0.17120000000E+03 0.  0.
        998    1    1    2    0    0  0.96730423645E+01  0.56439213042E+01  0.30109893904E+03  0.30147303808E+03  0.10000000000E+02 0. -1.
</event>
<event>
 5    1  0.1440459E-008  0.3821005E+03  0.7957747E-01  0.3442063E+00
         13   -1    0    0    0    0  0.00000000000E+00  0.00000000000E+00  0.14999999963E+04  0.15000000000E+04  0.10566000000E+00 0.  1.
        994   -1    0    0    0    0 -0.00000000000E+00 -0.00000000000E+00  0.11368683772E-12  0.17120000000E+03  0.17120000000E+03 0.  0.
         13    1    1    2    0    0 -0.29965121181E+01 -0.22949964877E+02  0.83714800632E+02  0.86855391207E+02  0.10566000000E+00 0.  1.
        994    1    1    2    0    0 -0.12820553264E+01  0.19996447398E+02  0.44106141669E+01  0.17242504195E+03  0.17120000000E+03 0.  0.
        998    1    1    2    0    0  0.42785674445E+01  0.29535174790E+01  0.14118745815E+04  0.14119195668E+04  0.10000000000E+02 0.  1.
</event>
<event>
 5    1  0.1440459E-008  0.3842668E+03  0.7957747E-01  0.3432788E+00
         13   -1    0    0    0    0  0.00000000000E+00  0.00000000000E+00  0.14999999963E+04  0.15000000000E+04  0.10566000000E+00 0.  1.
        994   -1    0    0    0    0 -0.00000000000E+00 -0.00000000000E+00  0.11368683772E-12  0.17120000000E+03  0.17120000000E+03 0.  0.
         13    1    1    2    0    0  0.18589296557E+02  0.12028951626E+02  0.11428863228E+03  0.11641374600E+03  0.10566000000E+00 0.  1.
        994    1    1    2    0    0 -0.17427086016E+02 -0.15406228766E+02  0.37802147255E+01  0.17281430854E+03  0.17120000000E+03 0.  0.
        998    1    1    2    0    0 -0.11622105411E+01  0.33772771406E+01  0.13819311493E+04  0.13819719455E+04  0.10000000000E+02 0.  1.
</event>
<event>
 5    1  0.1440459E-008  0.3794932E+03  0.7957747E-01  0.3453368E+00
         13   -1    0    0    0    0  0.00000000000E+00  0.00000000000E+00  0.14999999963E+04  0.15000000000E+04  0.10566000000E+00 0. -1.
        994   -1    0    0    0    0 -0.00000000000E+00 -0.00000000000E+00  0.11368683772E-12  0.17120000000E+03  0.17120000000E+03 0.  0.
         13    1    1    2    0    0  0.69036980022E+02  0.15053255611E+03  0.49387899436E+03  0.52090558386E+03  0.10566000000E+00 0. -1.
        994    1    1    2    0    0 -0.69603906941E+02 -0.15634586248E+03  0.13128085976E+03  0.27537762566E+03  0.17120000000E+03 0.  0.
        998    1    1    2    0    0  0.56692691936E+00  0.58133063713E+01  0.87484014216E+03  0.87491679048E+03  0.10000000000E+02 0. -1.
</event>
<event>
 5    1  0.1440459E-008  0.3837718E+03  0.7957747E-01  0.3434898E+00
         13   -1    0    0    0    0  0.00000000000E+00  0.00000000000E+00  0.14999999963E+04  0.15000000000E+04  0.10566000000E+00 0.  1.
        994   -1    0    0    0    0 -0.00000000000E+00 -0.00000000000E+00  0.11368683772E-12  0.17120000000E+03  0.17120000000E+03 0.  0.
         13    1    1    2    0    0 -0.11573184265E+02  0.61251653779E+01  0.37631671278E+02  0.39844825161E+02  0.10566000000E+00 0.  1.
        994    1    1    2    0    0  0.96840656276E+01 -0.77965130514E+00  0.25528588306E+01  0.17149444910E+03  0.17120000000E+03 0.  0.
        998    1    1    2    0    0  0.18891186376E+01 -0.53455140728E+01  0.14598154662E+04  0.14598607257E+04  0.10000000000E+02 0.  1.
</event>
<event>
 5    1  0.1440459E-008  0.3827379E+03  0.7957747E-01  0.3439323E+00
         13   -1    0    0    0    0  0.00000000000E+00  0.00000000000E+00  0.14999999963E+04  0.15000000000E+04  0.10566000000E+00 0.  1.
        994   -1    0    0    0    0 -0.00000000000E+00 -0.00000000000E+00  0.11368683772E-12  0.17120000000E+03  0.17120000000E+03 0.  0.
         13    1    1    2    0    0  0.19819478091E+02 -0.99231027250E+01  0.81550600512E+02  0.84509119552E+02  0.10566000000E+00 0.  1.
        994    1    1    2    0    0 -0.24527451291E+02  0.14192644165E+02  0.54223302259E+01  0.17361413733E+03  0.17120000000E+03 0.  0.
        998    1    1    2    0    0  0.47079732002E+01 -0.42695414401E+01  0.14130270655E+04  0.14130767431E+04  0.10000000000E+02 0.  1.
</event>
<event>
 5    1  0.1440459E-008  0.3692456E+03  0.7957747E-01  0.3499365E+00
         13   -1    0    0    0    0  0.00000000000E+00  0.00000000000E+00  0.14999999963E+04  0.15000000000E+04  0.10566000000E+00 0.  1.
        994   -1    0    0    0    0 -0.00000000000E+00 -0.00000000000E+00  0.11368683772E-12  0.17120000000E+03  0.17120000000E+03 0.  0.
         13    1    1    2    0    0 -0.16092073359E+02  0.20841268686E+02  0.31425790281E+02  0.40998838572E+02  0.10566000000E+00 0.  1.
        994    1    1    2    0    0  0.13303064840E+02 -0.20924861317E+02  0.11798213564E+02  0.17338817491E+03  0.17120000000E+03 0.  0.
        998    1    1    2    0    0  0.27890085198E+01  0.83592631214E-01  0.14567759924E+04  0.14568129865E+04  0.10000000000E+02 0.  1.
</event>
<event>
 5    1  0.1440459E-008  0.3813297E+03  0.7957747E-01  0.3445389E+00
         13   -1    0    0    0    0  0.00000000000E+00  0.00000000000E+00  0.14999999963E+04  0.15000000000E+04  0.10566000000E+00 0. -1.
        994   -1    0    0    0    0 -0.00000000000E+00 -0.00000000000E+00  0.11368683772E-12  0.17120000000E+03  0.17120000000E+03 0.  0.
         13    1    1    2    0    0  0.16282618851E+02  0.43094363047E+01  0.39896464837E+02  0.43306281166E+02  0.10566000000E+00 0. -1.
        994    1    1    2    0    0 -0.53629620799E+01 -0.18252766376E+02  0.46689578709E+01  0.17231704504E+03  0.17120000000E+03 0.  0.
        998    1    1    2    0    0 -0.10919656771E+02  0.13943330071E+02  0.14554345736E+04  0.14555766738E+04  0.10000000000E+02 0. -1.
</event>
<event>
 5    1  0.1440459E-008  0.3824088E+03  0.7957747E-01  0.3440737E+00
         13   -1    0    0    0    0  0.00000000000E+00  0.00000000000E+00  0.14999999963E+04  0.15000000000E+04  0.10566000000E+00 0.  1.
        994   -1    0    0    0    0 -0.00000000000E+00 -0.00000000000E+00  0.11368683772E-12  0.17120000000E+03  0.17120000000E+03 0.  0.
         13    1    1    2    0    0  0.19619724706E+02 -0.13540820561E+01  0.64057377233E+02  0.67008401546E+02  0.10566000000E+00 0.  1.
        994    1    1    2    0    0 -0.15087400859E+02  0.27615938741E+02  0.62133164968E+01  0.17417897416E+03  0.17120000000E+03 0.  0.
        998    1    1    2    0    0 -0.45323238466E+01 -0.26261856685E+02  0.14297293025E+04  0.14300126243E+04  0.10000000000E+02 0.  1.
</event>
<event>
 5    1  0.1440459E-008  0.3811876E+03  0.7957747E-01  0.3446004E+00
         13   -1    0    0    0    0  0.00000000000E+00  0.00000000000E+00  0.14999999963E+04  0.15000000000E+04  0.10566000000E+00 0.  1.
        994   -1    0    0    0    0 -0.00000000000E+00 -0.00000000000E+00  0.11368683772E-12  0.17120000000E+03  0.17120000000E+03 0.  0.
         13    1    1    2    0    0  0.26880154970E+02 -0.63668353684E+01  0.10269840923E+03  0.10634873646E+03  0.10566000000E+00 0.  1.
        994    1    1    2    0    0 -0.23802440392E+02  0.27228095806E+01  0.54484460574E+01  0.17295402691E+03  0.17120000000E+03 0.  0.
        998    1    1    2    0    0 -0.30777145782E+01  0.36440257878E+01  0.13918531410E+04  0.13918972366E+04  0.10000000000E+02 0.  1.
</event>
<event>
 5    1  0.1440459E-008  0.3819190E+03  0.7957747E-01  0.3442845E+00
         13   -1    0    0    0    0  0.00000000000E+00  0.00000000000E+00  0.14999999963E+04  0.15000000000E+04  0.10566000000E+00 0.  1.
        994   -1    0    0    0    0 -0.00000000000E+00 -0.00000000000E+00  0.11368683772E-12  0.17120000000E+03  0.17120000000E+03 0.  0.
         13    1    1    2    0    0  0.42097622763E+01 -0.18998447465E+02  0.57244980209E+02  0.60462070984E+02  0.10566000000E+00 0.  1.
        994    1    1    2    0    0 -0.35518033280E+01  0.17957321670E+02  0.42814396841E+01  0.17222906675E+03  0.17120000000E+03 0.  0.
        998    1    1    2    0    0 -0.65795894837E+00  0.10411257956E+01  0.14384735764E+04  0.14385088623E+04  0.10000000000E+02 0.  1.
</event>
<event>
 5    1  0.1440459E-008  0.3854178E+03  0.7957747E-01  0.3427902E+00
         13   -1    0    0    0    0  0.00000000000E+00  0.00000000000E+00  0.14999999963E+04  0.15000000000E+04  0.10566000000E+00 0. -1.
        994   -1    0    0    0    0 -0.00000000000E+00 -0.00000000000E+00  0.11368683772E-12  0.17120000000E+03  0.17120000000E+03 0.  0.
         13    1    1    2    0    0 -0.62120240524E+01 -0.13618478156E+02  0.75044015981E+02  0.76522334574E+02  0.10566000000E+00 0. -1.
        994    1    1    2    0    0  0.98144007002E+01  0.14299760902E+02  0.24113602241E+01  0.17209317326E+03  0.17120000000E+03 0.  0.
        998    1    1    2    0    0 -0.36023766477E+01 -0.68128274622E+00  0.14225446201E+04  0.14225844922E+04  0.10000000000E+02 0. -1.
</event>
<event>
 5    1  0.1440459E-008  0.3709790E+03  0.7957747E-01  0.3491403E+00
         13   -1    0    0    0    0  0.00000000000E+00  0.00000000000E+00  0.14999999963E+04  0.15000000000E+04  0.10566000000E+00 0.  1.
        994   -1    0    0    0    0 -0.00000000000E+00 -0.00000000000E+00  0.11368683772E-12  0.17120000000E+03  0.17120000000E+03 0.  0.
         13    1    1    2    0    0  0.17144805466E+02 -0.67582523182E+02  0.25426696620E+03  0.26365326294E+03  0.10566000000E+00 0.  1.
        994    1    1    2    0    0 -0.22593976243E-01  0.58782327304E+01  0.11578689361E+02  0.17169175920E+03  0.17120000000E+03 0.  0.
        998    1    1    2    0    0 -0.17122211490E+02  0.61704290452E+02  0.12341543407E+04  0.12358549779E+04  0.10000000000E+02 0.  1.
</event>
<event>
 5    1  0.1440459E-008  0.3853687E+03  0.7957747E-01  0.3428110E+00
         13   -1    0    0    0    0  0.00000000000E+00  0.00000000000E+00  0.14999999963E+04  0.15000000000E+04  0.10566000000E+00 0. -1.
        994   -1    0    0    0    0 -0.00000000000E+00 -0.00000000000E+00  0.11368683772E-12  0.17120000000E+03  0.17120000000E+03 0.  0.
         13    1    1    2    0    0  0.63476441476E+01  0.12843174051E+02  0.65752107847E+02  0.67294803338E+02  0.10566000000E+00 0. -1.
        994    1    1    2    0    0 -0.95508963466E+01 -0.19124051763E+02  0.29495868442E+01  0.17255459727E+03  0.17120000000E+03 0.  0.
        998    1    1    2    0    0  0.32032521991E+01  0.62808777121E+01  0.14312983016E+04  0.14313505994E+04  0.10000000000E+02 0. -1.
</event>
<event>
 5    1  0.1440459E-008  0.3837148E+03  0.7957747E-01  0.3435141E+00
         13   -1    0    0    0    0  0.00000000000E+00  0.00000000000E+00  0.14999999963E+04  0.15000000000E+04  0.10566000000E+00 0. -1.
        994   -1    0    0    0    0 -0.00000000000E+00 -0.00000000000E+00  0.11368683772E-12  0.17120000000E+03  0.17120000000E+03 0.  0.
         13    1    1    2    0    0  0.11062750417E+02 -0.16158515805E+02  0.86917269008E+02  0.89096043097E+02  0.10566000000E+00 0. -1.
        994    1    1    2    0    0  0.44718055329E+01  0.11626684521E+02  0.27822074432E+01  0.17167515113E+03  0.17120000000E+03 0.  0.
        998    1    1    2    0    0 -0.15534555950E+02  0.45318312836E+01  0.14103005198E+04  0.14104288058E+04  0.10000000000E+02 0. -1.
</event>
<event>
 5    1  0.1440459E-008  0.3745948E+03  0.7957747E-01  0.3475037E+00
         13   -1    0    0    0    0  0.00000000000E+00  0.00000000000E+00  0.14999999963E+04  0.15000000000E+04  0.10566000000E+00 0.  1.
        994   -1    0    0    0    0 -0.00000000000E+00 -0.00000000000E+00  0.11368683772E-12  0.17120000000E+03  0.17120000000E+03 0.  0.
         13    1    1    2    0    0  0.38225674564E+02 -0.14693062965E+02  0.12784111933E+03  0.13424027433E+03  0.10566000000E+00 0.  1.
        994    1    1    2    0    0 -0.89918360620E+01  0.47940368480E+01  0.72404508427E+01  0.17165576027E+03  0.17120000000E+03 0.  0.
        998    1    1    2    0    0 -0.29233838502E+02  0.98990261172E+01  0.13649184261E+04  0.13653039654E+04  0.10000000000E+02 0.  1.
</event>
<event>
 5    1  0.1440459E-008  0.3834841E+03  0.7957747E-01  0.3436127E+00
         13   -1    0    0    0    0  0.00000000000E+00  0.00000000000E+00  0.14999999963E+04  0.15000000000E+04  0.10566000000E+00 0. -1.
        994   -1    0    0    0    0 -0.00000000000E+00 -0.00000000000E+00  0.11368683772E-12  0.17120000000E+03  0.17120000000E+03 0.  0.
         13    1    1    2    0    0 -0.18652581285E+02 -0.12463832090E+02  0.12702231516E+03  0.12898816074E+03  0.10566000000E+00 0. -1.
        994    1    1    2    0    0 -0.40764641489E+01 -0.13351955803E+02  0.30290078496E+01  0.17179495677E+03  0.17120000000E+03 0.  0.
        998    1    1    2    0    0  0.22729045434E+02  0.25815787894E+02  0.13699486733E+04  0.13704168825E+04  0.10000000000E+02 0. -1.
</event>
<event>
 5    1  0.1440459E-008  0.2563274E+03  0.7957747E-01  0.4267390E+00
         13   -1    0    0    0    0  0.00000000000E+00  0.00000000000E+00  0.14999999963E+04  0.15000000000E+04  0.10566000000E+00 0. -1.
        994   -1    0    0    0    0 -0.00000000000E+00 -0.00000000000E+00  0.11368683772E-12  0.17120000000E+03  0.17120000000E+03 0.  0.
         13    1    1    2    0    0  0.90356439765E+02  0.10736662612E+03  0.54805290956E+03  0.56573304788E+03  0.10566000000E+00 0. -1.
        994    1    1    2    0    0 -0.54183455424E+02  0.17737960584E+02  0.40790868905E+02  0.18499680287E+03  0.17120000000E+03 0.  0.
        998    1    1    2    0    0 -0.36172984341E+02 -0.12510458671E+03  0.91115621781E+03  0.92047014925E+03  0.10000000000E+02 0. -1.
</event>
<event>
 5    1  0.1440459E-008  0.3841486E+03  0.7957747E-01  0.3433291E+00
         13   -1    0    0    0    0  0.00000000000E+00  0.00000000000E+00  0.14999999963E+04  0.15000000000E+04  0.10566000000E+00 0.  1.
        994   -1    0    0    0    0 -0.00000000000E+00 -0.00000000000E+00  0.11368683772E-12  0.17120000000E+03  0.17120000000E+03 0.  0.
         13    1    1    2    0    0 -0.68063007375E+01  0.13190480327E+02  0.65787714936E+02  0.67441449432E+02  0.10566000000E+00 0.  1.
        994    1    1    2    0    0 -0.83658753299E+01  0.24713102192E+02  0.43015274481E+01  0.17323010255E+03  0.17120000000E+03 0.  0.
        998    1    1    2    0    0  0.15172176067E+02 -0.37903582518E+02  0.14299107539E+04  0.14305284480E+04  0.10000000000E+02 0.  1.
</event>
<event>
 5    1  0.1440459E-008  0.3724903E+03  0.7957747E-01  0.3484524E+00
         13   -1    0    0    0    0  0.00000000000E+00  0.00000000000E+00  0.14999999963E+04  0.15000000000E+04  0.10566000000E+00 0. -1.
        994   -1    0    0    0    0 -0.00000000000E+00 -0.00000000000E+00  0.11368683772E-12  0.17120000000E+03  0.17120000000E+03 0.  0.
         13    1    1    2    0    0  0.10997111291E+02 -0.12480055216E+02  0.14191522848E+02  0.21865468660E+02  0.10566000000E+00 0. -1.
        994    1    1    2    0    0 -0.41443186713E+01 -0.20542651831E+01  0.80465350353E+01  0.17145139868E+03  0.17120000000E+03 0.  0.
        998    1    1    2    0    0 -0.68527926197E+01  0.14534320399E+02  0.14777619384E+04  0.14778831327E+04  0.10000000000E+02 0. -1.
</event>
<event>
 5    1  0.1440459E-008  0.3815788E+03  0.7957747E-01  0.3444313E+00
         13   -1    0    0    0    0  0.00000000000E+00  0.00000000000E+00  0.14999999963E+04  0.15000000000E+04  0.10566000000E+00 0. -1.
        994   -1    0    0    0    0 -0.00000000000E+00 -0.00000000000E+00  0.11368683772E-12  0.17120000000E+03  0.17120000000E+03 0.  0.
         13    1    1    2    0    0  0.74247735952E+01  0.19544438472E+02  0.64573040403E+02  0.67873419311E+02  0.10566000000E+00 0. -1.
        994    1    1    2    0    0  0.30437028207E+01 -0.14642413813E+02  0.40824487463E+01  0.17190046770E+03  0.17120000000E+03 0.  0.
        998    1    1    2    0    0 -0.10468476416E+02 -0.49020246589E+01  0.14313445071E+04  0.14314261130E+04  0.10000000000E+02 0. -1.
</event>
<event>
 5    1  0.1440459E-008  0.3746089E+03  0.7957747E-01  0.3474974E+00
         13   -1    0    0    0    0  0.00000000000E+00  0.00000000000E+00  0.14999999963E+04  0.15000000000E+04  0.10566000000E+00 0.  1.
        994   -1    0    0    0    0 -0.00000000000E+00 -0.00000000000E+00  0.11368683772E-12  0.17120000000E+03  0.17120000000E+03 0.  0.
         13    1    1    2    0    0 -0.40902037475E+02 -0.54627710888E+01  0.10880182069E+03  0.11636436691E+03  0.10566000000E+00 0.  1.
        994    1    1    2    0    0  0.49508086000E+02  0.92330564103E+01  0.15561973637E+02  0.17913099937E+03  0.17120000000E+03 0.  0.
        998    1    1    2    0    0 -0.86060485255E+01 -0.37702853215E+01  0.13756362020E+04  0.13757046337E+04  0.10000000000E+02 0.  1.
</event>
<event>
 5    1  0.1440459E-008  0.3749609E+03  0.7957747E-01  0.3473397E+00
         13   -1    0    0    0    0  0.00000000000E+00  0.00000000000E+00  0.14999999963E+04  0.15000000000E+04  0.10566000000E+00 0.  1.
        994   -1    0    0    0    0 -0.00000000000E+00 -0.00000000000E+00  0.11368683772E-12  0.17120000000E+03  0.17120000000E+03 0.  0.
         13    1    1    2    0    0  0.87776586920E+01 -0.11585151903E+03  0.56713232234E+03  0.57891079102E+03  0.10566000000E+00 0.  1.
        994    1    1    2    0    0 -0.16227838926E+02  0.12026672400E+03  0.58540570084E+02  0.21786203433E+03  0.17120000000E+03 0.  0.
        998    1    1    2    0    0  0.74501802335E+01 -0.44152049702E+01  0.87432710386E+03  0.87442717465E+03  0.10000000000E+02 0.  0.
</event>
<event>
 5    1  0.1440459E-008  0.3807260E+03  0.7957747E-01  0.3448003E+00
         13   -1    0    0    0    0  0.00000000000E+00  0.00000000000E+00  0.14999999963E+04  0.15000000000E+04  0.10566000000E+00 0. -1.
        994   -1    0    0    0    0 -0.00000000000E+00 -0.00000000000E+00  0.11368683772E-12  0.17120000000E+03  0.17120000000E+03 0.  0.
         13    1    1    2    0    0 -0.45164489853E+02  0.11850995129E+02  0.23316878109E+03  0.23779816834E+03  0.10566000000E+00 0. -1.
        994    1    1    2    0    0  0.54174473330E+02 -0.24596426799E+01  0.13637808111E+02  0.18010095284E+03  0.17120000000E+03 0.  0.
        998    1    1    2    0    0 -0.90099834779E+01 -0.93913524493E+01  0.12531934071E+04  0.12533008788E+04  0.10000000000E+02 0. -1.
</event>
<event>
 5    1  0.1440459E-008  0.3903474E+03  0.7957747E-01  0.3407305E+00
         13   -1    0    0    0    0  0.00000000000E+00  0.00000000000E+00  0.14999999963E+04  0.15000000000E+04  0.10566000000E+00 0. -1.
        994   -1    0    0    0    0 -0.00000000000E+00 -0.00000000000E+00  0.11368683772E-12  0.17120000000E+03  0.17120000000E+03 0.  0.
         13    1    1    2    0    0  0.37836996532E+01  0.17955130175E+02 -0.23763554810E+01  0.18503008190E+02  0.10566000000E+00 0. -1.
        994    1    1    2    0    0 -0.27477002156E+01 -0.23517911424E+02  0.24246092294E+02  0.17452207598E+03  0.17120000000E+03 0.  0.
        998    1    1    2    0    0 -0.10359994376E+01  0.55627812496E+01  0.14781302595E+04  0.14781749158E+04  0.10000000000E+02 0. -1.
</event>
<event>
 5    1  0.1440459E-008  0.3812760E+03  0.7957747E-01  0.3445621E+00
         13   -1    0    0    0    0  0.00000000000E+00  0.00000000000E+00  0.14999999963E+04  0.15000000000E+04  0.10566000000E+00 0. -1.
        994   -1    0    0    0    0 -0.00000000000E+00 -0.00000000000E+00  0.11368683772E-12  0.17120000000E+03  0.17120000000E+03 0.  0.
         13    1    1    2    0    0  0.20956772380E+02  0.63191718199E+01  0.70390521403E+02  0.73715364128E+02  0.10566000000E+00 0. -1.
        994    1    1    2    0    0  0.46766584666E+01 -0.34733965531E+02  0.75901429607E+01  0.17491532170E+03  0.17120000000E+03 0.  0.
        998    1    1    2    0    0 -0.25633430847E+02  0.28414793711E+02  0.14220193319E+04  0.14225693142E+04  0.10000000000E+02 0. -1.
</event>
<event>
 5    1  0.1440459E-008  0.3820863E+03  0.7957747E-01  0.3442124E+00
         13   -1    0    0    0    0  0.00000000000E+00  0.00000000000E+00  0.14999999963E+04  0.15000000000E+04  0.10566000000E+00 0. -1.
        994   -1    0    0    0    0 -0.00000000000E+00 -0.00000000000E+00  0.11368683772E-12  0.17120000000E+03  0.17120000000E+03 0.  0.
         13    1    1    2    0    0 -0.17256839771E+02  0.16749183524E+02  0.88830287877E+02  0.92028065697E+02  0.10566000000E+00 0. -1.
        994    1    1    2    0    0  0.17694112160E+02 -0.14596791629E+02  0.48324390117E+01  0.17279739696E+03  0.17120000000E+03 0.  0.
        998    1    1    2    0    0 -0.43727238843E+00 -0.21523918955E+01  0.14063372694E+04  0.14063745373E+04  0.10000000000E+02 0. -1.
</event>
<event>
 5    1  0.1440459E-008  0.3711899E+03  0.7957747E-01  0.3490440E+00
         13   -1    0    0    0    0  0.00000000000E+00  0.00000000000E+00  0.14999999963E+04  0.15000000000E+04  0.10566000000E+00 0.  1.
        994   -1    0    0    0    0 -0.00000000000E+00 -0.00000000000E+00  0.11368683772E-12  0.17120000000E+03  0.17120000000E+03 0.  0.
         13    1    1    2    0    0 -0.60822816980E+02 -0.98968517921E+01  0.19324219074E+03  0.20282977638E+03  0.10566000000E+00 0.  1.
        994    1    1    2    0    0  0.59328493747E+02 -0.21306260726E+01  0.20884241929E+02  0.18240066145E+03  0.17120000000E+03 0.  0.
        998    1    1    2    0    0  0.14943232324E+01  0.12027477865E+02  0.12858735636E+04  0.12859695622E+04  0.10000000000E+02 0.  1.
</event>
<event>
 5    1  0.1440459E-008  0.3753177E+03  0.7957747E-01  0.3471803E+00
         13   -1    0    0    0    0  0.00000000000E+00  0.00000000000E+00  0.14999999963E+04  0.15000000000E+04  0.10566000000E+00 0.  1.
        994   -1    0    0    0    0 -0.00000000000E+00 -0.00000000000E+00  0.11368683772E-12  0.17120000000E+03  0.17120000000E+03 0.  0.
         13    1    1    2    0    0 -0.17887795042E+02  0.12505840324E+02  0.34088177292E+02  0.40476959481E+02  0.10566000000E+00 0.  1.
        994    1    1    2    0    0  0.14062440398E+02 -0.24605794585E+01  0.72080034147E+01  0.17194534595E+03  0.17120000000E+03 0.  0.
        998    1    1    2    0    0  0.38253546448E+01 -0.10045260865E+02  0.14587038156E+04  0.14587776946E+04  0.10000000000E+02 0.  1.
</event>
<event>
 5    1  0.1440459E-008  0.3735323E+03  0.7957747E-01  0.3479813E+00
         13   -1    0    0    0    0  0.00000000000E+00  0.00000000000E+00  0.14999999963E+04  0.15000000000E+04  0.10566000000E+00 0. -1.
        994   -1    0    0    0    0 -0.00000000000E+00 -0.00000000000E+00  0.11368683772E-12  0.17120000000E+03  0.17120000000E+03 0.  0.
         13    1    1    2    0    0 -0.58971572678E+02  0.22723122447E+01  0.86454109413E+02  0.10467632963E+03  0.10566000000E+00 0. -1.
        994    1    1    2    0    0  0.15787522237E+03  0.16479840865E+01  0.10716677624E+03  0.25636196992E+03  0.17120000000E+03 0.  0.
        998    1    1    2    0    0 -0.98903649693E+02 -0.39202963311E+01  0.13063791106E+04  0.13101617004E+04  0.10000000000E+02 0. -1.
</event>
<event>
 5    1  0.1440459E-008  0.3724057E+03  0.7957747E-01  0.3484907E+00
         13   -1    0    0    0    0  0.00000000000E+00  0.00000000000E+00  0.14999999963E+04  0.15000000000E+04  0.10566000000E+00 0.  1.
        994   -1    0    0    0    0 -0.00000000000E+00 -0.00000000000E+00  0.11368683772E-12  0.17120000000E+03  0.17120000000E+03 0.  0.
         13    1    1    2    0    0  0.30062447212E+00  0.60520803787E+02  0.26001908829E+03  0.26696965278E+03  0.10566000000E+00 0.  1.
        994    1    1    2    0    0 -0.98599886471E+01 -0.13463648627E+02  0.89726033310E+01  0.17224528098E+03  0.17120000000E+03 0.  0.
        998    1    1    2    0    0  0.95593641749E+01 -0.47057155161E+02  0.12310083047E+04  0.12319850662E+04  0.10000000000E+02 0.  1.
</event>
<event>
 5    1  0.1440459E-008  0.3792064E+03  0.7957747E-01  0.3454621E+00
         13   -1    0    0    0    0  0.00000000000E+00  0.00000000000E+00  0.14999999963E+04  0.15000000000E+04  0.10566000000E+00 0. -1.
        994   -1    0    0    0    0 -0.00000000000E+00 -0.00000000000E+00  0.11368683772E-12  0.17120000000E+03  0.17120000000E+03 0.  0.
         13    1    1    2    0    0 -0.33921518698E+02  0.28164525843E+02  0.25325624643E+03  0.25706545366E+03  0.10566000000E+00 0. -1.
        994    1    1    2    0    0 -0.16702618111E+01 -0.91904910102E+01  0.48267924540E+01  0.17152257235E+03  0.17120000000E+03 0.  0.
        998    1    1    2    0    0  0.35591780509E+02 -0.18974034833E+02  0.12419169574E+04  0.12426119740E+04  0.10000000000E+02 0. -1.
</event>
<event>
 5    1  0.1440459E-008  0.3708704E+03  0.7957747E-01  0.3491900E+00
         13   -1    0    0    0    0  0.00000000000E+00  0.00000000000E+00  0.14999999963E+04  0.15000000000E+04  0.10566000000E+00 0. -1.
        994   -1    0    0    0    0 -0.00000000000E+00 -0.00000000000E+00  0.11368683772E-12  0.17120000000E+03  0.17120000000E+03 0.  0.
         13    1    1    2    0    0 -0.24266100641E+02 -0.10360572371E+03  0.37978910784E+03  0.39441446123E+03  0.10566000000E+00 0. -1.
        994    1    1    2    0    0  0.34737504121E+02  0.94590912425E+02  0.47911361522E+02  0.20435036939E+03  0.17120000000E+03 0.  0.
        998    1    1    2    0    0 -0.10471403480E+02  0.90148112847E+01  0.10722995269E+04  0.10724351694E+04  0.10000000000E+02 0. -1.
</event>
<event>
 5    1  0.1440459E-008  0.3831891E+03  0.7957747E-01  0.3437389E+00
         13   -1    0    0    0    0  0.00000000000E+00  0.00000000000E+00  0.14999999963E+04  0.15000000000E+04  0.10566000000E+00 0.  1.
        994   -1    0    0    0    0 -0.00000000000E+00 -0.00000000000E+00  0.11368683772E-12  0.17120000000E+03  0.17120000000E+03 0.  0.
         13    1    1    2    0    0 -0.31435858354E+02 -0.61009742058E+01  0.18581672809E+03  0.18855583438E+03  0.10566000000E+00 0.  1.
        994    1    1    2    0    0  0.29110331666E+02 -0.15430194994E+01  0.53481585201E+01  0.17374646793E+03  0.17120000000E+03 0.  0.
        998    1    1    2    0    0  0.23255266884E+01  0.76439937052E+01  0.13088351097E+04  0.13088976977E+04  0.10000000000E+02 0.  1.
</event>
<event>
 5    1  0.1440459E-008  0.3818471E+03  0.7957747E-01  0.3443155E+00
         13   -1    0    0    0    0  0.00000000000E+00  0.00000000000E+00  0.14999999963E+04  0.15000000000E+04  0.10566000000E+00 0.  1.
        994   -1    0    0    0    0 -0.00000000000E+00 -0.00000000000E+00  0.11368683772E-12  0.17120000000E+03  0.17120000000E+03 0.  0.
         13    1    1    2    0    0  0.13725970179E+01  0.32007226464E+02  0.16259578180E+03  0.16572189352E+03  0.10566000000E+00 0.  1.
        994    1    1    2    0    0  0.91233574789E+00 -0.16021277006E+02  0.40597475168E+01  0.17199835820E+03  0.17120000000E+03 0.  0.
        998    1    1    2    0    0 -0.22849327658E+01 -0.15985949458E+02  0.13333444670E+04  0.13334797483E+04  0.10000000000E+02 0.  1.
</event>
<event>
 5    1  0.1440459E-008  0.3822134E+03  0.7957747E-01  0.3441577E+00
         13   -1    0    0    0    0  0.00000000000E+00  0.00000000000E+00  0.14999999963E+04  0.15000000000E+04  0.10566000000E+00 0.  1.
        994   -1    0    0    0    0 -0.00000000000E+00 -0.00000000000E+00  0.11368683772E-12  0.17120000000E+03  0.17120000000E+03 0.  0.
         13    1    1    2    0    0 -0.39356993533E+02 -0.73804580118E+02  0.18309956195E+03  0.20129965161E+03  0.10566000000E+00 0.  1.
        994    1    1    2    0    0  0.31363810269E+02  0.59135179733E+02  0.34105873813E+02  0.18695803996E+03  0.17120000000E+03 0.  0.
        998    1    1    2    0    0  0.79931832633E+01  0.14669400385E+02  0.12827945605E+04  0.12829423084E+04  0.10000000000E+02 0.  1.
</event>
<event>
 5    1  0.1440459E-008  0.3692076E+03  0.7957747E-01  0.3499541E+00
         13   -1    0    0    0    0  0.00000000000E+00  0.00000000000E+00  0.14999999963E+04  0.15000000000E+04  0.10566000000E+00 0.  1.
        994   -1    0    0    0    0 -0.00000000000E+00 -0.00000000000E+00  0.11368683772E-12  0.17120000000E+03  0.17120000000E+03 0.  0.
         13    1    1    2    0    0 -0.85266203126E+01 -0.34657637051E+02  0.62552116790E+02  0.72018286142E+02  0.10566000000E+00 0.  1.
        994    1    1    2    0    0  0.21489554069E+01  0.21498612397E+02  0.11304004465E+02  0.17292781402E+03  0.17120000000E+03 0.  0.
        998    1    1    2    0    0  0.63776649056E+01  0.13159024654E+02  0.14261438750E+04  0.14262538998E+04  0.10000000000E+02 0.  1.
</event>
<event>
 5    1  0.1440459E-008  0.3736912E+03  0.7957747E-01  0.3479097E+00
         13   -1    0    0    0    0  0.00000000000E+00  0.00000000000E+00  0.14999999963E+04  0.15000000000E+04  0.10566000000E+00 0. -1.
        994   -1    0    0    0    0 -0.00000000000E+00 -0.00000000000E+00  0.11368683772E-12  0.17120000000E+03  0.17120000000E+03 0.  0.
         13    1    1    2    0    0  0.21549023784E+02 -0.20037393877E+02  0.27207018542E+02  0.40076060203E+02  0.10566000000E+00 0. -1.
        994    1    1    2    0    0 -0.25727694880E+02  0.27086025984E+02  0.17863061017E+02  0.17613658347E+03  0.17120000000E+03 0.  0.
        998    1    1    2    0    0  0.41786710960E+01 -0.70486321067E+01  0.14549299167E+04  0.14549873563E+04  0.10000000000E+02 0. -1.
</event>
<event>
 5    1  0.1440459E-008  0.3816207E+03  0.7957747E-01  0.3444132E+00
         13   -1    0    0    0    0  0.00000000000E+00  0.00000000000E+00  0.14999999963E+04  0.15000000000E+04  0.10566000000E+00 0. -1.
        994   -1    0    0    0    0 -0.00000000000E+00 -0.00000000000E+00  0.11368683772E-12  0.17120000000E+03  0.17120000000E+03 0.  0.
         13    1    1    2    0    0 -0.27506107850E+02 -0.47667294466E+01  0.12339588289E+03  0.12651427886E+03  0.10566000000E+00 0. -1.
        994    1    1    2    0    0  0.64237644954E+01  0.78388027019E+01  0.36588361651E+01  0.17153873807E+03  0.17120000000E+03 0.  0.
        998    1    1    2    0    0  0.21082343355E+02 -0.30720732553E+01  0.13729452772E+04  0.13731469831E+04  0.10000000000E+02 0. -1.
</event>
<event>
 5    1  0.1440459E-008  0.3833773E+03  0.7957747E-01  0.3436584E+00
         13   -1    0    0    0    0  0.00000000000E+00  0.00000000000E+00  0.14999999963E+04  0.15000000000E+04  0.10566000000E+00 0. -1.
        994   -1    0    0    0    0 -0.00000000000E+00 -0.00000000000E+00  0.11368683772E-12  0.17120000000E+03  0.17120000000E+03 0.  0.
         13    1    1    2    0    0 -0.16251643366E+02 -0.19423546821E+02  0.12123163936E+03  0.12384874496E+03  0.10566000000E+00 0. -1.
        994    1    1    2    0    0  0.15001695914E+02  0.21647604980E+02  0.47346120216E+01  0.17327875298E+03  0.17120000000E+03 0.  0.
        998    1    1    2    0    0  0.12499474520E+01 -0.22240581593E+01  0.13740337449E+04  0.13740725021E+04  0.10000000000E+02 0. -1.
</event>
<event>
 5    1  0.1440459E-008  0.3765571E+03  0.7957747E-01  0.3466288E+00
         13   -1    0    0    0    0  0.00000000000E+00  0.00000000000E+00  0.14999999963E+04  0.15000000000E+04  0.10566000000E+00 0.  1.
        994   -1    0    0    0    0 -0.00000000000E+00 -0.00000000000E+00  0.11368683772E-12  0.17120000000E+03  0.17120000000E+03 0.  0.
         13    1    1    2    0    0  0.22847512236E+02 -0.80443795183E+00  0.45707716879E+02  0.51106383967E+02  0.10566000000E+00 0.  1.
        994    1    1    2    0    0  0.10780024834E+02  0.58145244419E+01  0.63887354320E+01  0.17175643677E+03  0.17120000000E+03 0.  0.
        998    1    1    2    0    0 -0.33627537071E+02 -0.50100864901E+01  0.14479035440E+04  0.14483371793E+04  0.10000000000E+02 0.  1.
</event>
<event>
 5    1  0.1440459E-008  0.3795841E+03  0.7957747E-01  0.3452972E+00
         13   -1    0    0    0    0  0.00000000000E+00  0.00000000000E+00  0.14999999963E+04  0.15000000000E+04  0.10566000000E+00 0. -1.
        994   -1    0    0    0    0 -0.00000000000E+00 -0.00000000000E+00  0.11368683772E-12  0.17120000000E+03  0.17120000000E+03 0.  0.
         13    1    1    2    0    0 -0.11325869429E+02  0.21452446052E+02  0.63193121185E+02  0.67689471035E+02  0.10566000000E+00 0. -1.
        994    1    1    2    0    0  0.12567162710E+02 -0.23583433381E+02  0.67374286123E+01  0.17340399319E+03  0.17120000000E+03 0.  0.
        998    1    1    2    0    0 -0.12412932809E+01  0.21309873288E+01  0.14300694465E+04  0.14301065358E+04  0.10000000000E+02 0. -1.
</event>
<event>
 5    1  0.1440459E-008  0.3726212E+03  0.7957747E-01  0.3483930E+00
         13   -1    0    0    0    0  0.00000000000E+00  0.00000000000E+00  0.14999999963E+04  0.15000000000E+04  0.10566000000E+00 0.  1.
        994   -1    0    0    0    0 -0.00000000000E+00 -0.00000000000E+00  0.11368683772E-12  0.17120000000E+03  0.17120000000E+03 0.  0.
         13    1    1    2    0    0  0.44870446847E+02  0.34805606907E+02  0.26454564205E+03  0.27057197779E+03  0.10566000000E+00 0.  1.
        994    1    1    2    0    0  0.31385941315E+01  0.79161929703E+01  0.81539135450E+01  0.17160548706E+03  0.17120000000E+03 0.  0.
        998    1    1    2    0    0 -0.48009040978E+02 -0.42721799877E+02  0.12273004407E+04  0.12290225351E+04  0.10000000000E+02 0.  1.
</event>
<event>
 5    1  0.1440459E-008  0.3724224E+03  0.7957747E-01  0.3484831E+00
         13   -1    0    0    0    0  0.00000000000E+00  0.00000000000E+00  0.14999999963E+04  0.15000000000E+04  0.10566000000E+00 0.  1.
        994   -1    0    0    0    0 -0.00000000000E+00 -0.00000000000E+00  0.11368683772E-12  0.17120000000E+03  0.17120000000E+03 0.  0.
         13    1    1    2    0    0 -0.70802660475E+02  0.32346117956E+01  0.39008121307E+03  0.39646796011E+03  0.10566000000E+00 0.  1.
        994    1    1    2    0    0  0.13930590137E+02 -0.20699027950E+02  0.10145903796E+02  0.17330577158E+03  0.17120000000E+03 0.  0.
        998    1    1    2    0    0  0.56872070338E+02  0.17464416154E+02  0.10997728794E+04  0.11014262683E+04  0.10000000000E+02 0.  1.
</event>
<event>
 5    1  0.1440459E-008  0.3814747E+03  0.7957747E-01  0.3444762E+00
         13   -1    0    0    0    0  0.00000000000E+00  0.00000000000E+00  0.14999999963E+04  0.15000000000E+04  0.10566000000E+00 0. -1.
        994   -1    0    0    0    0 -0.00000000000E+00 -0.00000000000E+00  0.11368683772E-12  0.17120000000E+03  0.17120000000E+03 0.  0.
         13    1    1    2    0    0  0.30976660288E+02 -0.97304393464E+01  0.16729897748E+03  0.17042063831E+03  0.10566000000E+00 0. -1.
        994    1    1    2    0    0 -0.57268662500E+01  0.95282961209E+01  0.38018270511E+01  0.17160267863E+03  0.17120000000E+03 0.  0.
        998    1    1    2    0    0 -0.25249794038E+02  0.20214322558E+00  0.13288991917E+04  0.13291766831E+04  0.10000000000E+02 0. -1.
</event>
<event>
 5    1  0.1440459E-008  0.3795663E+03  0.7957747E-01  0.3453049E+00
         13   -1    0    0    0    0  0.00000000000E+00  0.00000000000E+00  0.14999999963E+04  0.15000000000E+04  0.10566000000E+00 0.  1.
        994   -1    0    0    0    0 -0.00000000000E+00 -0.00000000000E+00  0.11368683772E-12  0.17120000000E+03  0.17120000000E+03 0.  0.
         13    1    1    2    0    0 -0.62297984591E+02 -0.15784149466E+02  0.38198761272E+03  0.38735607094E+03  0.10566000000E+00 0.  1.
        994    1    1    2    0    0  0.54397502032E+02  0.19284710909E+02  0.15585284669E+02  0.18133761165E+03  0.17120000000E+03 0.  0.
        998    1    1    2    0    0  0.79004825591E+01 -0.35005614432E+01  0.11024270989E+04  0.11025063174E+04  0.10000000000E+02 0.  1.
</event>
<event>
 5    1  0.1440459E-008  0.3842822E+03  0.7957747E-01  0.3432722E+00
         13   -1    0    0    0    0  0.00000000000E+00  0.00000000000E+00  0.14999999963E+04  0.15000000000E+04  0.10566000000E+00 0.  1.
        994   -1    0    0    0    0 -0.00000000000E+00 -0.00000000000E+00  0.11368683772E-12  0.17120000000E+03  0.17120000000E+03 0.  0.
         13    1    1    2    0    0  0.34230313005E+01  0.97782721771E+01  0.27194011485E+02  0.29100810552E+02  0.10566000000E+00 0.  1.
        994    1    1    2    0    0 -0.44291727447E+01  0.12636275082E+01  0.20568810930E+01  0.17127429780E+03  0.17120000000E+03 0.  0.
        998    1    1    2    0    0  0.10061414442E+01 -0.11041899685E+02  0.14707491037E+04  0.14708248917E+04  0.10000000000E+02 0.  1.
</event>
<event>
 5    1  0.1440459E-008  0.3827152E+03  0.7957747E-01  0.3439421E+00
         13   -1    0    0    0    0  0.00000000000E+00  0.00000000000E+00  0.14999999963E+04  0.15000000000E+04  0.10566000000E+00 0.  1.
        994   -1    0    0    0    0 -0.00000000000E+00 -0.00000000000E+00  0.11368683772E-12  0.17120000000E+03  0.17120000000E+03 0.  0.
         13    1    1    2    0    0 -0.13296740698E+02 -0.88849848528E+01  0.45533784189E+02  0.48260573304E+02  0.10566000000E+00 0.  1.
        994    1    1    2    0    0  0.45821026552E+01  0.10059356544E+02  0.31737108425E+01  0.17158583496E+03  0.17120000000E+03 0.  0.
        998    1    1    2    0    0  0.87146380432E+01 -0.11743716911E+01  0.14512925012E+04  0.14513535917E+04  0.10000000000E+02 0.  1.
</event>
<event>
 5    1  0.1440459E-008  0.3835837E+03  0.7957747E-01  0.3435701E+00
         13   -1    0    0    0    0  0.00000000000E+00  0.00000000000E+00  0.14999999963E+04  0.15000000000E+04  0.10566000000E+00 0.  1.
        994   -1    0    0    0    0 -0.00000000000E+00 -0.00000000000E+00  0.11368683772E-12  0.17120000000E+03  0.17120000000E+03 0.  0.
         13    1    1    2    0    0 -0.12045914077E+02  0.16189586174E+02  0.95999818595E+02  0.98097824037E+02  0.10566000000E+00 0.  1.
        994    1    1    2    0    0  0.99771319631E+01  0.10553273264E+02  0.30320703350E+01  0.17184163695E+03  0.17120000000E+03 0.  0.
        998    1    1    2    0    0  0.20687821142E+01 -0.26742859438E+02  0.14009681073E+04  0.14012605390E+04  0.10000000000E+02 0.  1.
</event>
<event>
 5    1  0.1440459E-008  0.3855845E+03  0.7957747E-01  0.3427197E+00
         13   -1    0    0    0    0  0.00000000000E+00  0.00000000000E+00  0.14999999963E+04  0.15000000000E+04  0.10566000000E+00 0. -1.
        994   -1    0    0    0    0 -0.00000000000E+00 -0.00000000000E+00  0.11368683772E-12  0.17120000000E+03  0.17120000000E+03 0.  0.
         13    1    1    2    0    0  0.15599541908E+02 -0.12037307819E+01  0.91737861648E+02  0.93062565510E+02  0.10566000000E+00 0. -1.
        994    1    1    2    0    0 -0.11362626631E+02 -0.10615918771E+02  0.21343265753E+01  0.17191801059E+03  0.17120000000E+03 0.  0.
        998    1    1    2    0    0 -0.42369152768E+01  0.11819649553E+02  0.14061278081E+04  0.14062194239E+04  0.10000000000E+02 0. -1.
</event>
<event>
 5    1  0.1440459E-008  0.3811296E+03  0.7957747E-01  0.3446255E+00
         13   -1    0    0    0    0  0.00000000000E+00  0.00000000000E+00  0.14999999963E+04  0.15000000000E+04  0.10566000000E+00 0. -1.
        994   -1    0    0    0    0 -0.00000000000E+00 -0.00000000000E+00  0.11368683772E-12  0.17120000000E+03  0.17120000000E+03 0.  0.
         13    1    1    2    0    0  0.66717460601E+00 -0.17378865409E+02  0.12329356372E+01  0.17435635325E+02  0.10566000000E+00 0. -1.
        994    1    1    2    0    0 -0.86002975893E+00  0.18234422078E+02  0.18162552740E+02  0.17312582743E+03  0.17120000000E+03 0.  0.
        998    1    1    2    0    0  0.19285515292E+00 -0.85555666860E+00  0.14806045079E+04  0.14806385372E+04  0.10000000000E+02 0. -1.
</event>
<event>
 5    1  0.1440459E-008  0.3818712E+03  0.7957747E-01  0.3443051E+00
         13   -1    0    0    0    0  0.00000000000E+00  0.00000000000E+00  0.14999999963E+04  0.15000000000E+04  0.10566000000E+00 0. -1.
        994   -1    0    0    0    0 -0.00000000000E+00 -0.00000000000E+00  0.11368683772E-12  0.17120000000E+03  0.17120000000E+03 0.  0.
         13    1    1    2    0    0  0.18601250406E+02  0.28803695368E+02  0.16379812165E+03  0.16734842456E+03  0.10566000000E+00 0. -1.
        994    1    1    2    0    0 -0.22368895897E+02 -0.27664561357E+02  0.74080847252E+01  0.17501432849E+03  0.17120000000E+03 0.  0.
        998    1    1    2    0    0  0.37676454915E+01 -0.11391340111E+01  0.13287937899E+04  0.13288372469E+04  0.10000000000E+02 0. -1.
</event>
<event>
 5    1  0.1440459E-008  0.3850998E+03  0.7957747E-01  0.3429249E+00
         13   -1    0    0    0    0  0.00000000000E+00  0.00000000000E+00  0.14999999963E+04  0.15000000000E+04  0.10566000000E+00 0.  1.
        994   -1    0    0    0    0 -0.00000000000E+00 -0.00000000000E+00  0.11368683772E-12  0.17120000000E+03  0.17120000000E+03 0.  0.
         13    1    1    2    0    0  0.37692608188E+01 -0.18110572872E+02  0.11045617708E+03  0.11199454627E+03  0.10566000000E+00 0.  1.
        994    1    1    2    0    0  0.60715095176E+01  0.11081382651E+02  0.21056835162E+01  0.17167857808E+03  0.17120000000E+03 0.  0.
        998    1    1    2    0    0 -0.98407703364E+01  0.70291902216E+01  0.13874381357E+04  0.13875268756E+04  0.10000000000E+02 0.  1.
</event>
<event>
 5    1  0.1440459E-008  0.3824881E+03  0.7957747E-01  0.3440396E+00
         13   -1    0    0    0    0  0.00000000000E+00  0.00000000000E+00  0.14999999963E+04  0.15000000000E+04  0.10566000000E+00 0.  1.
        994   -1    0    0    0    0 -0.00000000000E+00 -0.00000000000E+00  0.11368683772E-12  0.17120000000E+03  0.17120000000E+03 0.  0.
         13    1    1    2    0    0  0.20360584556E+03  0.20714344587E+03  0.98800602566E+03  0.10298153550E+04  0.10566000000E+00 0.  1.
        994    1    1    2    0    0 -0.20454627626E+03 -0.21351484850E+03  0.38869902940E+03  0.51751728968E+03  0.17120000000E+03 0.  0.
        998    1    1    2    0    0  0.94043069523E+00  0.63714026288E+01  0.12329494122E+03  0.12386735532E+03  0.10000000000E+02 0.  0.
</event>
<event>
 5    1  0.1440459E-008  0.3716429E+03  0.7957747E-01  0.3488374E+00
         13   -1    0    0    0    0  0.00000000000E+00  0.00000000000E+00  0.14999999963E+04  0.15000000000E+04  0.10566000000E+00 0. -1.
        994   -1    0    0    0    0 -0.00000000000E+00 -0.00000000000E+00  0.11368683772E-12  0.17120000000E+03  0.17120000000E+03 0.  0.
         13    1    1    2    0    0  0.60974229472E-01  0.34350664005E+02  0.43993138605E+02  0.55815582446E+02  0.10566000000E+00 0. -1.
        994    1    1    2    0    0 -0.97959467208E+01 -0.35385445419E+02  0.16565243241E+02  0.17587477819E+03  0.17120000000E+03 0.  0.
        998    1    1    2    0    0  0.97349724913E+01  0.10347814141E+01  0.14394416144E+04  0.14395096394E+04  0.10000000000E+02 0. -1.
</event>
<event>
 5    1  0.1440459E-008  0.3754083E+03  0.7957747E-01  0.3471399E+00
         13   -1    0    0    0    0  0.00000000000E+00  0.00000000000E+00  0.14999999963E+04  0.15000000000E+04  0.10566000000E+00 0. -1.
        994   -1    0    0    0    0 -0.00000000000E+00 -0.00000000000E+00  0.11368683772E-12  0.17120000000E+03  0.17120000000E+03 0.  0.
         13    1    1    2    0    0 -0.53075410769E+02 -0.85631756748E+02  0.48230853930E+03  0.49271831226E+03  0.10566000000E+00 0. -1.
        994    1    1    2    0    0  0.55739714261E+02  0.92085710512E+02  0.46876130957E+02  0.20758975283E+03  0.17120000000E+03 0.  0.
        998    1    1    2    0    0 -0.26643034913E+01 -0.64539537642E+01  0.97081532602E+03  0.97089193491E+03  0.10000000000E+02 0. -1.
</event>
<event>
 5    1  0.1440459E-008  0.3684137E+03  0.7957747E-01  0.3503213E+00
         13   -1    0    0    0    0  0.00000000000E+00  0.00000000000E+00  0.14999999963E+04  0.15000000000E+04  0.10566000000E+00 0.  1.
        994   -1    0    0    0    0 -0.00000000000E+00 -0.00000000000E+00  0.11368683772E-12  0.17120000000E+03  0.17120000000E+03 0.  0.
         13    1    1    2    0    0 -0.11167898301E+03 -0.71471726761E+02  0.41850252980E+03  0.43900430703E+03  0.10566000000E+00 0.  1.
        994    1    1    2    0    0  0.17404889570E+03  0.54584009735E+02  0.13658100928E+03  0.28501972618E+03  0.17120000000E+03 0.  0.
        998    1    1    2    0    0 -0.62369912693E+02  0.16887717026E+02  0.94491645720E+03  0.94717596680E+03  0.10000000000E+02 0.  1.
</event>
<event>
 5    1  0.1440459E-008  0.3834849E+03  0.7957747E-01  0.3436123E+00
         13   -1    0    0    0    0  0.00000000000E+00  0.00000000000E+00  0.14999999963E+04  0.15000000000E+04  0.10566000000E+00 0.  1.
        994   -1    0    0    0    0 -0.00000000000E+00 -0.00000000000E+00  0.11368683772E-12  0.17120000000E+03  0.17120000000E+03 0.  0.
         13    1    1    2    0    0 -0.15816430643E+02 -0.71859207799E+01  0.62395741630E+02  0.64769102767E+02  0.10566000000E+00 0.  1.
        994    1    1    2    0    0  0.10596624840E+02  0.60709477972E+01  0.28772846845E+01  0.17165914957E+03  0.17120000000E+03 0.  0.
        998    1    1    2    0    0  0.52198058024E+01  0.11149729827E+01  0.14347269700E+04  0.14347717477E+04  0.10000000000E+02 0.  1.
</event>
<event>
 5    1  0.1440459E-008  0.3691509E+03  0.7957747E-01  0.3499802E+00
         13   -1    0    0    0    0  0.00000000000E+00  0.00000000000E+00  0.14999999963E+04  0.15000000000E+04  0.10566000000E+00 0. -1.
        994   -1    0    0    0    0 -0.00000000000E+00 -0.00000000000E+00  0.11368683772E-12  0.17120000000E+03  0.17120000000E+03 0.  0.
         13    1    1    2    0    0  0.35494073821E+02  0.35489831305E+02  0.12047061070E+03  0.13050876066E+03  0.10566000000E+00 0. -1.
        994    1    1    2    0    0 -0.28441716165E+02 -0.32211535324E+02  0.16144260083E+02  0.17724726051E+03  0.17120000000E+03 0.  0.
        998    1    1    2    0    0 -0.70523576551E+01 -0.32782959815E+01  0.13633851255E+04  0.13634439788E+04  0.10000000000E+02 0. -1.
</event>
<event>
 5    1  0.1440459E-008  0.3839790E+03  0.7957747E-01  0.3434014E+00
         13   -1    0    0    0    0  0.00000000000E+00  0.00000000000E+00  0.14999999963E+04  0.15000000000E+04  0.10566000000E+00 0. -1.
        994   -1    0    0    0    0 -0.00000000000E+00 -0.00000000000E+00  0.11368683772E-12  0.17120000000E+03  0.17120000000E+03 0.  0.
         13    1    1    2    0    0 -0.10668673375E+02 -0.85268478743E+00  0.25730284946E+02  0.27867658502E+02  0.10566000000E+00 0. -1.
        994    1    1    2    0    0  0.11675092216E+02  0.22504331796E+01  0.26045046461E+01  0.17163215221E+03  0.17120000000E+03 0.  0.
        998    1    1    2    0    0 -0.10064188408E+01 -0.13977483922E+01  0.14716652067E+04  0.14717001893E+04  0.10000000000E+02 0. -1.
</event>
<event>
 5    1  0.1440459E-008  0.3694834E+03  0.7957747E-01  0.3498269E+00
         13   -1    0    0    0    0  0.00000000000E+00  0.00000000000E+00  0.14999999963E+04  0.15000000000E+04  0.10566000000E+00 0. -1.
        994   -1    0    0    0    0 -0.00000000000E+00 -0.00000000000E+00  0.11368683772E-12  0.17120000000E+03  0.17120000000E+03 0.  0.
         13    1    1    2    0    0 -0.22421558189E+02  0.17528624723E+01  0.22020613465E+02  0.31475663295E+02  0.10566000000E+00 0. -1.
        994    1    1    2    0    0  0.24547790660E+02 -0.30616968522E+01  0.11662001157E+02  0.17337073076E+03  0.17120000000E+03 0.  0.
        998    1    1    2    0    0 -0.21262324703E+01  0.13088343799E+01  0.14663173817E+04  0.14663536059E+04  0.10000000000E+02 0. -1.
</event>
<event>
 5    1  0.1440459E-008  0.3692922E+03  0.7957747E-01  0.3499150E+00
         13   -1    0    0    0    0  0.00000000000E+00  0.00000000000E+00  0.14999999963E+04  0.15000000000E+04  0.10566000000E+00 0. -1.
        994   -1    0    0    0    0 -0.00000000000E+00 -0.00000000000E+00  0.11368683772E-12  0.17120000000E+03  0.17120000000E+03 0.  0.
         13    1    1    2    0    0  0.92789630141E+02 -0.90806966010E+02  0.64723547138E+03  0.66012846259E+03  0.10566000000E+00 0. -1.
        994    1    1    2    0    0 -0.11624142743E+03  0.40009377711E+02  0.64009467931E+02  0.22027135933E+03  0.17120000000E+03 0.  0.
        998    1    1    2    0    0  0.23451797285E+02  0.50797588299E+02  0.78875505696E+03  0.79080017809E+03  0.10000000000E+02 0. -1.
</event>
<event>
 5    1  0.1440459E-008  0.3854958E+03  0.7957747E-01  0.3427572E+00
         13   -1    0    0    0    0  0.00000000000E+00  0.00000000000E+00  0.14999999963E+04  0.15000000000E+04  0.10566000000E+00 0. -1.
        994   -1    0    0    0    0 -0.00000000000E+00 -0.00000000000E+00  0.11368683772E-12  0.17120000000E+03  0.17120000000E+03 0.  0.
         13    1    1    2    0    0  0.23409373510E+01 -0.98196711964E+01  0.35892636731E+02  0.37285365301E+02  0.10566000000E+00 0. -1.
        994    1    1    2    0    0 -0.16154208785E+01  0.12121235718E+02  0.18753220898E+01  0.17164641206E+03  0.17120000000E+03 0.  0.
        998    1    1    2    0    0 -0.72551647251E+00 -0.23015645215E+01  0.14622320375E+04  0.14622682226E+04  0.10000000000E+02 0. -1.
</event>
<event>
 5    1  0.2005434E-008  0.3861750E+03  0.7957747E-01  0.3424704E+00
         13   -1    0    0    0    0  0.00000000000E+00  0.00000000000E+00  0.14999999963E+04  0.15000000000E+04  0.10566000000E+00 0. -1.
        994   -1    0    0    0    0 -0.00000000000E+00 -0.00000000000E+00  0.11368683772E-12  0.17120000000E+03  0.17120000000E+03 0.  0.
         13    1    1    2    0    0  0.97525079033E+01 -0.37829152507E+01  0.51779488916E+02  0.52825642397E+02  0.10566000000E+00 0. -1.
        994    1    1    2    0    0 -0.10450029503E+02  0.17315262232E+01  0.14155492526E+01  0.17153321859E+03  0.17120000000E+03 0.  0.
        998    1    1    2    0    0  0.69752159961E+00  0.20513890275E+01  0.14468049581E+04  0.14468411390E+04  0.10000000000E+02 0. -1.
</event>
<event>
 5    1  0.1440459E-008  0.3849457E+03  0.7957747E-01  0.3429902E+00
         13   -1    0    0    0    0  0.00000000000E+00  0.00000000000E+00  0.14999999963E+04  0.15000000000E+04  0.10566000000E+00 0.  1.
        994   -1    0    0    0    0 -0.00000000000E+00 -0.00000000000E+00  0.11368683772E-12  0.17120000000E+03  0.17120000000E+03 0.  0.
         13    1    1    2    0    0 -0.95420708041E+01 -0.43332258703E+01  0.33593183383E+02  0.35190070979E+02  0.10566000000E+00 0.  1.
        994    1    1    2    0    0  0.42920012567E+01 -0.28373640199E+01  0.17441579253E+01  0.17128617573E+03  0.17120000000E+03 0.  0.
        998    1    1    2    0    0  0.52500695474E+01  0.71705898902E+01  0.14646626550E+04  0.14647237533E+04  0.10000000000E+02 0.  1.
</event>
<event>
 5    1  0.1440459E-008  0.3784024E+03  0.7957747E-01  0.3458145E+00
         13   -1    0    0    0    0  0.00000000000E+00  0.00000000000E+00  0.14999999963E+04  0.15000000000E+04  0.10566000000E+00 0.  1.
        994   -1    0    0    0    0 -0.00000000000E+00 -0.00000000000E+00  0.11368683772E-12  0.17120000000E+03  0.17120000000E+03 0.  0.
         13    1    1    2    0    0 -0.43581394325E+02 -0.67129645823E+02  0.41551190979E+03  0.42314995642E+03  0.10566000000E+00 0.  1.
        994    1    1    2    0    0  0.47951881751E+02  0.76664628890E+02  0.32932494757E+02  0.19639459641E+03  0.17120000000E+03 0.  0.
        998    1    1    2    0    0 -0.43704874264E+01 -0.95349830664E+01  0.10515555917E+04  0.10516554472E+04  0.10000000000E+02 0.  1.
</event>
<event>
 5    1  0.1440459E-008  0.3888268E+03  0.7957747E-01  0.3413603E+00
         13   -1    0    0    0    0  0.00000000000E+00  0.00000000000E+00  0.14999999963E+04  0.15000000000E+04  0.10566000000E+00 0.  1.
        994   -1    0    0    0    0 -0.00000000000E+00 -0.00000000000E+00  0.11368683772E-12  0.17120000000E+03  0.17120000000E+03 0.  0.
         13    1    1    2    0    0 -0.75927543656E+02 -0.62132019366E+02  0.16952109779E+03  0.19586422204E+03  0.10566000000E+00 0.  1.
        994    1    1    2    0    0  0.83428618157E+02  0.10367824366E+03  0.91100681467E+02  0.23519839859E+03  0.17120000000E+03 0.  0.
        998    1    1    2    0    0 -0.75010745008E+01 -0.41546224298E+02  0.12393782170E+04  0.12401373794E+04  0.10000000000E+02 0.  1.
</event>
<event>
 5    1  0.1440459E-008  0.3705404E+03  0.7957747E-01  0.3493411E+00
         13   -1    0    0    0    0  0.00000000000E+00  0.00000000000E+00  0.14999999963E+04  0.15000000000E+04  0.10566000000E+00 0. -1.
        994   -1    0    0    0    0 -0.00000000000E+00 -0.00000000000E+00  0.11368683772E-12  0.17120000000E+03  0.17120000000E+03 0.  0.
         13    1    1    2    0    0  0.19379160171E+01  0.33651767027E+02  0.54939789567E+02  0.64456098115E+02  0.10566000000E+00 0. -1.
        994    1    1    2    0    0 -0.14052934913E+02 -0.49408230120E+02  0.18149129419E+02  0.17965936959E+03  0.17120000000E+03 0.  0.
        998    1    1    2    0    0  0.12115018896E+02  0.15756463093E+02  0.14269110773E+04  0.14270845323E+04  0.10000000000E+02 0. -1.
</event>
<event>
 5    1  0.1440459E-008  0.3855401E+03  0.7957747E-01  0.3427385E+00
         13   -1    0    0    0    0  0.00000000000E+00  0.00000000000E+00  0.14999999963E+04  0.15000000000E+04  0.10566000000E+00 0. -1.
        994   -1    0    0    0    0 -0.00000000000E+00 -0.00000000000E+00  0.11368683772E-12  0.17120000000E+03  0.17120000000E+03 0.  0.
         13    1    1    2    0    0  0.12878007426E+02 -0.75016237873E+01  0.81951427446E+02  0.83295648501E+02  0.10566000000E+00 0. -1.
        994    1    1    2    0    0 -0.11400079998E+02 -0.69217881228E-01  0.17890092300E+01  0.17158848204E+03  0.17120000000E+03 0.  0.
        998    1    1    2    0    0 -0.14779274282E+01  0.75708416685E+01  0.14162595596E+04  0.14163158695E+04  0.10000000000E+02 0. -1.
</event>
<event>
 5    1  0.1440459E-008  0.3860286E+03  0.7957747E-01  0.3425321E+00
         13   -1    0    0    0    0  0.00000000000E+00  0.00000000000E+00  0.14999999963E+04  0.15000000000E+04  0.10566000000E+00 0.  1.
        994   -1    0    0    0    0 -0.00000000000E+00 -0.00000000000E+00  0.11368683772E-12  0.17120000000E+03  0.17120000000E+03 0.  0.
         13    1    1    2    0    0 -0.36637915523E+01 -0.12639230817E+02  0.79447030386E+02  0.80529592855E+02  0.10566000000E+00 0.  1.
        994    1    1    2    0    0  0.46757708196E+01  0.57257909885E+01  0.12994405631E+01  0.17136445390E+03  0.17120000000E+03 0.  0.
        998    1    1    2    0    0 -0.10119792673E+01  0.69134398285E+01  0.14192535253E+04  0.14193059532E+04  0.10000000000E+02 0.  1.
</event>
<event>
 5    1  0.1440459E-008  0.3810391E+03  0.7957747E-01  0.3446646E+00
         13   -1    0    0    0    0  0.00000000000E+00  0.00000000000E+00  0.14999999963E+04  0.15000000000E+04  0.10566000000E+00 0.  1.
        994   -1    0    0    0    0 -0.00000000000E+00 -0.00000000000E+00  0.11368683772E-12  0.17120000000E+03  0.17120000000E+03 0.  0.
         13    1    1    2    0    0 -0.91741025347E+01 -0.96128802788E+01  0.23640133640E+02  0.27118973194E+02  0.10566000000E+00 0.  1.
        994    1    1    2    0    0  0.52256112231E+01 -0.48099037639E+01  0.37776016915E+01  0.17138889247E+03  0.17120000000E+03 0.  0.
        998    1    1    2    0    0  0.39484913116E+01  0.14422784043E+02  0.14725822609E+04  0.14726921343E+04  0.10000000000E+02 0.  1.
</event>
<event>
 5    1  0.1440459E-008  0.3727279E+03  0.7957747E-01  0.3483447E+00
         13   -1    0    0    0    0  0.00000000000E+00  0.00000000000E+00  0.14999999963E+04  0.15000000000E+04  0.10566000000E+00 0. -1.
        994   -1    0    0    0    0 -0.00000000000E+00 -0.00000000000E+00  0.11368683772E-12  0.17120000000E+03  0.17120000000E+03 0.  0.
         13    1    1    2    0    0 -0.99908748354E+01  0.28198871483E+02  0.30530943353E+02  0.42745100291E+02  0.10566000000E+00 0. -1.
        994    1    1    2    0    0  0.76874278298E+01 -0.28194184894E+02  0.15408848547E+02  0.17435848480E+03  0.17120000000E+03 0.  0.
        998    1    1    2    0    0  0.23034470056E+01 -0.46865893668E-02  0.14540602044E+04  0.14540964149E+04  0.10000000000E+02 0. -1.
</event>
<event>
 5    1  0.1440459E-008  0.3696261E+03  0.7957747E-01  0.3497611E+00
         13   -1    0    0    0    0  0.00000000000E+00  0.00000000000E+00  0.14999999963E+04  0.15000000000E+04  0.10566000000E+00 0. -1.
        994   -1    0    0    0    0 -0.00000000000E+00 -0.00000000000E+00  0.11368683772E-12  0.17120000000E+03  0.17120000000E+03 0.  0.
         13    1    1    2    0    0 -0.69631151376E+01 -0.98003016712E+01  0.17121538819E+01  0.12143867597E+02  0.10566000000E+00 0. -1.
        994    1    1    2    0    0  0.90486585804E+01  0.95827101040E+01  0.11347966227E+02  0.17208115205E+03  0.17120000000E+03 0.  0.
        998    1    1    2    0    0 -0.20855434428E+01  0.21759156724E+00  0.14869398762E+04  0.14869749803E+04  0.10000000000E+02 0. -1.
</event>
<event>
 5    1  0.1440459E-008  0.3812029E+03  0.7957747E-01  0.3445937E+00
         13   -1    0    0    0    0  0.00000000000E+00  0.00000000000E+00  0.14999999963E+04  0.15000000000E+04  0.10566000000E+00 0. -1.
        994   -1    0    0    0    0 -0.00000000000E+00 -0.00000000000E+00  0.11368683772E-12  0.17120000000E+03  0.17120000000E+03 0.  0.
         13    1    1    2    0    0 -0.44211960160E+02 -0.16185416624E+03  0.93284439689E+03  0.94781335110E+03  0.10566000000E+00 0. -1.
        994    1    1    2    0    0  0.49826250390E+02  0.17129694585E+03  0.11797020204E+03  0.27395566695E+03  0.17120000000E+03 0.  0.
        998    1    1    2    0    0 -0.56142902305E+01 -0.94427796063E+01  0.44918539735E+03  0.44943098195E+03  0.10000000000E+02 0.  1.
</event>
<event>
 5    1  0.1440459E-008  0.3843363E+03  0.7957747E-01  0.3432492E+00
         13   -1    0    0    0    0  0.00000000000E+00  0.00000000000E+00  0.14999999963E+04  0.15000000000E+04  0.10566000000E+00 0.  1.
        994   -1    0    0    0    0 -0.00000000000E+00 -0.00000000000E+00  0.11368683772E-12  0.17120000000E+03  0.17120000000E+03 0.  0.
         13    1    1    2    0    0 -0.13395917115E+02  0.76169769038E+01  0.59474566263E+02  0.61438620823E+02  0.10566000000E+00 0.  1.
        994    1    1    2    0    0  0.17020160188E+02  0.43181187894E+01  0.29768331356E+01  0.17212389009E+03  0.17120000000E+03 0.  0.
        998    1    1    2    0    0 -0.36242430726E+01 -0.11935095693E+02  0.14375485969E+04  0.14376374891E+04  0.10000000000E+02 0.  1.
</event>
<event>
 5    1  0.1440459E-008  0.3794475E+03  0.7957747E-01  0.3453568E+00
         13   -1    0    0    0    0  0.00000000000E+00  0.00000000000E+00  0.14999999963E+04  0.15000000000E+04  0.10566000000E+00 0.  1.
        994   -1    0    0    0    0 -0.00000000000E+00 -0.00000000000E+00  0.11368683772E-12  0.17120000000E+03  0.17120000000E+03 0.  0.
         13    1    1    2    0    0  0.47687274151E+02 -0.88286676978E+02  0.41123882736E+03  0.42330367083E+03  0.10566000000E+00 0.  1.
        994    1    1    2    0    0 -0.26747115667E+02  0.50157365661E+01  0.18706620050E+02  0.17435579555E+03  0.17120000000E+03 0.  0.
        998    1    1    2    0    0 -0.20940158483E+02  0.83270940412E+02  0.10700545489E+04  0.10735405336E+04  0.10000000000E+02 0.  1.
</event>
<event>
 5    1  0.1440459E-008  0.3846499E+03  0.7957747E-01  0.3431158E+00
         13   -1    0    0    0    0  0.00000000000E+00  0.00000000000E+00  0.14999999963E+04  0.15000000000E+04  0.10566000000E+00 0.  1.
        994   -1    0    0    0    0 -0.00000000000E+00 -0.00000000000E+00  0.11368683772E-12  0.17120000000E+03  0.17120000000E+03 0.  0.
         13    1    1    2    0    0 -0.44136705262E+01 -0.19402697934E+02  0.10726106265E+03  0.10909120909E+03  0.10566000000E+00 0.  1.
        994    1    1    2    0    0  0.97387910987E+01  0.13557838154E+02  0.27220529301E+01  0.17203345198E+03  0.17120000000E+03 0.  0.
        998    1    1    2    0    0 -0.53251205725E+01  0.58448597797E+01  0.13900168807E+04  0.13900753389E+04  0.10000000000E+02 0.  1.
</event>
<event>
 5    1  0.1440459E-008  0.3825765E+03  0.7957747E-01  0.3440016E+00
         13   -1    0    0    0    0  0.00000000000E+00  0.00000000000E+00  0.14999999963E+04  0.15000000000E+04  0.10566000000E+00 0.  1.
        994   -1    0    0    0    0 -0.00000000000E+00 -0.00000000000E+00  0.11368683772E-12  0.17120000000E+03  0.17120000000E+03 0.  0.
         13    1    1    2    0    0  0.85305690599E+01 -0.21810281476E+02  0.96667479792E+02  0.99463922102E+02  0.10566000000E+00 0.  1.
        994    1    1    2    0    0 -0.50124030462E+01  0.11923894387E+02  0.33929291551E+01  0.17172144715E+03  0.17120000000E+03 0.  0.
        998    1    1    2    0    0 -0.35181660137E+01  0.98863870881E+01  0.13999395873E+04  0.14000146308E+04  0.10000000000E+02 0. -1.
</event>
<event>
 5    1  0.1440459E-008  0.3859599E+03  0.7957747E-01  0.3425611E+00
         13   -1    0    0    0    0  0.00000000000E+00  0.00000000000E+00  0.14999999963E+04  0.15000000000E+04  0.10566000000E+00 0.  1.
        994   -1    0    0    0    0 -0.00000000000E+00 -0.00000000000E+00  0.11368683772E-12  0.17120000000E+03  0.17120000000E+03 0.  0.
         13    1    1    2    0    0 -0.92515146918E+01 -0.59294210957E+01  0.52469118815E+02  0.53607538200E+02  0.10566000000E+00 0.  1.
        994    1    1    2    0    0  0.24382838460E+01  0.12254865581E+02  0.16663452594E+01  0.17166346048E+03  0.17120000000E+03 0.  0.
        998    1    1    2    0    0  0.68132308458E+01 -0.63254444853E+01  0.14458645322E+04  0.14459290013E+04  0.10000000000E+02 0.  1.
</event>
<event>
 5    1  0.1440459E-008  0.3799258E+03  0.7957747E-01  0.3451481E+00
         13   -1    0    0    0    0  0.00000000000E+00  0.00000000000E+00  0.14999999963E+04  0.15000000000E+04  0.10566000000E+00 0. -1.
        994   -1    0    0    0    0 -0.00000000000E+00 -0.00000000000E+00  0.11368683772E-12  0.17120000000E+03  0.17120000000E+03 0.  0.
         13    1    1    2    0    0  0.68516436882E+02 -0.13470070686E+03  0.45564834786E+03  0.48005646608E+03  0.10566000000E+00 0. -1.
        994    1    1    2    0    0 -0.65766447751E+02  0.13535261188E+03  0.10367019119E+03  0.25040467993E+03  0.17120000000E+03 0.  0.
        998    1    1    2    0    0 -0.27499891307E+01 -0.65190501750E+00  0.94068145723E+03  0.94073885398E+03  0.10000000000E+02 0.  0.
</event>
<event>
 5    1  0.1440459E-008  0.3737669E+03  0.7957747E-01  0.3478756E+00
         13   -1    0    0    0    0  0.00000000000E+00  0.00000000000E+00  0.14999999963E+04  0.15000000000E+04  0.10566000000E+00 0.  1.
        994   -1    0    0    0    0 -0.00000000000E+00 -0.00000000000E+00  0.11368683772E-12  0.17120000000E+03  0.17120000000E+03 0.  0.
         13    1    1    2    0    0  0.61156424796E+02 -0.80149650209E+02  0.49096173405E+03  0.50120605561E+03  0.10566000000E+00 0.  1.
        994    1    1    2    0    0 -0.46493268333E+02  0.83371821067E+02  0.39086122959E+02  0.19987408425E+03  0.17120000000E+03 0.  0.
        998    1    1    2    0    0 -0.14663156463E+02 -0.32221708580E+01  0.96995213927E+03  0.97011986013E+03  0.10000000000E+02 0.  1.
</event>
<event>
 5    1  0.1440459E-008  0.3812484E+03  0.7957747E-01  0.3445741E+00
         13   -1    0    0    0    0  0.00000000000E+00  0.00000000000E+00  0.14999999963E+04  0.15000000000E+04  0.10566000000E+00 0. -1.
        994   -1    0    0    0    0 -0.00000000000E+00 -0.00000000000E+00  0.11368683772E-12  0.17120000000E+03  0.17120000000E+03 0.  0.
         13    1    1    2    0    0 -0.17046044815E+02 -0.29622120330E+02  0.17761281855E+03  0.18087112023E+03  0.10566000000E+00 0. -1.
        994    1    1    2    0    0 -0.20201425080E+01  0.13529782426E+02  0.41275626100E+01  0.17179526408E+03  0.17120000000E+03 0.  0.
        998    1    1    2    0    0  0.19066187323E+02  0.16092337904E+02  0.13182596151E+04  0.13185336157E+04  0.10000000000E+02 0. -1.
</event>
<event>
 5    1  0.1440459E-008  0.3846217E+03  0.7957747E-01  0.3431278E+00
         13   -1    0    0    0    0  0.00000000000E+00  0.00000000000E+00  0.14999999963E+04  0.15000000000E+04  0.10566000000E+00 0.  1.
        994   -1    0    0    0    0 -0.00000000000E+00 -0.00000000000E+00  0.11368683772E-12  0.17120000000E+03  0.17120000000E+03 0.  0.
         13    1    1    2    0    0  0.15380364017E+02  0.60899799274E+01  0.70841148327E+02  0.72746978722E+02  0.10566000000E+00 0.  1.
        994    1    1    2    0    0 -0.31601520174E+02  0.21859699699E+02  0.66949122040E+01  0.17558691408E+03  0.17120000000E+03 0.  0.
        998    1    1    2    0    0  0.16221156157E+02 -0.27949679626E+02  0.14224639357E+04  0.14228661072E+04  0.10000000000E+02 0.  1.
</event>
<event>
 5    1  0.1440459E-008  0.3860605E+03  0.7957747E-01  0.3425187E+00
         13   -1    0    0    0    0  0.00000000000E+00  0.00000000000E+00  0.14999999963E+04  0.15000000000E+04  0.10566000000E+00 0. -1.
        994   -1    0    0    0    0 -0.00000000000E+00 -0.00000000000E+00  0.11368683772E-12  0.17120000000E+03  0.17120000000E+03 0.  0.
         13    1    1    2    0    0  0.10116004516E+02  0.13783272139E+01  0.51391458529E+02  0.52395863454E+02  0.10566000000E+00 0. -1.
        994    1    1    2    0    0  0.47140880878E+00  0.19791269799E+02  0.23900362565E+01  0.17235738702E+03  0.17120000000E+03 0.  0.
        998    1    1    2    0    0 -0.10587413325E+02 -0.21169597013E+02  0.14462185015E+04  0.14464467495E+04  0.10000000000E+02 0. -1.
</event>
<event>
 5    1  0.1440459E-008  0.3772057E+03  0.7957747E-01  0.3463416E+00
         13   -1    0    0    0    0  0.00000000000E+00  0.00000000000E+00  0.14999999963E+04  0.15000000000E+04  0.10566000000E+00 0.  1.
        994   -1    0    0    0    0 -0.00000000000E+00 -0.00000000000E+00  0.11368683772E-12  0.17120000000E+03  0.17120000000E+03 0.  0.
         13    1    1    2    0    0  0.13008334911E+02  0.31640720696E+02  0.32626686420E+02  0.47274346258E+02  0.10566000000E+00 0.  1.
        994    1    1    2    0    0 -0.11693560412E+02 -0.35949861976E+02  0.19944135833E+02  0.17645492480E+03  0.17120000000E+03 0.  0.
        998    1    1    2    0    0 -0.13147744990E+01  0.43091412801E+01  0.14474291740E+04  0.14474707289E+04  0.10000000000E+02 0.  1.
</event>
<event>
 5    1  0.1440459E-008  0.3706910E+03  0.7957747E-01  0.3492721E+00
         13   -1    0    0    0    0  0.00000000000E+00  0.00000000000E+00  0.14999999963E+04  0.15000000000E+04  0.10566000000E+00 0.  1.
        994   -1    0    0    0    0 -0.00000000000E+00 -0.00000000000E+00  0.11368683772E-12  0.17120000000E+03  0.17120000000E+03 0.  0.
         13    1    1    2    0    0  0.35788336478E+02 -0.55358410763E+01  0.67203226182E+02  0.76339605301E+02  0.10566000000E+00 0.  1.
        994    1    1    2    0    0 -0.37346826649E+02  0.30907557036E+01  0.13768021419E+02  0.17579344881E+03  0.17120000000E+03 0.  0.
        998    1    1    2    0    0  0.15584901714E+01  0.24450853727E+01  0.14190287487E+04  0.14190669459E+04  0.10000000000E+02 0.  1.
</event>
<event>
 5    1  0.1440459E-008  0.3708066E+03  0.7957747E-01  0.3492192E+00
         13   -1    0    0    0    0  0.00000000000E+00  0.00000000000E+00  0.14999999963E+04  0.15000000000E+04  0.10566000000E+00 0.  1.
        994   -1    0    0    0    0 -0.00000000000E+00 -0.00000000000E+00  0.11368683772E-12  0.17120000000E+03  0.17120000000E+03 0.  0.
         13    1    1    2    0    0  0.83016443032E+02 -0.56626252033E+02  0.35852072367E+03  0.37233772666E+03  0.10566000000E+00 0.  1.
        994    1    1    2    0    0 -0.69999762029E+02  0.56164788167E+02  0.40165810656E+02  0.19742639758E+03  0.17120000000E+03 0.  0.
        998    1    1    2    0    0 -0.13016681003E+02  0.46146386604E+00  0.11013134620E+04  0.11014358758E+04  0.10000000000E+02 0.  1.
</event>
<event>
 5    1  0.1440459E-008  0.3790774E+03  0.7957747E-01  0.3455186E+00
         13   -1    0    0    0    0  0.00000000000E+00  0.00000000000E+00  0.14999999963E+04  0.15000000000E+04  0.10566000000E+00 0. -1.
        994   -1    0    0    0    0 -0.00000000000E+00 -0.00000000000E+00  0.11368683772E-12  0.17120000000E+03  0.17120000000E+03 0.  0.
         13    1    1    2    0    0 -0.95281034642E+01  0.63796664788E+02  0.37438964485E+03  0.37990579955E+03  0.10566000000E+00 0. -1.
        994    1    1    2    0    0  0.44396010109E+02 -0.52293698554E+02  0.20543557832E+02  0.18557239663E+03  0.17120000000E+03 0.  0.
        998    1    1    2    0    0 -0.34867906645E+02 -0.11502966234E+02  0.11050667936E+04  0.11057218038E+04  0.10000000000E+02 0. -1.
</event>
<event>
 5    1  0.1440459E-008  0.3738280E+03  0.7957747E-01  0.3478481E+00
         13   -1    0    0    0    0  0.00000000000E+00  0.00000000000E+00  0.14999999963E+04  0.15000000000E+04  0.10566000000E+00 0.  1.
        994   -1    0    0    0    0 -0.00000000000E+00 -0.00000000000E+00  0.11368683772E-12  0.17120000000E+03  0.17120000000E+03 0.  0.
         13    1    1    2    0    0 -0.56424449786E-01 -0.28711786748E+02  0.55613182165E+02  0.62587595229E+02  0.10566000000E+00 0.  1.
        994    1    1    2    0    0  0.11346010656E+02  0.84223128207E+01  0.79634985926E+01  0.17196663810E+03  0.17120000000E+03 0.  0.
        998    1    1    2    0    0 -0.11289586207E+02  0.20289473928E+02  0.14364233155E+04  0.14366457667E+04  0.10000000000E+02 0.  1.
</event>
<event>
 5    1  0.1440459E-008  0.3856270E+03  0.7957747E-01  0.3427017E+00
         13   -1    0    0    0    0  0.00000000000E+00  0.00000000000E+00  0.14999999963E+04  0.15000000000E+04  0.10566000000E+00 0.  1.
        994   -1    0    0    0    0 -0.00000000000E+00 -0.00000000000E+00  0.11368683772E-12  0.17120000000E+03  0.17120000000E+03 0.  0.
         13    1    1    2    0    0  0.83240150559E+01 -0.10076270213E+02  0.68148252076E+02  0.69390315413E+02  0.10566000000E+00 0.  1.
        994    1    1    2    0    0 -0.66093750465E+01 -0.21560986921E+01  0.14778184150E+01  0.17134747313E+03  0.17120000000E+03 0.  0.
        998    1    1    2    0    0 -0.17146400094E+01  0.12232368905E+02  0.14303739258E+04  0.14304622115E+04  0.10000000000E+02 0.  1.
</event>
<event>
 5    1  0.1440459E-008  0.3696966E+03  0.7957747E-01  0.3497287E+00
         13   -1    0    0    0    0  0.00000000000E+00  0.00000000000E+00  0.14999999963E+04  0.15000000000E+04  0.10566000000E+00 0. -1.
        994   -1    0    0    0    0 -0.00000000000E+00 -0.00000000000E+00  0.11368683772E-12  0.17120000000E+03  0.17120000000E+03 0.  0.
         13    1    1    2    0    0  0.16446198102E+02 -0.82865774771E+01  0.13782898256E+02  0.23002700856E+02  0.10566000000E+00 0. -1.
        994    1    1    2    0    0 -0.20580229944E+02 -0.65243798761E+01  0.11042757085E+02  0.17290892366E+03  0.17120000000E+03 0.  0.
        998    1    1    2    0    0  0.41340318429E+01  0.14810957353E+02  0.14751743409E+04  0.14752883755E+04  0.10000000000E+02 0. -1.
</event>
<event>
 5    1  0.1440459E-008  0.3860820E+03  0.7957747E-01  0.3425096E+00
         13   -1    0    0    0    0  0.00000000000E+00  0.00000000000E+00  0.14999999963E+04  0.15000000000E+04  0.10566000000E+00 0. -1.
        994   -1    0    0    0    0 -0.00000000000E+00 -0.00000000000E+00  0.11368683772E-12  0.17120000000E+03  0.17120000000E+03 0.  0.
         13    1    1    2    0    0  0.51893726533E+01  0.10651197645E+02  0.67447755355E+02  0.68480569991E+02  0.10566000000E+00 0. -1.
        994    1    1    2    0    0  0.43125171118E+01 -0.57415913574E+01  0.12628854726E+01  0.17135518246E+03  0.17120000000E+03 0.  0.
        998    1    1    2    0    0 -0.95018897650E+01 -0.49096062881E+01  0.14312893555E+04  0.14313642476E+04  0.10000000000E+02 0. -1.
</event>
<event>
 5    1  0.1440459E-008  0.3835180E+03  0.7957747E-01  0.3435982E+00
         13   -1    0    0    0    0  0.00000000000E+00  0.00000000000E+00  0.14999999963E+04  0.15000000000E+04  0.10566000000E+00 0.  1.
        994   -1    0    0    0    0 -0.00000000000E+00 -0.00000000000E+00  0.11368683772E-12  0.17120000000E+03  0.17120000000E+03 0.  0.
         13    1    1    2    0    0 -0.54425630172E+00 -0.16363988911E+02  0.52277091290E+02  0.54781217455E+02  0.10566000000E+00 0.  1.
        994    1    1    2    0    0 -0.28764182192E+01  0.25241645978E+02  0.45034113408E+01  0.17313328735E+03  0.17120000000E+03 0.  0.
        998    1    1    2    0    0  0.34206745209E+01 -0.88776570671E+01  0.14432194936E+04  0.14432854952E+04  0.10000000000E+02 0.  1.
</event>
<event>
 5    1  0.1440459E-008  0.3864000E+03  0.7957747E-01  0.3423756E+00
         13   -1    0    0    0    0  0.00000000000E+00  0.00000000000E+00  0.14999999963E+04  0.15000000000E+04  0.10566000000E+00 0. -1.
        994   -1    0    0    0    0 -0.00000000000E+00 -0.00000000000E+00  0.11368683772E-12  0.17120000000E+03  0.17120000000E+03 0.  0.
         13    1    1    2    0    0 -0.85690087978E+02  0.76025536837E+02  0.57182302199E+03  0.58318457890E+03  0.10566000000E+00 0. -1.
        994    1    1    2    0    0 -0.68538293864E+02 -0.13018957231E+03  0.10545580783E+03  0.24915294473E+03  0.17120000000E+03 0.  0.
        998    1    1    2    0    0  0.15422838184E+03  0.54164035477E+02  0.82272116646E+03  0.83886247636E+03  0.10000000000E+02 0. -1.
</event>
<event>
 5    1  0.1440459E-008  0.3712095E+03  0.7957747E-01  0.3490351E+00
         13   -1    0    0    0    0  0.00000000000E+00  0.00000000000E+00  0.14999999963E+04  0.15000000000E+04  0.10566000000E+00 0. -1.
        994   -1    0    0    0    0 -0.00000000000E+00 -0.00000000000E+00  0.11368683772E-12  0.17120000000E+03  0.17120000000E+03 0.  0.
         13    1    1    2    0    0 -0.20321688333E+01  0.22950780488E+02  0.27019564478E+02  0.35509661556E+02  0.10566000000E+00 0. -1.
        994    1    1    2    0    0  0.25484656863E+01 -0.17726724644E+02  0.97433808353E+01  0.17240970075E+03  0.17120000000E+03 0.  0.
        998    1    1    2    0    0 -0.51629685292E+00 -0.52240558444E+01  0.14632370510E+04  0.14632806377E+04  0.10000000000E+02 0. -1.
</event>
<event>
 5    1  0.1440459E-008  0.3817422E+03  0.7957747E-01  0.3443608E+00
         13   -1    0    0    0    0  0.00000000000E+00  0.00000000000E+00  0.14999999963E+04  0.15000000000E+04  0.10566000000E+00 0. -1.
        994   -1    0    0    0    0 -0.00000000000E+00 -0.00000000000E+00  0.11368683772E-12  0.17120000000E+03  0.17120000000E+03 0.  0.
         13    1    1    2    0    0  0.66535964026E+02  0.13617024781E+02  0.40175248601E+03  0.40745248687E+03  0.10566000000E+00 0. -1.
        994    1    1    2    0    0 -0.10463075747E+03  0.31543608770E+02  0.44024028555E+02  0.20782239955E+03  0.17120000000E+03 0.  0.
        998    1    1    2    0    0  0.38094793446E+02 -0.45160633552E+02  0.10542234817E+04  0.10559251136E+04  0.10000000000E+02 0. -1.
</event>
<event>
 5    1  0.1440459E-008  0.3851040E+03  0.7957747E-01  0.3429231E+00
         13   -1    0    0    0    0  0.00000000000E+00  0.00000000000E+00  0.14999999963E+04  0.15000000000E+04  0.10566000000E+00 0.  1.
        994   -1    0    0    0    0 -0.00000000000E+00 -0.00000000000E+00  0.11368683772E-12  0.17120000000E+03  0.17120000000E+03 0.  0.
         13    1    1    2    0    0 -0.60794344183E+01 -0.12770606105E+02  0.65572812934E+02  0.67080942624E+02  0.10566000000E+00 0.  1.
        994    1    1    2    0    0 -0.19079853687E+01  0.56257429145E+01  0.16945170057E+01  0.17131141462E+03  0.17120000000E+03 0.  0.
        998    1    1    2    0    0  0.79874197870E+01  0.71448631901E+01  0.14327326663E+04  0.14328076428E+04  0.10000000000E+02 0.  1.
</event>
<event>
 5    1  0.1440459E-008  0.3821858E+03  0.7957747E-01  0.3441696E+00
         13   -1    0    0    0    0  0.00000000000E+00  0.00000000000E+00  0.14999999963E+04  0.15000000000E+04  0.10566000000E+00 0. -1.
        994   -1    0    0    0    0 -0.00000000000E+00 -0.00000000000E+00  0.11368683772E-12  0.17120000000E+03  0.17120000000E+03 0.  0.
         13    1    1    2    0    0  0.66754610156E-01 -0.10973875749E+02  0.18748396937E+02  0.21724271147E+02  0.10566000000E+00 0. -1.
        994    1    1    2    0    0 -0.52717624217E-01  0.58490811303E+01  0.31473896526E+01  0.17132880841E+03  0.17120000000E+03 0.  0.
        998    1    1    2    0    0 -0.14036985939E-01  0.51247946189E+01  0.14781042097E+04  0.14781469204E+04  0.10000000000E+02 0. -1.
</event>
<event>
 5    1  0.1440459E-008  0.3785779E+03  0.7957747E-01  0.3457374E+00
         13   -1    0    0    0    0  0.00000000000E+00  0.00000000000E+00  0.14999999963E+04  0.15000000000E+04  0.10566000000E+00 0.  1.
        994   -1    0    0    0    0 -0.00000000000E+00 -0.00000000000E+00  0.11368683772E-12  0.17120000000E+03  0.17120000000E+03 0.  0.
         13    1    1    2    0    0  0.66384991052E+01 -0.24340972242E+02  0.64984104481E+02  0.69710096825E+02  0.10566000000E+00 0.  1.
        994    1    1    2    0    0 -0.66587100934E+01  0.99532461986E+01  0.53345563848E+01  0.17170120274E+03  0.17120000000E+03 0.  0.
        998    1    1    2    0    0  0.20210988210E-01  0.14387726044E+02  0.14296813354E+04  0.14297887004E+04  0.10000000000E+02 0.  1.
</event>
<event>
 5    1  0.1440459E-008  0.3832358E+03  0.7957747E-01  0.3437189E+00
         13   -1    0    0    0    0  0.00000000000E+00  0.00000000000E+00  0.14999999963E+04  0.15000000000E+04  0.10566000000E+00 0.  1.
        994   -1    0    0    0    0 -0.00000000000E+00 -0.00000000000E+00  0.11368683772E-12  0.17120000000E+03  0.17120000000E+03 0.  0.
         13    1    1    2    0    0 -0.60497013416E+01  0.10979575164E+02  0.30286987622E+02  0.32778998465E+02  0.10566000000E+00 0.  1.
        994    1    1    2    0    0  0.30324663088E+01 -0.10309821844E+02  0.28906633251E+01  0.17156131328E+03  0.17120000000E+03 0.  0.
        998    1    1    2    0    0  0.30172350328E+01 -0.66975332013E+00  0.14668223453E+04  0.14668596883E+04  0.10000000000E+02 0.  1.
</event>
<event>
 5    1  0.1440459E-008  0.3802774E+03  0.7957747E-01  0.3449951E+00
         13   -1    0    0    0    0  0.00000000000E+00  0.00000000000E+00  0.14999999963E+04  0.15000000000E+04  0.10566000000E+00 0. -1.
        994   -1    0    0    0    0 -0.00000000000E+00 -0.00000000000E+00  0.11368683772E-12  0.17120000000E+03  0.17120000000E+03 0.  0.
         13    1    1    2    0    0  0.14037022164E+02 -0.50330743364E+01  0.26185122232E+02  0.30133728923E+02  0.10566000000E+00 0. -1.
        994    1    1    2    0    0 -0.11012021195E+02  0.18216587025E+01  0.44093728933E+01  0.17162012009E+03  0.17120000000E+03 0.  0.
        998    1    1    2    0    0 -0.30250009693E+01  0.32114156340E+01  0.14694055012E+04  0.14694461510E+04  0.10000000000E+02 0. -1.
</event>
<event>
 5    1  0.1440459E-008  0.3688954E+03  0.7957747E-01  0.3500983E+00
         13   -1    0    0    0    0  0.00000000000E+00  0.00000000000E+00  0.14999999963E+04  0.15000000000E+04  0.10566000000E+00 0. -1.
        994   -1    0    0    0    0 -0.00000000000E+00 -0.00000000000E+00  0.11368683772E-12  0.17120000000E+03  0.17120000000E+03 0.  0.
         13    1    1    2    0    0  0.53104136027E+02 -0.43198666136E+02  0.22377335410E+03  0.23401004079E+03  0.10566000000E+00 0. -1.
        994    1    1    2    0    0 -0.39448942140E+02  0.29276761810E+02  0.18271206411E+02  0.17904363938E+03  0.17120000000E+03 0.  0.
        998    1    1    2    0    0 -0.13655193887E+02  0.13921904325E+02  0.12579554358E+04  0.12581463198E+04  0.10000000000E+02 0. -1.
</event>
<event>
 5    1  0.1440459E-008  0.3744580E+03  0.7957747E-01  0.3475650E+00
         13   -1    0    0    0    0  0.00000000000E+00  0.00000000000E+00  0.14999999963E+04  0.15000000000E+04  0.10566000000E+00 0.  1.
        994   -1    0    0    0    0 -0.00000000000E+00 -0.00000000000E+00  0.11368683772E-12  0.17120000000E+03  0.17120000000E+03 0.  0.
         13    1    1    2    0    0 -0.46997766919E+02 -0.21829320042E+02  0.20937551080E+03  0.21569289510E+03  0.10566000000E+00 0.  1.
        994    1    1    2    0    0  0.14981730711E+02  0.27855157675E+01  0.77484951830E+01  0.17205141828E+03  0.17120000000E+03 0.  0.
        998    1    1    2    0    0  0.32016036208E+02  0.19043804274E+02  0.12828759903E+04  0.12834556866E+04  0.10000000000E+02 0.  1.
</event>
<event>
 5    1  0.1440459E-008  0.3834114E+03  0.7957747E-01  0.3436438E+00
         13   -1    0    0    0    0  0.00000000000E+00  0.00000000000E+00  0.14999999963E+04  0.15000000000E+04  0.10566000000E+00 0. -1.
        994   -1    0    0    0    0 -0.00000000000E+00 -0.00000000000E+00  0.11368683772E-12  0.17120000000E+03  0.17120000000E+03 0.  0.
         13    1    1    2    0    0 -0.12008467962E+02 -0.91937623498E+01  0.42761858904E+02  0.45357648858E+02  0.10566000000E+00 0. -1.
        994    1    1    2    0    0  0.21084894444E+02  0.21383504216E+02  0.54077556907E+01  0.17389798978E+03  0.17120000000E+03 0.  0.
        998    1    1    2    0    0 -0.90764264818E+01 -0.12189741866E+02  0.14518303817E+04  0.14519443614E+04  0.10000000000E+02 0. -1.
</event>
<event>
 5    1  0.1440459E-008  0.3766725E+03  0.7957747E-01  0.3465776E+00
         13   -1    0    0    0    0  0.00000000000E+00  0.00000000000E+00  0.14999999963E+04  0.15000000000E+04  0.10566000000E+00 0. -1.
        994   -1    0    0    0    0 -0.00000000000E+00 -0.00000000000E+00  0.11368683772E-12  0.17120000000E+03  0.17120000000E+03 0.  0.
         13    1    1    2    0    0 -0.76130024341E+02  0.45318782000E+02  0.51754634939E+03  0.52507504944E+03  0.10566000000E+00 0. -1.
        994    1    1    2    0    0  0.65380791402E+02 -0.36280132879E+02  0.24960301072E+02  0.18847639787E+03  0.17120000000E+03 0.  0.
        998    1    1    2    0    0  0.10749232939E+02 -0.90386491214E+01  0.95749334581E+03  0.95764855269E+03  0.10000000000E+02 0. -1.
</event>
<event>
 5    1  0.1440459E-008  0.3909791E+03  0.7957747E-01  0.3404703E+00
         13   -1    0    0    0    0  0.00000000000E+00  0.00000000000E+00  0.14999999963E+04  0.15000000000E+04  0.10566000000E+00 0.  1.
        994   -1    0    0    0    0 -0.00000000000E+00 -0.00000000000E+00  0.11368683772E-12  0.17120000000E+03  0.17120000000E+03 0.  0.
         13    1    1    2    0    0 -0.18915552034E+00  0.43639958819E+02  0.32216345102E+02  0.54243763156E+02  0.10566000000E+00 0.  1.
        994    1    1    2    0    0  0.21005632707E+02 -0.51657280601E+02  0.34333202524E+02  0.18329735415E+03  0.17120000000E+03 0.  0.
        998    1    1    2    0    0 -0.20816477187E+02  0.80173217826E+01  0.14334504487E+04  0.14336588827E+04  0.10000000000E+02 0.  1.
</event>
<event>
 5    1  0.1440459E-008  0.3839613E+03  0.7957747E-01  0.3434089E+00
         13   -1    0    0    0    0  0.00000000000E+00  0.00000000000E+00  0.14999999963E+04  0.15000000000E+04  0.10566000000E+00 0. -1.
        994   -1    0    0    0    0 -0.00000000000E+00 -0.00000000000E+00  0.11368683772E-12  0.17120000000E+03  0.17120000000E+03 0.  0.
         13    1    1    2    0    0 -0.13146838638E+02  0.79053345430E+01  0.50406824186E+02  0.52689588810E+02  0.10566000000E+00 0. -1.
        994    1    1    2    0    0  0.26769700492E+02 -0.50274743913E+01  0.45986263939E+01  0.17341418549E+03  0.17120000000E+03 0.  0.
        998    1    1    2    0    0 -0.13622861854E+02 -0.28778601516E+01  0.14449945457E+04  0.14450962257E+04  0.10000000000E+02 0. -1.
</event>
<event>
 5    1  0.1440459E-008  0.3844161E+03  0.7957747E-01  0.3432152E+00
         13   -1    0    0    0    0  0.00000000000E+00  0.00000000000E+00  0.14999999963E+04  0.15000000000E+04  0.10566000000E+00 0. -1.
        994   -1    0    0    0    0 -0.00000000000E+00 -0.00000000000E+00  0.11368683772E-12  0.17120000000E+03  0.17120000000E+03 0.  0.
         13    1    1    2    0    0  0.11589419217E+02 -0.57954628561E+01  0.44080990644E+02  0.45946130715E+02  0.10566000000E+00 0. -1.
        994    1    1    2    0    0 -0.31781760871E+01  0.56907138605E+01  0.20602844981E+01  0.17133642286E+03  0.17120000000E+03 0.  0.
        998    1    1    2    0    0 -0.84112431298E+01  0.10474899567E+00  0.14538587211E+04  0.14539174464E+04  0.10000000000E+02 0. -1.
</event>
<event>
 5    1  0.1440459E-008  0.3849056E+03  0.7957747E-01  0.3430073E+00
         13   -1    0    0    0    0  0.00000000000E+00  0.00000000000E+00  0.14999999963E+04  0.15000000000E+04  0.10566000000E+00 0.  1.
        994   -1    0    0    0    0 -0.00000000000E+00 -0.00000000000E+00  0.11368683772E-12  0.17120000000E+03  0.17120000000E+03 0.  0.
         13    1    1    2    0    0  0.10115288155E+02  0.48779491401E+01  0.36827178202E+02  0.38501502057E+02  0.10566000000E+00 0.  1.
        994    1    1    2    0    0 -0.91333740196E+01 -0.60785469055E+01  0.20730687063E+01  0.17156370498E+03  0.17120000000E+03 0.  0.
        998    1    1    2    0    0 -0.98191413513E+00  0.12005977654E+01  0.14610997494E+04  0.14611347930E+04  0.10000000000E+02 0.  1.
</event>
<event>
 5    1  0.1440459E-008  0.3887227E+03  0.7957747E-01  0.3414036E+00
         13   -1    0    0    0    0  0.00000000000E+00  0.00000000000E+00  0.14999999963E+04  0.15000000000E+04  0.10566000000E+00 0. -1.
        994   -1    0    0    0    0 -0.00000000000E+00 -0.00000000000E+00  0.11368683772E-12  0.17120000000E+03  0.17120000000E+03 0.  0.
         13    1    1    2    0    0 -0.78759428728E+02 -0.82312316664E+01  0.16306306693E+03  0.18127431078E+03  0.10566000000E+00 0. -1.
        994    1    1    2    0    0  0.84939769926E+01  0.36455951720E+02  0.26467076354E+02  0.17723185434E+03  0.17120000000E+03 0.  0.
        998    1    1    2    0    0  0.70265451736E+02 -0.28224720053E+02  0.13104698530E+04  0.13126938349E+04  0.10000000000E+02 0. -1.
</event>
<event>
 5    1  0.1440459E-008  0.3812075E+03  0.7957747E-01  0.3445918E+00
         13   -1    0    0    0    0  0.00000000000E+00  0.00000000000E+00  0.14999999963E+04  0.15000000000E+04  0.10566000000E+00 0. -1.
        994   -1    0    0    0    0 -0.00000000000E+00 -0.00000000000E+00  0.11368683772E-12  0.17120000000E+03  0.17120000000E+03 0.  0.
         13    1    1    2    0    0 -0.10588988327E+02  0.17369286998E+02  0.56704940741E+02  0.60243508141E+02  0.10566000000E+00 0. -1.
        994    1    1    2    0    0  0.76515587216E+01 -0.14403441433E+02  0.44110588026E+01  0.17203169160E+03  0.17120000000E+03 0.  0.
        998    1    1    2    0    0  0.29374296058E+01 -0.29658455658E+01  0.14388839967E+04  0.14389248003E+04  0.10000000000E+02 0. -1.
</event>
<event>
 5    1  0.1440459E-008  0.3815590E+03  0.7957747E-01  0.3444398E+00
         13   -1    0    0    0    0  0.00000000000E+00  0.00000000000E+00  0.14999999963E+04  0.15000000000E+04  0.10566000000E+00 0. -1.
        994   -1    0    0    0    0 -0.00000000000E+00 -0.00000000000E+00  0.11368683772E-12  0.17120000000E+03  0.17120000000E+03 0.  0.
         13    1    1    2    0    0 -0.10505422143E+02  0.15513841711E+02  0.48728899368E+02  0.52206895873E+02  0.10566000000E+00 0. -1.
        994    1    1    2    0    0  0.12101832502E+02 -0.21753975993E+02  0.54119249963E+01  0.17308500442E+03  0.17120000000E+03 0.  0.
        998    1    1    2    0    0 -0.15964103596E+01  0.62401342816E+01  0.14458591719E+04  0.14459080997E+04  0.10000000000E+02 0. -1.
</event>
<event>
 5    1  0.1440459E-008  0.3672211E+03  0.7957747E-01  0.3508761E+00
         13   -1    0    0    0    0  0.00000000000E+00  0.00000000000E+00  0.14999999963E+04  0.15000000000E+04  0.10566000000E+00 0.  1.
        994   -1    0    0    0    0 -0.00000000000E+00 -0.00000000000E+00  0.11368683772E-12  0.17120000000E+03  0.17120000000E+03 0.  0.
         13    1    1    2    0    0 -0.26237907523E+02  0.23294035655E+03  0.11179353412E+04  0.11422473794E+04  0.10566000000E+00 0.  1.
        994    1    1    2    0    0  0.32313845482E+02 -0.22339552221E+03  0.20124507960E+03  0.34750362015E+03  0.17120000000E+03 0.  0.
        998    1    1    2    0    0 -0.60759379598E+01 -0.95448343390E+01  0.18081957551E+03  0.18144900048E+03  0.10000000000E+02 0.  1.
</event>
<event>
 5    1  0.1440459E-008  0.3779569E+03  0.7957747E-01  0.3460103E+00
         13   -1    0    0    0    0  0.00000000000E+00  0.00000000000E+00  0.14999999963E+04  0.15000000000E+04  0.10566000000E+00 0.  1.
        994   -1    0    0    0    0 -0.00000000000E+00 -0.00000000000E+00  0.11368683772E-12  0.17120000000E+03  0.17120000000E+03 0.  0.
         13    1    1    2    0    0 -0.15167783914E+02  0.24633398124E+02  0.78802426971E+02  0.83944622416E+02  0.10566000000E+00 0.  1.
        994    1    1    2    0    0  0.12475802456E+02 -0.14503954808E+02  0.64008695901E+01  0.17238451637E+03  0.17120000000E+03 0.  0.
        998    1    1    2    0    0  0.26919814576E+01 -0.10129443316E+02  0.14147966997E+04  0.14148708612E+04  0.10000000000E+02 0.  1.
</event>
<event>
 5    1  0.1440459E-008  0.3849774E+03  0.7957747E-01  0.3429768E+00
         13   -1    0    0    0    0  0.00000000000E+00  0.00000000000E+00  0.14999999963E+04  0.15000000000E+04  0.10566000000E+00 0. -1.
        994   -1    0    0    0    0 -0.00000000000E+00 -0.00000000000E+00  0.11368683772E-12  0.17120000000E+03  0.17120000000E+03 0.  0.
         13    1    1    2    0    0 -0.14282236858E+02 -0.62939459760E-01  0.59325059178E+02  0.61020161107E+02  0.10566000000E+00 0. -1.
        994    1    1    2    0    0  0.17205555640E+02 -0.49600461127E+01  0.26966154715E+01  0.17215500265E+03  0.17120000000E+03 0.  0.
        998    1    1    2    0    0 -0.29233187823E+01  0.50229855725E+01  0.14379783216E+04  0.14380248362E+04  0.10000000000E+02 0. -1.
</event>
<event>
 5    1  0.1440459E-008  0.3841075E+03  0.7957747E-01  0.3433466E+00
         13   -1    0    0    0    0  0.00000000000E+00  0.00000000000E+00  0.14999999963E+04  0.15000000000E+04  0.10566000000E+00 0.  1.
        994   -1    0    0    0    0 -0.00000000000E+00 -0.00000000000E+00  0.11368683772E-12  0.17120000000E+03  0.17120000000E+03 0.  0.
         13    1    1    2    0    0 -0.11888810960E+02  0.13472881777E+02  0.87444212116E+02  0.89271293068E+02  0.10566000000E+00 0.  1.
        994    1    1    2    0    0  0.27287447589E+01  0.11009930030E+02  0.24983598248E+01  0.17159355002E+03  0.17120000000E+03 0.  0.
        998    1    1    2    0    0  0.91600662011E+01 -0.24482811807E+02  0.14100574243E+04  0.14103351569E+04  0.10000000000E+02 0.  1.
</event>
<event>
 5    1  0.1440459E-008  0.3849555E+03  0.7957747E-01  0.3429861E+00
         13   -1    0    0    0    0  0.00000000000E+00  0.00000000000E+00  0.14999999963E+04  0.15000000000E+04  0.10566000000E+00 0. -1.
        994   -1    0    0    0    0 -0.00000000000E+00 -0.00000000000E+00  0.11368683772E-12  0.17120000000E+03  0.17120000000E+03 0.  0.
         13    1    1    2    0    0  0.51963400475E+01 -0.16314457262E+02  0.85374752733E+02  0.87074812856E+02  0.10566000000E+00 0. -1.
        994    1    1    2    0    0  0.38778082126E+00  0.17448197606E+02  0.26547140768E+01  0.17210774962E+03  0.17120000000E+03 0.  0.
        998    1    1    2    0    0 -0.55841208688E+01 -0.11337403439E+01  0.14119705295E+04  0.14120174375E+04  0.10000000000E+02 0. -1.
</event>
<event>
 5    1  0.1440459E-008  0.3853448E+03  0.7957747E-01  0.3428211E+00
         13   -1    0    0    0    0  0.00000000000E+00  0.00000000000E+00  0.14999999963E+04  0.15000000000E+04  0.10566000000E+00 0. -1.
        994   -1    0    0    0    0 -0.00000000000E+00 -0.00000000000E+00  0.11368683772E-12  0.17120000000E+03  0.17120000000E+03 0.  0.
         13    1    1    2    0    0 -0.34267072592E+01  0.16947973316E+02  0.92935560974E+02  0.94530448955E+02  0.10566000000E+00 0. -1.
        994    1    1    2    0    0 -0.48274655739E+01 -0.25592405523E+02  0.36903402865E+01  0.17320893238E+03  0.17120000000E+03 0.  0.
        998    1    1    2    0    0  0.82541728331E+01  0.86444322068E+01  0.14033740950E+04  0.14034606187E+04  0.10000000000E+02 0. -1.
</event>
<event>
 5    1  0.1440459E-008  0.3850966E+03  0.7957747E-01  0.3429263E+00
         13   -1    0    0    0    0  0.00000000000E+00  0.00000000000E+00  0.14999999963E+04  0.15000000000E+04  0.10566000000E+00 0.  1.
        994   -1    0    0    0    0 -0.00000000000E+00 -0.00000000000E+00  0.11368683772E-12  0.17120000000E+03  0.17120000000E+03 0.  0.
         13    1    1    2    0    0  0.98032810970E+01  0.88265705238E+01  0.58285681329E+02  0.59759890223E+02  0.10566000000E+00 0.  1.
        994    1    1    2    0    0 -0.51987579644E+01  0.65603867183E+01  0.18125929075E+01  0.17141409292E+03  0.17120000000E+03 0.  0.
        998    1    1    2    0    0 -0.46045231326E+01 -0.15386957242E+02  0.14399017220E+04  0.14400260169E+04  0.10000000000E+02 0.  1.
</event>
<event>
 5    1  0.1440459E-008  0.2111021E+03  0.7957747E-01  0.4846595E+00
         13   -1    0    0    0    0  0.00000000000E+00  0.00000000000E+00  0.14999999963E+04  0.15000000000E+04  0.10566000000E+00 0.  1.
        994   -1    0    0    0    0 -0.00000000000E+00 -0.00000000000E+00  0.11368683772E-12  0.17120000000E+03  0.17120000000E+03 0.  0.
         13    1    1    2    0    0  0.66677498254E+02  0.58322359429E+02  0.42744548167E+02  0.98359005408E+02  0.10566000000E+00 0.  1.
        994    1    1    2    0    0  0.19595393277E+02  0.64214494475E+02  0.10397770548E+03  0.21125407446E+03  0.17120000000E+03 0.  0.
        998    1    1    2    0    0 -0.86272891532E+02 -0.12253685390E+03  0.13532777426E+04  0.13615869201E+04  0.10000000000E+02 0.  1.
</event>
<event>
 5    1  0.1440459E-008  0.3353230E+03  0.7957747E-01  0.3672206E+00
         13   -1    0    0    0    0  0.00000000000E+00  0.00000000000E+00  0.14999999963E+04  0.15000000000E+04  0.10566000000E+00 0. -1.
        994   -1    0    0    0    0 -0.00000000000E+00 -0.00000000000E+00  0.11368683772E-12  0.17120000000E+03  0.17120000000E+03 0.  0.
         13    1    1    2    0    0  0.30302989517E+02 -0.27426104734E+03  0.71116794114E+03  0.76282189594E+03  0.10566000000E+00 0. -1.
        994    1    1    2    0    0 -0.11607245301E+02  0.25876271569E+03  0.34646227942E+03  0.46522942968E+03  0.17120000000E+03 0.  0.
        998    1    1    2    0    0 -0.18695744217E+02  0.15498331648E+02  0.44236977571E+03  0.44314867438E+03  0.10000000000E+02 0. -1.
</event>
<event>
 5    1  0.1440459E-008  0.3804271E+03  0.7957747E-01  0.3449301E+00
         13   -1    0    0    0    0  0.00000000000E+00  0.00000000000E+00  0.14999999963E+04  0.15000000000E+04  0.10566000000E+00 0. -1.
        994   -1    0    0    0    0 -0.00000000000E+00 -0.00000000000E+00  0.11368683772E-12  0.17120000000E+03  0.17120000000E+03 0.  0.
         13    1    1    2    0    0  0.11943139039E+02  0.22953832698E+02  0.94892543928E+02  0.98357120041E+02  0.10566000000E+00 0. -1.
        994    1    1    2    0    0 -0.12459116805E+02  0.14303377147E+02  0.51197662438E+01  0.17232373080E+03  0.17120000000E+03 0.  0.
        998    1    1    2    0    0  0.51597776559E+00 -0.37257209845E+02  0.13999876861E+04  0.14005191492E+04  0.10000000000E+02 0. -1.
</event>
<event>
 5    1  0.1440459E-008  0.3790690E+03  0.7957747E-01  0.3455222E+00
         13   -1    0    0    0    0  0.00000000000E+00  0.00000000000E+00  0.14999999963E+04  0.15000000000E+04  0.10566000000E+00 0. -1.
        994   -1    0    0    0    0 -0.00000000000E+00 -0.00000000000E+00  0.11368683772E-12  0.17120000000E+03  0.17120000000E+03 0.  0.
         13    1    1    2    0    0  0.64405265841E+01 -0.19595369214E+02  0.43936703829E+02  0.48537655328E+02  0.10566000000E+00 0. -1.
        994    1    1    2    0    0 -0.19153975694E+01  0.17167788264E+02  0.56050694479E+01  0.17216056025E+03  0.17120000000E+03 0.  0.
        998    1    1    2    0    0 -0.45251290148E+01  0.24275809508E+01  0.14504582230E+04  0.14505017844E+04  0.10000000000E+02 0. -1.
</event>
<event>
 5    1  0.1440459E-008  0.3844530E+03  0.7957747E-01  0.3431995E+00
         13   -1    0    0    0    0  0.00000000000E+00  0.00000000000E+00  0.14999999963E+04  0.15000000000E+04  0.10566000000E+00 0.  1.
        994   -1    0    0    0    0 -0.00000000000E+00 -0.00000000000E+00  0.11368683772E-12  0.17120000000E+03  0.17120000000E+03 0.  0.
         13    1    1    2    0    0  0.16973113275E+01  0.10025127725E+02  0.27462723987E+02  0.29284747301E+02  0.10566000000E+00 0.  1.
        994    1    1    2    0    0  0.66807187842E+01 -0.11141116805E+01  0.20531104246E+01  0.17134622409E+03  0.17120000000E+03 0.  0.
        998    1    1    2    0    0 -0.83780301117E+01 -0.89110160449E+01  0.14704841619E+04  0.14705690286E+04  0.10000000000E+02 0.  1.
</event>
<event>
 5    1  0.1440459E-008  0.3767815E+03  0.7957747E-01  0.3465293E+00
         13   -1    0    0    0    0  0.00000000000E+00  0.00000000000E+00  0.14999999963E+04  0.15000000000E+04  0.10566000000E+00 0. -1.
        994   -1    0    0    0    0 -0.00000000000E+00 -0.00000000000E+00  0.11368683772E-12  0.17120000000E+03  0.17120000000E+03 0.  0.
         13    1    1    2    0    0 -0.29106310737E+02 -0.62242151858E+02  0.30627739837E+03  0.31389029725E+03  0.10566000000E+00 0. -1.
        994    1    1    2    0    0  0.36045625764E+02  0.66688911512E+02  0.25437706034E+02  0.18895294373E+03  0.17120000000E+03 0.  0.
        998    1    1    2    0    0 -0.69393150268E+01 -0.44467596537E+01  0.11682848919E+04  0.11683567590E+04  0.10000000000E+02 0. -1.
</event>
<event>
 5    1  0.1440459E-008  0.3689352E+03  0.7957747E-01  0.3500799E+00
         13   -1    0    0    0    0  0.00000000000E+00  0.00000000000E+00  0.14999999963E+04  0.15000000000E+04  0.10566000000E+00 0.  1.
        994   -1    0    0    0    0 -0.00000000000E+00 -0.00000000000E+00  0.11368683772E-12  0.17120000000E+03  0.17120000000E+03 0.  0.
         13    1    1    2    0    0  0.11345474127E+03  0.74205124631E+02  0.61862932159E+03  0.63330926690E+03  0.10566000000E+00 0.  1.
        994    1    1    2    0    0 -0.99447586392E+02 -0.59105052666E+02  0.58558114526E+02  0.21475968538E+03  0.17120000000E+03 0.  0.
        998    1    1    2    0    0 -0.14007154879E+02 -0.15100071965E+02  0.82281256016E+03  0.82313104772E+03  0.10000000000E+02 0.  0.
</event>
<event>
 5    1  0.1440459E-008  0.3708484E+03  0.7957747E-01  0.3492001E+00
         13   -1    0    0    0    0  0.00000000000E+00  0.00000000000E+00  0.14999999963E+04  0.15000000000E+04  0.10566000000E+00 0. -1.
        994   -1    0    0    0    0 -0.00000000000E+00 -0.00000000000E+00  0.11368683772E-12  0.17120000000E+03  0.17120000000E+03 0.  0.
         13    1    1    2    0    0  0.36215048427E+01  0.19897838371E+02  0.20359571003E+02  0.28697779786E+02  0.10566000000E+00 0. -1.
        994    1    1    2    0    0  0.81527677453E+01  0.50856188330E+01  0.91446701131E+01  0.17171312161E+03  0.17120000000E+03 0.  0.
        998    1    1    2    0    0 -0.11774272588E+02 -0.24983457204E+02  0.14704957552E+04  0.14707890986E+04  0.10000000000E+02 0. -1.
</event>
<event>
 5    1  0.1440459E-008  0.3354632E+03  0.7957747E-01  0.3671417E+00
         13   -1    0    0    0    0  0.00000000000E+00  0.00000000000E+00  0.14999999963E+04  0.15000000000E+04  0.10566000000E+00 0. -1.
        994   -1    0    0    0    0 -0.00000000000E+00 -0.00000000000E+00  0.11368683772E-12  0.17120000000E+03  0.17120000000E+03 0.  0.
         13    1    1    2    0    0  0.44805405342E+02 -0.19523229118E+03  0.98986368126E+03  0.10099273689E+04  0.10566000000E+00 0. -1.
        994    1    1    2    0    0 -0.34511797495E+02  0.14151594518E+03  0.97685788203E+02  0.24509137097E+03  0.17120000000E+03 0.  0.
        998    1    1    2    0    0 -0.10293607848E+02  0.53716346002E+02  0.41245052681E+03  0.41618126010E+03  0.10000000000E+02 0. -1.
</event>
<event>
 5    1  0.1440459E-008  0.3854983E+03  0.7957747E-01  0.3427561E+00
         13   -1    0    0    0    0  0.00000000000E+00  0.00000000000E+00  0.14999999963E+04  0.15000000000E+04  0.10566000000E+00 0.  1.
        994   -1    0    0    0    0 -0.00000000000E+00 -0.00000000000E+00  0.11368683772E-12  0.17120000000E+03  0.17120000000E+03 0.  0.
         13    1    1    2    0    0  0.92332866766E+01  0.11987878708E+02  0.84361269071E+02  0.85707629194E+02  0.10566000000E+00 0.  1.
        994    1    1    2    0    0 -0.17298314596E+02  0.26345622919E+01  0.23888405365E+01  0.17210845175E+03  0.17120000000E+03 0.  0.
        998    1    1    2    0    0  0.80650279190E+01 -0.14622441000E+02  0.14132498867E+04  0.14133839191E+04  0.10000000000E+02 0.  1.
</event>
<event>
 5    1  0.1440459E-008  0.3778700E+03  0.7957747E-01  0.3460486E+00
         13   -1    0    0    0    0  0.00000000000E+00  0.00000000000E+00  0.14999999963E+04  0.15000000000E+04  0.10566000000E+00 0. -1.
        994   -1    0    0    0    0 -0.00000000000E+00 -0.00000000000E+00  0.11368683772E-12  0.17120000000E+03  0.17120000000E+03 0.  0.
         13    1    1    2    0    0 -0.15448429535E+02  0.58989110007E+01  0.23460101726E+02  0.28702589833E+02  0.10566000000E+00 0. -1.
        994    1    1    2    0    0  0.21125587862E+02 -0.30529419806E+01  0.67476322010E+01  0.17265741067E+03  0.17120000000E+03 0.  0.
        998    1    1    2    0    0 -0.56771583261E+01 -0.28459690201E+01  0.14697922624E+04  0.14698399995E+04  0.10000000000E+02 0. -1.
</event>
<event>
 5    1  0.1440459E-008  0.3837883E+03  0.7957747E-01  0.3434827E+00
         13   -1    0    0    0    0  0.00000000000E+00  0.00000000000E+00  0.14999999963E+04  0.15000000000E+04  0.10566000000E+00 0.  1.
        994   -1    0    0    0    0 -0.00000000000E+00 -0.00000000000E+00  0.11368683772E-12  0.17120000000E+03  0.17120000000E+03 0.  0.
         13    1    1    2    0    0  0.11479801369E+02 -0.17041008854E+02  0.99027590838E+02  0.10113682185E+03  0.10566000000E+00 0.  1.
        994    1    1    2    0    0 -0.14710114464E+01  0.54230963772E+01  0.23371683517E+01  0.17130813234E+03  0.17120000000E+03 0.  0.
        998    1    1    2    0    0 -0.10008789923E+02  0.11617912477E+02  0.13986352371E+04  0.13987550458E+04  0.10000000000E+02 0.  1.
</event>
<event>
 5    1  0.1440459E-008  0.3780760E+03  0.7957747E-01  0.3459579E+00
         13   -1    0    0    0    0  0.00000000000E+00  0.00000000000E+00  0.14999999963E+04  0.15000000000E+04  0.10566000000E+00 0. -1.
        994   -1    0    0    0    0 -0.00000000000E+00 -0.00000000000E+00  0.11368683772E-12  0.17120000000E+03  0.17120000000E+03 0.  0.
         13    1    1    2    0    0 -0.11901001925E+03  0.77951749577E+02  0.81122221081E+03  0.82360266295E+03  0.10566000000E+00 0. -1.
        994    1    1    2    0    0  0.12348740568E+03 -0.73339007140E+02  0.77976260638E+02  0.23668013553E+03  0.17120000000E+03 0.  0.
        998    1    1    2    0    0 -0.44773864318E+01 -0.46127424362E+01  0.61080152484E+03  0.61091720153E+03  0.10000000000E+02 0. -1.
</event>
<event>
 5    1  0.1440459E-008  0.3834944E+03  0.7957747E-01  0.3436083E+00
         13   -1    0    0    0    0  0.00000000000E+00  0.00000000000E+00  0.14999999963E+04  0.15000000000E+04  0.10566000000E+00 0.  1.
        994   -1    0    0    0    0 -0.00000000000E+00 -0.00000000000E+00  0.11368683772E-12  0.17120000000E+03  0.17120000000E+03 0.  0.
         13    1    1    2    0    0  0.96756516068E+01  0.37190713418E+01  0.21231317109E+02  0.23626885446E+02  0.10566000000E+00 0.  1.
        994    1    1    2    0    0 -0.12237670064E+02 -0.89931732915E+01  0.31420873893E+01  0.17190099025E+03  0.17120000000E+03 0.  0.
        998    1    1    2    0    0  0.25620184570E+01  0.52741019498E+01  0.14756265918E+04  0.14756721243E+04  0.10000000000E+02 0.  1.
</event>
<event>
 5    1  0.1440459E-008  0.3685069E+03  0.7957747E-01  0.3502781E+00
         13   -1    0    0    0    0  0.00000000000E+00  0.00000000000E+00  0.14999999963E+04  0.15000000000E+04  0.10566000000E+00 0.  1.
        994   -1    0    0    0    0 -0.00000000000E+00 -0.00000000000E+00  0.11368683772E-12  0.17120000000E+03  0.17120000000E+03 0.  0.
         13    1    1    2    0    0 -0.70228633892E+01 -0.63713825623E+02  0.23333546961E+03  0.24197980232E+03  0.10566000000E+00 0.  1.
        994    1    1    2    0    0 -0.13036380153E+02  0.10916732415E+02  0.11157589506E+02  0.17240375303E+03  0.17120000000E+03 0.  0.
        998    1    1    2    0    0  0.20059243542E+02  0.52797093208E+02  0.12555069372E+04  0.12568164447E+04  0.10000000000E+02 0.  1.
</event>
<event>
 5    1  0.1440459E-008  0.3828840E+03  0.7957747E-01  0.3438696E+00
         13   -1    0    0    0    0  0.00000000000E+00  0.00000000000E+00  0.14999999963E+04  0.15000000000E+04  0.10566000000E+00 0.  1.
        994   -1    0    0    0    0 -0.00000000000E+00 -0.00000000000E+00  0.11368683772E-12  0.17120000000E+03  0.17120000000E+03 0.  0.
         13    1    1    2    0    0 -0.18438890828E+02 -0.71157300287E+01  0.71824999882E+02  0.74494752036E+02  0.10566000000E+00 0.  1.
        994    1    1    2    0    0  0.55107862349E+01  0.22746968800E+02  0.45004227088E+01  0.17285105484E+03  0.17120000000E+03 0.  0.
        998    1    1    2    0    0  0.12928104593E+02 -0.15631238771E+02  0.14236745737E+04  0.14238541931E+04  0.10000000000E+02 0.  1.
</event>
<event>
 5    1  0.1440459E-008  0.3851524E+03  0.7957747E-01  0.3429026E+00
         13   -1    0    0    0    0  0.00000000000E+00  0.00000000000E+00  0.14999999963E+04  0.15000000000E+04  0.10566000000E+00 0.  1.
        994   -1    0    0    0    0 -0.00000000000E+00 -0.00000000000E+00  0.11368683772E-12  0.17120000000E+03  0.17120000000E+03 0.  0.
         13    1    1    2    0    0 -0.10583170619E+02  0.62053572665E+01  0.54821745924E+02  0.56177797655E+02  0.10566000000E+00 0.  1.
        994    1    1    2    0    0 -0.45389503024E+01  0.15964770706E+02  0.24605338342E+01  0.17202026102E+03  0.17120000000E+03 0.  0.
        998    1    1    2    0    0  0.15122120922E+02 -0.22170127972E+02  0.14427177165E+04  0.14430019413E+04  0.10000000000E+02 0.  1.
</event>
<event>
 5    1  0.1440459E-008  0.3792692E+03  0.7957747E-01  0.3454347E+00
         13   -1    0    0    0    0  0.00000000000E+00  0.00000000000E+00  0.14999999963E+04  0.15000000000E+04  0.10566000000E+00 0. -1.
        994   -1    0    0    0    0 -0.00000000000E+00 -0.00000000000E+00  0.11368683772E-12  0.17120000000E+03  0.17120000000E+03 0.  0.
         13    1    1    2    0    0  0.45414487454E+01  0.18931770844E+02  0.39659781269E+02  0.44180834287E+02  0.10566000000E+00 0. -1.
        994    1    1    2    0    0 -0.11414742223E+02 -0.15893153315E+02  0.57865915261E+01  0.17241175512E+03  0.17120000000E+03 0.  0.
        998    1    1    2    0    0  0.68732934780E+01 -0.30386175290E+01  0.14545536235E+04  0.14546074106E+04  0.10000000000E+02 0. -1.
</event>
<event>
 5    1  0.1440459E-008  0.3827718E+03  0.7957747E-01  0.3439177E+00
         13   -1    0    0    0    0  0.00000000000E+00  0.00000000000E+00  0.14999999963E+04  0.15000000000E+04  0.10566000000E+00 0. -1.
        994   -1    0    0    0    0 -0.00000000000E+00 -0.00000000000E+00  0.11368683772E-12  0.17120000000E+03  0.17120000000E+03 0.  0.
         13    1    1    2    0    0  0.15281440259E+02  0.87701964722E+01  0.54190709249E+02  0.56983180813E+02  0.10566000000E+00 0. -1.
        994    1    1    2    0    0 -0.15734588078E+02 -0.85204045762E+01  0.38017617241E+01  0.17217452758E+03  0.17120000000E+03 0.  0.
        998    1    1    2    0    0  0.45314781823E+00 -0.24979189601E+00  0.14420075253E+04  0.14420422916E+04  0.10000000000E+02 0. -1.
</event>
<event>
 5    1  0.1440459E-008  0.3745037E+03  0.7957747E-01  0.3475446E+00
         13   -1    0    0    0    0  0.00000000000E+00  0.00000000000E+00  0.14999999963E+04  0.15000000000E+04  0.10566000000E+00 0. -1.
        994   -1    0    0    0    0 -0.00000000000E+00 -0.00000000000E+00  0.11368683772E-12  0.17120000000E+03  0.17120000000E+03 0.  0.
         13    1    1    2    0    0 -0.13017984719E+01 -0.87299337071E+02  0.26195449728E+03  0.27612142029E+03  0.10566000000E+00 0. -1.
        994    1    1    2    0    0 -0.13208543287E+02  0.65920623729E+02  0.29574849611E+02  0.18629038080E+03  0.17120000000E+03 0.  0.
        998    1    1    2    0    0  0.14510341759E+02  0.21378713342E+02  0.12084706494E+04  0.12087881989E+04  0.10000000000E+02 0. -1.
</event>
<event>
 5    1  0.1440459E-008  0.3759494E+03  0.7957747E-01  0.3468987E+00
         13   -1    0    0    0    0  0.00000000000E+00  0.00000000000E+00  0.14999999963E+04  0.15000000000E+04  0.10566000000E+00 0.  1.
        994   -1    0    0    0    0 -0.00000000000E+00 -0.00000000000E+00  0.11368683772E-12  0.17120000000E+03  0.17120000000E+03 0.  0.
         13    1    1    2    0    0 -0.40494919516E+02  0.20834274081E+02  0.26403682910E+03  0.26793537237E+03  0.10566000000E+00 0.  1.
        994    1    1    2    0    0 -0.39816985595E+02 -0.69618392906E+01  0.11748181706E+02  0.17629894873E+03  0.17120000000E+03 0.  0.
        998    1    1    2    0    0  0.80311905111E+02 -0.13872434790E+02  0.12242149855E+04  0.12269656789E+04  0.10000000000E+02 0.  1.
</event>
<event>
 5    1  0.1440459E-008  0.3849970E+03  0.7957747E-01  0.3429685E+00
         13   -1    0    0    0    0  0.00000000000E+00  0.00000000000E+00  0.14999999963E+04  0.15000000000E+04  0.10566000000E+00 0. -1.
        994   -1    0    0    0    0 -0.00000000000E+00 -0.00000000000E+00  0.11368683772E-12  0.17120000000E+03  0.17120000000E+03 0.  0.
         13    1    1    2    0    0 -0.92343360548E+01 -0.52649146439E+01  0.32558138739E+02  0.34249610958E+02  0.10566000000E+00 0. -1.
        994    1    1    2    0    0  0.14190879681E+02  0.14638792113E+02  0.29998248571E+01  0.17243582647E+03  0.17120000000E+03 0.  0.
        998    1    1    2    0    0 -0.49565436258E+01 -0.93738774693E+01  0.14644420327E+04  0.14645145626E+04  0.10000000000E+02 0. -1.
</event>
<event>
 5    1  0.1440459E-008  0.3704450E+03  0.7957747E-01  0.3493848E+00
         13   -1    0    0    0    0  0.00000000000E+00  0.00000000000E+00  0.14999999963E+04  0.15000000000E+04  0.10566000000E+00 0.  1.
        994   -1    0    0    0    0 -0.00000000000E+00 -0.00000000000E+00  0.11368683772E-12  0.17120000000E+03  0.17120000000E+03 0.  0.
         13    1    1    2    0    0 -0.48982109438E+02 -0.94044290035E+02  0.52765261591E+03  0.53820151409E+03  0.10566000000E+00 0.  1.
        994    1    1    2    0    0 -0.27075668899E+02  0.85299749288E+02  0.39771220854E+02  0.19723166349E+03  0.17120000000E+03 0.  0.
        998    1    1    2    0    0  0.76057778336E+02  0.87445407474E+01  0.93257615952E+03  0.93576682242E+03  0.10000000000E+02 0.  1.
</event>
<event>
 5    1  0.1440459E-008  0.3765995E+03  0.7957747E-01  0.3466100E+00
         13   -1    0    0    0    0  0.00000000000E+00  0.00000000000E+00  0.14999999963E+04  0.15000000000E+04  0.10566000000E+00 0. -1.
        994   -1    0    0    0    0 -0.00000000000E+00 -0.00000000000E+00  0.11368683772E-12  0.17120000000E+03  0.17120000000E+03 0.  0.
         13    1    1    2    0    0  0.13429444655E+01 -0.41425446907E+02  0.13991546332E+03  0.14592538913E+03  0.10566000000E+00 0. -1.
        994    1    1    2    0    0  0.32732039741E+01  0.30944533958E+02  0.91403110640E+01  0.17424483732E+03  0.17120000000E+03 0.  0.
        998    1    1    2    0    0 -0.46161484396E+01  0.10480912948E+02  0.13509442219E+04  0.13510297736E+04  0.10000000000E+02 0. -1.
</event>
<event>
 5    1  0.1440459E-008  0.3812895E+03  0.7957747E-01  0.3445563E+00
         13   -1    0    0    0    0  0.00000000000E+00  0.00000000000E+00  0.14999999963E+04  0.15000000000E+04  0.10566000000E+00 0. -1.
        994   -1    0    0    0    0 -0.00000000000E+00 -0.00000000000E+00  0.11368683772E-12  0.17120000000E+03  0.17120000000E+03 0.  0.
         13    1    1    2    0    0  0.38434173331E+02  0.33332757969E+02  0.27430766770E+03  0.27898560206E+03  0.10566000000E+00 0. -1.
        994    1    1    2    0    0 -0.40208738040E+02 -0.48611743227E+02  0.16846777034E+02  0.18322963213E+03  0.17120000000E+03 0.  0.
        998    1    1    2    0    0  0.17745647086E+01  0.15278985258E+02  0.12088455515E+04  0.12089847658E+04  0.10000000000E+02 0. -1.
</event>
<event>
 5    1  0.1440459E-008  0.3854803E+03  0.7957747E-01  0.3427638E+00
         13   -1    0    0    0    0  0.00000000000E+00  0.00000000000E+00  0.14999999963E+04  0.15000000000E+04  0.10566000000E+00 0.  1.
        994   -1    0    0    0    0 -0.00000000000E+00 -0.00000000000E+00  0.11368683772E-12  0.17120000000E+03  0.17120000000E+03 0.  0.
         13    1    1    2    0    0 -0.13102201397E+01  0.10325374787E+02  0.39567064452E+02  0.40913247178E+02  0.10566000000E+00 0.  1.
        994    1    1    2    0    0  0.22924228586E+01 -0.41637553943E+01  0.14660340585E+01  0.17127224328E+03  0.17120000000E+03 0.  0.
        998    1    1    2    0    0 -0.98220271895E+00 -0.61616193926E+01  0.14589668978E+04  0.14590145095E+04  0.10000000000E+02 0.  1.
</event>
<event>
 5    1  0.1440459E-008  0.3852222E+03  0.7957747E-01  0.3428730E+00
         13   -1    0    0    0    0  0.00000000000E+00  0.00000000000E+00  0.14999999963E+04  0.15000000000E+04  0.10566000000E+00 0. -1.
        994   -1    0    0    0    0 -0.00000000000E+00 -0.00000000000E+00  0.11368683772E-12  0.17120000000E+03  0.17120000000E+03 0.  0.
         13    1    1    2    0    0  0.12358625883E+02 -0.99232575486E+01  0.88548428416E+02  0.89955778097E+02  0.10566000000E+00 0. -1.
        994    1    1    2    0    0 -0.70138105381E+01 -0.58522929067E+01  0.17941284836E+01  0.17145291414E+03  0.17120000000E+03 0.  0.
        998    1    1    2    0    0 -0.53448153448E+01  0.15775550455E+02  0.14096574394E+04  0.14097913078E+04  0.10000000000E+02 0. -1.
</event>
<event>
 5    1  0.1440459E-008  0.3770030E+03  0.7957747E-01  0.3464313E+00
         13   -1    0    0    0    0  0.00000000000E+00  0.00000000000E+00  0.14999999963E+04  0.15000000000E+04  0.10566000000E+00 0.  1.
        994   -1    0    0    0    0 -0.00000000000E+00 -0.00000000000E+00  0.11368683772E-12  0.17120000000E+03  0.17120000000E+03 0.  0.
         13    1    1    2    0    0  0.91616586341E+01 -0.13328751889E+02  0.20871988023E+02  0.26405352941E+02  0.10566000000E+00 0.  1.
        994    1    1    2    0    0 -0.30853811992E+01  0.83984139203E+01  0.59240457293E+01  0.17153596489E+03  0.17120000000E+03 0.  0.
        998    1    1    2    0    0 -0.60762774348E+01  0.49303379684E+01  0.14732039625E+04  0.14732586822E+04  0.10000000000E+02 0.  1.
</event>
<event>
 5    1  0.1440459E-008  0.3857846E+03  0.7957747E-01  0.3426351E+00
         13   -1    0    0    0    0  0.00000000000E+00  0.00000000000E+00  0.14999999963E+04  0.15000000000E+04  0.10566000000E+00 0.  1.
        994   -1    0    0    0    0 -0.00000000000E+00 -0.00000000000E+00  0.11368683772E-12  0.17120000000E+03  0.17120000000E+03 0.  0.
         13    1    1    2    0    0  0.31215113170E+01 -0.12505418980E+02  0.72184009359E+02  0.73325791560E+02  0.10566000000E+00 0.  1.
        994    1    1    2    0    0 -0.51423736529E+01 -0.14133788151E+01  0.13344065398E+01  0.17128824328E+03  0.17120000000E+03 0.  0.
        998    1    1    2    0    0  0.20208623359E+01  0.13918797795E+02  0.14264815804E+04  0.14265859652E+04  0.10000000000E+02 0.  1.
</event>
<event>
 5    1  0.1440459E-008  0.3860148E+03  0.7957747E-01  0.3425380E+00
         13   -1    0    0    0    0  0.00000000000E+00  0.00000000000E+00  0.14999999963E+04  0.15000000000E+04  0.10566000000E+00 0. -1.
        994   -1    0    0    0    0 -0.00000000000E+00 -0.00000000000E+00  0.11368683772E-12  0.17120000000E+03  0.17120000000E+03 0.  0.
         13    1    1    2    0    0  0.55712364228E+00  0.12802030865E+02  0.74139985481E+02  0.75239291545E+02  0.10566000000E+00 0. -1.
        994    1    1    2    0    0 -0.17956221898E+01 -0.76589385671E+01  0.13300239188E+01  0.17138580035E+03  0.17120000000E+03 0.  0.
        998    1    1    2    0    0  0.12384985475E+01 -0.51430922979E+01  0.14245299869E+04  0.14245749081E+04  0.10000000000E+02 0. -1.
</event>
<event>
 5    1  0.1440459E-008  0.3963867E+03  0.7957747E-01  0.3382770E+00
         13   -1    0    0    0    0  0.00000000000E+00  0.00000000000E+00  0.14999999963E+04  0.15000000000E+04  0.10566000000E+00 0. -1.
        994   -1    0    0    0    0 -0.00000000000E+00 -0.00000000000E+00  0.11368683772E-12  0.17120000000E+03  0.17120000000E+03 0.  0.
         13    1    1    2    0    0  0.65500272504E+02 -0.87278778729E+02  0.46820823686E+03  0.48075652376E+03  0.10566000000E+00 0. -1.
        994    1    1    2    0    0  0.30888232164E+02 -0.34179894076E+02  0.33868624134E+02  0.18049618208E+03  0.17120000000E+03 0.  0.
        998    1    1    2    0    0 -0.96388504669E+02  0.12145867280E+03  0.99792313528E+03  0.10099472942E+04  0.10000000000E+02 0. -1.
</event>
<event>
 5    1  0.1440459E-008  0.3763325E+03  0.7957747E-01  0.3467285E+00
         13   -1    0    0    0    0  0.00000000000E+00  0.00000000000E+00  0.14999999963E+04  0.15000000000E+04  0.10566000000E+00 0. -1.
        994   -1    0    0    0    0 -0.00000000000E+00 -0.00000000000E+00  0.11368683772E-12  0.17120000000E+03  0.17120000000E+03 0.  0.
         13    1    1    2    0    0 -0.19400495874E+02  0.19312412593E+02  0.60036348883E+02  0.65982746771E+02  0.10566000000E+00 0. -1.
        994    1    1    2    0    0  0.15624228440E+02 -0.10450741606E+02  0.71926389898E+01  0.17237896789E+03  0.17120000000E+03 0.  0.
        998    1    1    2    0    0  0.37762674336E+01 -0.88616709870E+01  0.14327710084E+04  0.14328382853E+04  0.10000000000E+02 0. -1.
</event>
<event>
 5    1  0.1440459E-008  0.3855681E+03  0.7957747E-01  0.3427266E+00
         13   -1    0    0    0    0  0.00000000000E+00  0.00000000000E+00  0.14999999963E+04  0.15000000000E+04  0.10566000000E+00 0.  1.
        994   -1    0    0    0    0 -0.00000000000E+00 -0.00000000000E+00  0.11368683772E-12  0.17120000000E+03  0.17120000000E+03 0.  0.
         13    1    1    2    0    0  0.49894021985E+01  0.15663129100E+02  0.76623771459E+02  0.78367348202E+02  0.10566000000E+00 0.  1.
        994    1    1    2    0    0 -0.74050595786E+01 -0.49080178849E+02  0.94778470009E+01  0.17850201245E+03  0.17120000000E+03 0.  0.
        998    1    1    2    0    0  0.24156573801E+01  0.33417049749E+02  0.14138983778E+04  0.14143306394E+04  0.10000000000E+02 0.  1.
</event>
<event>
 5    1  0.1440459E-008  0.3707639E+03  0.7957747E-01  0.3492387E+00
         13   -1    0    0    0    0  0.00000000000E+00  0.00000000000E+00  0.14999999963E+04  0.15000000000E+04  0.10566000000E+00 0. -1.
        994   -1    0    0    0    0 -0.00000000000E+00 -0.00000000000E+00  0.11368683772E-12  0.17120000000E+03  0.17120000000E+03 0.  0.
         13    1    1    2    0    0 -0.18517222692E+02  0.15712279227E+02  0.20427305930E+02  0.31734039237E+02  0.10566000000E+00 0. -1.
        994    1    1    2    0    0  0.20765434924E+02 -0.27034423613E+02  0.15427690572E+02  0.17524131072E+03  0.17120000000E+03 0.  0.
        998    1    1    2    0    0 -0.22482122311E+01  0.11322144386E+02  0.14641449998E+04  0.14642246500E+04  0.10000000000E+02 0. -1.
</event>
<event>
 5    1  0.1440459E-008  0.3810461E+03  0.7957747E-01  0.3446616E+00
         13   -1    0    0    0    0  0.00000000000E+00  0.00000000000E+00  0.14999999963E+04  0.15000000000E+04  0.10566000000E+00 0.  1.
        994   -1    0    0    0    0 -0.00000000000E+00 -0.00000000000E+00  0.11368683772E-12  0.17120000000E+03  0.17120000000E+03 0.  0.
         13    1    1    2    0    0 -0.10032801419E+02 -0.18864078276E+02  0.60971774392E+02  0.64607112535E+02  0.10566000000E+00 0.  1.
        994    1    1    2    0    0  0.18053826416E+01  0.19102970984E+02  0.48335551718E+01  0.17233974052E+03  0.17120000000E+03 0.  0.
        998    1    1    2    0    0  0.82274187773E+01 -0.23889270758E+00  0.14341946667E+04  0.14342531469E+04  0.10000000000E+02 0.  1.
</event>
<event>
 5    1  0.1440459E-008  0.3828624E+03  0.7957747E-01  0.3438789E+00
         13   -1    0    0    0    0  0.00000000000E+00  0.00000000000E+00  0.14999999963E+04  0.15000000000E+04  0.10566000000E+00 0. -1.
        994   -1    0    0    0    0 -0.00000000000E+00 -0.00000000000E+00  0.11368683772E-12  0.17120000000E+03  0.17120000000E+03 0.  0.
         13    1    1    2    0    0  0.10587081740E+02 -0.32344783135E+02  0.19561681430E+03  0.19855533359E+03  0.10566000000E+00 0. -1.
        994    1    1    2    0    0 -0.59473269345E+01  0.29798672141E+02  0.57588802112E+01  0.17397107880E+03  0.17120000000E+03 0.  0.
        998    1    1    2    0    0 -0.46397548058E+01  0.25461109949E+01  0.12986243018E+04  0.12986735876E+04  0.10000000000E+02 0. -1.
</event>
<event>
 5    1  0.1440459E-008  0.3782637E+03  0.7957747E-01  0.3458754E+00
         13   -1    0    0    0    0  0.00000000000E+00  0.00000000000E+00  0.14999999963E+04  0.15000000000E+04  0.10566000000E+00 0. -1.
        994   -1    0    0    0    0 -0.00000000000E+00 -0.00000000000E+00  0.11368683772E-12  0.17120000000E+03  0.17120000000E+03 0.  0.
         13    1    1    2    0    0  0.39650622390E+02 -0.15757439916E+02  0.18465564230E+03  0.18952093859E+03  0.10566000000E+00 0. -1.
        994    1    1    2    0    0 -0.17610217949E+02  0.11915301053E+02  0.65336921242E+01  0.17263899707E+03  0.17120000000E+03 0.  0.
        998    1    1    2    0    0 -0.22040404442E+02  0.38421388637E+01  0.13088106619E+04  0.13090400643E+04  0.10000000000E+02 0. -1.
</event>
<event>
 5    1  0.1440459E-008  0.3787285E+03  0.7957747E-01  0.3456714E+00
         13   -1    0    0    0    0  0.00000000000E+00  0.00000000000E+00  0.14999999963E+04  0.15000000000E+04  0.10566000000E+00 0.  1.
        994   -1    0    0    0    0 -0.00000000000E+00 -0.00000000000E+00  0.11368683772E-12  0.17120000000E+03  0.17120000000E+03 0.  0.
         13    1    1    2    0    0 -0.18540390594E+02 -0.27799675260E+02  0.11003923794E+03  0.11500092642E+03  0.10566000000E+00 0.  1.
        994    1    1    2    0    0  0.24691462174E+02  0.18757989064E+02  0.80110099820E+01  0.17416987897E+03  0.17120000000E+03 0.  0.
        998    1    1    2    0    0 -0.61510715801E+01  0.90416861959E+01  0.13819497484E+04  0.13820291946E+04  0.10000000000E+02 0.  1.
</event>
<event>
 5    1  0.1440459E-008  0.3856192E+03  0.7957747E-01  0.3427050E+00
         13   -1    0    0    0    0  0.00000000000E+00  0.00000000000E+00  0.14999999963E+04  0.15000000000E+04  0.10566000000E+00 0. -1.
        994   -1    0    0    0    0 -0.00000000000E+00 -0.00000000000E+00  0.11368683772E-12  0.17120000000E+03  0.17120000000E+03 0.  0.
         13    1    1    2    0    0 -0.11222424896E+02 -0.64694722755E+01  0.66545094422E+02  0.67794230195E+02  0.10566000000E+00 0. -1.
        994    1    1    2    0    0  0.25822611158E+00  0.50982041388E+01  0.14085541673E+01  0.17128187993E+03  0.17120000000E+03 0.  0.
        998    1    1    2    0    0  0.10964198785E+02  0.13712681367E+01  0.14320463477E+04  0.14321238899E+04  0.10000000000E+02 0. -1.
</event>
<event>
 5    1  0.1440459E-008  0.3835462E+03  0.7957747E-01  0.3435861E+00
         13   -1    0    0    0    0  0.00000000000E+00  0.00000000000E+00  0.14999999963E+04  0.15000000000E+04  0.10566000000E+00 0. -1.
        994   -1    0    0    0    0 -0.00000000000E+00 -0.00000000000E+00  0.11368683772E-12  0.17120000000E+03  0.17120000000E+03 0.  0.
         13    1    1    2    0    0 -0.12133501305E+02 -0.59606087188E+01  0.38628986379E+02  0.40926280834E+02  0.10566000000E+00 0. -1.
        994    1    1    2    0    0  0.88634181887E+01 -0.40582827238E+01  0.26677035375E+01  0.17149806554E+03  0.17120000000E+03 0.  0.
        998    1    1    2    0    0  0.32700831161E+01  0.10018891443E+02  0.14587033064E+04  0.14587756536E+04  0.10000000000E+02 0. -1.
</event>
<event>
 5    1  0.1440459E-008  0.3800516E+03  0.7957747E-01  0.3450934E+00
         13   -1    0    0    0    0  0.00000000000E+00  0.00000000000E+00  0.14999999963E+04  0.15000000000E+04  0.10566000000E+00 0. -1.
        994   -1    0    0    0    0 -0.00000000000E+00 -0.00000000000E+00  0.11368683772E-12  0.17120000000E+03  0.17120000000E+03 0.  0.
         13    1    1    2    0    0 -0.21282684501E+02  0.36364674952E+02  0.18510887154E+03  0.18984374556E+03  0.10566000000E+00 0. -1.
        994    1    1    2    0    0  0.93850791979E+01 -0.47933530093E+02  0.12122478304E+02  0.17844354149E+03  0.17120000000E+03 0.  0.
        998    1    1    2    0    0  0.11897605303E+02  0.11568855141E+02  0.13027686464E+04  0.13029127129E+04  0.10000000000E+02 0. -1.
</event>
<event>
 5    1  0.1440459E-008  0.3721169E+03  0.7957747E-01  0.3486218E+00
         13   -1    0    0    0    0  0.00000000000E+00  0.00000000000E+00  0.14999999963E+04  0.15000000000E+04  0.10566000000E+00 0.  1.
        994   -1    0    0    0    0 -0.00000000000E+00 -0.00000000000E+00  0.11368683772E-12  0.17120000000E+03  0.17120000000E+03 0.  0.
         13    1    1    2    0    0  0.14480223353E+02  0.30804018819E+02  0.57268551281E+02  0.66620286502E+02  0.10566000000E+00 0.  1.
        994    1    1    2    0    0 -0.36042545663E+02 -0.66088668497E+02  0.27876712822E+02  0.18908550531E+03  0.17120000000E+03 0.  0.
        998    1    1    2    0    0  0.21562322310E+02  0.35284649678E+02  0.14148547322E+04  0.14154942082E+04  0.10000000000E+02 0.  1.
</event>
<event>
 5    1  0.1440459E-008  0.3786131E+03  0.7957747E-01  0.3457220E+00
         13   -1    0    0    0    0  0.00000000000E+00  0.00000000000E+00  0.14999999963E+04  0.15000000000E+04  0.10566000000E+00 0. -1.
        994   -1    0    0    0    0 -0.00000000000E+00 -0.00000000000E+00  0.11368683772E-12  0.17120000000E+03  0.17120000000E+03 0.  0.
         13    1    1    2    0    0  0.32589492479E+01 -0.16931845478E+02  0.29574516273E+02  0.34234066634E+02  0.10566000000E+00 0. -1.
        994    1    1    2    0    0  0.18824267921E+02  0.59979042198E+01  0.61468095131E+01  0.17244579202E+03  0.17120000000E+03 0.  0.
        998    1    1    2    0    0 -0.22083217168E+02  0.10933941258E+02  0.14642786705E+04  0.14645201413E+04  0.10000000000E+02 0. -1.
</event>
<event>
 5    1  0.1440459E-008  0.3811978E+03  0.7957747E-01  0.3445959E+00
         13   -1    0    0    0    0  0.00000000000E+00  0.00000000000E+00  0.14999999963E+04  0.15000000000E+04  0.10566000000E+00 0.  1.
        994   -1    0    0    0    0 -0.00000000000E+00 -0.00000000000E+00  0.11368683772E-12  0.17120000000E+03  0.17120000000E+03 0.  0.
         13    1    1    2    0    0 -0.12837356730E+02 -0.23616389436E+02  0.97146346133E+02  0.10079660366E+03  0.10566000000E+00 0.  1.
        994    1    1    2    0    0  0.13199511959E+02  0.20081087333E+02  0.54549231646E+01  0.17296437024E+03  0.17120000000E+03 0.  0.
        998    1    1    2    0    0 -0.36215522883E+00  0.35353021029E+01  0.13973987270E+04  0.13974390261E+04  0.10000000000E+02 0. -1.
</event>
<event>
 5    1  0.1440459E-008  0.3842456E+03  0.7957747E-01  0.3432878E+00
         13   -1    0    0    0    0  0.00000000000E+00  0.00000000000E+00  0.14999999963E+04  0.15000000000E+04  0.10566000000E+00 0.  1.
        994   -1    0    0    0    0 -0.00000000000E+00 -0.00000000000E+00  0.11368683772E-12  0.17120000000E+03  0.17120000000E+03 0.  0.
         13    1    1    2    0    0 -0.12476989744E+02  0.63452306339E+00  0.37457887031E+02  0.39486483224E+02  0.10566000000E+00 0.  1.
        994    1    1    2    0    0  0.14469311880E+02 -0.40402098544E+00  0.26962128315E+01  0.17183199290E+03  0.17120000000E+03 0.  0.
        998    1    1    2    0    0 -0.19923221354E+01 -0.23050207795E+00  0.14598458964E+04  0.14598815239E+04  0.10000000000E+02 0.  1.
</event>
<event>
 5    1  0.1440459E-008  0.3849119E+03  0.7957747E-01  0.3430046E+00
         13   -1    0    0    0    0  0.00000000000E+00  0.00000000000E+00  0.14999999963E+04  0.15000000000E+04  0.10566000000E+00 0. -1.
        994   -1    0    0    0    0 -0.00000000000E+00 -0.00000000000E+00  0.11368683772E-12  0.17120000000E+03  0.17120000000E+03 0.  0.
         13    1    1    2    0    0  0.72329448521E+01 -0.17517514808E+02  0.93844896697E+02  0.95739514394E+02  0.10566000000E+00 0. -1.
        994    1    1    2    0    0 -0.85261678570E+01  0.29325102270E+02  0.47479837329E+01  0.17396735473E+03  0.17120000000E+03 0.  0.
        998    1    1    2    0    0  0.12932230049E+01 -0.11807587462E+02  0.14014071158E+04  0.14014931309E+04  0.10000000000E+02 0. -1.
</event>
<event>
 5    1  0.1440459E-008  0.3821671E+03  0.7957747E-01  0.3441776E+00
         13   -1    0    0    0    0  0.00000000000E+00  0.00000000000E+00  0.14999999963E+04  0.15000000000E+04  0.10566000000E+00 0.  1.
        994   -1    0    0    0    0 -0.00000000000E+00 -0.00000000000E+00  0.11368683772E-12  0.17120000000E+03  0.17120000000E+03 0.  0.
         13    1    1    2    0    0  0.31054208691E+02 -0.90164344645E+01  0.15335802818E+03  0.15673020111E+03  0.10566000000E+00 0.  1.
        994    1    1    2    0    0 -0.29853695296E+02  0.19757873367E+02  0.73087422133E+01  0.17505563229E+03  0.17120000000E+03 0.  0.
        998    1    1    2    0    0 -0.12005133950E+01 -0.10741438902E+02  0.13393332259E+04  0.13394141666E+04  0.10000000000E+02 0.  1.
</event>
<event>
 5    1  0.1440459E-008  0.3758434E+03  0.7957747E-01  0.3469459E+00
         13   -1    0    0    0    0  0.00000000000E+00  0.00000000000E+00  0.14999999963E+04  0.15000000000E+04  0.10566000000E+00 0.  1.
        994   -1    0    0    0    0 -0.00000000000E+00 -0.00000000000E+00  0.11368683772E-12  0.17120000000E+03  0.17120000000E+03 0.  0.
         13    1    1    2    0    0 -0.56446279052E+02  0.52920369016E+02  0.44503138001E+03  0.45170752510E+03  0.10566000000E+00 0.  1.
        994    1    1    2    0    0  0.14993956776E+02 -0.63039375772E+02  0.20613689027E+02  0.18420951608E+03  0.17120000000E+03 0.  0.
        998    1    1    2    0    0  0.41452322276E+02  0.10119006755E+02  0.10343549272E+04  0.10352829588E+04  0.10000000000E+02 0.  1.
</event>
<event>
 5    1  0.1440459E-008  0.3817126E+03  0.7957747E-01  0.3443735E+00
         13   -1    0    0    0    0  0.00000000000E+00  0.00000000000E+00  0.14999999963E+04  0.15000000000E+04  0.10566000000E+00 0.  1.
        994   -1    0    0    0    0 -0.00000000000E+00 -0.00000000000E+00  0.11368683772E-12  0.17120000000E+03  0.17120000000E+03 0.  0.
         13    1    1    2    0    0  0.30630237707E+02  0.16455759408E+02  0.12854526159E+03  0.13316493127E+03  0.10566000000E+00 0.  1.
        994    1    1    2    0    0 -0.10528752259E+03  0.20062556064E+02  0.42449494246E+02  0.20639614369E+03  0.17120000000E+03 0.  0.
        998    1    1    2    0    0  0.74657284880E+02 -0.36518315472E+02  0.13290052404E+04  0.13316389250E+04  0.10000000000E+02 0.  1.
</event>
<event>
 5    1  0.1440459E-008  0.3853889E+03  0.7957747E-01  0.3428024E+00
         13   -1    0    0    0    0  0.00000000000E+00  0.00000000000E+00  0.14999999963E+04  0.15000000000E+04  0.10566000000E+00 0.  1.
        994   -1    0    0    0    0 -0.00000000000E+00 -0.00000000000E+00  0.11368683772E-12  0.17120000000E+03  0.17120000000E+03 0.  0.
         13    1    1    2    0    0  0.94468611297E+01  0.12700461539E+02  0.92233975558E+02  0.93582382529E+02  0.10566000000E+00 0.  1.
        994    1    1    2    0    0 -0.49338774521E+01 -0.10226656111E+01  0.15205688838E+01  0.17128088370E+03  0.17120000000E+03 0.  0.
        998    1    1    2    0    0 -0.45129836776E+01 -0.11677795928E+02  0.14062454518E+04  0.14063367338E+04  0.10000000000E+02 0.  1.
</event>
<event>
 5    1  0.1440459E-008  0.3731095E+03  0.7957747E-01  0.3481721E+00
         13   -1    0    0    0    0  0.00000000000E+00  0.00000000000E+00  0.14999999963E+04  0.15000000000E+04  0.10566000000E+00 0.  1.
        994   -1    0    0    0    0 -0.00000000000E+00 -0.00000000000E+00  0.11368683772E-12  0.17120000000E+03  0.17120000000E+03 0.  0.
         13    1    1    2    0    0  0.22715053029E+02 -0.38012436162E+01  0.15706044853E+02  0.27876766242E+02  0.10566000000E+00 0.  1.
        994    1    1    2    0    0 -0.16473229715E+02 -0.21911507831E+01  0.13569242564E+02  0.17253907610E+03  0.17120000000E+03 0.  0.
        998    1    1    2    0    0 -0.62418233146E+01  0.59923943993E+01  0.14707247089E+04  0.14707841577E+04  0.10000000000E+02 0.  1.
</event>
<event>
 5    1  0.1440459E-008  0.3739869E+03  0.7957747E-01  0.3477766E+00
         13   -1    0    0    0    0  0.00000000000E+00  0.00000000000E+00  0.14999999963E+04  0.15000000000E+04  0.10566000000E+00 0. -1.
        994   -1    0    0    0    0 -0.00000000000E+00 -0.00000000000E+00  0.11368683772E-12  0.17120000000E+03  0.17120000000E+03 0.  0.
         13    1    1    2    0    0 -0.29756997422E+02  0.13473805422E+02  0.75251557851E+02  0.82035543828E+02  0.10566000000E+00 0. -1.
        994    1    1    2    0    0  0.82577285187E+01  0.27413777165E+01  0.74581815780E+01  0.17158312768E+03  0.17120000000E+03 0.  0.
        998    1    1    2    0    0  0.21499268903E+02 -0.16215183139E+02  0.14172902568E+04  0.14175813285E+04  0.10000000000E+02 0. -1.
</event>
<event>
 5    1  0.1440459E-008  0.3819021E+03  0.7957747E-01  0.3442918E+00
         13   -1    0    0    0    0  0.00000000000E+00  0.00000000000E+00  0.14999999963E+04  0.15000000000E+04  0.10566000000E+00 0. -1.
        994   -1    0    0    0    0 -0.00000000000E+00 -0.00000000000E+00  0.11368683772E-12  0.17120000000E+03  0.17120000000E+03 0.  0.
         13    1    1    2    0    0  0.41917820304E+01 -0.19622583698E+02  0.63915296352E+02  0.66990992673E+02  0.10566000000E+00 0. -1.
        994    1    1    2    0    0 -0.24171726182E+02  0.28456208266E+01  0.51464110076E+01  0.17299796372E+03  0.17120000000E+03 0.  0.
        998    1    1    2    0    0  0.19979944151E+02  0.16776962871E+02  0.14309382889E+04  0.14312110436E+04  0.10000000000E+02 0. -1.
</event>
<event>
 5    1  0.1440459E-008  0.3830940E+03  0.7957747E-01  0.3437796E+00
         13   -1    0    0    0    0  0.00000000000E+00  0.00000000000E+00  0.14999999963E+04  0.15000000000E+04  0.10566000000E+00 0. -1.
        994   -1    0    0    0    0 -0.00000000000E+00 -0.00000000000E+00  0.11368683772E-12  0.17120000000E+03  0.17120000000E+03 0.  0.
         13    1    1    2    0    0  0.17445970102E+02 -0.32274049306E+02  0.17188527382E+03  0.17575703301E+03  0.10566000000E+00 0. -1.
        994    1    1    2    0    0 -0.74739238890E+02  0.47396247550E+02  0.28944302635E+02  0.19488347997E+03  0.17120000000E+03 0.  0.
        998    1    1    2    0    0  0.57293268788E+02 -0.15122198243E+02  0.12991704198E+04  0.13005594870E+04  0.10000000000E+02 0. -1.
</event>
<event>
 5    1  0.1440459E-008  0.3713786E+03  0.7957747E-01  0.3489579E+00
         13   -1    0    0    0    0  0.00000000000E+00  0.00000000000E+00  0.14999999963E+04  0.15000000000E+04  0.10566000000E+00 0.  1.
        994   -1    0    0    0    0 -0.00000000000E+00 -0.00000000000E+00  0.11368683772E-12  0.17120000000E+03  0.17120000000E+03 0.  0.
         13    1    1    2    0    0 -0.16398691892E+02  0.13025576725E-01  0.11767981987E+02  0.20184494780E+02  0.10566000000E+00 0.  1.
        994    1    1    2    0    0  0.17991238386E+02  0.30498329829E+01  0.96969768421E+01  0.17244262089E+03  0.17120000000E+03 0.  0.
        998    1    1    2    0    0 -0.15925464937E+01 -0.30628585597E+01  0.14785350374E+04  0.14785728843E+04  0.10000000000E+02 0.  1.
</event>
<event>
 5    1  0.1440459E-008  0.3768089E+03  0.7957747E-01  0.3465172E+00
         13   -1    0    0    0    0  0.00000000000E+00  0.00000000000E+00  0.14999999963E+04  0.15000000000E+04  0.10566000000E+00 0. -1.
        994   -1    0    0    0    0 -0.00000000000E+00 -0.00000000000E+00  0.11368683772E-12  0.17120000000E+03  0.17120000000E+03 0.  0.
         13    1    1    2    0    0  0.13221935752E+02  0.66960270650E+00  0.12621636366E+02  0.18291659887E+02  0.10566000000E+00 0. -1.
        994    1    1    2    0    0 -0.11115264542E+02 -0.11776466634E+02  0.66392210224E+01  0.17209228201E+03  0.17120000000E+03 0.  0.
        998    1    1    2    0    0 -0.21066712107E+01  0.11106863927E+02  0.14807391389E+04  0.14808160581E+04  0.10000000000E+02 0. -1.
</event>
<event>
 5    1  0.1440459E-008  0.3836811E+03  0.7957747E-01  0.3435285E+00
         13   -1    0    0    0    0  0.00000000000E+00  0.00000000000E+00  0.14999999963E+04  0.15000000000E+04  0.10566000000E+00 0.  1.
        994   -1    0    0    0    0 -0.00000000000E+00 -0.00000000000E+00  0.11368683772E-12  0.17120000000E+03  0.17120000000E+03 0.  0.
         13    1    1    2    0    0 -0.10471852793E+02  0.68038134422E+01  0.33576379481E+02  0.35823679339E+02  0.10566000000E+00 0.  1.
        994    1    1    2    0    0  0.77846476008E+01 -0.17523782210E+01  0.24966717637E+01  0.17140404003E+03  0.17120000000E+03 0.  0.
        998    1    1    2    0    0  0.26872051917E+01 -0.50514352212E+01  0.14639269450E+04  0.14639722806E+04  0.10000000000E+02 0.  1.
</event>
<event>
 5    1  0.1440459E-008  0.3711971E+03  0.7957747E-01  0.3490407E+00
         13   -1    0    0    0    0  0.00000000000E+00  0.00000000000E+00  0.14999999963E+04  0.15000000000E+04  0.10566000000E+00 0. -1.
        994   -1    0    0    0    0 -0.00000000000E+00 -0.00000000000E+00  0.11368683772E-12  0.17120000000E+03  0.17120000000E+03 0.  0.
         13    1    1    2    0    0  0.76647587419E+02  0.47239019877E+02  0.44225257891E+03  0.45132442032E+03  0.10566000000E+00 0. -1.
        994    1    1    2    0    0 -0.61400760563E+02 -0.12278088582E+02  0.22269129515E+02  0.18364683222E+03  0.17120000000E+03 0.  0.
        998    1    1    2    0    0 -0.15246826856E+02 -0.34960931296E+02  0.10354782878E+04  0.10362287475E+04  0.10000000000E+02 0. -1.
</event>
<event>
 5    1  0.1440459E-008  0.3797289E+03  0.7957747E-01  0.3452340E+00
         13   -1    0    0    0    0  0.00000000000E+00  0.00000000000E+00  0.14999999963E+04  0.15000000000E+04  0.10566000000E+00 0. -1.
        994   -1    0    0    0    0 -0.00000000000E+00 -0.00000000000E+00  0.11368683772E-12  0.17120000000E+03  0.17120000000E+03 0.  0.
         13    1    1    2    0    0  0.15440859083E+02  0.17543996641E+03  0.10111432828E+04  0.10263665775E+04  0.10566000000E+00 0. -1.
        994    1    1    2    0    0 -0.76029291194E+00 -0.17585715687E+03  0.11584024424E+03  0.27139403062E+03  0.17120000000E+03 0.  0.
        998    1    1    2    0    0 -0.14680566171E+02  0.41719046300E+00  0.37301646927E+03  0.37343939189E+03  0.10000000000E+02 0.  1.
</event>
<event>
 5    1  0.1440459E-008  0.3811870E+03  0.7957747E-01  0.3446006E+00
         13   -1    0    0    0    0  0.00000000000E+00  0.00000000000E+00  0.14999999963E+04  0.15000000000E+04  0.10566000000E+00 0.  1.
        994   -1    0    0    0    0 -0.00000000000E+00 -0.00000000000E+00  0.11368683772E-12  0.17120000000E+03  0.17120000000E+03 0.  0.
         13    1    1    2    0    0 -0.30563191517E+02 -0.34669911822E+02  0.24937700974E+03  0.25362376783E+03  0.10566000000E+00 0.  1.
        994    1    1    2    0    0  0.40086856820E+02  0.28940632167E+02  0.11718241470E+02  0.17858127971E+03  0.17120000000E+03 0.  0.
        998    1    1    2    0    0 -0.95236653028E+01  0.57292796551E+01  0.12389047451E+04  0.12389949525E+04  0.10000000000E+02 0.  1.
</event>
<event>
 5    1  0.1440459E-008  0.3822437E+03  0.7957747E-01  0.3441447E+00
         13   -1    0    0    0    0  0.00000000000E+00  0.00000000000E+00  0.14999999963E+04  0.15000000000E+04  0.10566000000E+00 0.  1.
        994   -1    0    0    0    0 -0.00000000000E+00 -0.00000000000E+00  0.11368683772E-12  0.17120000000E+03  0.17120000000E+03 0.  0.
         13    1    1    2    0    0  0.88725419535E+01 -0.12434555505E+02  0.37753920780E+02  0.40727261995E+02  0.10566000000E+00 0.  1.
        994    1    1    2    0    0 -0.32196774040E+01  0.10547955562E+02  0.34084870714E+01  0.17158870439E+03  0.17120000000E+03 0.  0.
        998    1    1    2    0    0 -0.56528645495E+01  0.18865999431E+01  0.14588375884E+04  0.14588840336E+04  0.10000000000E+02 0.  1.
</event>
<event>
 5    1  0.1440459E-008  0.3833157E+03  0.7957747E-01  0.3436847E+00
         13   -1    0    0    0    0  0.00000000000E+00  0.00000000000E+00  0.14999999963E+04  0.15000000000E+04  0.10566000000E+00 0.  1.
        994   -1    0    0    0    0 -0.00000000000E+00 -0.00000000000E+00  0.11368683772E-12  0.17120000000E+03  0.17120000000E+03 0.  0.
         13    1    1    2    0    0  0.14393852889E+02 -0.90505232395E+01  0.55413639558E+02  0.57963588442E+02  0.10566000000E+00 0.  1.
        994    1    1    2    0    0 -0.23874295985E+02  0.20857619561E-01  0.43556899524E+01  0.17291152211E+03  0.17120000000E+03 0.  0.
        998    1    1    2    0    0  0.94804430956E+01  0.90296656199E+01  0.14402306668E+04  0.14403248894E+04  0.10000000000E+02 0.  1.
</event>
<event>
 5    1  0.1440459E-008  0.3788692E+03  0.7957747E-01  0.3456097E+00
         13   -1    0    0    0    0  0.00000000000E+00  0.00000000000E+00  0.14999999963E+04  0.15000000000E+04  0.10566000000E+00 0.  1.
        994   -1    0    0    0    0 -0.00000000000E+00 -0.00000000000E+00  0.11368683772E-12  0.17120000000E+03  0.17120000000E+03 0.  0.
         13    1    1    2    0    0 -0.25340710998E+02 -0.21007864940E+01  0.68652138676E+02  0.73209919045E+02  0.10566000000E+00 0.  1.
        994    1    1    2    0    0  0.77630074737E+01  0.33504108066E+02  0.86840650550E+01  0.17483604471E+03  0.17120000000E+03 0.  0.
        998    1    1    2    0    0  0.17577703525E+02 -0.31403321572E+02  0.14226637925E+04  0.14231540362E+04  0.10000000000E+02 0.  1.
</event>
<event>
 5    1  0.1440459E-008  0.3857369E+03  0.7957747E-01  0.3426553E+00
         13   -1    0    0    0    0  0.00000000000E+00  0.00000000000E+00  0.14999999963E+04  0.15000000000E+04  0.10566000000E+00 0. -1.
        994   -1    0    0    0    0 -0.00000000000E+00 -0.00000000000E+00  0.11368683772E-12  0.17120000000E+03  0.17120000000E+03 0.  0.
         13    1    1    2    0    0  0.14566495873E+02 -0.19561052900E+01  0.87946967099E+02  0.89166638021E+02  0.10566000000E+00 0. -1.
        994    1    1    2    0    0 -0.59356473248E+01  0.89678696864E+01  0.16442769258E+01  0.17154532416E+03  0.17120000000E+03 0.  0.
        998    1    1    2    0    0 -0.86308485485E+01 -0.70117643964E+01  0.14104087523E+04  0.14104880378E+04  0.10000000000E+02 0. -1.
</event>
<event>
 5    1  0.1440459E-008  0.3739071E+03  0.7957747E-01  0.3478125E+00
         13   -1    0    0    0    0  0.00000000000E+00  0.00000000000E+00  0.14999999963E+04  0.15000000000E+04  0.10566000000E+00 0.  1.
        994   -1    0    0    0    0 -0.00000000000E+00 -0.00000000000E+00  0.11368683772E-12  0.17120000000E+03  0.17120000000E+03 0.  0.
         13    1    1    2    0    0 -0.23709754827E+02 -0.68958113407E+00  0.34925518196E+02  0.42218846282E+02  0.10566000000E+00 0.  1.
        994    1    1    2    0    0  0.26047099292E+02  0.80836995937E+01  0.97828479686E+01  0.17363450606E+03  0.17120000000E+03 0.  0.
        998    1    1    2    0    0 -0.23373444653E+01 -0.73941184596E+01  0.14552916301E+04  0.14553466477E+04  0.10000000000E+02 0.  1.
</event>
<event>
 5    1  0.1440459E-008  0.3832993E+03  0.7957747E-01  0.3436917E+00
         13   -1    0    0    0    0  0.00000000000E+00  0.00000000000E+00  0.14999999963E+04  0.15000000000E+04  0.10566000000E+00 0.  1.
        994   -1    0    0    0    0 -0.00000000000E+00 -0.00000000000E+00  0.11368683772E-12  0.17120000000E+03  0.17120000000E+03 0.  0.
         13    1    1    2    0    0 -0.44747427104E+01 -0.21045923421E+02  0.89259703342E+02  0.91816447435E+02  0.10566000000E+00 0.  1.
        994    1    1    2    0    0  0.11448927492E+01  0.20111201697E+02  0.38198529181E+01  0.17242332351E+03  0.17120000000E+03 0.  0.
        998    1    1    2    0    0  0.33298499612E+01  0.93472172325E+00  0.14069204400E+04  0.14069602291E+04  0.10000000000E+02 0.  1.
</event>
<event>
 5    1  0.1440459E-008  0.3824308E+03  0.7957747E-01  0.3440642E+00
         13   -1    0    0    0    0  0.00000000000E+00  0.00000000000E+00  0.14999999963E+04  0.15000000000E+04  0.10566000000E+00 0.  1.
        994   -1    0    0    0    0 -0.00000000000E+00 -0.00000000000E+00  0.11368683772E-12  0.17120000000E+03  0.17120000000E+03 0.  0.
         13    1    1    2    0    0  0.12771972037E+02  0.47371223415E+01  0.29783098860E+02  0.32750690673E+02  0.10566000000E+00 0.  1.
        994    1    1    2    0    0 -0.20110966035E+02 -0.11961642295E+01  0.42582548179E+01  0.17243391342E+03  0.17120000000E+03 0.  0.
        998    1    1    2    0    0  0.73389939974E+01 -0.35409581121E+01  0.14659586426E+04  0.14660153959E+04  0.10000000000E+02 0.  1.
</event>
<event>
 5    1  0.1440459E-008  0.3823847E+03  0.7957747E-01  0.3440840E+00
         13   -1    0    0    0    0  0.00000000000E+00  0.00000000000E+00  0.14999999963E+04  0.15000000000E+04  0.10566000000E+00 0.  1.
        994   -1    0    0    0    0 -0.00000000000E+00 -0.00000000000E+00  0.11368683772E-12  0.17120000000E+03  0.17120000000E+03 0.  0.
         13    1    1    2    0    0 -0.12932706674E+02  0.18476905565E+02  0.90970526710E+02  0.93724590344E+02  0.10566000000E+00 0.  1.
        994    1    1    2    0    0  0.90804151320E+00 -0.40601578080E+01  0.29916151919E+01  0.17127667437E+03  0.17120000000E+03 0.  0.
        998    1    1    2    0    0  0.12024665160E+02 -0.14416747757E+02  0.14060378544E+04  0.14061987353E+04  0.10000000000E+02 0.  1.
</event>
<event>
 5    1  0.1558395E-008  0.3861031E+03  0.7957747E-01  0.3425007E+00
         13   -1    0    0    0    0  0.00000000000E+00  0.00000000000E+00  0.14999999963E+04  0.15000000000E+04  0.10566000000E+00 0. -1.
        994   -1    0    0    0    0 -0.00000000000E+00 -0.00000000000E+00  0.11368683772E-12  0.17120000000E+03  0.17120000000E+03 0.  0.
         13    1    1    2    0    0 -0.86085142110E+01 -0.80883580405E+01  0.65140654527E+02  0.66203051961E+02  0.10566000000E+00 0. -1.
        994    1    1    2    0    0  0.24839658673E+01  0.92492798440E+01  0.13840753110E+01  0.17147324843E+03  0.17120000000E+03 0.  0.
        998    1    1    2    0    0  0.61245483437E+01 -0.11609218035E+01  0.14334752664E+04  0.14335236996E+04  0.10000000000E+02 0. -1.
</event>
<event>
 5    1  0.1440459E-008  0.3790570E+03  0.7957747E-01  0.3455275E+00
         13   -1    0    0    0    0  0.00000000000E+00  0.00000000000E+00  0.14999999963E+04  0.15000000000E+04  0.10566000000E+00 0. -1.
        994   -1    0    0    0    0 -0.00000000000E+00 -0.00000000000E+00  0.11368683772E-12  0.17120000000E+03  0.17120000000E+03 0.  0.
         13    1    1    2    0    0  0.32812646762E+02  0.73250142023E+01  0.13503093116E+03  0.13915347338E+03  0.10566000000E+00 0. -1.
        994    1    1    2    0    0  0.34417325085E+00 -0.67341979881E+01  0.47623904500E+01  0.17139891552E+03  0.17120000000E+03 0.  0.
        998    1    1    2    0    0 -0.33156820013E+02 -0.59081621422E+00  0.13602066747E+04  0.13606476111E+04  0.10000000000E+02 0. -1.
</event>
<event>
 5    1  0.1440459E-008  0.3742125E+03  0.7957747E-01  0.3476752E+00
         13   -1    0    0    0    0  0.00000000000E+00  0.00000000000E+00  0.14999999963E+04  0.15000000000E+04  0.10566000000E+00 0.  1.
        994   -1    0    0    0    0 -0.00000000000E+00 -0.00000000000E+00  0.11368683772E-12  0.17120000000E+03  0.17120000000E+03 0.  0.
         13    1    1    2    0    0  0.46778696484E+00  0.11706083705E+02  0.66185920512E+01  0.13456156402E+02  0.10566000000E+00 0.  1.
        994    1    1    2    0    0  0.12872785232E+00  0.25258361117E+01  0.71055120002E+01  0.17136605475E+03  0.17120000000E+03 0.  0.
        998    1    1    2    0    0 -0.59651481715E+00 -0.14231919816E+02  0.14862758922E+04  0.14863777889E+04  0.10000000000E+02 0.  1.
</event>
<event>
 5    1  0.1440459E-008  0.3817510E+03  0.7957747E-01  0.3443570E+00
         13   -1    0    0    0    0  0.00000000000E+00  0.00000000000E+00  0.14999999963E+04  0.15000000000E+04  0.10566000000E+00 0. -1.
        994   -1    0    0    0    0 -0.00000000000E+00 -0.00000000000E+00  0.11368683772E-12  0.17120000000E+03  0.17120000000E+03 0.  0.
         13    1    1    2    0    0 -0.12135914352E+02  0.11454146416E+02  0.40994886348E+02  0.44261379983E+02  0.10566000000E+00 0. -1.
        994    1    1    2    0    0  0.10959436630E+02 -0.10778162454E+02  0.40375802439E+01  0.17193609304E+03  0.17120000000E+03 0.  0.
        998    1    1    2    0    0  0.11764777216E+01 -0.67598396271E+00  0.14549675297E+04  0.14550025270E+04  0.10000000000E+02 0. -1.
</event>
<event>
 5    1  0.1440459E-008  0.3818154E+03  0.7957747E-01  0.3443292E+00
         13   -1    0    0    0    0  0.00000000000E+00  0.00000000000E+00  0.14999999963E+04  0.15000000000E+04  0.10566000000E+00 0.  1.
        994   -1    0    0    0    0 -0.00000000000E+00 -0.00000000000E+00  0.11368683772E-12  0.17120000000E+03  0.17120000000E+03 0.  0.
         13    1    1    2    0    0 -0.84012770487E+01 -0.99914761663E+01  0.24661076137E+02  0.27903241609E+02  0.10566000000E+00 0.  1.
        994    1    1    2    0    0  0.19758313805E+02  0.46549295552E+01  0.45900227617E+01  0.17246033643E+03  0.17120000000E+03 0.  0.
        998    1    1    2    0    0 -0.11357036757E+02  0.53365466112E+01  0.14707488974E+04  0.14708364220E+04  0.10000000000E+02 0.  1.
</event>
<event>
 5    1  0.1440459E-008  0.3778482E+03  0.7957747E-01  0.3460582E+00
         13   -1    0    0    0    0  0.00000000000E+00  0.00000000000E+00  0.14999999963E+04  0.15000000000E+04  0.10566000000E+00 0.  1.
        994   -1    0    0    0    0 -0.00000000000E+00 -0.00000000000E+00  0.11368683772E-12  0.17120000000E+03  0.17120000000E+03 0.  0.
         13    1    1    2    0    0  0.33409151019E+02 -0.40269820707E+02  0.23237797977E+03  0.23819606730E+03  0.10566000000E+00 0.  1.
        994    1    1    2    0    0 -0.29894503418E+02  0.34862868351E+02  0.12357479417E+02  0.17768299925E+03  0.17120000000E+03 0.  0.
        998    1    1    2    0    0 -0.35146476005E+01  0.54069523559E+01  0.12552645371E+04  0.12553209335E+04  0.10000000000E+02 0.  0.
</event>
<event>
 5    1  0.1440459E-008  0.3766736E+03  0.7957747E-01  0.3465771E+00
         13   -1    0    0    0    0  0.00000000000E+00  0.00000000000E+00  0.14999999963E+04  0.15000000000E+04  0.10566000000E+00 0. -1.
        994   -1    0    0    0    0 -0.00000000000E+00 -0.00000000000E+00  0.11368683772E-12  0.17120000000E+03  0.17120000000E+03 0.  0.
         13    1    1    2    0    0 -0.45051643144E+02 -0.30626653056E+02  0.20342721733E+03  0.21059507673E+03  0.10566000000E+00 0. -1.
        994    1    1    2    0    0  0.64934858663E+02  0.23058333807E+02  0.22043681905E+02  0.18585905020E+03  0.17120000000E+03 0.  0.
        998    1    1    2    0    0 -0.19883215519E+02  0.75683192484E+01  0.12745290970E+04  0.12747458731E+04  0.10000000000E+02 0. -1.
</event>
<event>
 5    1  0.1440459E-008  0.3836620E+03  0.7957747E-01  0.3435367E+00
         13   -1    0    0    0    0  0.00000000000E+00  0.00000000000E+00  0.14999999963E+04  0.15000000000E+04  0.10566000000E+00 0. -1.
        994   -1    0    0    0    0 -0.00000000000E+00 -0.00000000000E+00  0.11368683772E-12  0.17120000000E+03  0.17120000000E+03 0.  0.
         13    1    1    2    0    0  0.13907799262E+02 -0.61746889014E+00  0.40240360855E+02  0.42580581888E+02  0.10566000000E+00 0. -1.
        994    1    1    2    0    0 -0.16877760372E+02  0.17979301607E+01  0.32480408024E+01  0.17206998901E+03  0.17120000000E+03 0.  0.
        998    1    1    2    0    0  0.29699611093E+01 -0.11804612706E+01  0.14565115946E+04  0.14565494291E+04  0.10000000000E+02 0. -1.
</event>
<event>
 5    1  0.1440459E-008  0.3723421E+03  0.7957747E-01  0.3485196E+00
         13   -1    0    0    0    0  0.00000000000E+00  0.00000000000E+00  0.14999999963E+04  0.15000000000E+04  0.10566000000E+00 0.  1.
        994   -1    0    0    0    0 -0.00000000000E+00 -0.00000000000E+00  0.11368683772E-12  0.17120000000E+03  0.17120000000E+03 0.  0.
         13    1    1    2    0    0 -0.37815886610E+02 -0.42246008747E+02  0.19380827102E+03  0.20193173008E+03  0.10566000000E+00 0.  1.
        994    1    1    2    0    0  0.32697610087E+01  0.46612055098E+02  0.15576253309E+02  0.17814442086E+03  0.17120000000E+03 0.  0.
        998    1    1    2    0    0  0.34546125601E+02 -0.43660463509E+01  0.12906154720E+04  0.12911238491E+04  0.10000000000E+02 0.  1.
</event>
<event>
 5    1  0.1440459E-008  0.3855884E+03  0.7957747E-01  0.3427180E+00
         13   -1    0    0    0    0  0.00000000000E+00  0.00000000000E+00  0.14999999963E+04  0.15000000000E+04  0.10566000000E+00 0. -1.
        994   -1    0    0    0    0 -0.00000000000E+00 -0.00000000000E+00  0.11368683772E-12  0.17120000000E+03  0.17120000000E+03 0.  0.
         13    1    1    2    0    0  0.77216389388E+01 -0.11210577867E+02  0.66855805313E+02  0.68227638330E+02  0.10566000000E+00 0. -1.
        994    1    1    2    0    0 -0.18263446173E+02  0.57022874269E+01  0.25407683597E+01  0.17228454676E+03  0.17120000000E+03 0.  0.
        998    1    1    2    0    0  0.10541807234E+02  0.55082904402E+01  0.14306034226E+04  0.14306878149E+04  0.10000000000E+02 0. -1.
</event>
<event>
 5    1  0.1440459E-008  0.3491845E+03  0.7957747E-01  0.3597389E+00
         13   -1    0    0    0    0  0.00000000000E+00  0.00000000000E+00  0.14999999963E+04  0.15000000000E+04  0.10566000000E+00 0. -1.
        994   -1    0    0    0    0 -0.00000000000E+00 -0.00000000000E+00  0.11368683772E-12  0.17120000000E+03  0.17120000000E+03 0.  0.
         13    1    1    2    0    0 -0.10779575737E+03 -0.18574339316E+03  0.10626362562E+04  0.10841200845E+04  0.10566000000E+00 0. -1.
        994    1    1    2    0    0  0.10616962179E+03  0.14045770952E+03  0.13316354111E+03  0.27936056528E+03  0.17120000000E+03 0.  0.
        998    1    1    2    0    0  0.16261355872E+01  0.45285683638E+02  0.30420019897E+03  0.30771935024E+03  0.10000000000E+02 0. -1.
</event>
<event>
 5    1  0.1440459E-008  0.3721851E+03  0.7957747E-01  0.3485909E+00
         13   -1    0    0    0    0  0.00000000000E+00  0.00000000000E+00  0.14999999963E+04  0.15000000000E+04  0.10566000000E+00 0. -1.
        994   -1    0    0    0    0 -0.00000000000E+00 -0.00000000000E+00  0.11368683772E-12  0.17120000000E+03  0.17120000000E+03 0.  0.
         13    1    1    2    0    0  0.25813670571E+01 -0.20535422076E+02  0.22914794345E+02  0.30878244439E+02  0.10566000000E+00 0. -1.
        994    1    1    2    0    0 -0.36954446323E+00  0.14441199927E+02  0.88478851570E+01  0.17203607148E+03  0.17120000000E+03 0.  0.
        998    1    1    2    0    0 -0.22118225939E+01  0.60942221487E+01  0.14682373168E+04  0.14682856841E+04  0.10000000000E+02 0. -1.
</event>
<event>
 5    1  0.1440459E-008  0.3854177E+03  0.7957747E-01  0.3427903E+00
         13   -1    0    0    0    0  0.00000000000E+00  0.00000000000E+00  0.14999999963E+04  0.15000000000E+04  0.10566000000E+00 0.  1.
        994   -1    0    0    0    0 -0.00000000000E+00 -0.00000000000E+00  0.11368683772E-12  0.17120000000E+03  0.17120000000E+03 0.  0.
         13    1    1    2    0    0 -0.89027735907E+01  0.71641129996E+01  0.51054596685E+02  0.52317940511E+02  0.10566000000E+00 0.  1.
        994    1    1    2    0    0  0.54509649991E+01  0.20853305871E+02  0.29501340181E+01  0.17257669795E+03  0.17120000000E+03 0.  0.
        998    1    1    2    0    0  0.34518085916E+01 -0.28017418870E+02  0.14459952656E+04  0.14463053615E+04  0.10000000000E+02 0.  1.
</event>
<event>
 5    1  0.1440459E-008  0.3846366E+03  0.7957747E-01  0.3431215E+00
         13   -1    0    0    0    0  0.00000000000E+00  0.00000000000E+00  0.14999999963E+04  0.15000000000E+04  0.10566000000E+00 0.  1.
        994   -1    0    0    0    0 -0.00000000000E+00 -0.00000000000E+00  0.11368683772E-12  0.17120000000E+03  0.17120000000E+03 0.  0.
         13    1    1    2    0    0  0.12795867465E+02 -0.51244427822E+01  0.54180855250E+02  0.55906800818E+02  0.10566000000E+00 0.  1.
        994    1    1    2    0    0  0.13131367099E+01  0.10694910678E+02  0.21930412013E+01  0.17155277576E+03  0.17120000000E+03 0.  0.
        998    1    1    2    0    0 -0.14109004175E+02 -0.55704678954E+01  0.14436260998E+04  0.14437404234E+04  0.10000000000E+02 0.  1.
</event>
<event>
 5    1  0.1440459E-008  0.3836169E+03  0.7957747E-01  0.3435559E+00
         13   -1    0    0    0    0  0.00000000000E+00  0.00000000000E+00  0.14999999963E+04  0.15000000000E+04  0.10566000000E+00 0.  1.
        994   -1    0    0    0    0 -0.00000000000E+00 -0.00000000000E+00  0.11368683772E-12  0.17120000000E+03  0.17120000000E+03 0.  0.
         13    1    1    2    0    0  0.48876662309E+01  0.21720798053E+02  0.11019888122E+03  0.11242547281E+03  0.10566000000E+00 0.  1.
        994    1    1    2    0    0 -0.41095700835E+01 -0.80404318828E+01  0.25878005300E+01  0.17145749859E+03  0.17120000000E+03 0.  0.
        998    1    1    2    0    0 -0.77809614740E+00 -0.13680366171E+02  0.13872133145E+04  0.13873170286E+04  0.10000000000E+02 0.  1.
</event>
<event>
 5    1  0.1440459E-008  0.2801400E+03  0.7957747E-01  0.4048866E+00
         13   -1    0    0    0    0  0.00000000000E+00  0.00000000000E+00  0.14999999963E+04  0.15000000000E+04  0.10566000000E+00 0. -1.
        994   -1    0    0    0    0 -0.00000000000E+00 -0.00000000000E+00  0.11368683772E-12  0.17120000000E+03  0.17120000000E+03 0.  0.
         13    1    1    2    0    0 -0.49705411929E+02 -0.20762073508E+03  0.40346543169E+03  0.45646616889E+03  0.10566000000E+00 0. -1.
        994    1    1    2    0    0  0.50609674867E+02  0.20113313660E+03  0.24710686225E+03  0.36522201358E+03  0.17120000000E+03 0.  0.
        998    1    1    2    0    0 -0.90426293728E+00  0.64875984765E+01  0.84942770234E+03  0.84951181753E+03  0.10000000000E+02 0. -1.
</event>
<event>
 5    1  0.1440459E-008  0.3853215E+03  0.7957747E-01  0.3428310E+00
         13   -1    0    0    0    0  0.00000000000E+00  0.00000000000E+00  0.14999999963E+04  0.15000000000E+04  0.10566000000E+00 0. -1.
        994   -1    0    0    0    0 -0.00000000000E+00 -0.00000000000E+00  0.11368683772E-12  0.17120000000E+03  0.17120000000E+03 0.  0.
         13    1    1    2    0    0 -0.17743367665E+01  0.14801440129E+02  0.84340025852E+02  0.85647428599E+02  0.10566000000E+00 0. -1.
        994    1    1    2    0    0  0.74312058720E+01  0.48670198367E+01  0.17299011156E+01  0.17143903657E+03  0.17120000000E+03 0.  0.
        998    1    1    2    0    0 -0.56568691056E+01 -0.19668459965E+02  0.14139300693E+04  0.14141135348E+04  0.10000000000E+02 0. -1.
</event>
<event>
 5    1  0.1440459E-008  0.3833802E+03  0.7957747E-01  0.3436571E+00
         13   -1    0    0    0    0  0.00000000000E+00  0.00000000000E+00  0.14999999963E+04  0.15000000000E+04  0.10566000000E+00 0. -1.
        994   -1    0    0    0    0 -0.00000000000E+00 -0.00000000000E+00  0.11368683772E-12  0.17120000000E+03  0.17120000000E+03 0.  0.
         13    1    1    2    0    0  0.14766556960E+02  0.24547226815E+02  0.16421599327E+03  0.16669589425E+03  0.10566000000E+00 0. -1.
        994    1    1    2    0    0 -0.18183718088E+02 -0.12048920951E+02  0.40111530350E+01  0.17263068513E+03  0.17120000000E+03 0.  0.
        998    1    1    2    0    0  0.34171611274E+01 -0.12498305864E+02  0.13317728500E+04  0.13318734206E+04  0.10000000000E+02 0. -1.
</event>
<event>
 5    1  0.1440459E-008  0.3768894E+03  0.7957747E-01  0.3464816E+00
         13   -1    0    0    0    0  0.00000000000E+00  0.00000000000E+00  0.14999999963E+04  0.15000000000E+04  0.10566000000E+00 0.  1.
        994   -1    0    0    0    0 -0.00000000000E+00 -0.00000000000E+00  0.11368683772E-12  0.17120000000E+03  0.17120000000E+03 0.  0.
         13    1    1    2    0    0 -0.29276295449E+02 -0.68648646578E+01  0.80344532566E+02  0.85787428679E+02  0.10566000000E+00 0.  1.
        994    1    1    2    0    0  0.90007863166E+01 -0.85604320323E+00  0.59878498307E+01  0.17154311793E+03  0.17120000000E+03 0.  0.
        998    1    1    2    0    0  0.20275509133E+02  0.77209078610E+01  0.14136676139E+04  0.14138694534E+04  0.10000000000E+02 0.  1.
</event>
<event>
 5    1  0.1440459E-008  0.3776694E+03  0.7957747E-01  0.3461369E+00
         13   -1    0    0    0    0  0.00000000000E+00  0.00000000000E+00  0.14999999963E+04  0.15000000000E+04  0.10566000000E+00 0. -1.
        994   -1    0    0    0    0 -0.00000000000E+00 -0.00000000000E+00  0.11368683772E-12  0.17120000000E+03  0.17120000000E+03 0.  0.
         13    1    1    2    0    0  0.23238680514E+02 -0.34647186002E+02  0.13778904650E+03  0.14396630255E+03  0.10566000000E+00 0. -1.
        994    1    1    2    0    0 -0.25121921637E+02  0.49292791183E+02  0.15696297004E+02  0.18060095224E+03  0.17120000000E+03 0.  0.
        998    1    1    2    0    0  0.18832411233E+01 -0.14645605181E+02  0.13465146528E+04  0.13466327452E+04  0.10000000000E+02 0. -1.
</event>
<event>
 5    1  0.1440459E-008  0.3800601E+03  0.7957747E-01  0.3450897E+00
         13   -1    0    0    0    0  0.00000000000E+00  0.00000000000E+00  0.14999999963E+04  0.15000000000E+04  0.10566000000E+00 0.  1.
        994   -1    0    0    0    0 -0.00000000000E+00 -0.00000000000E+00  0.11368683772E-12  0.17120000000E+03  0.17120000000E+03 0.  0.
         13    1    1    2    0    0  0.15718602515E+02  0.20620822907E+01  0.29309480281E+02  0.33322416581E+02  0.10566000000E+00 0.  1.
        994    1    1    2    0    0 -0.70301395222E+01 -0.25658108799E+01  0.42900377885E+01  0.17141718313E+03  0.17120000000E+03 0.  0.
        998    1    1    2    0    0 -0.86884629929E+01  0.50372858921E+00  0.14664004782E+04  0.14664604003E+04  0.10000000000E+02 0.  1.
</event>
<event>
 5    1  0.1440459E-008  0.3750187E+03  0.7957747E-01  0.3473139E+00
         13   -1    0    0    0    0  0.00000000000E+00  0.00000000000E+00  0.14999999963E+04  0.15000000000E+04  0.10566000000E+00 0. -1.
        994   -1    0    0    0    0 -0.00000000000E+00 -0.00000000000E+00  0.11368683772E-12  0.17120000000E+03  0.17120000000E+03 0.  0.
         13    1    1    2    0    0 -0.18360444980E+02  0.76092471269E+01  0.29618738083E+02  0.35669137800E+02  0.10566000000E+00 0. -1.
        994    1    1    2    0    0 -0.16893450323E+02  0.21574051769E+02  0.92253888462E+01  0.17362423844E+03  0.17120000000E+03 0.  0.
        998    1    1    2    0    0  0.35253895303E+02 -0.29183298896E+02  0.14611558693E+04  0.14619066238E+04  0.10000000000E+02 0. -1.
</event>
<event>
 5    1  0.1440459E-008  0.3701548E+03  0.7957747E-01  0.3495180E+00
         13   -1    0    0    0    0  0.00000000000E+00  0.00000000000E+00  0.14999999963E+04  0.15000000000E+04  0.10566000000E+00 0.  1.
        994   -1    0    0    0    0 -0.00000000000E+00 -0.00000000000E+00  0.11368683772E-12  0.17120000000E+03  0.17120000000E+03 0.  0.
         13    1    1    2    0    0 -0.29507260975E+02 -0.16599355690E+02  0.56648197012E+02  0.65994291028E+02  0.10566000000E+00 0.  1.
        994    1    1    2    0    0  0.31582228757E+02  0.15648883032E+02  0.13493579407E+02  0.17531069961E+03  0.17120000000E+03 0.  0.
        998    1    1    2    0    0 -0.20749677819E+01  0.95047265756E+00  0.14298582199E+04  0.14298950094E+04  0.10000000000E+02 0.  1.
</event>
<event>
 5    1  0.1440459E-008  0.3824597E+03  0.7957747E-01  0.3440518E+00
         13   -1    0    0    0    0  0.00000000000E+00  0.00000000000E+00  0.14999999963E+04  0.15000000000E+04  0.10566000000E+00 0. -1.
        994   -1    0    0    0    0 -0.00000000000E+00 -0.00000000000E+00  0.11368683772E-12  0.17120000000E+03  0.17120000000E+03 0.  0.
         13    1    1    2    0    0 -0.32329083441E+02  0.20836404145E+02  0.20963346863E+03  0.21313265284E+03  0.10566000000E+00 0. -1.
        994    1    1    2    0    0  0.33224593853E+02 -0.31165298323E+02  0.98084757300E+01  0.17742828312E+03  0.17120000000E+03 0.  0.
        998    1    1    2    0    0 -0.89551041297E+00  0.10328894178E+02  0.12805580519E+04  0.12806390640E+04  0.10000000000E+02 0. -1.
</event>
<event>
 5    1  0.1440459E-008  0.3858983E+03  0.7957747E-01  0.3425871E+00
         13   -1    0    0    0    0  0.00000000000E+00  0.00000000000E+00  0.14999999963E+04  0.15000000000E+04  0.10566000000E+00 0.  1.
        994   -1    0    0    0    0 -0.00000000000E+00 -0.00000000000E+00  0.11368683772E-12  0.17120000000E+03  0.17120000000E+03 0.  0.
         13    1    1    2    0    0 -0.15667770215E+01 -0.10826030994E+02  0.51641391303E+02  0.52787329891E+02  0.10566000000E+00 0.  1.
        994    1    1    2    0    0 -0.74272894612E+01  0.67022111655E+01  0.15130507589E+01  0.17149872765E+03  0.17120000000E+03 0.  0.
        998    1    1    2    0    0  0.89940664827E+01  0.41238198287E+01  0.14468455542E+04  0.14469139425E+04  0.10000000000E+02 0.  1.
</event>
<event>
 5    1  0.1440459E-008  0.3855734E+03  0.7957747E-01  0.3427244E+00
         13   -1    0    0    0    0  0.00000000000E+00  0.00000000000E+00  0.14999999963E+04  0.15000000000E+04  0.10566000000E+00 0. -1.
        994   -1    0    0    0    0 -0.00000000000E+00 -0.00000000000E+00  0.11368683772E-12  0.17120000000E+03  0.17120000000E+03 0.  0.
         13    1    1    2    0    0 -0.99451885682E+01  0.93329471915E+01  0.73799346222E+02  0.75049086242E+02  0.10566000000E+00 0. -1.
        994    1    1    2    0    0  0.40601681286E+01  0.27928369091E+01  0.14254217404E+01  0.17127684236E+03  0.17120000000E+03 0.  0.
        998    1    1    2    0    0  0.58850204396E+01 -0.12125784101E+02  0.14247752283E+04  0.14248740714E+04  0.10000000000E+02 0. -1.
</event>
<event>
 5    1  0.1440459E-008  0.3703053E+03  0.7957747E-01  0.3494489E+00
         13   -1    0    0    0    0  0.00000000000E+00  0.00000000000E+00  0.14999999963E+04  0.15000000000E+04  0.10566000000E+00 0. -1.
        994   -1    0    0    0    0 -0.00000000000E+00 -0.00000000000E+00  0.11368683772E-12  0.17120000000E+03  0.17120000000E+03 0.  0.
         13    1    1    2    0    0 -0.20496421227E+02 -0.33870123405E+02  0.78423821396E+02  0.87849846152E+02  0.10566000000E+00 0. -1.
        994    1    1    2    0    0  0.25020720257E+02  0.32688276259E+02  0.14985388267E+02  0.17671604825E+03  0.17120000000E+03 0.  0.
        998    1    1    2    0    0 -0.45242990299E+01  0.11818471460E+01  0.14065907866E+04  0.14066341056E+04  0.10000000000E+02 0. -1.
</event>
<event>
 5    1  0.1440459E-008  0.3719468E+03  0.7957747E-01  0.3486991E+00
         13   -1    0    0    0    0  0.00000000000E+00  0.00000000000E+00  0.14999999963E+04  0.15000000000E+04  0.10566000000E+00 0. -1.
        994   -1    0    0    0    0 -0.00000000000E+00 -0.00000000000E+00  0.11368683772E-12  0.17120000000E+03  0.17120000000E+03 0.  0.
         13    1    1    2    0    0  0.28495223952E+01  0.17739676309E+02  0.80874328713E+01  0.19703645042E+02  0.10566000000E+00 0. -1.
        994    1    1    2    0    0 -0.66629326177E+01 -0.15503384384E+02  0.12974842835E+02  0.17251821975E+03  0.17120000000E+03 0.  0.
        998    1    1    2    0    0  0.38134102226E+01 -0.22362919250E+01  0.14789377206E+04  0.14789781352E+04  0.10000000000E+02 0. -1.
</event>
<event>
 5    1  0.1440459E-008  0.3828896E+03  0.7957747E-01  0.3438672E+00
         13   -1    0    0    0    0  0.00000000000E+00  0.00000000000E+00  0.14999999963E+04  0.15000000000E+04  0.10566000000E+00 0. -1.
        994   -1    0    0    0    0 -0.00000000000E+00 -0.00000000000E+00  0.11368683772E-12  0.17120000000E+03  0.17120000000E+03 0.  0.
         13    1    1    2    0    0  0.18827284710E+02  0.38347865362E+01  0.68367326987E+02  0.71016017916E+02  0.10566000000E+00 0. -1.
        994    1    1    2    0    0 -0.12945040925E+02  0.59910931884E+01  0.33555831029E+01  0.17182597947E+03  0.17120000000E+03 0.  0.
        998    1    1    2    0    0 -0.58822437844E+01 -0.98258797245E+01  0.14282770862E+04  0.14283580026E+04  0.10000000000E+02 0. -1.
</event>
<event>
 5    1  0.1440459E-008  0.3849056E+03  0.7957747E-01  0.3430073E+00
         13   -1    0    0    0    0  0.00000000000E+00  0.00000000000E+00  0.14999999963E+04  0.15000000000E+04  0.10566000000E+00 0.  1.
        994   -1    0    0    0    0 -0.00000000000E+00 -0.00000000000E+00  0.11368683772E-12  0.17120000000E+03  0.17120000000E+03 0.  0.
         13    1    1    2    0    0 -0.16999854413E+02 -0.18998370450E+01  0.86177911615E+02  0.87859251335E+02  0.10566000000E+00 0.  1.
        994    1    1    2    0    0  0.12420493039E+02  0.36290687735E+01  0.22280181410E+01  0.17170277474E+03  0.17120000000E+03 0.  0.
        998    1    1    2    0    0  0.45793613732E+01 -0.17292317284E+01  0.14115940665E+04  0.14116379739E+04  0.10000000000E+02 0.  1.
</event>
<event>
 5    1  0.1440459E-008  0.3767419E+03  0.7957747E-01  0.3465469E+00
         13   -1    0    0    0    0  0.00000000000E+00  0.00000000000E+00  0.14999999963E+04  0.15000000000E+04  0.10566000000E+00 0.  1.
        994   -1    0    0    0    0 -0.00000000000E+00 -0.00000000000E+00  0.11368683772E-12  0.17120000000E+03  0.17120000000E+03 0.  0.
         13    1    1    2    0    0 -0.73651200325E+02  0.99133480044E+01  0.16648365380E+03  0.18231728367E+03  0.10566000000E+00 0.  1.
        994    1    1    2    0    0  0.72278043313E+02 -0.48886193743E+01  0.33589060964E+02  0.18890653552E+03  0.17120000000E+03 0.  0.
        998    1    1    2    0    0  0.13731570120E+01 -0.50247286302E+01  0.12999272815E+04  0.12999761808E+04  0.10000000000E+02 0. -1.
</event>
<event>
 5    1  0.1440459E-008  0.3694690E+03  0.7957747E-01  0.3498335E+00
         13   -1    0    0    0    0  0.00000000000E+00  0.00000000000E+00  0.14999999963E+04  0.15000000000E+04  0.10566000000E+00 0. -1.
        994   -1    0    0    0    0 -0.00000000000E+00 -0.00000000000E+00  0.11368683772E-12  0.17120000000E+03  0.17120000000E+03 0.  0.
         13    1    1    2    0    0 -0.32607508439E+02  0.28482227709E+02  0.92726296995E+02  0.10233603579E+03  0.10566000000E+00 0. -1.
        994    1    1    2    0    0  0.15880696476E+02 -0.32756756570E+02  0.14151284656E+02  0.17559869156E+03  0.17120000000E+03 0.  0.
        998    1    1    2    0    0  0.16726811963E+02  0.42745288604E+01  0.13931224146E+04  0.13932652727E+04  0.10000000000E+02 0. -1.
</event>
<event>
 5    1  0.1440459E-008  0.3818251E+03  0.7957747E-01  0.3443250E+00
         13   -1    0    0    0    0  0.00000000000E+00  0.00000000000E+00  0.14999999963E+04  0.15000000000E+04  0.10566000000E+00 0.  1.
        994   -1    0    0    0    0 -0.00000000000E+00 -0.00000000000E+00  0.11368683772E-12  0.17120000000E+03  0.17120000000E+03 0.  0.
         13    1    1    2    0    0  0.62642880537E+00 -0.23259053338E+02  0.78318348046E+02  0.81701595945E+02  0.10566000000E+00 0.  1.
        994    1    1    2    0    0 -0.78813758383E+00  0.26383005001E+02  0.55331114730E+01  0.17331110592E+03  0.17120000000E+03 0.  0.
        998    1    1    2    0    0  0.16170877847E+00 -0.31239516624E+01  0.14161485368E+04  0.14161872981E+04  0.10000000000E+02 0.  1.
</event>
<event>
 5    1  0.1440459E-008  0.3829687E+03  0.7957747E-01  0.3438333E+00
         13   -1    0    0    0    0  0.00000000000E+00  0.00000000000E+00  0.14999999963E+04  0.15000000000E+04  0.10566000000E+00 0.  1.
        994   -1    0    0    0    0 -0.00000000000E+00 -0.00000000000E+00  0.11368683772E-12  0.17120000000E+03  0.17120000000E+03 0.  0.
         13    1    1    2    0    0 -0.25044058336E+02 -0.47894849664E+01  0.11588578967E+03  0.11865779130E+03  0.10566000000E+00 0.  1.
        994    1    1    2    0    0  0.23009384151E+02  0.49693260151E+01  0.44785549764E+01  0.17286880405E+03  0.17120000000E+03 0.  0.
        998    1    1    2    0    0  0.20346741855E+01 -0.17984104863E+00  0.13796356516E+04  0.13796734046E+04  0.10000000000E+02 0.  0.
</event>
<event>
 5    1  0.1440459E-008  0.3728849E+03  0.7957747E-01  0.3482736E+00
         13   -1    0    0    0    0  0.00000000000E+00  0.00000000000E+00  0.14999999963E+04  0.15000000000E+04  0.10566000000E+00 0. -1.
        994   -1    0    0    0    0 -0.00000000000E+00 -0.00000000000E+00  0.11368683772E-12  0.17120000000E+03  0.17120000000E+03 0.  0.
         13    1    1    2    0    0  0.80629478915E+01 -0.13092589803E+02  0.39182616404E+01  0.15867922825E+02  0.10566000000E+00 0. -1.
        994    1    1    2    0    0  0.15354913786E+02  0.13317639108E+02  0.13932831198E+02  0.17296443760E+03  0.17120000000E+03 0.  0.
        998    1    1    2    0    0 -0.23417861677E+02 -0.22504930442E+00  0.14821489034E+04  0.14823676396E+04  0.10000000000E+02 0. -1.
</event>
<event>
 5    1  0.1440459E-008  0.3698651E+03  0.7957747E-01  0.3496511E+00
         13   -1    0    0    0    0  0.00000000000E+00  0.00000000000E+00  0.14999999963E+04  0.15000000000E+04  0.10566000000E+00 0.  1.
        994   -1    0    0    0    0 -0.00000000000E+00 -0.00000000000E+00  0.11368683772E-12  0.17120000000E+03  0.17120000000E+03 0.  0.
         13    1    1    2    0    0 -0.13071452979E+02 -0.42716991264E+01  0.36760140468E+01  0.14234975929E+02  0.10566000000E+00 0.  1.
        994    1    1    2    0    0  0.13426709891E+02  0.38278424639E+01  0.11548909918E+02  0.17215616816E+03  0.17120000000E+03 0.  0.
        998    1    1    2    0    0 -0.35525691211E+00  0.44385666255E+00  0.14847750723E+04  0.14848088559E+04  0.10000000000E+02 0.  1.
</event>
<event>
 5    1  0.1440459E-008  0.3721525E+03  0.7957747E-01  0.3486056E+00
         13   -1    0    0    0    0  0.00000000000E+00  0.00000000000E+00  0.14999999963E+04  0.15000000000E+04  0.10566000000E+00 0. -1.
        994   -1    0    0    0    0 -0.00000000000E+00 -0.00000000000E+00  0.11368683772E-12  0.17120000000E+03  0.17120000000E+03 0.  0.
         13    1    1    2    0    0  0.35435423558E+02 -0.10272048910E+02  0.71865339129E+02  0.80782562251E+02  0.10566000000E+00 0. -1.
        994    1    1    2    0    0 -0.59652970192E+02 -0.23905513337E+01  0.20482081225E+02  0.18246409850E+03  0.17120000000E+03 0.  0.
        998    1    1    2    0    0  0.24217546634E+02  0.12662600244E+02  0.14076525759E+04  0.14079533393E+04  0.10000000000E+02 0. -1.
</event>
<event>
 5    1  0.1440459E-008  0.3847648E+03  0.7957747E-01  0.3430670E+00
         13   -1    0    0    0    0  0.00000000000E+00  0.00000000000E+00  0.14999999963E+04  0.15000000000E+04  0.10566000000E+00 0. -1.
        994   -1    0    0    0    0 -0.00000000000E+00 -0.00000000000E+00  0.11368683772E-12  0.17120000000E+03  0.17120000000E+03 0.  0.
         13    1    1    2    0    0  0.12798497386E+01  0.10364958012E+02  0.31909346751E+02  0.33575108996E+02  0.10566000000E+00 0. -1.
        994    1    1    2    0    0 -0.59225337876E+01  0.85306822285E+00  0.18648078977E+01  0.17131468600E+03  0.17120000000E+03 0.  0.
        998    1    1    2    0    0  0.46426840489E+01 -0.11218026235E+02  0.14662258416E+04  0.14663102050E+04  0.10000000000E+02 0. -1.
</event>
<event>
 5    1  0.1440459E-008  0.3711600E+03  0.7957747E-01  0.3490577E+00
         13   -1    0    0    0    0  0.00000000000E+00  0.00000000000E+00  0.14999999963E+04  0.15000000000E+04  0.10566000000E+00 0. -1.
        994   -1    0    0    0    0 -0.00000000000E+00 -0.00000000000E+00  0.11368683772E-12  0.17120000000E+03  0.17120000000E+03 0.  0.
         13    1    1    2    0    0 -0.38201381255E+02 -0.72464597677E+02  0.25312085444E+03  0.26604631469E+03  0.10566000000E+00 0. -1.
        994    1    1    2    0    0  0.25088202931E+02  0.67405640687E+02  0.29940220743E+02  0.18809251750E+03  0.17120000000E+03 0.  0.
        998    1    1    2    0    0  0.13113178324E+02  0.50589569892E+01  0.12169389211E+04  0.12170611678E+04  0.10000000000E+02 0. -1.
</event>
<event>
 5    1  0.1440459E-008  0.3830568E+03  0.7957747E-01  0.3437956E+00
         13   -1    0    0    0    0  0.00000000000E+00  0.00000000000E+00  0.14999999963E+04  0.15000000000E+04  0.10566000000E+00 0.  1.
        994   -1    0    0    0    0 -0.00000000000E+00 -0.00000000000E+00  0.11368683772E-12  0.17120000000E+03  0.17120000000E+03 0.  0.
         13    1    1    2    0    0 -0.12463451939E+02 -0.16901288261E+01  0.29538235497E+02  0.32104714451E+02  0.10566000000E+00 0.  1.
        994    1    1    2    0    0  0.82802597668E+01  0.52050354566E+01  0.29146233274E+01  0.17150390703E+03  0.17120000000E+03 0.  0.
        998    1    1    2    0    0  0.41831921721E+01 -0.35149066306E+01  0.14675471375E+04  0.14675913785E+04  0.10000000000E+02 0.  1.
</event>
<event>
 5    1  0.1440459E-008  0.3807568E+03  0.7957747E-01  0.3447870E+00
         13   -1    0    0    0    0  0.00000000000E+00  0.00000000000E+00  0.14999999963E+04  0.15000000000E+04  0.10566000000E+00 0.  1.
        994   -1    0    0    0    0 -0.00000000000E+00 -0.00000000000E+00  0.11368683772E-12  0.17120000000E+03  0.17120000000E+03 0.  0.
         13    1    1    2    0    0 -0.37696088592E+01  0.14761092312E+02  0.29345414726E+02  0.33064547883E+02  0.10566000000E+00 0.  1.
        994    1    1    2    0    0  0.30533509810E+01 -0.11315020380E+02  0.42097565241E+01  0.17165230755E+03  0.17120000000E+03 0.  0.
        998    1    1    2    0    0  0.71625787816E+00 -0.34460719323E+01  0.14664448250E+04  0.14664831446E+04  0.10000000000E+02 0.  1.
</event>
<event>
 5    1  0.1440459E-008  0.3807411E+03  0.7957747E-01  0.3447938E+00
         13   -1    0    0    0    0  0.00000000000E+00  0.00000000000E+00  0.14999999963E+04  0.15000000000E+04  0.10566000000E+00 0. -1.
        994   -1    0    0    0    0 -0.00000000000E+00 -0.00000000000E+00  0.11368683772E-12  0.17120000000E+03  0.17120000000E+03 0.  0.
         13    1    1    2    0    0 -0.39563726357E+02  0.16357537447E+02  0.22973453144E+03  0.23368958808E+03  0.10566000000E+00 0. -1.
        994    1    1    2    0    0  0.24660731594E+02 -0.22281449267E+02  0.74518642328E+01  0.17455539220E+03  0.17120000000E+03 0.  0.
        998    1    1    2    0    0  0.14902994763E+02  0.59239118204E+01  0.12628136006E+04  0.12629550197E+04  0.10000000000E+02 0.  0.
</event>
<event>
 5    1  0.1440459E-008  0.3773296E+03  0.7957747E-01  0.3462869E+00
         13   -1    0    0    0    0  0.00000000000E+00  0.00000000000E+00  0.14999999963E+04  0.15000000000E+04  0.10566000000E+00 0.  1.
        994   -1    0    0    0    0 -0.00000000000E+00 -0.00000000000E+00  0.11368683772E-12  0.17120000000E+03  0.17120000000E+03 0.  0.
         13    1    1    2    0    0 -0.75750671216E+01 -0.15220637051E+02  0.23902220657E+02  0.29332179437E+02  0.10566000000E+00 0.  1.
        994    1    1    2    0    0  0.94917614555E+01  0.10900392823E+02  0.61921758710E+01  0.17192060709E+03  0.17120000000E+03 0.  0.
        998    1    1    2    0    0 -0.19166943339E+01  0.43202442280E+01  0.14699055998E+04  0.14699472135E+04  0.10000000000E+02 0.  1.
</event>
<event>
 5    1  0.1440459E-008  0.3826910E+03  0.7957747E-01  0.3439524E+00
         13   -1    0    0    0    0  0.00000000000E+00  0.00000000000E+00  0.14999999963E+04  0.15000000000E+04  0.10566000000E+00 0.  1.
        994   -1    0    0    0    0 -0.00000000000E+00 -0.00000000000E+00  0.11368683772E-12  0.17120000000E+03  0.17120000000E+03 0.  0.
         13    1    1    2    0    0 -0.11742037341E+02 -0.21895355715E+01  0.24426315259E+02  0.27190541519E+02  0.10566000000E+00 0.  1.
        994    1    1    2    0    0  0.92785223120E+01  0.96417697244E+01  0.33744017725E+01  0.17175529479E+03  0.17120000000E+03 0.  0.
        998    1    1    2    0    0  0.24635150295E+01 -0.74522341529E+01  0.14721992792E+04  0.14722541637E+04  0.10000000000E+02 0.  1.
</event>
<event>
 5    1  0.1440459E-008  0.3780935E+03  0.7957747E-01  0.3459502E+00
         13   -1    0    0    0    0  0.00000000000E+00  0.00000000000E+00  0.14999999963E+04  0.15000000000E+04  0.10566000000E+00 0.  1.
        994   -1    0    0    0    0 -0.00000000000E+00 -0.00000000000E+00  0.11368683772E-12  0.17120000000E+03  0.17120000000E+03 0.  0.
         13    1    1    2    0    0 -0.15806214102E+02 -0.67815338887E+01  0.26514313940E+02  0.31604518883E+02  0.10566000000E+00 0.  1.
        994    1    1    2    0    0  0.16007779096E+02  0.62065855525E+01  0.60909195191E+01  0.17216651822E+03  0.17120000000E+03 0.  0.
        998    1    1    2    0    0 -0.20156499404E+00  0.57494833623E+00  0.14673947628E+04  0.14674289629E+04  0.10000000000E+02 0.  1.
</event>
<event>
 5    1  0.1440459E-008  0.3844554E+03  0.7957747E-01  0.3431985E+00
         13   -1    0    0    0    0  0.00000000000E+00  0.00000000000E+00  0.14999999963E+04  0.15000000000E+04  0.10566000000E+00 0.  1.
        994   -1    0    0    0    0 -0.00000000000E+00 -0.00000000000E+00  0.11368683772E-12  0.17120000000E+03  0.17120000000E+03 0.  0.
         13    1    1    2    0    0  0.21017115091E+02  0.10986413986E+02  0.13704374198E+03  0.13908061978E+03  0.10566000000E+00 0.  1.
        994    1    1    2    0    0 -0.21443420865E+02 -0.92957086270E+01  0.37023731424E+01  0.17282759636E+03  0.17120000000E+03 0.  0.
        998    1    1    2    0    0  0.42630577328E+00 -0.16907053592E+01  0.13592538812E+04  0.13592917839E+04  0.10000000000E+02 0.  0.
</event>
<event>
 5    1  0.1440459E-008  0.3750144E+03  0.7957747E-01  0.3473158E+00
         13   -1    0    0    0    0  0.00000000000E+00  0.00000000000E+00  0.14999999963E+04  0.15000000000E+04  0.10566000000E+00 0. -1.
        994   -1    0    0    0    0 -0.00000000000E+00 -0.00000000000E+00  0.11368683772E-12  0.17120000000E+03  0.17120000000E+03 0.  0.
         13    1    1    2    0    0  0.15959373884E+02 -0.45110691832E+00  0.16985502367E+02  0.23311447122E+02  0.10566000000E+00 0. -1.
        994    1    1    2    0    0  0.89070293053E+01  0.84913594790E+00  0.69435094216E+01  0.17157420705E+03  0.17120000000E+03 0.  0.
        998    1    1    2    0    0 -0.24866403189E+02 -0.39802902957E+00  0.14760709845E+04  0.14763143458E+04  0.10000000000E+02 0. -1.
</event>
<event>
 5    1  0.1440459E-008  0.3872814E+03  0.7957747E-01  0.3420054E+00
         13   -1    0    0    0    0  0.00000000000E+00  0.00000000000E+00  0.14999999963E+04  0.15000000000E+04  0.10566000000E+00 0.  1.
        994   -1    0    0    0    0 -0.00000000000E+00 -0.00000000000E+00  0.11368683772E-12  0.17120000000E+03  0.17120000000E+03 0.  0.
         13    1    1    2    0    0  0.38886604697E+02  0.37355271213E+02  0.62310638343E+02  0.82402737375E+02  0.10566000000E+00 0.  1.
        994    1    1    2    0    0 -0.24940877328E+02 -0.45826146283E+02  0.30591376794E+02  0.18156914765E+03  0.17120000000E+03 0.  0.
        998    1    1    2    0    0 -0.13945727368E+02  0.84708750701E+01  0.14070979811E+04  0.14072281150E+04  0.10000000000E+02 0.  1.
</event>
<event>
 5    1  0.1440459E-008  0.3804580E+03  0.7957747E-01  0.3449167E+00
         13   -1    0    0    0    0  0.00000000000E+00  0.00000000000E+00  0.14999999963E+04  0.15000000000E+04  0.10566000000E+00 0. -1.
        994   -1    0    0    0    0 -0.00000000000E+00 -0.00000000000E+00  0.11368683772E-12  0.17120000000E+03  0.17120000000E+03 0.  0.
         13    1    1    2    0    0 -0.52896218615E+02  0.33757216728E+02  0.27581074191E+03  0.28285886258E+03  0.10566000000E+00 0. -1.
        994    1    1    2    0    0  0.78733756352E+02 -0.79552892988E+02  0.46917363433E+02  0.20985315381E+03  0.17120000000E+03 0.  0.
        998    1    1    2    0    0 -0.25837537737E+02  0.45795676260E+02  0.11772718909E+04  0.11784879836E+04  0.10000000000E+02 0. -1.
</event>
<event>
 5    1  0.1440459E-008  0.3843696E+03  0.7957747E-01  0.3432350E+00
         13   -1    0    0    0    0  0.00000000000E+00  0.00000000000E+00  0.14999999963E+04  0.15000000000E+04  0.10566000000E+00 0.  1.
        994   -1    0    0    0    0 -0.00000000000E+00 -0.00000000000E+00  0.11368683772E-12  0.17120000000E+03  0.17120000000E+03 0.  0.
         13    1    1    2    0    0  0.43710312785E+01 -0.10887860522E+02  0.34585731996E+02  0.36521711938E+02  0.10566000000E+00 0.  1.
        994    1    1    2    0    0 -0.10877924746E+02  0.71167848416E+01  0.25004933295E+01  0.17171100821E+03  0.17120000000E+03 0.  0.
        998    1    1    2    0    0  0.65068934674E+01  0.37710756806E+01  0.14629137710E+04  0.14629672799E+04  0.10000000000E+02 0.  1.
</event>
<event>
 5    1  0.1440459E-008  0.3840111E+03  0.7957747E-01  0.3433877E+00
         13   -1    0    0    0    0  0.00000000000E+00  0.00000000000E+00  0.14999999963E+04  0.15000000000E+04  0.10566000000E+00 0.  1.
        994   -1    0    0    0    0 -0.00000000000E+00 -0.00000000000E+00  0.11368683772E-12  0.17120000000E+03  0.17120000000E+03 0.  0.
         13    1    1    2    0    0 -0.23098628211E+01 -0.11937026935E+02  0.33569557579E+02  0.35703703426E+02  0.10566000000E+00 0.  1.
        994    1    1    2    0    0  0.10739184093E+01  0.13362597718E+02  0.27150376781E+01  0.17174552031E+03  0.17120000000E+03 0.  0.
        998    1    1    2    0    0  0.12359444119E+01 -0.14255707835E+01  0.14637154010E+04  0.14637507763E+04  0.10000000000E+02 0.  1.
</event>
<event>
 5    1  0.1440459E-008  0.3816168E+03  0.7957747E-01  0.3444149E+00
         13   -1    0    0    0    0  0.00000000000E+00  0.00000000000E+00  0.14999999963E+04  0.15000000000E+04  0.10566000000E+00 0.  1.
        994   -1    0    0    0    0 -0.00000000000E+00 -0.00000000000E+00  0.11368683772E-12  0.17120000000E+03  0.17120000000E+03 0.  0.
         13    1    1    2    0    0 -0.15714908752E+02  0.13871453831E+02  0.66090532817E+02  0.69335022034E+02  0.10566000000E+00 0.  1.
        994    1    1    2    0    0  0.61025986802E+01 -0.82358004322E+01  0.36686693688E+01  0.17154582261E+03  0.17120000000E+03 0.  0.
        998    1    1    2    0    0  0.96123100715E+01 -0.56356533990E+01  0.14302407941E+04  0.14303191554E+04  0.10000000000E+02 0.  1.
</event>
<event>
 5    1  0.1440459E-008  0.3849366E+03  0.7957747E-01  0.3429941E+00
         13   -1    0    0    0    0  0.00000000000E+00  0.00000000000E+00  0.14999999963E+04  0.15000000000E+04  0.10566000000E+00 0. -1.
        994   -1    0    0    0    0 -0.00000000000E+00 -0.00000000000E+00  0.11368683772E-12  0.17120000000E+03  0.17120000000E+03 0.  0.
         13    1    1    2    0    0 -0.19195658864E+01 -0.18870015927E+02  0.96276609149E+02  0.98127258535E+02  0.10566000000E+00 0. -1.
        994    1    1    2    0    0 -0.19553761225E+02  0.30715188645E+02  0.60347202286E+01  0.17513317858E+03  0.17120000000E+03 0.  0.
        998    1    1    2    0    0  0.21473327112E+02 -0.11845172718E+02  0.13976886669E+04  0.13979395629E+04  0.10000000000E+02 0. -1.
</event>
<event>
 5    1  0.1440459E-008  0.3845834E+03  0.7957747E-01  0.3431441E+00
         13   -1    0    0    0    0  0.00000000000E+00  0.00000000000E+00  0.14999999963E+04  0.15000000000E+04  0.10566000000E+00 0.  1.
        994   -1    0    0    0    0 -0.00000000000E+00 -0.00000000000E+00  0.11368683772E-12  0.17120000000E+03  0.17120000000E+03 0.  0.
         13    1    1    2    0    0  0.64194904171E+01 -0.18780554575E+02  0.83741310775E+02  0.86061242041E+02  0.10566000000E+00 0.  1.
        994    1    1    2    0    0 -0.63097634585E+01  0.51131557035E+02  0.10627216606E+02  0.17909948903E+03  0.17120000000E+03 0.  0.
        998    1    1    2    0    0 -0.10972695866E+00 -0.32351002460E+02  0.14056314689E+04  0.14060392689E+04  0.10000000000E+02 0.  1.
</event>
<event>
 5    1  0.1440459E-008  0.3764099E+03  0.7957747E-01  0.3466941E+00
         13   -1    0    0    0    0  0.00000000000E+00  0.00000000000E+00  0.14999999963E+04  0.15000000000E+04  0.10566000000E+00 0.  1.
        994   -1    0    0    0    0 -0.00000000000E+00 -0.00000000000E+00  0.11368683772E-12  0.17120000000E+03  0.17120000000E+03 0.  0.
         13    1    1    2    0    0 -0.19754489616E+00 -0.15585983097E+02  0.17563135392E+02  0.23482691114E+02  0.10566000000E+00 0.  1.
        994    1    1    2    0    0 -0.32327582155E+00  0.17097412487E+02  0.69464024198E+01  0.17219209775E+03  0.17120000000E+03 0.  0.
        998    1    1    2    0    0  0.52082071771E+00 -0.15114293901E+01  0.14754904585E+04  0.14755252111E+04  0.10000000000E+02 0.  1.
</event>
<event>
 5    1  0.1440459E-008  0.3829767E+03  0.7957747E-01  0.3438299E+00
         13   -1    0    0    0    0  0.00000000000E+00  0.00000000000E+00  0.14999999963E+04  0.15000000000E+04  0.10566000000E+00 0.  1.
        994   -1    0    0    0    0 -0.00000000000E+00 -0.00000000000E+00  0.11368683772E-12  0.17120000000E+03  0.17120000000E+03 0.  0.
         13    1    1    2    0    0  0.14252241011E+02 -0.56497480699E+01  0.46413390023E+02  0.48880056920E+02  0.10566000000E+00 0.  1.
        994    1    1    2    0    0 -0.63437999458E+01 -0.24211677894E+02  0.47145649909E+01  0.17308413060E+03  0.17120000000E+03 0.  0.
        998    1    1    2    0    0 -0.79084410647E+01  0.29861425964E+02  0.14488720413E+04  0.14492358125E+04  0.10000000000E+02 0.  1.
</event>
<event>
 5    1  0.1440459E-008  0.3741255E+03  0.7957747E-01  0.3477143E+00
         13   -1    0    0    0    0  0.00000000000E+00  0.00000000000E+00  0.14999999963E+04  0.15000000000E+04  0.10566000000E+00 0.  1.
        994   -1    0    0    0    0 -0.00000000000E+00 -0.00000000000E+00  0.11368683772E-12  0.17120000000E+03  0.17120000000E+03 0.  0.
         13    1    1    2    0    0 -0.33123604630E+02  0.15627030233E+02  0.95400354754E+02  0.10218911933E+03  0.10566000000E+00 0.  1.
        994    1    1    2    0    0  0.11648633864E+02 -0.44349335503E+01  0.76583223414E+01  0.17182389010E+03  0.17120000000E+03 0.  0.
        998    1    1    2    0    0  0.21474970766E+02 -0.11192096683E+02  0.13969413192E+04  0.13971869906E+04  0.10000000000E+02 0.  1.
</event>
<event>
 5    1  0.1440459E-008  0.3815920E+03  0.7957747E-01  0.3444256E+00
         13   -1    0    0    0    0  0.00000000000E+00  0.00000000000E+00  0.14999999963E+04  0.15000000000E+04  0.10566000000E+00 0. -1.
        994   -1    0    0    0    0 -0.00000000000E+00 -0.00000000000E+00  0.11368683772E-12  0.17120000000E+03  0.17120000000E+03 0.  0.
         13    1    1    2    0    0  0.36970936045E+02 -0.13448599621E+02  0.22297091180E+03  0.22641500307E+03  0.10566000000E+00 0. -1.
        994    1    1    2    0    0 -0.19939315065E+02  0.25223477147E+02  0.67770829830E+01  0.17432489478E+03  0.17120000000E+03 0.  0.
        998    1    1    2    0    0 -0.17031620981E+02 -0.11774877526E+02  0.12702520015E+04  0.12704601022E+04  0.10000000000E+02 0. -1.
</event>
<event>
 5    1  0.1440459E-008  0.3726874E+03  0.7957747E-01  0.3483631E+00
         13   -1    0    0    0    0  0.00000000000E+00  0.00000000000E+00  0.14999999963E+04  0.15000000000E+04  0.10566000000E+00 0. -1.
        994   -1    0    0    0    0 -0.00000000000E+00 -0.00000000000E+00  0.11368683772E-12  0.17120000000E+03  0.17120000000E+03 0.  0.
         13    1    1    2    0    0 -0.37803671713E+01 -0.16580168177E+02  0.14923125057E+02  0.22625295097E+02  0.10566000000E+00 0. -1.
        994    1    1    2    0    0  0.17750168391E+01  0.12219854810E+02  0.83936695470E+01  0.17184984500E+03  0.17120000000E+03 0.  0.
        998    1    1    2    0    0  0.20053503322E+01  0.43603133664E+01  0.14766832017E+04  0.14767248599E+04  0.10000000000E+02 0. -1.
</event>
<event>
 5    1  0.1440459E-008  0.3846981E+03  0.7957747E-01  0.3430953E+00
         13   -1    0    0    0    0  0.00000000000E+00  0.00000000000E+00  0.14999999963E+04  0.15000000000E+04  0.10566000000E+00 0. -1.
        994   -1    0    0    0    0 -0.00000000000E+00 -0.00000000000E+00  0.11368683772E-12  0.17120000000E+03  0.17120000000E+03 0.  0.
         13    1    1    2    0    0  0.10796006983E+02 -0.13547787288E+02  0.82049365967E+02  0.83858249009E+02  0.10566000000E+00 0. -1.
        994    1    1    2    0    0 -0.60231665348E+01  0.14341941573E+02  0.25770251226E+01  0.17192454997E+03  0.17120000000E+03 0.  0.
        998    1    1    2    0    0 -0.47728404487E+01 -0.79415428554E+00  0.14153736052E+04  0.14154172010E+04  0.10000000000E+02 0. -1.
</event>
<event>
 5    1  0.1440459E-008  0.3846327E+03  0.7957747E-01  0.3431231E+00
         13   -1    0    0    0    0  0.00000000000E+00  0.00000000000E+00  0.14999999963E+04  0.15000000000E+04  0.10566000000E+00 0.  1.
        994   -1    0    0    0    0 -0.00000000000E+00 -0.00000000000E+00  0.11368683772E-12  0.17120000000E+03  0.17120000000E+03 0.  0.
         13    1    1    2    0    0 -0.13016943540E+02 -0.17966921839E+00  0.46548408529E+02  0.48334652174E+02  0.10566000000E+00 0.  1.
        994    1    1    2    0    0  0.85698553223E+01 -0.19971189956E+01  0.20675953942E+01  0.17143846084E+03  0.17120000000E+03 0.  0.
        998    1    1    2    0    0  0.44470882172E+01  0.21767882140E+01  0.14513839924E+04  0.14514268870E+04  0.10000000000E+02 0.  1.
</event>
<event>
 5    1  0.1440459E-008  0.3795377E+03  0.7957747E-01  0.3453174E+00
         13   -1    0    0    0    0  0.00000000000E+00  0.00000000000E+00  0.14999999963E+04  0.15000000000E+04  0.10566000000E+00 0. -1.
        994   -1    0    0    0    0 -0.00000000000E+00 -0.00000000000E+00  0.11368683772E-12  0.17120000000E+03  0.17120000000E+03 0.  0.
         13    1    1    2    0    0  0.41832561792E+02  0.12277548988E+02  0.17410608857E+03  0.17948159426E+03  0.10566000000E+00 0. -1.
        994    1    1    2    0    0 -0.59936926682E+02 -0.47181723642E+01  0.16565349499E+02  0.18220468472E+03  0.17120000000E+03 0.  0.
        998    1    1    2    0    0  0.18104364890E+02 -0.75593766239E+01  0.13093285582E+04  0.13095137210E+04  0.10000000000E+02 0. -1.
</event>
<event>
 5    1  0.1440459E-008  0.3862916E+03  0.7957747E-01  0.3424213E+00
         13   -1    0    0    0    0  0.00000000000E+00  0.00000000000E+00  0.14999999963E+04  0.15000000000E+04  0.10566000000E+00 0.  1.
        994   -1    0    0    0    0 -0.00000000000E+00 -0.00000000000E+00  0.11368683772E-12  0.17120000000E+03  0.17120000000E+03 0.  0.
         13    1    1    2    0    0 -0.10685705729E+02 -0.15540592751E+00  0.60201616751E+02  0.61142900498E+02  0.10566000000E+00 0.  1.
        994    1    1    2    0    0  0.40191063714E+01 -0.68075091855E+01  0.11949216046E+01  0.17138659001E+03  0.17120000000E+03 0.  0.
        998    1    1    2    0    0  0.66665993580E+01  0.69629151130E+01  0.14386034579E+04  0.14386705095E+04  0.10000000000E+02 0.  1.
</event>
<event>
 5    1  0.1440459E-008  0.3848480E+03  0.7957747E-01  0.3430317E+00
         13   -1    0    0    0    0  0.00000000000E+00  0.00000000000E+00  0.14999999963E+04  0.15000000000E+04  0.10566000000E+00 0.  1.
        994   -1    0    0    0    0 -0.00000000000E+00 -0.00000000000E+00  0.11368683772E-12  0.17120000000E+03  0.17120000000E+03 0.  0.
         13    1    1    2    0    0  0.14967112892E+02  0.74632835854E+01  0.85948592385E+02  0.87560760431E+02  0.10566000000E+00 0.  1.
        994    1    1    2    0    0 -0.77843862690E+01  0.59405217390E+01  0.20211810623E+01  0.17149172470E+03  0.17120000000E+03 0.  0.
        998    1    1    2    0    0 -0.71827266231E+01 -0.13403805324E+02  0.14120302228E+04  0.14121475149E+04  0.10000000000E+02 0.  1.
</event>
<event>
 5    1  0.1440459E-008  0.3756222E+03  0.7957747E-01  0.3470445E+00
         13   -1    0    0    0    0  0.00000000000E+00  0.00000000000E+00  0.14999999963E+04  0.15000000000E+04  0.10566000000E+00 0. -1.
        994   -1    0    0    0    0 -0.00000000000E+00 -0.00000000000E+00  0.11368683772E-12  0.17120000000E+03  0.17120000000E+03 0.  0.
         13    1    1    2    0    0 -0.39171777010E+02 -0.24129210914E+02  0.16878121194E+03  0.17493929119E+03  0.10566000000E+00 0. -1.
        994    1    1    2    0    0  0.13176663748E+02  0.20976240098E+02  0.84438414377E+01  0.17318881481E+03  0.17120000000E+03 0.  0.
        998    1    1    2    0    0  0.25995113262E+02  0.31529708153E+01  0.13227749429E+04  0.13230718940E+04  0.10000000000E+02 0. -1.
</event>
<event>
 5    1  0.1440459E-008  0.3816665E+03  0.7957747E-01  0.3443934E+00
         13   -1    0    0    0    0  0.00000000000E+00  0.00000000000E+00  0.14999999963E+04  0.15000000000E+04  0.10566000000E+00 0.  1.
        994   -1    0    0    0    0 -0.00000000000E+00 -0.00000000000E+00  0.11368683772E-12  0.17120000000E+03  0.17120000000E+03 0.  0.
         13    1    1    2    0    0  0.13936578778E+01 -0.41755454591E+02  0.22246931112E+03  0.22635826873E+03  0.10566000000E+00 0.  1.
        994    1    1    2    0    0 -0.76880541707E+01  0.44035852454E+02  0.99663671042E+01  0.17722028933E+03  0.17120000000E+03 0.  0.
        998    1    1    2    0    0  0.62943962929E+01 -0.22803978626E+01  0.12675643181E+04  0.12676214419E+04  0.10000000000E+02 0.  1.
</event>
<event>
 5    1  0.1440459E-008  0.3779747E+03  0.7957747E-01  0.3460025E+00
         13   -1    0    0    0    0  0.00000000000E+00  0.00000000000E+00  0.14999999963E+04  0.15000000000E+04  0.10566000000E+00 0. -1.
        994   -1    0    0    0    0 -0.00000000000E+00 -0.00000000000E+00  0.11368683772E-12  0.17120000000E+03  0.17120000000E+03 0.  0.
         13    1    1    2    0    0 -0.53364894219E+02  0.71066057887E+01  0.24570047578E+03  0.25152942322E+03  0.10566000000E+00 0. -1.
        994    1    1    2    0    0  0.48628033154E+02  0.38640444701E+00  0.13159409286E+02  0.17845852451E+03  0.17120000000E+03 0.  0.
        998    1    1    2    0    0  0.47368610651E+01 -0.74930102358E+01  0.12411401112E+04  0.12412120523E+04  0.10000000000E+02 0. -1.
</event>
<event>
 5    1  0.1440459E-008  0.3827212E+03  0.7957747E-01  0.3439395E+00
         13   -1    0    0    0    0  0.00000000000E+00  0.00000000000E+00  0.14999999963E+04  0.15000000000E+04  0.10566000000E+00 0.  1.
        994   -1    0    0    0    0 -0.00000000000E+00 -0.00000000000E+00  0.11368683772E-12  0.17120000000E+03  0.17120000000E+03 0.  0.
         13    1    1    2    0    0  0.13579711384E+02  0.17776276477E+02  0.79082803918E+02  0.82185799298E+02  0.10566000000E+00 0.  1.
        994    1    1    2    0    0 -0.22358586507E+02 -0.29872726506E+02  0.73923282252E+01  0.17537494888E+03  0.17120000000E+03 0.  0.
        998    1    1    2    0    0  0.87788751231E+01  0.12096450028E+02  0.14135248641E+04  0.14136392518E+04  0.10000000000E+02 0.  1.
</event>
<event>
 5    1  0.1440459E-008  0.3849666E+03  0.7957747E-01  0.3429814E+00
         13   -1    0    0    0    0  0.00000000000E+00  0.00000000000E+00  0.14999999963E+04  0.15000000000E+04  0.10566000000E+00 0. -1.
        994   -1    0    0    0    0 -0.00000000000E+00 -0.00000000000E+00  0.11368683772E-12  0.17120000000E+03  0.17120000000E+03 0.  0.
         13    1    1    2    0    0  0.12088971477E+02  0.66288722133E+01  0.55891677510E+02  0.57567143034E+02  0.10566000000E+00 0. -1.
        994    1    1    2    0    0 -0.15660823600E+02 -0.18202124738E+01  0.24646986017E+01  0.17194211034E+03  0.17120000000E+03 0.  0.
        998    1    1    2    0    0  0.35718521226E+01 -0.48086597395E+01  0.14416436202E+04  0.14416907466E+04  0.10000000000E+02 0. -1.
</event>
<event>
 5    1  0.1440459E-008  0.3745867E+03  0.7957747E-01  0.3475073E+00
         13   -1    0    0    0    0  0.00000000000E+00  0.00000000000E+00  0.14999999963E+04  0.15000000000E+04  0.10566000000E+00 0. -1.
        994   -1    0    0    0    0 -0.00000000000E+00 -0.00000000000E+00  0.11368683772E-12  0.17120000000E+03  0.17120000000E+03 0.  0.
         13    1    1    2    0    0 -0.12554411674E+02 -0.17417030033E+01  0.80627286871E+01  0.15022168277E+02  0.10566000000E+00 0. -1.
        994    1    1    2    0    0  0.32439849771E+02  0.59007509230E+01  0.10600680025E+02  0.17466819153E+03  0.17120000000E+03 0.  0.
        998    1    1    2    0    0 -0.19885438097E+02 -0.41590479197E+01  0.14813365876E+04  0.14815096402E+04  0.10000000000E+02 0. -1.
</event>
<event>
 5    1  0.1440459E-008  0.3850154E+03  0.7957747E-01  0.3429607E+00
         13   -1    0    0    0    0  0.00000000000E+00  0.00000000000E+00  0.14999999963E+04  0.15000000000E+04  0.10566000000E+00 0.  1.
        994   -1    0    0    0    0 -0.00000000000E+00 -0.00000000000E+00  0.11368683772E-12  0.17120000000E+03  0.17120000000E+03 0.  0.
         13    1    1    2    0    0  0.60492236179E+01  0.13802413811E+02  0.68814988378E+02  0.70445819769E+02  0.10566000000E+00 0.  1.
        994    1    1    2    0    0 -0.48198737612E+01 -0.11607542106E+02  0.21421250399E+01  0.17167409507E+03  0.17120000000E+03 0.  0.
        998    1    1    2    0    0 -0.12293498566E+01 -0.21948717047E+01  0.14290428829E+04  0.14290800852E+04  0.10000000000E+02 0.  0.
</event>
<event>
 5    1  0.1440459E-008  0.3796102E+03  0.7957747E-01  0.3452857E+00
         13   -1    0    0    0    0  0.00000000000E+00  0.00000000000E+00  0.14999999963E+04  0.15000000000E+04  0.10566000000E+00 0.  1.
        994   -1    0    0    0    0 -0.00000000000E+00 -0.00000000000E+00  0.11368683772E-12  0.17120000000E+03  0.17120000000E+03 0.  0.
         13    1    1    2    0    0  0.31396216618E+01 -0.40213209579E+02  0.22711344500E+03  0.23066748256E+03  0.10566000000E+00 0.  1.
        994    1    1    2    0    0 -0.14681357038E+01 -0.13938765908E+01  0.43437441141E+01  0.17126706171E+03  0.17120000000E+03 0.  0.
        998    1    1    2    0    0 -0.16714859580E+01  0.41607086170E+02  0.12685428072E+04  0.12692654557E+04  0.10000000000E+02 0.  1.
</event>
<event>
 5    1  0.1440459E-008  0.3797096E+03  0.7957747E-01  0.3452424E+00
         13   -1    0    0    0    0  0.00000000000E+00  0.00000000000E+00  0.14999999963E+04  0.15000000000E+04  0.10566000000E+00 0. -1.
        994   -1    0    0    0    0 -0.00000000000E+00 -0.00000000000E+00  0.11368683772E-12  0.17120000000E+03  0.17120000000E+03 0.  0.
         13    1    1    2    0    0 -0.24008249346E+02 -0.23623338723E+02  0.15766766263E+03  0.16122518777E+03  0.10566000000E+00 0. -1.
        994    1    1    2    0    0 -0.19627689456E+01 -0.95925071407E+01  0.46006584351E+01  0.17154146645E+03  0.17120000000E+03 0.  0.
        998    1    1    2    0    0  0.25971018292E+02  0.33215845864E+02  0.13377316752E+04  0.13384333458E+04  0.10000000000E+02 0. -1.
</event>
<event>
 5    1  0.1440459E-008  0.3848419E+03  0.7957747E-01  0.3430343E+00
         13   -1    0    0    0    0  0.00000000000E+00  0.00000000000E+00  0.14999999963E+04  0.15000000000E+04  0.10566000000E+00 0. -1.
        994   -1    0    0    0    0 -0.00000000000E+00 -0.00000000000E+00  0.11368683772E-12  0.17120000000E+03  0.17120000000E+03 0.  0.
         13    1    1    2    0    0  0.31511497435E+01  0.13331823466E+02  0.53781719917E+02  0.55499115515E+02  0.10566000000E+00 0. -1.
        994    1    1    2    0    0  0.42891295874E+01 -0.13879241916E+02  0.24033240944E+01  0.17183202832E+03  0.17120000000E+03 0.  0.
        998    1    1    2    0    0 -0.74402793309E+01  0.54741845026E+00  0.14438149523E+04  0.14438688562E+04  0.10000000000E+02 0. -1.
</event>
<event>
 5    1  0.1440459E-008  0.3837063E+03  0.7957747E-01  0.3435177E+00
         13   -1    0    0    0    0  0.00000000000E+00  0.00000000000E+00  0.14999999963E+04  0.15000000000E+04  0.10566000000E+00 0.  1.
        994   -1    0    0    0    0 -0.00000000000E+00 -0.00000000000E+00  0.11368683772E-12  0.17120000000E+03  0.17120000000E+03 0.  0.
         13    1    1    2    0    0  0.38024213583E+01 -0.28987438150E+02  0.17187595149E+03  0.17434472703E+03  0.10566000000E+00 0.  1.
        994    1    1    2    0    0 -0.12235091915E+02  0.25914149677E+02  0.49906414340E+01  0.17365364128E+03  0.17120000000E+03 0.  0.
        998    1    1    2    0    0  0.84326705570E+01  0.30732884732E+01  0.13231334034E+04  0.13232016317E+04  0.10000000000E+02 0.  1.
</event>
<event>
 5    1  0.1440459E-008  0.3795297E+03  0.7957747E-01  0.3453209E+00
         13   -1    0    0    0    0  0.00000000000E+00  0.00000000000E+00  0.14999999963E+04  0.15000000000E+04  0.10566000000E+00 0.  1.
        994   -1    0    0    0    0 -0.00000000000E+00 -0.00000000000E+00  0.11368683772E-12  0.17120000000E+03  0.17120000000E+03 0.  0.
         13    1    1    2    0    0  0.13157112214E+02 -0.67998266188E+01  0.23348550067E+02  0.27649831792E+02  0.10566000000E+00 0.  1.
        994    1    1    2    0    0 -0.10680663586E+02 -0.23321603479E+00  0.47529722435E+01  0.17159883948E+03  0.17120000000E+03 0.  0.
        998    1    1    2    0    0 -0.24764486273E+01  0.70330426536E+01  0.14718984740E+04  0.14719513287E+04  0.10000000000E+02 0.  1.
</event>
<event>
 5    1  0.1784337E-008  0.3862513E+03  0.7957747E-01  0.3424382E+00
         13   -1    0    0    0    0  0.00000000000E+00  0.00000000000E+00  0.14999999963E+04  0.15000000000E+04  0.10566000000E+00 0.  1.
        994   -1    0    0    0    0 -0.00000000000E+00 -0.00000000000E+00  0.11368683772E-12  0.17120000000E+03  0.17120000000E+03 0.  0.
         13    1    1    2    0    0  0.10169848369E+02  0.56895286416E+01  0.65850849740E+02  0.66874076648E+02  0.10566000000E+00 0.  1.
        994    1    1    2    0    0 -0.12260341305E+02 -0.33962974752E+01  0.15404402180E+01  0.17167895550E+03  0.17120000000E+03 0.  0.
        998    1    1    2    0    0  0.20904929358E+01 -0.22932311664E+01  0.14326087063E+04  0.14326469679E+04  0.10000000000E+02 0.  1.
</event>
<event>
 5    1  0.1440459E-008  0.3804385E+03  0.7957747E-01  0.3449251E+00
         13   -1    0    0    0    0  0.00000000000E+00  0.00000000000E+00  0.14999999963E+04  0.15000000000E+04  0.10566000000E+00 0.  1.
        994   -1    0    0    0    0 -0.00000000000E+00 -0.00000000000E+00  0.11368683772E-12  0.17120000000E+03  0.17120000000E+03 0.  0.
         13    1    1    2    0    0 -0.21126406865E+02  0.58490730315E+02  0.37095607450E+03  0.37613283687E+03  0.10566000000E+00 0.  1.
        994    1    1    2    0    0  0.38425220476E+02 -0.53562653447E+02  0.18556239646E+02  0.18438879967E+03  0.17120000000E+03 0.  0.
        998    1    1    2    0    0 -0.17298813610E+02 -0.49280768673E+01  0.11104876821E+04  0.11106783635E+04  0.10000000000E+02 0.  1.
</event>
<event>
 5    1  0.1440459E-008  0.3793715E+03  0.7957747E-01  0.3453900E+00
         13   -1    0    0    0    0  0.00000000000E+00  0.00000000000E+00  0.14999999963E+04  0.15000000000E+04  0.10566000000E+00 0. -1.
        994   -1    0    0    0    0 -0.00000000000E+00 -0.00000000000E+00  0.11368683772E-12  0.17120000000E+03  0.17120000000E+03 0.  0.
         13    1    1    2    0    0 -0.54598973652E+01  0.14288659696E+02  0.24046878555E+02  0.28499821183E+02  0.10566000000E+00 0. -1.
        994    1    1    2    0    0  0.32149319722E+02 -0.52013477023E+01  0.80119108320E+01  0.17445418737E+03  0.17120000000E+03 0.  0.
        998    1    1    2    0    0 -0.26689422357E+02 -0.90873119941E+01  0.14679412069E+04  0.14682459914E+04  0.10000000000E+02 0. -1.
</event>
<event>
 5    1  0.1440459E-008  0.3996981E+03  0.7957747E-01  0.3369631E+00
         13   -1    0    0    0    0  0.00000000000E+00  0.00000000000E+00  0.14999999963E+04  0.15000000000E+04  0.10566000000E+00 0. -1.
        994   -1    0    0    0    0 -0.00000000000E+00 -0.00000000000E+00  0.11368683772E-12  0.17120000000E+03  0.17120000000E+03 0.  0.
         13    1    1    2    0    0 -0.26757901290E+02  0.64242106104E+02  0.75982250025E+02  0.10303565869E+03  0.10566000000E+00 0. -1.
        994    1    1    2    0    0  0.25641717145E+02 -0.59638675412E+02  0.44268079521E+02  0.18837030585E+03  0.17120000000E+03 0.  0.
        998    1    1    2    0    0  0.11161841450E+01 -0.46034306917E+01  0.13797496667E+04  0.13797940355E+04  0.10000000000E+02 0. -1.
</event>
<event>
 5    1  0.1440459E-008  0.3751116E+03  0.7957747E-01  0.3472724E+00
         13   -1    0    0    0    0  0.00000000000E+00  0.00000000000E+00  0.14999999963E+04  0.15000000000E+04  0.10566000000E+00 0.  1.
        994   -1    0    0    0    0 -0.00000000000E+00 -0.00000000000E+00  0.11368683772E-12  0.17120000000E+03  0.17120000000E+03 0.  0.
         13    1    1    2    0    0  0.90739143742E+01 -0.31306103621E+02  0.73081924903E+02  0.80021165685E+02  0.10566000000E+00 0.  1.
        994    1    1    2    0    0 -0.11049481337E+02  0.35776212163E+02  0.11400293101E+02  0.17561729720E+03  0.17120000000E+03 0.  0.
        998    1    1    2    0    0  0.19755669633E+01 -0.44701085426E+01  0.14155177783E+04  0.14155615371E+04  0.10000000000E+02 0.  1.
</event>
<event>
 5    1  0.1440459E-008  0.3827170E+03  0.7957747E-01  0.3439413E+00
         13   -1    0    0    0    0  0.00000000000E+00  0.00000000000E+00  0.14999999963E+04  0.15000000000E+04  0.10566000000E+00 0.  1.
        994   -1    0    0    0    0 -0.00000000000E+00 -0.00000000000E+00  0.11368683772E-12  0.17120000000E+03  0.17120000000E+03 0.  0.
         13    1    1    2    0    0 -0.21931752736E+02 -0.18672526866E+02  0.15471181141E+03  0.15737033008E+03  0.10566000000E+00 0.  1.
        994    1    1    2    0    0  0.18269492156E+02 -0.20111259233E+01  0.38879221869E+01  0.17222768334E+03  0.17120000000E+03 0.  0.
        998    1    1    2    0    0  0.36622605800E+01  0.20683652789E+02  0.13414002627E+04  0.13416019866E+04  0.10000000000E+02 0.  1.
</event>
<event>
 5    1  0.1440459E-008  0.3852044E+03  0.7957747E-01  0.3428806E+00
         13   -1    0    0    0    0  0.00000000000E+00  0.00000000000E+00  0.14999999963E+04  0.15000000000E+04  0.10566000000E+00 0. -1.
        994   -1    0    0    0    0 -0.00000000000E+00 -0.00000000000E+00  0.11368683772E-12  0.17120000000E+03  0.17120000000E+03 0.  0.
         13    1    1    2    0    0 -0.12922391821E+02 -0.61033827501E+01  0.71289523780E+02  0.72707955934E+02  0.10566000000E+00 0. -1.
        994    1    1    2    0    0 -0.37791217145E+01  0.90434553284E+01  0.18444950172E+01  0.17149025630E+03  0.17120000000E+03 0.  0.
        998    1    1    2    0    0  0.16701513536E+02 -0.29400725783E+01  0.14268659775E+04  0.14270017878E+04  0.10000000000E+02 0. -1.
</event>
<event>
 5    1  0.1440459E-008  0.3858342E+03  0.7957747E-01  0.3426142E+00
         13   -1    0    0    0    0  0.00000000000E+00  0.00000000000E+00  0.14999999963E+04  0.15000000000E+04  0.10566000000E+00 0. -1.
        994   -1    0    0    0    0 -0.00000000000E+00 -0.00000000000E+00  0.11368683772E-12  0.17120000000E+03  0.17120000000E+03 0.  0.
         13    1    1    2    0    0  0.12745467082E+02  0.15268002655E+01  0.63751533441E+02  0.65031125089E+02  0.10566000000E+00 0. -1.
        994    1    1    2    0    0 -0.18471835525E+02  0.22361553204E+00  0.23365943839E+01  0.17220963499E+03  0.17120000000E+03 0.  0.
        998    1    1    2    0    0  0.57263684430E+01 -0.17504157975E+01  0.14339118685E+04  0.14339592399E+04  0.10000000000E+02 0. -1.
</event>
<event>
 5    1  0.1440459E-008  0.3793076E+03  0.7957747E-01  0.3454179E+00
         13   -1    0    0    0    0  0.00000000000E+00  0.00000000000E+00  0.14999999963E+04  0.15000000000E+04  0.10566000000E+00 0.  1.
        994   -1    0    0    0    0 -0.00000000000E+00 -0.00000000000E+00  0.11368683772E-12  0.17120000000E+03  0.17120000000E+03 0.  0.
         13    1    1    2    0    0 -0.17474698630E+02  0.44217279967E+02  0.21667570030E+03  0.22183079859E+03  0.10566000000E+00 0.  1.
        994    1    1    2    0    0  0.20757471872E+02 -0.42623710744E+02  0.12051123189E+02  0.17805146145E+03  0.17120000000E+03 0.  0.
        998    1    1    2    0    0 -0.32827732422E+01 -0.15935692228E+01  0.12712731728E+04  0.12713177400E+04  0.10000000000E+02 0.  1.
</event>
<event>
 5    1  0.1440459E-008  0.3759061E+03  0.7957747E-01  0.3469180E+00
         13   -1    0    0    0    0  0.00000000000E+00  0.00000000000E+00  0.14999999963E+04  0.15000000000E+04  0.10566000000E+00 0. -1.
        994   -1    0    0    0    0 -0.00000000000E+00 -0.00000000000E+00  0.11368683772E-12  0.17120000000E+03  0.17120000000E+03 0.  0.
         13    1    1    2    0    0  0.36550743755E+02 -0.44733090680E+02  0.30440891546E+03  0.30984158089E+03  0.10566000000E+00 0. -1.
        994    1    1    2    0    0 -0.20296060194E+02  0.49164557221E+01  0.76934457073E+01  0.17264046659E+03  0.17120000000E+03 0.  0.
        998    1    1    2    0    0 -0.16254683560E+02  0.39816634957E+02  0.11878976351E+04  0.11887179525E+04  0.10000000000E+02 0. -1.
</event>
<event>
 5    1  0.1440459E-008  0.3801933E+03  0.7957747E-01  0.3450317E+00
         13   -1    0    0    0    0  0.00000000000E+00  0.00000000000E+00  0.14999999963E+04  0.15000000000E+04  0.10566000000E+00 0.  1.
        994   -1    0    0    0    0 -0.00000000000E+00 -0.00000000000E+00  0.11368683772E-12  0.17120000000E+03  0.17120000000E+03 0.  0.
         13    1    1    2    0    0  0.16093743446E+02  0.18353600805E+02  0.69678259039E+02  0.73830442146E+02  0.10566000000E+00 0.  1.
        994    1    1    2    0    0 -0.12254519180E+02 -0.21341138667E+02  0.60614727022E+01  0.17306588021E+03  0.17120000000E+03 0.  0.
        998    1    1    2    0    0 -0.38392242665E+01  0.29875378618E+01  0.14242602645E+04  0.14243036776E+04  0.10000000000E+02 0.  1.
</event>
<event>
 5    1  0.1440459E-008  0.3733147E+03  0.7957747E-01  0.3480795E+00
         13   -1    0    0    0    0  0.00000000000E+00  0.00000000000E+00  0.14999999963E+04  0.15000000000E+04  0.10566000000E+00 0. -1.
        994   -1    0    0    0    0 -0.00000000000E+00 -0.00000000000E+00  0.11368683772E-12  0.17120000000E+03  0.17120000000E+03 0.  0.
         13    1    1    2    0    0 -0.14269179178E+02 -0.17290727389E+02  0.32546232947E+02  0.39520212185E+02  0.10566000000E+00 0. -1.
        994    1    1    2    0    0 -0.68920098178E+01 -0.11316406470E+02  0.81471252572E+01  0.17190513810E+03  0.17120000000E+03 0.  0.
        998    1    1    2    0    0  0.21161188996E+02  0.28607133859E+02  0.14593066381E+04  0.14597746497E+04  0.10000000000E+02 0. -1.
</event>
<event>
 5    1  0.1440459E-008  0.3732225E+03  0.7957747E-01  0.3481211E+00
         13   -1    0    0    0    0  0.00000000000E+00  0.00000000000E+00  0.14999999963E+04  0.15000000000E+04  0.10566000000E+00 0. -1.
        994   -1    0    0    0    0 -0.00000000000E+00 -0.00000000000E+00  0.11368683772E-12  0.17120000000E+03  0.17120000000E+03 0.  0.
         13    1    1    2    0    0  0.77232640944E+02  0.24906973171E+02  0.35121699691E+03  0.36047001016E+03  0.10566000000E+00 0. -1.
        994    1    1    2    0    0 -0.75744990130E+02 -0.51681699369E+01  0.27569834233E+02  0.18929751522E+03  0.17120000000E+03 0.  0.
        998    1    1    2    0    0 -0.14876508141E+01 -0.19738803234E+02  0.11212131651E+04  0.11214324746E+04  0.10000000000E+02 0. -1.
</event>
<event>
 5    1  0.1440459E-008  0.3775815E+03  0.7957747E-01  0.3461757E+00
         13   -1    0    0    0    0  0.00000000000E+00  0.00000000000E+00  0.14999999963E+04  0.15000000000E+04  0.10566000000E+00 0. -1.
        994   -1    0    0    0    0 -0.00000000000E+00 -0.00000000000E+00  0.11368683772E-12  0.17120000000E+03  0.17120000000E+03 0.  0.
         13    1    1    2    0    0  0.21890350723E+01 -0.23675367477E+02  0.49566410172E+02  0.54974131018E+02  0.10566000000E+00 0. -1.
        994    1    1    2    0    0 -0.14566485055E+01  0.22024204111E+02  0.70024567891E+01  0.17275897022E+03  0.17120000000E+03 0.  0.
        998    1    1    2    0    0 -0.73238656684E+00  0.16511633662E+01  0.14434311293E+04  0.14434668988E+04  0.10000000000E+02 0. -1.
</event>
<event>
 5    1  0.1440459E-008  0.3813507E+03  0.7957747E-01  0.3445298E+00
         13   -1    0    0    0    0  0.00000000000E+00  0.00000000000E+00  0.14999999963E+04  0.15000000000E+04  0.10566000000E+00 0.  1.
        994   -1    0    0    0    0 -0.00000000000E+00 -0.00000000000E+00  0.11368683772E-12  0.17120000000E+03  0.17120000000E+03 0.  0.
         13    1    1    2    0    0 -0.33494012800E+02 -0.12410651884E+02  0.20946858316E+03  0.21249228614E+03  0.10566000000E+00 0.  1.
        994    1    1    2    0    0  0.57097466018E+01 -0.71867985348E+00  0.35631226888E+01  0.17133374901E+03  0.17120000000E+03 0.  0.
        998    1    1    2    0    0  0.27784266198E+02  0.13129331737E+02  0.12869682904E+04  0.12873739648E+04  0.10000000000E+02 0.  1.
</event>
<event>
 5    1  0.1440459E-008  0.3778914E+03  0.7957747E-01  0.3460392E+00
         13   -1    0    0    0    0  0.00000000000E+00  0.00000000000E+00  0.14999999963E+04  0.15000000000E+04  0.10566000000E+00 0.  1.
        994   -1    0    0    0    0 -0.00000000000E+00 -0.00000000000E+00  0.11368683772E-12  0.17120000000E+03  0.17120000000E+03 0.  0.
         13    1    1    2    0    0  0.36676287710E+02  0.15408447442E+02  0.45707366110E+02  0.60594923992E+02  0.10566000000E+00 0.  1.
        994    1    1    2    0    0 -0.31212419434E+02 -0.13861103635E+02  0.19379118248E+02  0.17564548256E+03  0.17120000000E+03 0.  0.
        998    1    1    2    0    0 -0.54638682756E+01 -0.15473438073E+01  0.14349135119E+04  0.14349595934E+04  0.10000000000E+02 0.  1.
</event>
<event>
 5    1  0.1440459E-008  0.3816771E+03  0.7957747E-01  0.3443888E+00
         13   -1    0    0    0    0  0.00000000000E+00  0.00000000000E+00  0.14999999963E+04  0.15000000000E+04  0.10566000000E+00 0.  1.
        994   -1    0    0    0    0 -0.00000000000E+00 -0.00000000000E+00  0.11368683772E-12  0.17120000000E+03  0.17120000000E+03 0.  0.
         13    1    1    2    0    0  0.14351304192E+02 -0.43900935998E+01  0.33991345060E+02  0.37157173693E+02  0.10566000000E+00 0.  1.
        994    1    1    2    0    0  0.11385102128E+02  0.44801962097E+02  0.10425639661E+02  0.17763718732E+03  0.17120000000E+03 0.  0.
        998    1    1    2    0    0 -0.25736406320E+02 -0.40411868497E+02  0.14555830116E+04  0.14564056390E+04  0.10000000000E+02 0.  1.
</event>
<event>
 5    1  0.1440459E-008  0.3764721E+03  0.7957747E-01  0.3466665E+00
         13   -1    0    0    0    0  0.00000000000E+00  0.00000000000E+00  0.14999999963E+04  0.15000000000E+04  0.10566000000E+00 0.  1.
        994   -1    0    0    0    0 -0.00000000000E+00 -0.00000000000E+00  0.11368683772E-12  0.17120000000E+03  0.17120000000E+03 0.  0.
         13    1    1    2    0    0  0.28772105225E+01 -0.52867748357E+02  0.23018306228E+03  0.23619384090E+03  0.10566000000E+00 0.  1.
        994    1    1    2    0    0  0.15639920518E+02  0.34490251236E+02  0.10791096122E+02  0.17567035123E+03  0.17120000000E+03 0.  0.
        998    1    1    2    0    0 -0.18517131040E+02  0.18377497120E+02  0.12590258379E+04  0.12593358079E+04  0.10000000000E+02 0.  1.
</event>
