<event>
 5    1  0.2313627E-009  0.3882039E+03  0.7957747E-01  0.3416197E+00
         13   -1    0    0    0    0  0.00000000000E+00  0.00000000000E+00  0.14999999963E+04  0.15000000000E+04  0.10566000000E+00 0.  1.
        994   -1    0    0    0    0 -0.00000000000E+00 -0.00000000000E+00  0.11368683772E-12  0.17120000000E+03  0.17120000000E+03 0.  0.
         13    1    1    2    0    0 -0.17746787416E+03 -0.17175076566E+03  0.12639271075E+04  0.12878295369E+04  0.10566000000E+00 0.  1.
        994    1    1    2    0    0  0.17745454594E+03  0.17241645495E+03  0.23390885713E+03  0.38110411078E+03  0.17120000000E+03 0.  0.
        998    1    1    2    0    0  0.13328222714E-01 -0.66568928480E+00  0.21640316344E+01  0.22663523072E+01  0.10000000000E+00 0.  1.
</event>
<event>
 5    1  0.2313627E-009  0.3714678E+03  0.7957747E-01  0.3489172E+00
         13   -1    0    0    0    0  0.00000000000E+00  0.00000000000E+00  0.14999999963E+04  0.15000000000E+04  0.10566000000E+00 0.  1.
        994   -1    0    0    0    0 -0.00000000000E+00 -0.00000000000E+00  0.11368683772E-12  0.17120000000E+03  0.17120000000E+03 0.  0.
         13    1    1    2    0    0 -0.23254186427E+03  0.12293767221E+03  0.11605598113E+04  0.11899951583E+04  0.10566000000E+00 0.  1.
        994    1    1    2    0    0  0.24118662278E+03 -0.12326281487E+03  0.34505608580E+03  0.47089048715E+03  0.17120000000E+03 0.  0.
        998    1    1    2    0    0 -0.86447585074E+01  0.32514265985E+00 -0.56159008689E+01  0.10314354559E+02  0.10000000000E+00 0. -1.
</event>
<event>
 5    1  0.2313627E-009  0.3883005E+03  0.7957747E-01  0.3415794E+00
         13   -1    0    0    0    0  0.00000000000E+00  0.00000000000E+00  0.14999999963E+04  0.15000000000E+04  0.10566000000E+00 0. -1.
        994   -1    0    0    0    0 -0.00000000000E+00 -0.00000000000E+00  0.11368683772E-12  0.17120000000E+03  0.17120000000E+03 0.  0.
         13    1    1    2    0    0 -0.79631217533E+02  0.17724420170E+03  0.61498835192E+03  0.64495528683E+03  0.10566000000E+00 0. -1.
        994    1    1    2    0    0  0.13106338220E+03 -0.29302617507E+03  0.48261033995E+03  0.60437085441E+03  0.17120000000E+03 0.  0.
        998    1    1    2    0    0 -0.51432164666E+02  0.11578197337E+03  0.40240130441E+03  0.42187385877E+03  0.10000000000E+00 0. -1.
</event>
<event>
 5    1  0.2313627E-009  0.3882998E+03  0.7957747E-01  0.3415797E+00
         13   -1    0    0    0    0  0.00000000000E+00  0.00000000000E+00  0.14999999963E+04  0.15000000000E+04  0.10566000000E+00 0.  1.
        994   -1    0    0    0    0 -0.00000000000E+00 -0.00000000000E+00  0.11368683772E-12  0.17120000000E+03  0.17120000000E+03 0.  0.
         13    1    1    2    0    0 -0.30836857627E+03 -0.49456907856E+01  0.87703622823E+03  0.92968177108E+03  0.10566000000E+00 0.  1.
        994    1    1    2    0    0  0.33260089158E+03  0.56159257503E+01  0.55464219336E+03  0.66902338850E+03  0.17120000000E+03 0.  0.
        998    1    1    2    0    0 -0.24232315308E+02 -0.67023496469E+00  0.68321574683E+02  0.72494840418E+02  0.10000000000E+00 0. -1.
</event>
<event>
 5    1  0.2313627E-009  0.3882629E+03  0.7957747E-01  0.3415951E+00
         13   -1    0    0    0    0  0.00000000000E+00  0.00000000000E+00  0.14999999963E+04  0.15000000000E+04  0.10566000000E+00 0. -1.
        994   -1    0    0    0    0 -0.00000000000E+00 -0.00000000000E+00  0.11368683772E-12  0.17120000000E+03  0.17120000000E+03 0.  0.
         13    1    1    2    0    0 -0.12473790012E+03 -0.10729144143E+03  0.77405119381E+03  0.79134458924E+03  0.10566000000E+00 0. -1.
        994    1    1    2    0    0  0.20266772297E+03  0.17086897040E+03  0.27735572169E+03  0.42012622786E+03  0.17120000000E+03 0.  0.
        998    1    1    2    0    0 -0.77929822851E+02 -0.63577528969E+02  0.44859308078E+03  0.45972918290E+03  0.10000000000E+00 0.  1.
</event>
<event>
 5    1  0.2313627E-009  0.3883007E+03  0.7957747E-01  0.3415793E+00
         13   -1    0    0    0    0  0.00000000000E+00  0.00000000000E+00  0.14999999963E+04  0.15000000000E+04  0.10566000000E+00 0.  1.
        994   -1    0    0    0    0 -0.00000000000E+00 -0.00000000000E+00  0.11368683772E-12  0.17120000000E+03  0.17120000000E+03 0.  0.
         13    1    1    2    0    0 -0.18287087257E+03  0.83793003577E+02  0.11938798615E+04  0.12107072967E+04  0.10566000000E+00 0.  1.
        994    1    1    2    0    0  0.20199304018E+03 -0.92388042895E+02  0.18133565821E+03  0.33395927849E+03  0.17120000000E+03 0.  0.
        998    1    1    2    0    0 -0.19122167609E+02  0.85950393176E+01  0.12478447659E+03  0.12653342481E+03  0.10000000000E+00 0.  0.
</event>
<event>
 5    1  0.2313627E-009  0.3882502E+03  0.7957747E-01  0.3416004E+00
         13   -1    0    0    0    0  0.00000000000E+00  0.00000000000E+00  0.14999999963E+04  0.15000000000E+04  0.10566000000E+00 0.  1.
        994   -1    0    0    0    0 -0.00000000000E+00 -0.00000000000E+00  0.11368683772E-12  0.17120000000E+03  0.17120000000E+03 0.  0.
         13    1    1    2    0    0 -0.13232798454E+03  0.39009393257E+02  0.78985906320E+03  0.80181654956E+03  0.10566000000E+00 0.  1.
        994    1    1    2    0    0  0.22080465990E+03 -0.57794967394E+02  0.19316200732E+03  0.34455182072E+03  0.17120000000E+03 0.  0.
        998    1    1    2    0    0 -0.88476675364E+02  0.18785574137E+02  0.51697892575E+03  0.52483162972E+03  0.10000000000E+00 0. -1.
</event>
<event>
 5    1  0.2313627E-009  0.3882281E+03  0.7957747E-01  0.3416096E+00
         13   -1    0    0    0    0  0.00000000000E+00  0.00000000000E+00  0.14999999963E+04  0.15000000000E+04  0.10566000000E+00 0.  1.
        994   -1    0    0    0    0 -0.00000000000E+00 -0.00000000000E+00  0.11368683772E-12  0.17120000000E+03  0.17120000000E+03 0.  0.
         13    1    1    2    0    0  0.15437437587E+03 -0.16669613809E+03  0.12870678897E+04  0.13069670288E+04  0.10566000000E+00 0.  1.
        994    1    1    2    0    0 -0.15662546305E+03  0.16774585614E+03  0.19567390201E+03  0.34679666068E+03  0.17120000000E+03 0.  0.
        998    1    1    2    0    0  0.22510871782E+01 -0.10497180580E+01  0.17258204557E+02  0.17436310562E+02  0.10000000000E+00 0. -1.
</event>
<event>
 5    1  0.2313627E-009  0.3881164E+03  0.7957747E-01  0.3416562E+00
         13   -1    0    0    0    0  0.00000000000E+00  0.00000000000E+00  0.14999999963E+04  0.15000000000E+04  0.10566000000E+00 0.  1.
        994   -1    0    0    0    0 -0.00000000000E+00 -0.00000000000E+00  0.11368683772E-12  0.17120000000E+03  0.17120000000E+03 0.  0.
         13    1    1    2    0    0 -0.20749356606E+03 -0.93700439489E+02  0.11671294684E+04  0.11891276464E+04  0.10566000000E+00 0.  1.
        994    1    1    2    0    0  0.22434682587E+03  0.97514187573E+02  0.22771119388E+03  0.37550278677E+03  0.17120000000E+03 0.  0.
        998    1    1    2    0    0 -0.16853259811E+02 -0.38137480846E+01  0.10515933400E+03  0.10656956680E+03  0.10000000000E+00 0.  1.
</event>
<event>
 5    1  0.2313627E-009  0.3877979E+03  0.7957747E-01  0.3417892E+00
         13   -1    0    0    0    0  0.00000000000E+00  0.00000000000E+00  0.14999999963E+04  0.15000000000E+04  0.10566000000E+00 0.  1.
        994   -1    0    0    0    0 -0.00000000000E+00 -0.00000000000E+00  0.11368683772E-12  0.17120000000E+03  0.17120000000E+03 0.  0.
         13    1    1    2    0    0 -0.11859755423E+03  0.85241073774E+02  0.84733120687E+03  0.85982649752E+03  0.10566000000E+00 0.  1.
        994    1    1    2    0    0  0.17053766600E+03 -0.12247557350E+03  0.16011216675E+03  0.31468827047E+03  0.17120000000E+03 0.  0.
        998    1    1    2    0    0 -0.51940111771E+02  0.37234499724E+02  0.49255662265E+03  0.49668523201E+03  0.10000000000E+00 0. -1.
</event>
<event>
 5    1  0.2313627E-009  0.3882798E+03  0.7957747E-01  0.3415880E+00
         13   -1    0    0    0    0  0.00000000000E+00  0.00000000000E+00  0.14999999963E+04  0.15000000000E+04  0.10566000000E+00 0. -1.
        994   -1    0    0    0    0 -0.00000000000E+00 -0.00000000000E+00  0.11368683772E-12  0.17120000000E+03  0.17120000000E+03 0.  0.
         13    1    1    2    0    0 -0.14097532077E+03 -0.23224650501E+03  0.11807663939E+04  0.12116194816E+04  0.10566000000E+00 0. -1.
        994    1    1    2    0    0  0.14235272846E+03  0.23549888882E+03  0.30543197880E+03  0.44533376204E+03  0.17120000000E+03 0.  0.
        998    1    1    2    0    0 -0.13774076956E+01 -0.32523838069E+01  0.13801623605E+02  0.14246756351E+02  0.10000000000E+00 0.  1.
</event>
<event>
 5    1  0.2313627E-009  0.3883006E+03  0.7957747E-01  0.3415793E+00
         13   -1    0    0    0    0  0.00000000000E+00  0.00000000000E+00  0.14999999963E+04  0.15000000000E+04  0.10566000000E+00 0. -1.
        994   -1    0    0    0    0 -0.00000000000E+00 -0.00000000000E+00  0.11368683772E-12  0.17120000000E+03  0.17120000000E+03 0.  0.
         13    1    1    2    0    0 -0.21133836864E+03 -0.13359639127E+03  0.11560360064E+04  0.11827642035E+04  0.10566000000E+00 0. -1.
        994    1    1    2    0    0  0.22378833627E+03  0.14129332096E+03  0.27615728050E+03  0.41906718503E+03  0.17120000000E+03 0.  0.
        998    1    1    2    0    0 -0.12449967628E+02 -0.76969296854E+01  0.67806709347E+02  0.69368611439E+02  0.10000000000E+00 0.  0.
</event>
<event>
 5    1  0.2313627E-009  0.3880327E+03  0.7957747E-01  0.3416911E+00
         13   -1    0    0    0    0  0.00000000000E+00  0.00000000000E+00  0.14999999963E+04  0.15000000000E+04  0.10566000000E+00 0.  1.
        994   -1    0    0    0    0 -0.00000000000E+00 -0.00000000000E+00  0.11368683772E-12  0.17120000000E+03  0.17120000000E+03 0.  0.
         13    1    1    2    0    0  0.21490574042E+03 -0.12170412408E+03  0.11881025282E+04  0.12135007209E+04  0.10566000000E+00 0.  1.
        994    1    1    2    0    0 -0.22590685659E+03  0.12318208644E+03  0.25777118804E+03  0.40244646806E+03  0.17120000000E+03 0.  0.
        998    1    1    2    0    0  0.11001116178E+02 -0.14779623527E+01  0.54126280089E+02  0.55252811025E+02  0.10000000000E+00 0. -1.
</event>
<event>
 5    1  0.2313627E-009  0.3811888E+03  0.7957747E-01  0.3445998E+00
         13   -1    0    0    0    0  0.00000000000E+00  0.00000000000E+00  0.14999999963E+04  0.15000000000E+04  0.10566000000E+00 0.  1.
        994   -1    0    0    0    0 -0.00000000000E+00 -0.00000000000E+00  0.11368683772E-12  0.17120000000E+03  0.17120000000E+03 0.  0.
         13    1    1    2    0    0 -0.20372221963E+02  0.17357640284E+02  0.15079300504E+03  0.15314978498E+03  0.10566000000E+00 0.  1.
        994    1    1    2    0    0  0.40244599035E+02  0.89791725001E+02  0.36476067206E+02  0.20080369795E+03  0.17120000000E+03 0.  0.
        998    1    1    2    0    0 -0.19872377072E+02 -0.10714936528E+03  0.13127309240E+04  0.13172465171E+04  0.10000000000E+00 0.  1.
</event>
<event>
 5    1  0.2313627E-009  0.3882567E+03  0.7957747E-01  0.3415977E+00
         13   -1    0    0    0    0  0.00000000000E+00  0.00000000000E+00  0.14999999963E+04  0.15000000000E+04  0.10566000000E+00 0. -1.
        994   -1    0    0    0    0 -0.00000000000E+00 -0.00000000000E+00  0.11368683772E-12  0.17120000000E+03  0.17120000000E+03 0.  0.
         13    1    1    2    0    0  0.15240054836E+02 -0.65176728189E+02  0.35890574928E+03  0.36509397859E+03  0.10566000000E+00 0. -1.
        994    1    1    2    0    0 -0.45701486779E+02  0.22695287328E+03  0.19965443402E+03  0.35038202809E+03  0.17120000000E+03 0.  0.
        998    1    1    2    0    0  0.30461431943E+02 -0.16177614509E+03  0.94143981298E+03  0.95572399332E+03  0.10000000000E+00 0. -1.
</event>
<event>
 5    1  0.2313627E-009  0.3882262E+03  0.7957747E-01  0.3416104E+00
         13   -1    0    0    0    0  0.00000000000E+00  0.00000000000E+00  0.14999999963E+04  0.15000000000E+04  0.10566000000E+00 0.  1.
        994   -1    0    0    0    0 -0.00000000000E+00 -0.00000000000E+00  0.11368683772E-12  0.17120000000E+03  0.17120000000E+03 0.  0.
         13    1    1    2    0    0  0.26514302773E+03 -0.20356961966E+03  0.50148793000E+03  0.60268695880E+03  0.10566000000E+00 0.  1.
        994    1    1    2    0    0 -0.26732482960E+03  0.20431197369E+03  0.99577552741E+03  0.10649339360E+04  0.17120000000E+03 0.  0.
        998    1    1    2    0    0  0.21818018681E+01 -0.74235402789E+00  0.27365388689E+01  0.35791051780E+01  0.10000000000E+00 0. -1.
</event>
<event>
 5    1  0.2313627E-009  0.3883009E+03  0.7957747E-01  0.3415792E+00
         13   -1    0    0    0    0  0.00000000000E+00  0.00000000000E+00  0.14999999963E+04  0.15000000000E+04  0.10566000000E+00 0.  1.
        994   -1    0    0    0    0 -0.00000000000E+00 -0.00000000000E+00  0.11368683772E-12  0.17120000000E+03  0.17120000000E+03 0.  0.
         13    1    1    2    0    0 -0.45554801804E+02  0.17457002531E+03  0.10525592691E+04  0.10679096215E+04  0.10566000000E+00 0.  1.
        994    1    1    2    0    0  0.56708751103E+02 -0.21774100806E+03  0.18680833478E+03  0.33887139594E+03  0.17120000000E+03 0.  0.
        998    1    1    2    0    0 -0.11153949298E+02  0.43170982748E+02  0.26063239245E+03  0.26441898254E+03  0.10000000000E+00 0.  0.
</event>
<event>
 5    1  0.2313627E-009  0.3882963E+03  0.7957747E-01  0.3415811E+00
         13   -1    0    0    0    0  0.00000000000E+00  0.00000000000E+00  0.14999999963E+04  0.15000000000E+04  0.10566000000E+00 0. -1.
        994   -1    0    0    0    0 -0.00000000000E+00 -0.00000000000E+00  0.11368683772E-12  0.17120000000E+03  0.17120000000E+03 0.  0.
         13    1    1    2    0    0 -0.27907426277E+03 -0.92955429333E+02  0.91518667421E+03  0.96129590439E+03  0.10566000000E+00 0. -1.
        994    1    1    2    0    0  0.30643617600E+03  0.10173781949E+03  0.49292559146E+03  0.61362756831E+03  0.17120000000E+03 0.  0.
        998    1    1    2    0    0 -0.27361913224E+02 -0.87823901592E+01  0.91887730613E+02  0.96276527302E+02  0.10000000000E+00 0.  1.
</event>
<event>
 5    1  0.2313627E-009  0.3881560E+03  0.7957747E-01  0.3416397E+00
         13   -1    0    0    0    0  0.00000000000E+00  0.00000000000E+00  0.14999999963E+04  0.15000000000E+04  0.10566000000E+00 0.  1.
        994   -1    0    0    0    0 -0.00000000000E+00 -0.00000000000E+00  0.11368683772E-12  0.17120000000E+03  0.17120000000E+03 0.  0.
         13    1    1    2    0    0  0.16727483753E+03 -0.93277993847E+01  0.95584358990E+03  0.97041478690E+03  0.10566000000E+00 0.  1.
        994    1    1    2    0    0 -0.22421255959E+03  0.59465716157E+01  0.18562822696E+03  0.33774829716E+03  0.17120000000E+03 0.  0.
        998    1    1    2    0    0  0.56937722067E+02  0.33812277689E+01  0.35852817942E+03  0.36303691594E+03  0.10000000000E+00 0.  1.
</event>
<event>
 5    1  0.2313627E-009  0.3882803E+03  0.7957747E-01  0.3415878E+00
         13   -1    0    0    0    0  0.00000000000E+00  0.00000000000E+00  0.14999999963E+04  0.15000000000E+04  0.10566000000E+00 0.  1.
        994   -1    0    0    0    0 -0.00000000000E+00 -0.00000000000E+00  0.11368683772E-12  0.17120000000E+03  0.17120000000E+03 0.  0.
         13    1    1    2    0    0  0.20473580721E+03 -0.49443625459E+01  0.84526515351E+03  0.86972086808E+03  0.10566000000E+00 0.  1.
        994    1    1    2    0    0 -0.28517178565E+03  0.77891452569E+01  0.33643621934E+03  0.47316211577E+03  0.17120000000E+03 0.  0.
        998    1    1    2    0    0  0.80435978441E+02 -0.28447827110E+01  0.31829862343E+03  0.32831701615E+03  0.10000000000E+00 0.  1.
</event>
<event>
 5    1  0.2313627E-009  0.3882930E+03  0.7957747E-01  0.3415825E+00
         13   -1    0    0    0    0  0.00000000000E+00  0.00000000000E+00  0.14999999963E+04  0.15000000000E+04  0.10566000000E+00 0. -1.
        994   -1    0    0    0    0 -0.00000000000E+00 -0.00000000000E+00  0.11368683772E-12  0.17120000000E+03  0.17120000000E+03 0.  0.
         13    1    1    2    0    0  0.17951125607E+03  0.19270567265E+03  0.12044540527E+04  0.12329109228E+04  0.10566000000E+00 0. -1.
        994    1    1    2    0    0 -0.18166622992E+03 -0.19527815986E+03  0.28165770680E+03  0.42400080496E+03  0.17120000000E+03 0.  0.
        998    1    1    2    0    0  0.21549738438E+01  0.25724872088E+01  0.13888236768E+02  0.14288272227E+02  0.10000000000E+00 0.  1.
</event>
<event>
 5    1  0.2313627E-009  0.3879469E+03  0.7957747E-01  0.3417270E+00
         13   -1    0    0    0    0  0.00000000000E+00  0.00000000000E+00  0.14999999963E+04  0.15000000000E+04  0.10566000000E+00 0.  1.
        994   -1    0    0    0    0 -0.00000000000E+00 -0.00000000000E+00  0.11368683772E-12  0.17120000000E+03  0.17120000000E+03 0.  0.
         13    1    1    2    0    0  0.22071876482E+03 -0.11527879172E+03  0.12253231677E+04  0.12503690853E+04  0.10566000000E+00 0.  1.
        994    1    1    2    0    0 -0.22484972067E+03  0.12048367789E+03  0.25246199930E+03  0.39764332587E+03  0.17120000000E+03 0.  0.
        998    1    1    2    0    0  0.41309558484E+01 -0.52048861756E+01  0.22214829307E+02  0.23187588867E+02  0.10000000000E+00 0.  1.
</event>
<event>
 5    1  0.2313627E-009  0.3882229E+03  0.7957747E-01  0.3416117E+00
         13   -1    0    0    0    0  0.00000000000E+00  0.00000000000E+00  0.14999999963E+04  0.15000000000E+04  0.10566000000E+00 0.  1.
        994   -1    0    0    0    0 -0.00000000000E+00 -0.00000000000E+00  0.11368683772E-12  0.17120000000E+03  0.17120000000E+03 0.  0.
         13    1    1    2    0    0  0.19317916878E+03  0.17341065708E+02  0.11297321758E+04  0.11462607487E+04  0.10566000000E+00 0.  1.
        994    1    1    2    0    0 -0.22204586686E+03 -0.23343891376E+02  0.18360150309E+03  0.33595871203E+03  0.17120000000E+03 0.  0.
        998    1    1    2    0    0  0.28866698080E+02  0.60028256688E+01  0.18666631738E+03  0.18898053926E+03  0.10000000000E+00 0. -1.
</event>
<event>
 5    1  0.2313627E-009  0.3879754E+03  0.7957747E-01  0.3417150E+00
         13   -1    0    0    0    0  0.00000000000E+00  0.00000000000E+00  0.14999999963E+04  0.15000000000E+04  0.10566000000E+00 0. -1.
        994   -1    0    0    0    0 -0.00000000000E+00 -0.00000000000E+00  0.11368683772E-12  0.17120000000E+03  0.17120000000E+03 0.  0.
         13    1    1    2    0    0 -0.22108015277E+02 -0.32810263474E+02  0.15857623399E+03  0.16343717716E+03  0.10566000000E+00 0. -1.
        994    1    1    2    0    0  0.20648378759E+03  0.21013475506E+03  0.36901167583E+03  0.50226609155E+03  0.17120000000E+03 0.  0.
        998    1    1    2    0    0 -0.18437577231E+03 -0.17732449159E+03  0.97241208646E+03  0.10054967313E+04  0.10000000000E+00 0. -1.
</event>
<event>
 5    1  0.2313627E-009  0.3881987E+03  0.7957747E-01  0.3416218E+00
         13   -1    0    0    0    0  0.00000000000E+00  0.00000000000E+00  0.14999999963E+04  0.15000000000E+04  0.10566000000E+00 0.  1.
        994   -1    0    0    0    0 -0.00000000000E+00 -0.00000000000E+00  0.11368683772E-12  0.17120000000E+03  0.17120000000E+03 0.  0.
         13    1    1    2    0    0  0.14979119074E+03 -0.16397043375E+03  0.12785862545E+04  0.12977312994E+04  0.10566000000E+00 0.  1.
        994    1    1    2    0    0 -0.15403237703E+03  0.16616010785E+03  0.18996492998E+03  0.34165958092E+03  0.17120000000E+03 0.  0.
        998    1    1    2    0    0  0.42411862951E+01 -0.21896740976E+01  0.31448811773E+02  0.31809119695E+02  0.10000000000E+00 0.  1.
</event>
<event>
 5    1  0.2313627E-009  0.3882954E+03  0.7957747E-01  0.3415815E+00
         13   -1    0    0    0    0  0.00000000000E+00  0.00000000000E+00  0.14999999963E+04  0.15000000000E+04  0.10566000000E+00 0.  1.
        994   -1    0    0    0    0 -0.00000000000E+00 -0.00000000000E+00  0.11368683772E-12  0.17120000000E+03  0.17120000000E+03 0.  0.
         13    1    1    2    0    0  0.43910799445E+02 -0.23550878330E+03  0.12591618137E+04  0.12817492070E+04  0.10566000000E+00 0.  1.
        994    1    1    2    0    0 -0.44730196556E+02  0.23889287661E+03  0.22393398986E+03  0.37219144106E+03  0.17120000000E+03 0.  0.
        998    1    1    2    0    0  0.81939711116E+00 -0.33840933143E+01  0.16904192667E+02  0.17259351927E+02  0.10000000000E+00 0.  0.
</event>
<event>
 5    1  0.2313627E-009  0.3883006E+03  0.7957747E-01  0.3415793E+00
         13   -1    0    0    0    0  0.00000000000E+00  0.00000000000E+00  0.14999999963E+04  0.15000000000E+04  0.10566000000E+00 0.  1.
        994   -1    0    0    0    0 -0.00000000000E+00 -0.00000000000E+00  0.11368683772E-12  0.17120000000E+03  0.17120000000E+03 0.  0.
         13    1    1    2    0    0 -0.15082143181E+03  0.10739001475E+03  0.10094795031E+04  0.10263179809E+04  0.10566000000E+00 0.  1.
        994    1    1    2    0    0  0.19302274657E+03 -0.13703661934E+03  0.21031650774E+03  0.35997123380E+03  0.17120000000E+03 0.  0.
        998    1    1    2    0    0 -0.42201314761E+02  0.29646604588E+02  0.28020398548E+03  0.28491078535E+03  0.10000000000E+00 0. -1.
</event>
<event>
 5    1  0.2313627E-009  0.3882471E+03  0.7957747E-01  0.3416017E+00
         13   -1    0    0    0    0  0.00000000000E+00  0.00000000000E+00  0.14999999963E+04  0.15000000000E+04  0.10566000000E+00 0.  1.
        994   -1    0    0    0    0 -0.00000000000E+00 -0.00000000000E+00  0.11368683772E-12  0.17120000000E+03  0.17120000000E+03 0.  0.
         13    1    1    2    0    0 -0.83651136459E+02 -0.20309901638E+03  0.13137545789E+04  0.13319901755E+04  0.10566000000E+00 0.  1.
        994    1    1    2    0    0  0.83941201481E+02  0.20370303942E+03  0.17805087085E+03  0.33098732028E+03  0.17120000000E+03 0.  0.
        998    1    1    2    0    0 -0.29006502219E+00 -0.60402303975E+00  0.81945465700E+01  0.82225041828E+01  0.10000000000E+00 0.  1.
</event>
<event>
 5    1  0.2313627E-009  0.3882989E+03  0.7957747E-01  0.3415801E+00
         13   -1    0    0    0    0  0.00000000000E+00  0.00000000000E+00  0.14999999963E+04  0.15000000000E+04  0.10566000000E+00 0.  1.
        994   -1    0    0    0    0 -0.00000000000E+00 -0.00000000000E+00  0.11368683772E-12  0.17120000000E+03  0.17120000000E+03 0.  0.
         13    1    1    2    0    0 -0.18871624951E+03 -0.11666586744E+03  0.12243018574E+04  0.12442426599E+04  0.10566000000E+00 0.  1.
        994    1    1    2    0    0  0.19940966413E+03  0.12299795517E+03  0.20526851929E+03  0.35543960969E+03  0.17120000000E+03 0.  0.
        998    1    1    2    0    0 -0.10693414618E+02 -0.63320877341E+01  0.70429619597E+02  0.71517730444E+02  0.10000000000E+00 0. -1.
</event>
<event>
 5    1  0.2313627E-009  0.3882998E+03  0.7957747E-01  0.3415797E+00
         13   -1    0    0    0    0  0.00000000000E+00  0.00000000000E+00  0.14999999963E+04  0.15000000000E+04  0.10566000000E+00 0. -1.
        994   -1    0    0    0    0 -0.00000000000E+00 -0.00000000000E+00  0.11368683772E-12  0.17120000000E+03  0.17120000000E+03 0.  0.
         13    1    1    2    0    0 -0.29328335047E+02  0.92299996232E+02  0.52161389817E+03  0.53052851994E+03  0.10566000000E+00 0. -1.
        994    1    1    2    0    0  0.70830548181E+02 -0.22727244999E+03  0.21313048271E+03  0.36249658721E+03  0.17120000000E+03 0.  0.
        998    1    1    2    0    0 -0.41502213133E+02  0.13497245375E+03  0.76525561539E+03  0.77817489284E+03  0.10000000000E+00 0.  1.
</event>
<event>
 5    1  0.2313627E-009  0.3873371E+03  0.7957747E-01  0.3419820E+00
         13   -1    0    0    0    0  0.00000000000E+00  0.00000000000E+00  0.14999999963E+04  0.15000000000E+04  0.10566000000E+00 0. -1.
        994   -1    0    0    0    0 -0.00000000000E+00 -0.00000000000E+00  0.11368683772E-12  0.17120000000E+03  0.17120000000E+03 0.  0.
         13    1    1    2    0    0 -0.11662541494E+03  0.12193295737E+03  0.10063084760E+04  0.10203557681E+04  0.10566000000E+00 0. -1.
        994    1    1    2    0    0  0.15476390133E+03 -0.14065255867E+03  0.15921018336E+03  0.31367551689E+03  0.17120000000E+03 0.  0.
        998    1    1    2    0    0 -0.38138486389E+02  0.18719601296E+02  0.33448133689E+03  0.33716871496E+03  0.10000000000E+00 0. -1.
</event>
<event>
 5    1  0.2313627E-009  0.3882854E+03  0.7957747E-01  0.3415857E+00
         13   -1    0    0    0    0  0.00000000000E+00  0.00000000000E+00  0.14999999963E+04  0.15000000000E+04  0.10566000000E+00 0.  1.
        994   -1    0    0    0    0 -0.00000000000E+00 -0.00000000000E+00  0.11368683772E-12  0.17120000000E+03  0.17120000000E+03 0.  0.
         13    1    1    2    0    0  0.13831832961E+03  0.18542095054E+03  0.11980581522E+04  0.12201869678E+04  0.10566000000E+00 0.  1.
        994    1    1    2    0    0 -0.14761975017E+03 -0.19592926182E+03  0.22900798540E+03  0.37674124230E+03  0.17120000000E+03 0.  0.
        998    1    1    2    0    0  0.93014205609E+01  0.10508311279E+02  0.72933858650E+02  0.74271789853E+02  0.10000000000E+00 0.  1.
</event>
<event>
 5    1  0.2313627E-009  0.3880331E+03  0.7957747E-01  0.3416910E+00
         13   -1    0    0    0    0  0.00000000000E+00  0.00000000000E+00  0.14999999963E+04  0.15000000000E+04  0.10566000000E+00 0.  1.
        994   -1    0    0    0    0 -0.00000000000E+00 -0.00000000000E+00  0.11368683772E-12  0.17120000000E+03  0.17120000000E+03 0.  0.
         13    1    1    2    0    0  0.12921549566E+03  0.23844785785E+03  0.11198741596E+04  0.11522465751E+04  0.10566000000E+00 0.  1.
        994    1    1    2    0    0 -0.13622879962E+03 -0.24594079266E+03  0.32393049714E+03  0.46182850315E+03  0.17120000000E+03 0.  0.
        998    1    1    2    0    0  0.70133039638E+01  0.74929348111E+01  0.56195339494E+02  0.57124921754E+02  0.10000000000E+00 0.  1.
</event>
<event>
 5    1  0.2313627E-009  0.3881914E+03  0.7957747E-01  0.3416249E+00
         13   -1    0    0    0    0  0.00000000000E+00  0.00000000000E+00  0.14999999963E+04  0.15000000000E+04  0.10566000000E+00 0.  1.
        994   -1    0    0    0    0 -0.00000000000E+00 -0.00000000000E+00  0.11368683772E-12  0.17120000000E+03  0.17120000000E+03 0.  0.
         13    1    1    2    0    0  0.22520422026E+03 -0.20772105787E+03  0.10743839013E+04  0.11172133893E+04  0.10566000000E+00 0.  1.
        994    1    1    2    0    0 -0.22640840534E+03  0.20913343431E+03  0.42184219282E+03  0.54977980592E+03  0.17120000000E+03 0.  0.
        998    1    1    2    0    0  0.12041850829E+01 -0.14123764348E+01  0.37739021730E+01  0.42068047873E+01  0.10000000000E+00 0. -1.
</event>
<event>
 5    1  0.2313627E-009  0.3883002E+03  0.7957747E-01  0.3415795E+00
         13   -1    0    0    0    0  0.00000000000E+00  0.00000000000E+00  0.14999999963E+04  0.15000000000E+04  0.10566000000E+00 0.  1.
        994   -1    0    0    0    0 -0.00000000000E+00 -0.00000000000E+00  0.11368683772E-12  0.17120000000E+03  0.17120000000E+03 0.  0.
         13    1    1    2    0    0 -0.24183221600E+03 -0.35294947557E+02  0.12365905038E+04  0.12605096744E+04  0.10566000000E+00 0.  1.
        994    1    1    2    0    0  0.24671755360E+03  0.36116160515E+02  0.23819554408E+03  0.38499413700E+03  0.17120000000E+03 0.  0.
        998    1    1    2    0    0 -0.48853376000E+01 -0.82121295773E+00  0.25213948428E+02  0.25696188618E+02  0.10000000000E+00 0. -1.
</event>
<event>
 5    1  0.2313627E-009  0.3871719E+03  0.7957747E-01  0.3420513E+00
         13   -1    0    0    0    0  0.00000000000E+00  0.00000000000E+00  0.14999999963E+04  0.15000000000E+04  0.10566000000E+00 0. -1.
        994   -1    0    0    0    0 -0.00000000000E+00 -0.00000000000E+00  0.11368683772E-12  0.17120000000E+03  0.17120000000E+03 0.  0.
         13    1    1    2    0    0  0.14150543670E+03  0.15667234786E+03  0.12569648127E+04  0.12745707374E+04  0.10566000000E+00 0. -1.
        994    1    1    2    0    0 -0.15614802069E+03 -0.16123389421E+03  0.18718768846E+03  0.33871410322E+03  0.17120000000E+03 0.  0.
        998    1    1    2    0    0  0.14642583990E+02  0.45615463493E+01  0.55847495169E+02  0.57915159394E+02  0.10000000000E+00 0. -1.
</event>
<event>
 5    1  0.2313627E-009  0.3876165E+03  0.7957747E-01  0.3418650E+00
         13   -1    0    0    0    0  0.00000000000E+00  0.00000000000E+00  0.14999999963E+04  0.15000000000E+04  0.10566000000E+00 0.  1.
        994   -1    0    0    0    0 -0.00000000000E+00 -0.00000000000E+00  0.11368683772E-12  0.17120000000E+03  0.17120000000E+03 0.  0.
         13    1    1    2    0    0 -0.28074024212E+03 -0.41421435233E+01  0.11220390582E+04  0.11566347307E+04  0.10566000000E+00 0.  1.
        994    1    1    2    0    0  0.28525975618E+03  0.17101679071E+01  0.33796900215E+03  0.47424523149E+03  0.17120000000E+03 0.  0.
        998    1    1    2    0    0 -0.45195140598E+01  0.24319756162E+01  0.39991935913E+02  0.40320037832E+02  0.10000000000E+00 0. -1.
</event>
<event>
 5    1  0.2313627E-009  0.3882885E+03  0.7957747E-01  0.3415844E+00
         13   -1    0    0    0    0  0.00000000000E+00  0.00000000000E+00  0.14999999963E+04  0.15000000000E+04  0.10566000000E+00 0. -1.
        994   -1    0    0    0    0 -0.00000000000E+00 -0.00000000000E+00  0.11368683772E-12  0.17120000000E+03  0.17120000000E+03 0.  0.
         13    1    1    2    0    0 -0.14265860372E+03 -0.20641611558E+03  0.95232141565E+03  0.98482241031E+03  0.10566000000E+00 0. -1.
        994    1    1    2    0    0  0.16775084556E+03  0.24326263024E+03  0.37137537268E+03  0.50452567912E+03  0.17120000000E+03 0.  0.
        998    1    1    2    0    0 -0.25092241844E+02 -0.36846514666E+02  0.17630320794E+03  0.18185191056E+03  0.10000000000E+00 0. -1.
</event>
<event>
 5    1  0.2313627E-009  0.3882992E+03  0.7957747E-01  0.3415799E+00
         13   -1    0    0    0    0  0.00000000000E+00  0.00000000000E+00  0.14999999963E+04  0.15000000000E+04  0.10566000000E+00 0.  1.
        994   -1    0    0    0    0 -0.00000000000E+00 -0.00000000000E+00  0.11368683772E-12  0.17120000000E+03  0.17120000000E+03 0.  0.
         13    1    1    2    0    0  0.13628026227E+03 -0.23291055009E+03  0.10510522776E+04  0.10851407907E+04  0.10566000000E+00 0.  1.
        994    1    1    2    0    0 -0.14733752839E+03  0.25249574289E+03  0.36011546965E+03  0.49442394656E+03  0.17120000000E+03 0.  0.
        998    1    1    2    0    0  0.11057266116E+02 -0.19585192800E+02  0.88832249018E+02  0.91635262736E+02  0.10000000000E+00 0.  1.
</event>
<event>
 5    1  0.2313627E-009  0.3882886E+03  0.7957747E-01  0.3415844E+00
         13   -1    0    0    0    0  0.00000000000E+00  0.00000000000E+00  0.14999999963E+04  0.15000000000E+04  0.10566000000E+00 0.  1.
        994   -1    0    0    0    0 -0.00000000000E+00 -0.00000000000E+00  0.11368683772E-12  0.17120000000E+03  0.17120000000E+03 0.  0.
         13    1    1    2    0    0 -0.18763238980E+03  0.10806812950E+03  0.12994937944E+04  0.13174098706E+04  0.10566000000E+00 0.  1.
        994    1    1    2    0    0  0.19051195895E+03 -0.10972731695E+03  0.17713474782E+03  0.33018335735E+03  0.17120000000E+03 0.  0.
        998    1    1    2    0    0 -0.28795691476E+01  0.16591874578E+01  0.23371454090E+02  0.23606772075E+02  0.10000000000E+00 0. -1.
</event>
<event>
 5    1  0.2313627E-009  0.3849498E+03  0.7957747E-01  0.3429885E+00
         13   -1    0    0    0    0  0.00000000000E+00  0.00000000000E+00  0.14999999963E+04  0.15000000000E+04  0.10566000000E+00 0.  1.
        994   -1    0    0    0    0 -0.00000000000E+00 -0.00000000000E+00  0.11368683772E-12  0.17120000000E+03  0.17120000000E+03 0.  0.
         13    1    1    2    0    0 -0.15771920991E+02 -0.81713896766E+01  0.67505912194E+02  0.69803899935E+02  0.10566000000E+00 0.  1.
        994    1    1    2    0    0  0.45719724915E+02  0.55151598655E+02  0.18721253617E+02  0.18652591621E+03  0.17120000000E+03 0.  0.
        998    1    1    2    0    0 -0.29947803924E+02 -0.46980208978E+02  0.14137728305E+04  0.14148701839E+04  0.10000000000E+00 0.  1.
</event>
<event>
 5    1  0.2313627E-009  0.3882375E+03  0.7957747E-01  0.3416057E+00
         13   -1    0    0    0    0  0.00000000000E+00  0.00000000000E+00  0.14999999963E+04  0.15000000000E+04  0.10566000000E+00 0.  1.
        994   -1    0    0    0    0 -0.00000000000E+00 -0.00000000000E+00  0.11368683772E-12  0.17120000000E+03  0.17120000000E+03 0.  0.
         13    1    1    2    0    0 -0.25083925409E+03  0.56494363656E+02  0.98580110723E+03  0.10187815167E+04  0.10566000000E+00 0.  1.
        994    1    1    2    0    0  0.28750770710E+03 -0.61353813691E+02  0.36607184322E+03  0.49974294042E+03  0.17120000000E+03 0.  0.
        998    1    1    2    0    0 -0.36668453004E+02  0.48594500351E+01  0.14812704583E+03  0.15267554292E+03  0.10000000000E+00 0. -1.
</event>
<event>
 5    1  0.2313627E-009  0.3882972E+03  0.7957747E-01  0.3415808E+00
         13   -1    0    0    0    0  0.00000000000E+00  0.00000000000E+00  0.14999999963E+04  0.15000000000E+04  0.10566000000E+00 0.  1.
        994   -1    0    0    0    0 -0.00000000000E+00 -0.00000000000E+00  0.11368683772E-12  0.17120000000E+03  0.17120000000E+03 0.  0.
         13    1    1    2    0    0  0.11074769007E+03 -0.23428982062E+03  0.11604237483E+04  0.11890080141E+04  0.10566000000E+00 0.  1.
        994    1    1    2    0    0 -0.11547000083E+03  0.24443912433E+03  0.29159238616E+03  0.43291958405E+03  0.17120000000E+03 0.  0.
        998    1    1    2    0    0  0.47223107555E+01 -0.10149303703E+02  0.47983861811E+02  0.49272401797E+02  0.10000000000E+00 0.  1.
</event>
<event>
 5    1  0.2313627E-009  0.3829134E+03  0.7957747E-01  0.3438570E+00
         13   -1    0    0    0    0  0.00000000000E+00  0.00000000000E+00  0.14999999963E+04  0.15000000000E+04  0.10566000000E+00 0. -1.
        994   -1    0    0    0    0 -0.00000000000E+00 -0.00000000000E+00  0.11368683772E-12  0.17120000000E+03  0.17120000000E+03 0.  0.
         13    1    1    2    0    0  0.72955942484E+02  0.50527673359E+02  0.16718452601E+03  0.18927834588E+03  0.10566000000E+00 0. -1.
        994    1    1    2    0    0  0.20837738257E+02 -0.22803914402E+03  0.24738710619E+03  0.37808184676E+03  0.17120000000E+03 0.  0.
        998    1    1    2    0    0 -0.93793680741E+02  0.17751147066E+03  0.10854283641E+04  0.11038398074E+04  0.10000000000E+00 0. -1.
</event>
<event>
 5    1  0.2313627E-009  0.3865173E+03  0.7957747E-01  0.3423263E+00
         13   -1    0    0    0    0  0.00000000000E+00  0.00000000000E+00  0.14999999963E+04  0.15000000000E+04  0.10566000000E+00 0.  1.
        994   -1    0    0    0    0 -0.00000000000E+00 -0.00000000000E+00  0.11368683772E-12  0.17120000000E+03  0.17120000000E+03 0.  0.
         13    1    1    2    0    0  0.55073163145E+01 -0.94573509179E+01  0.46537077656E+02  0.47806723169E+02  0.10566000000E+00 0.  1.
        994    1    1    2    0    0  0.14138051247E+01  0.74615444464E+02  0.19321502064E+02  0.18775575581E+03  0.17120000000E+03 0.  0.
        998    1    1    2    0    0 -0.69211214393E+01 -0.65158093546E+02  0.14341414166E+04  0.14356375210E+04  0.10000000000E+00 0.  1.
</event>
<event>
 5    1  0.2313627E-009  0.3883004E+03  0.7957747E-01  0.3415794E+00
         13   -1    0    0    0    0  0.00000000000E+00  0.00000000000E+00  0.14999999963E+04  0.15000000000E+04  0.10566000000E+00 0.  1.
        994   -1    0    0    0    0 -0.00000000000E+00 -0.00000000000E+00  0.11368683772E-12  0.17120000000E+03  0.17120000000E+03 0.  0.
         13    1    1    2    0    0  0.20191333197E+03 -0.94373104210E+02  0.12658993103E+04  0.12853701223E+04  0.10566000000E+00 0.  1.
        994    1    1    2    0    0 -0.20795030605E+03  0.97164382346E+02  0.19563895387E+03  0.34679718462E+03  0.17120000000E+03 0.  0.
        998    1    1    2    0    0  0.60369740850E+01 -0.27912781351E+01  0.38461732153E+02  0.39032693091E+02  0.10000000000E+00 0.  1.
</event>
<event>
 5    1  0.2313627E-009  0.3882949E+03  0.7957747E-01  0.3415817E+00
         13   -1    0    0    0    0  0.00000000000E+00  0.00000000000E+00  0.14999999963E+04  0.15000000000E+04  0.10566000000E+00 0. -1.
        994   -1    0    0    0    0 -0.00000000000E+00 -0.00000000000E+00  0.11368683772E-12  0.17120000000E+03  0.17120000000E+03 0.  0.
         13    1    1    2    0    0  0.14035372075E+03 -0.30266983996E+03  0.49663819064E+03  0.59829566480E+03  0.10566000000E+00 0. -1.
        994    1    1    2    0    0 -0.14118568074E+03  0.30501357364E+03  0.99954694837E+03  0.10683492961E+04  0.17120000000E+03 0.  0.
        998    1    1    2    0    0  0.83195998301E+00 -0.23437336736E+01  0.38148572640E+01  0.45550390657E+01  0.10000000000E+00 0.  1.
</event>
<event>
 5    1  0.2313627E-009  0.3883009E+03  0.7957747E-01  0.3415792E+00
         13   -1    0    0    0    0  0.00000000000E+00  0.00000000000E+00  0.14999999963E+04  0.15000000000E+04  0.10566000000E+00 0.  1.
        994   -1    0    0    0    0 -0.00000000000E+00 -0.00000000000E+00  0.11368683772E-12  0.17120000000E+03  0.17120000000E+03 0.  0.
         13    1    1    2    0    0  0.18400334375E+03 -0.71140670690E+02  0.10965983258E+04  0.11142020126E+04  0.10566000000E+00 0.  1.
        994    1    1    2    0    0 -0.21750658922E+03  0.84244263466E+02  0.20313144947E+03  0.35352233033E+03  0.17120000000E+03 0.  0.
        998    1    1    2    0    0  0.33503245471E+02 -0.13103592776E+02  0.20027022103E+03  0.20347565710E+03  0.10000000000E+00 0.  1.
</event>
<event>
 5    1  0.2313627E-009  0.3882341E+03  0.7957747E-01  0.3416071E+00
         13   -1    0    0    0    0  0.00000000000E+00  0.00000000000E+00  0.14999999963E+04  0.15000000000E+04  0.10566000000E+00 0.  1.
        994   -1    0    0    0    0 -0.00000000000E+00 -0.00000000000E+00  0.11368683772E-12  0.17120000000E+03  0.17120000000E+03 0.  0.
         13    1    1    2    0    0 -0.22482016733E+02 -0.30250884113E+02  0.19974971219E+03  0.20327448377E+03  0.10566000000E+00 0.  1.
        994    1    1    2    0    0  0.12300975069E+03  0.19583132969E+03  0.19918449925E+03  0.34995030104E+03  0.17120000000E+03 0.  0.
        998    1    1    2    0    0 -0.10052773396E+03 -0.16558044558E+03  0.11010657848E+04  0.11179752152E+04  0.10000000000E+00 0.  1.
</event>
<event>
 5    1  0.2313627E-009  0.3716909E+03  0.7957747E-01  0.3488156E+00
         13   -1    0    0    0    0  0.00000000000E+00  0.00000000000E+00  0.14999999963E+04  0.15000000000E+04  0.10566000000E+00 0. -1.
        994   -1    0    0    0    0 -0.00000000000E+00 -0.00000000000E+00  0.11368683772E-12  0.17120000000E+03  0.17120000000E+03 0.  0.
         13    1    1    2    0    0  0.12182949704E+02  0.29561054226E+03  0.99039382151E+03  0.10336411127E+04  0.10566000000E+00 0. -1.
        994    1    1    2    0    0  0.12752261209E+02 -0.30910384813E+03  0.48371240540E+03  0.59916186480E+03  0.17120000000E+03 0.  0.
        998    1    1    2    0    0 -0.24935210913E+02  0.13493305869E+02  0.25893769370E+02  0.38397022524E+02  0.10000000000E+00 0.  1.
</event>
<event>
 5    1  0.2313627E-009  0.3882995E+03  0.7957747E-01  0.3415798E+00
         13   -1    0    0    0    0  0.00000000000E+00  0.00000000000E+00  0.14999999963E+04  0.15000000000E+04  0.10566000000E+00 0. -1.
        994   -1    0    0    0    0 -0.00000000000E+00 -0.00000000000E+00  0.11368683772E-12  0.17120000000E+03  0.17120000000E+03 0.  0.
         13    1    1    2    0    0 -0.22594259933E+03 -0.10121441376E+02  0.13009669559E+04  0.13204800390E+04  0.10566000000E+00 0. -1.
        994    1    1    2    0    0  0.22727199397E+03  0.10180400691E+02  0.19164059960E+03  0.34320804072E+03  0.17120000000E+03 0.  0.
        998    1    1    2    0    0 -0.13293946420E+01 -0.58959314158E-01  0.73924407698E+01  0.75119203171E+01  0.10000000000E+00 0.  1.
</event>
<event>
 5    1  0.2313627E-009  0.3883009E+03  0.7957747E-01  0.3415792E+00
         13   -1    0    0    0    0  0.00000000000E+00  0.00000000000E+00  0.14999999963E+04  0.15000000000E+04  0.10566000000E+00 0. -1.
        994   -1    0    0    0    0 -0.00000000000E+00 -0.00000000000E+00  0.11368683772E-12  0.17120000000E+03  0.17120000000E+03 0.  0.
         13    1    1    2    0    0  0.16132238289E+03 -0.15214376013E+03  0.10899832277E+04  0.11123111448E+04  0.10566000000E+00 0. -1.
        994    1    1    2    0    0 -0.18499809912E+03  0.17448857631E+03  0.24994689464E+03  0.39554197006E+03  0.17120000000E+03 0.  0.
        998    1    1    2    0    0  0.23675716230E+02 -0.22344816179E+02  0.16006987391E+03  0.16334688514E+03  0.10000000000E+00 0.  0.
</event>
<event>
 5    1  0.2313627E-009  0.3867755E+03  0.7957747E-01  0.3422177E+00
         13   -1    0    0    0    0  0.00000000000E+00  0.00000000000E+00  0.14999999963E+04  0.15000000000E+04  0.10566000000E+00 0. -1.
        994   -1    0    0    0    0 -0.00000000000E+00 -0.00000000000E+00  0.11368683772E-12  0.17120000000E+03  0.17120000000E+03 0.  0.
         13    1    1    2    0    0  0.21019477989E+02 -0.15188012786E+03  0.89288549416E+03  0.90595469453E+03  0.10566000000E+00 0. -1.
        994    1    1    2    0    0 -0.62826201774E+02  0.22053435453E+03  0.19722399868E+03  0.34754752023E+03  0.17120000000E+03 0.  0.
        998    1    1    2    0    0  0.41806723785E+02 -0.68654226672E+02  0.40989050343E+03  0.41769778524E+03  0.10000000000E+00 0. -1.
</event>
<event>
 5    1  0.2313627E-009  0.3873394E+03  0.7957747E-01  0.3419811E+00
         13   -1    0    0    0    0  0.00000000000E+00  0.00000000000E+00  0.14999999963E+04  0.15000000000E+04  0.10566000000E+00 0. -1.
        994   -1    0    0    0    0 -0.00000000000E+00 -0.00000000000E+00  0.11368683772E-12  0.17120000000E+03  0.17120000000E+03 0.  0.
         13    1    1    2    0    0 -0.16878416650E+02 -0.80429271777E+01  0.10424847562E+03  0.10591187591E+03  0.10566000000E+00 0. -1.
        994    1    1    2    0    0  0.11483216097E+03  0.46404269529E+02  0.52241380636E+02  0.21766576046E+03  0.17120000000E+03 0.  0.
        998    1    1    2    0    0 -0.97953744323E+02 -0.38361342351E+02  0.13435101400E+04  0.13476223636E+04  0.10000000000E+00 0. -1.
</event>
<event>
 5    1  0.2313627E-009  0.3882978E+03  0.7957747E-01  0.3415805E+00
         13   -1    0    0    0    0  0.00000000000E+00  0.00000000000E+00  0.14999999963E+04  0.15000000000E+04  0.10566000000E+00 0. -1.
        994   -1    0    0    0    0 -0.00000000000E+00 -0.00000000000E+00  0.11368683772E-12  0.17120000000E+03  0.17120000000E+03 0.  0.
         13    1    1    2    0    0  0.54072069670E+02 -0.23934501626E+03  0.12653002783E+04  0.12888733960E+04  0.10566000000E+00 0. -1.
        994    1    1    2    0    0 -0.54253209915E+02  0.24002980988E+03  0.23072273198E+03  0.37828579073E+03  0.17120000000E+03 0.  0.
        998    1    1    2    0    0  0.18114024468E+00 -0.68479362236E+00  0.39769860135E+01  0.40408132653E+01  0.10000000000E+00 0.  0.
</event>
<event>
 5    1  0.2313627E-009  0.3882700E+03  0.7957747E-01  0.3415921E+00
         13   -1    0    0    0    0  0.00000000000E+00  0.00000000000E+00  0.14999999963E+04  0.15000000000E+04  0.10566000000E+00 0. -1.
        994   -1    0    0    0    0 -0.00000000000E+00 -0.00000000000E+00  0.11368683772E-12  0.17120000000E+03  0.17120000000E+03 0.  0.
         13    1    1    2    0    0  0.10613512591E+03  0.23440751545E+03  0.10634047933E+04  0.10940938322E+04  0.10566000000E+00 0. -1.
        994    1    1    2    0    0 -0.11759246069E+03 -0.25893170646E+03  0.33357995190E+03  0.47059392233E+03  0.17120000000E+03 0.  0.
        998    1    1    2    0    0  0.11457334783E+02  0.24524191004E+02  0.10301525112E+03  0.10651224544E+03  0.10000000000E+00 0. -1.
</event>
<event>
 5    1  0.2313627E-009  0.3881992E+03  0.7957747E-01  0.3416216E+00
         13   -1    0    0    0    0  0.00000000000E+00  0.00000000000E+00  0.14999999963E+04  0.15000000000E+04  0.10566000000E+00 0.  1.
        994   -1    0    0    0    0 -0.00000000000E+00 -0.00000000000E+00  0.11368683772E-12  0.17120000000E+03  0.17120000000E+03 0.  0.
         13    1    1    2    0    0 -0.17250109092E+03  0.24536828749E+03  0.11052458956E+04  0.11452208188E+04  0.10566000000E+00 0.  1.
        994    1    1    2    0    0  0.17243963102E+03 -0.24612013892E+03  0.39043353272E+03  0.52159211325E+03  0.17120000000E+03 0.  0.
        998    1    1    2    0    0  0.61459897796E-01  0.75185142389E+00  0.43205679104E+01  0.43870679219E+01  0.10000000000E+00 0. -1.
</event>
<event>
 5    1  0.2313627E-009  0.3883004E+03  0.7957747E-01  0.3415794E+00
         13   -1    0    0    0    0  0.00000000000E+00  0.00000000000E+00  0.14999999963E+04  0.15000000000E+04  0.10566000000E+00 0.  1.
        994   -1    0    0    0    0 -0.00000000000E+00 -0.00000000000E+00  0.11368683772E-12  0.17120000000E+03  0.17120000000E+03 0.  0.
         13    1    1    2    0    0 -0.11728890650E+03 -0.12850870138E+03  0.97823330658E+03  0.99358521889E+03  0.10566000000E+00 0.  1.
        994    1    1    2    0    0  0.15631050278E+03  0.17106468088E+03  0.20003052312E+03  0.35073886084E+03  0.17120000000E+03 0.  0.
        998    1    1    2    0    0 -0.39021596288E+02 -0.42555979506E+02  0.32173616658E+03  0.32687592027E+03  0.10000000000E+00 0.  1.
</event>
<event>
 5    1  0.2313627E-009  0.3876254E+03  0.7957747E-01  0.3418613E+00
         13   -1    0    0    0    0  0.00000000000E+00  0.00000000000E+00  0.14999999963E+04  0.15000000000E+04  0.10566000000E+00 0.  1.
        994   -1    0    0    0    0 -0.00000000000E+00 -0.00000000000E+00  0.11368683772E-12  0.17120000000E+03  0.17120000000E+03 0.  0.
         13    1    1    2    0    0 -0.14137632232E+03 -0.96061255587E+02  0.99490298402E+03  0.10094785724E+04  0.10566000000E+00 0.  1.
        994    1    1    2    0    0  0.20048587337E+03  0.11868097922E+03  0.20350033715E+03  0.35355563561E+03  0.17120000000E+03 0.  0.
        998    1    1    2    0    0 -0.59109551050E+02 -0.22619723635E+02  0.30159667511E+03  0.30816579200E+03  0.10000000000E+00 0. -1.
</event>
<event>
 5    1  0.2313627E-009  0.3864644E+03  0.7957747E-01  0.3423485E+00
         13   -1    0    0    0    0  0.00000000000E+00  0.00000000000E+00  0.14999999963E+04  0.15000000000E+04  0.10566000000E+00 0. -1.
        994   -1    0    0    0    0 -0.00000000000E+00 -0.00000000000E+00  0.11368683772E-12  0.17120000000E+03  0.17120000000E+03 0.  0.
         13    1    1    2    0    0 -0.46426015459E+02  0.22010636370E+03  0.83177547873E+03  0.86165691806E+03  0.10566000000E+00 0. -1.
        994    1    1    2    0    0  0.56513748895E+02 -0.27656046065E+03  0.33105851739E+03  0.46753467695E+03  0.17120000000E+03 0.  0.
        998    1    1    2    0    0 -0.10087733436E+02  0.56454096954E+02  0.33716600015E+03  0.34200840500E+03  0.10000000000E+00 0.  1.
</event>
<event>
 5    1  0.2313627E-009  0.3882820E+03  0.7957747E-01  0.3415871E+00
         13   -1    0    0    0    0  0.00000000000E+00  0.00000000000E+00  0.14999999963E+04  0.15000000000E+04  0.10566000000E+00 0.  1.
        994   -1    0    0    0    0 -0.00000000000E+00 -0.00000000000E+00  0.11368683772E-12  0.17120000000E+03  0.17120000000E+03 0.  0.
         13    1    1    2    0    0  0.23301104703E+03 -0.44783434937E+02  0.10739278866E+04  0.10998276324E+04  0.10566000000E+00 0.  1.
        994    1    1    2    0    0 -0.26252054468E+03  0.49562901024E+02  0.28287987252E+03  0.42509290728E+03  0.17120000000E+03 0.  0.
        998    1    1    2    0    0  0.29509497656E+02 -0.47794660871E+01  0.14319223711E+03  0.14627946033E+03  0.10000000000E+00 0. -1.
</event>
<event>
 5    1  0.2313627E-009  0.3879197E+03  0.7957747E-01  0.3417383E+00
         13   -1    0    0    0    0  0.00000000000E+00  0.00000000000E+00  0.14999999963E+04  0.15000000000E+04  0.10566000000E+00 0. -1.
        994   -1    0    0    0    0 -0.00000000000E+00 -0.00000000000E+00  0.11368683772E-12  0.17120000000E+03  0.17120000000E+03 0.  0.
         13    1    1    2    0    0  0.25430066234E+03  0.23393159686E+02  0.12253100900E+04  0.12516392830E+04  0.10566000000E+00 0. -1.
        994    1    1    2    0    0 -0.25859881708E+03 -0.24514627125E+02  0.26412747029E+03  0.40810179576E+03  0.17120000000E+03 0.  0.
        998    1    1    2    0    0  0.42981547394E+01  0.11214674395E+01  0.10562435935E+02  0.11458921252E+02  0.10000000000E+00 0. -1.
</event>
<event>
 5    1  0.2313627E-009  0.3882548E+03  0.7957747E-01  0.3415984E+00
         13   -1    0    0    0    0  0.00000000000E+00  0.00000000000E+00  0.14999999963E+04  0.15000000000E+04  0.10566000000E+00 0. -1.
        994   -1    0    0    0    0 -0.00000000000E+00 -0.00000000000E+00  0.11368683772E-12  0.17120000000E+03  0.17120000000E+03 0.  0.
         13    1    1    2    0    0 -0.19406687087E+03 -0.98852889499E+02  0.13001781418E+04  0.13182932358E+04  0.10566000000E+00 0. -1.
        994    1    1    2    0    0  0.19706576150E+03  0.99415062370E+02  0.17878618127E+03  0.33165073134E+03  0.17120000000E+03 0.  0.
        998    1    1    2    0    0 -0.29988906324E+01 -0.56217287093E+00  0.21035673244E+02  0.21256032842E+02  0.10000000000E+00 0.  1.
</event>
<event>
 5    1  0.2313627E-009  0.3881915E+03  0.7957747E-01  0.3416249E+00
         13   -1    0    0    0    0  0.00000000000E+00  0.00000000000E+00  0.14999999963E+04  0.15000000000E+04  0.10566000000E+00 0. -1.
        994   -1    0    0    0    0 -0.00000000000E+00 -0.00000000000E+00  0.11368683772E-12  0.17120000000E+03  0.17120000000E+03 0.  0.
         13    1    1    2    0    0 -0.14158675642E+03 -0.28949974955E+03  0.10014887191E+04  0.10520630115E+04  0.10566000000E+00 0. -1.
        994    1    1    2    0    0  0.14138391394E+03  0.29047725149E+03  0.49439522909E+03  0.61490042064E+03  0.17120000000E+03 0.  0.
        998    1    1    2    0    0  0.20284248677E+00 -0.97750193687E+00  0.41160480858E+01  0.42365678274E+01  0.10000000000E+00 0.  1.
</event>
<event>
 5    1  0.2313627E-009  0.3876475E+03  0.7957747E-01  0.3418521E+00
         13   -1    0    0    0    0  0.00000000000E+00  0.00000000000E+00  0.14999999963E+04  0.15000000000E+04  0.10566000000E+00 0. -1.
        994   -1    0    0    0    0 -0.00000000000E+00 -0.00000000000E+00  0.11368683772E-12  0.17120000000E+03  0.17120000000E+03 0.  0.
         13    1    1    2    0    0  0.50319426195E+02  0.97976839065E+02  0.65702055210E+03  0.66618880409E+03  0.10566000000E+00 0. -1.
        994    1    1    2    0    0 -0.12387997995E+03 -0.17594320082E+03  0.16942484967E+03  0.32298061712E+03  0.17120000000E+03 0.  0.
        998    1    1    2    0    0  0.73560553754E+02  0.77966361752E+02  0.67355459450E+03  0.68203057879E+03  0.10000000000E+00 0. -1.
</event>
<event>
 5    1  0.2313627E-009  0.3809213E+03  0.7957747E-01  0.3447157E+00
         13   -1    0    0    0    0  0.00000000000E+00  0.00000000000E+00  0.14999999963E+04  0.15000000000E+04  0.10566000000E+00 0.  1.
        994   -1    0    0    0    0 -0.00000000000E+00 -0.00000000000E+00  0.11368683772E-12  0.17120000000E+03  0.17120000000E+03 0.  0.
         13    1    1    2    0    0  0.83426734021E+02  0.11166427059E+03  0.49825516283E+03  0.51738491254E+03  0.10566000000E+00 0.  1.
        994    1    1    2    0    0 -0.22531880442E+03 -0.20573194706E+03  0.87262246080E+03  0.94014551893E+03  0.17120000000E+03 0.  0.
        998    1    1    2    0    0  0.14189207040E+03  0.94067676473E+02  0.12912237266E+03  0.21366956854E+03  0.10000000000E+00 0. -1.
</event>
<event>
 5    1  0.2313627E-009  0.3882209E+03  0.7957747E-01  0.3416126E+00
         13   -1    0    0    0    0  0.00000000000E+00  0.00000000000E+00  0.14999999963E+04  0.15000000000E+04  0.10566000000E+00 0. -1.
        994   -1    0    0    0    0 -0.00000000000E+00 -0.00000000000E+00  0.11368683772E-12  0.17120000000E+03  0.17120000000E+03 0.  0.
         13    1    1    2    0    0 -0.24128499453E+03  0.74216198763E+02  0.12499985238E+04  0.12752344151E+04  0.10566000000E+00 0. -1.
        994    1    1    2    0    0  0.24186892093E+03 -0.73865427414E+02  0.24669154724E+03  0.39258481346E+03  0.17120000000E+03 0.  0.
        998    1    1    2    0    0 -0.58392640150E+00 -0.35077134842E+00  0.33099252317E+01  0.33807714535E+01  0.10000000000E+00 0.  1.
</event>
<event>
 5    1  0.2547841E-009  0.3882905E+03  0.7957747E-01  0.3415836E+00
         13   -1    0    0    0    0  0.00000000000E+00  0.00000000000E+00  0.14999999963E+04  0.15000000000E+04  0.10566000000E+00 0. -1.
        994   -1    0    0    0    0 -0.00000000000E+00 -0.00000000000E+00  0.11368683772E-12  0.17120000000E+03  0.17120000000E+03 0.  0.
         13    1    1    2    0    0 -0.26716049201E+03 -0.68699263313E+02  0.11911627310E+04  0.12226867875E+04  0.10566000000E+00 0. -1.
        994    1    1    2    0    0  0.26735964641E+03  0.68776621635E+02  0.30800111896E+03  0.44764442753E+03  0.17120000000E+03 0.  0.
        998    1    1    2    0    0 -0.19915440476E+00 -0.77358321689E-01  0.83614629379E+00  0.86878502029E+00  0.10000000000E+00 0.  0.
</event>
<event>
 5    1  0.2313627E-009  0.3870928E+03  0.7957747E-01  0.3420844E+00
         13   -1    0    0    0    0  0.00000000000E+00  0.00000000000E+00  0.14999999963E+04  0.15000000000E+04  0.10566000000E+00 0.  1.
        994   -1    0    0    0    0 -0.00000000000E+00 -0.00000000000E+00  0.11368683772E-12  0.17120000000E+03  0.17120000000E+03 0.  0.
         13    1    1    2    0    0 -0.19646155869E+03 -0.74355159847E+02  0.84686547647E+03  0.87252907129E+03  0.10566000000E+00 0.  1.
        994    1    1    2    0    0  0.26606073049E+03  0.78729233308E+02  0.31473376534E+03  0.45315934011E+03  0.17120000000E+03 0.  0.
        998    1    1    2    0    0 -0.69599171801E+02 -0.43740734618E+01  0.33840075446E+03  0.34551158860E+03  0.10000000000E+00 0.  1.
</event>
<event>
 5    1  0.2313627E-009  0.3882971E+03  0.7957747E-01  0.3415808E+00
         13   -1    0    0    0    0  0.00000000000E+00  0.00000000000E+00  0.14999999963E+04  0.15000000000E+04  0.10566000000E+00 0.  1.
        994   -1    0    0    0    0 -0.00000000000E+00 -0.00000000000E+00  0.11368683772E-12  0.17120000000E+03  0.17120000000E+03 0.  0.
         13    1    1    2    0    0  0.21877489592E+03 -0.12351022963E+03  0.12519260645E+04  0.12768853175E+04  0.10566000000E+00 0.  1.
        994    1    1    2    0    0 -0.21935924021E+03  0.12387212191E+03  0.24423611762E+03  0.39041452330E+03  0.17120000000E+03 0.  0.
        998    1    1    2    0    0  0.58434429277E+00 -0.36189227388E+00  0.38378141977E+01  0.39001592386E+01  0.10000000000E+00 0.  0.
</event>
<event>
 5    1  0.2313627E-009  0.3880910E+03  0.7957747E-01  0.3416668E+00
         13   -1    0    0    0    0  0.00000000000E+00  0.00000000000E+00  0.14999999963E+04  0.15000000000E+04  0.10566000000E+00 0. -1.
        994   -1    0    0    0    0 -0.00000000000E+00 -0.00000000000E+00  0.11368683772E-12  0.17120000000E+03  0.17120000000E+03 0.  0.
         13    1    1    2    0    0 -0.22290036412E+03  0.26420059413E+02  0.12970488887E+04  0.13163276274E+04  0.10566000000E+00 0. -1.
        994    1    1    2    0    0  0.22401314491E+03 -0.27966859832E+02  0.18851500527E+03  0.34031071325E+03  0.17120000000E+03 0.  0.
        998    1    1    2    0    0 -0.11127807920E+01  0.15468004195E+01  0.14436102311E+02  0.14561659334E+02  0.10000000000E+00 0. -1.
</event>
<event>
 5    1  0.2313627E-009  0.3788635E+03  0.7957747E-01  0.3456122E+00
         13   -1    0    0    0    0  0.00000000000E+00  0.00000000000E+00  0.14999999963E+04  0.15000000000E+04  0.10566000000E+00 0. -1.
        994   -1    0    0    0    0 -0.00000000000E+00 -0.00000000000E+00  0.11368683772E-12  0.17120000000E+03  0.17120000000E+03 0.  0.
         13    1    1    2    0    0  0.21662387975E+02  0.10079670306E+02  0.89366144986E+02  0.92505015215E+02  0.10566000000E+00 0. -1.
        994    1    1    2    0    0 -0.61052890742E+01  0.14681098434E+03  0.80945147287E+02  0.23969208695E+03  0.17120000000E+03 0.  0.
        998    1    1    2    0    0 -0.15557098901E+02 -0.15689065465E+03  0.13296887040E+04  0.13390028978E+04  0.10000000000E+00 0. -1.
</event>
<event>
 5    1  0.2313627E-009  0.3882925E+03  0.7957747E-01  0.3415827E+00
         13   -1    0    0    0    0  0.00000000000E+00  0.00000000000E+00  0.14999999963E+04  0.15000000000E+04  0.10566000000E+00 0.  1.
        994   -1    0    0    0    0 -0.00000000000E+00 -0.00000000000E+00  0.11368683772E-12  0.17120000000E+03  0.17120000000E+03 0.  0.
         13    1    1    2    0    0 -0.21643251993E+03  0.70744564429E+02  0.13008794179E+04  0.13206570713E+04  0.10566000000E+00 0.  1.
        994    1    1    2    0    0  0.21715320851E+03 -0.71005695014E+02  0.19354754277E+03  0.34491653484E+03  0.17120000000E+03 0.  0.
        998    1    1    2    0    0 -0.72068858882E+00  0.26113058469E+00  0.55730356264E+01  0.56263938111E+01  0.10000000000E+00 0. -1.
</event>
<event>
 5    1  0.2313627E-009  0.3882585E+03  0.7957747E-01  0.3415969E+00
         13   -1    0    0    0    0  0.00000000000E+00  0.00000000000E+00  0.14999999963E+04  0.15000000000E+04  0.10566000000E+00 0. -1.
        994   -1    0    0    0    0 -0.00000000000E+00 -0.00000000000E+00  0.11368683772E-12  0.17120000000E+03  0.17120000000E+03 0.  0.
         13    1    1    2    0    0 -0.12533300387E+03  0.17711651825E+03  0.12371135966E+04  0.12559970880E+04  0.10566000000E+00 0. -1.
        994    1    1    2    0    0  0.13389092182E+03 -0.18689757858E+03  0.19644407658E+03  0.34750136554E+03  0.17120000000E+03 0.  0.
        998    1    1    2    0    0 -0.85579179484E+01  0.97810603337E+01  0.66442323058E+02  0.67701546469E+02  0.10000000000E+00 0.  1.
</event>
<event>
 5    1  0.2313627E-009  0.3882994E+03  0.7957747E-01  0.3415799E+00
         13   -1    0    0    0    0  0.00000000000E+00  0.00000000000E+00  0.14999999963E+04  0.15000000000E+04  0.10566000000E+00 0.  1.
        994   -1    0    0    0    0 -0.00000000000E+00 -0.00000000000E+00  0.11368683772E-12  0.17120000000E+03  0.17120000000E+03 0.  0.
         13    1    1    2    0    0  0.18127002996E+03  0.76969936524E+02  0.11785495358E+04  0.11948900428E+04  0.10566000000E+00 0.  1.
        994    1    1    2    0    0 -0.20308050950E+03 -0.85832565973E+02  0.17827183656E+03  0.33120871128E+03  0.17120000000E+03 0.  0.
        998    1    1    2    0    0  0.21810479538E+02  0.88626294486E+01  0.14317862391E+03  0.14510124591E+03  0.10000000000E+00 0. -1.
</event>
<event>
 5    1  0.2313627E-009  0.3883007E+03  0.7957747E-01  0.3415793E+00
         13   -1    0    0    0    0  0.00000000000E+00  0.00000000000E+00  0.14999999963E+04  0.15000000000E+04  0.10566000000E+00 0. -1.
        994   -1    0    0    0    0 -0.00000000000E+00 -0.00000000000E+00  0.11368683772E-12  0.17120000000E+03  0.17120000000E+03 0.  0.
         13    1    1    2    0    0  0.10087571827E+03 -0.11174174552E+03  0.36314605625E+03  0.39311219462E+03  0.10566000000E+00 0. -1.
        994    1    1    2    0    0 -0.23040085935E+03  0.25607024720E+03  0.67022637389E+03  0.77276733869E+03  0.17120000000E+03 0.  0.
        998    1    1    2    0    0  0.12952514108E+03 -0.14432850168E+03  0.46662756615E+03  0.50532046669E+03  0.10000000000E+00 0. -1.
</event>
<event>
 5    1  0.2313627E-009  0.3882590E+03  0.7957747E-01  0.3415967E+00
         13   -1    0    0    0    0  0.00000000000E+00  0.00000000000E+00  0.14999999963E+04  0.15000000000E+04  0.10566000000E+00 0. -1.
        994   -1    0    0    0    0 -0.00000000000E+00 -0.00000000000E+00  0.11368683772E-12  0.17120000000E+03  0.17120000000E+03 0.  0.
         13    1    1    2    0    0  0.15276264734E+02 -0.15017437845E+03  0.73610851046E+03  0.75142628284E+03  0.10566000000E+00 0. -1.
        994    1    1    2    0    0 -0.20948438636E+02  0.25159995077E+03  0.24561168001E+03  0.39163236545E+03  0.17120000000E+03 0.  0.
        998    1    1    2    0    0  0.56721739028E+01 -0.10142557232E+03  0.51827980580E+03  0.52814135170E+03  0.10000000000E+00 0. -1.
</event>
<event>
 5    1  0.2313627E-009  0.3882564E+03  0.7957747E-01  0.3415978E+00
         13   -1    0    0    0    0  0.00000000000E+00  0.00000000000E+00  0.14999999963E+04  0.15000000000E+04  0.10566000000E+00 0.  1.
        994   -1    0    0    0    0 -0.00000000000E+00 -0.00000000000E+00  0.11368683772E-12  0.17120000000E+03  0.17120000000E+03 0.  0.
         13    1    1    2    0    0 -0.12372708852E+03  0.24897064394E+03  0.11855853926E+04  0.12177468983E+04  0.10566000000E+00 0.  1.
        994    1    1    2    0    0  0.12370038231E+03 -0.24908098068E+03  0.31414623325E+03  0.45314502688E+03  0.17120000000E+03 0.  0.
        998    1    1    2    0    0  0.26706210684E-01  0.11033674113E+00  0.26837045701E+00  0.30807486156E+00  0.10000000000E+00 0.  0.
</event>
<event>
 5    1  0.2313627E-009  0.3882792E+03  0.7957747E-01  0.3415883E+00
         13   -1    0    0    0    0  0.00000000000E+00  0.00000000000E+00  0.14999999963E+04  0.15000000000E+04  0.10566000000E+00 0. -1.
        994   -1    0    0    0    0 -0.00000000000E+00 -0.00000000000E+00  0.11368683772E-12  0.17120000000E+03  0.17120000000E+03 0.  0.
         13    1    1    2    0    0 -0.18069446493E+03 -0.23597197198E+03  0.78039545791E+03  0.83507505238E+03  0.10566000000E+00 0. -1.
        994    1    1    2    0    0  0.20574408552E+03  0.26907845176E+03  0.60455032749E+03  0.71380976485E+03  0.17120000000E+03 0.  0.
        998    1    1    2    0    0 -0.25049620591E+02 -0.33106479773E+02  0.11505421088E+03  0.12231518276E+03  0.10000000000E+00 0. -1.
</event>
<event>
 5    1  0.2313627E-009  0.3882588E+03  0.7957747E-01  0.3415968E+00
         13   -1    0    0    0    0  0.00000000000E+00  0.00000000000E+00  0.14999999963E+04  0.15000000000E+04  0.10566000000E+00 0.  1.
        994   -1    0    0    0    0 -0.00000000000E+00 -0.00000000000E+00  0.11368683772E-12  0.17120000000E+03  0.17120000000E+03 0.  0.
         13    1    1    2    0    0  0.19970727772E+03 -0.58753894150E+01  0.99768627881E+03  0.10174946875E+04  0.10566000000E+00 0.  1.
        994    1    1    2    0    0 -0.24883844141E+03  0.61518753185E+01  0.23725798932E+03  0.38413436320E+03  0.17120000000E+03 0.  0.
        998    1    1    2    0    0  0.49131163688E+02 -0.27648590353E+00  0.26505572815E+03  0.26957094931E+03  0.10000000000E+00 0.  1.
</event>
<event>
 5    1  0.2313627E-009  0.3879582E+03  0.7957747E-01  0.3417222E+00
         13   -1    0    0    0    0  0.00000000000E+00  0.00000000000E+00  0.14999999963E+04  0.15000000000E+04  0.10566000000E+00 0. -1.
        994   -1    0    0    0    0 -0.00000000000E+00 -0.00000000000E+00  0.11368683772E-12  0.17120000000E+03  0.17120000000E+03 0.  0.
         13    1    1    2    0    0  0.20973961677E+03  0.34706294059E+02  0.45423390668E+03  0.50152137226E+03  0.10566000000E+00 0. -1.
        994    1    1    2    0    0 -0.34055497833E+03 -0.65454574070E+02  0.72024804496E+03  0.81751371903E+03  0.17120000000E+03 0.  0.
        998    1    1    2    0    0  0.13081536156E+03  0.30748280011E+02  0.32551804464E+03  0.35216490871E+03  0.10000000000E+00 0. -1.
</event>
<event>
 5    1  0.2313627E-009  0.3864887E+03  0.7957747E-01  0.3423383E+00
         13   -1    0    0    0    0  0.00000000000E+00  0.00000000000E+00  0.14999999963E+04  0.15000000000E+04  0.10566000000E+00 0.  1.
        994   -1    0    0    0    0 -0.00000000000E+00 -0.00000000000E+00  0.11368683772E-12  0.17120000000E+03  0.17120000000E+03 0.  0.
         13    1    1    2    0    0 -0.30708350987E+02  0.97541299243E+02  0.44715774337E+03  0.45870182744E+03  0.10566000000E+00 0.  1.
        994    1    1    2    0    0  0.63911030646E+02 -0.21718466182E+03  0.19183507576E+03  0.34258419908E+03  0.17120000000E+03 0.  0.
        998    1    1    2    0    0 -0.33202679659E+02  0.11964336258E+03  0.86100717716E+03  0.86991397348E+03  0.10000000000E+00 0.  1.
</event>
<event>
 5    1  0.2313627E-009  0.3859875E+03  0.7957747E-01  0.3425495E+00
         13   -1    0    0    0    0  0.00000000000E+00  0.00000000000E+00  0.14999999963E+04  0.15000000000E+04  0.10566000000E+00 0.  1.
        994   -1    0    0    0    0 -0.00000000000E+00 -0.00000000000E+00  0.11368683772E-12  0.17120000000E+03  0.17120000000E+03 0.  0.
         13    1    1    2    0    0  0.19356488913E+02 -0.61504636476E+01  0.10904054082E+03  0.11091597077E+03  0.10566000000E+00 0.  1.
        994    1    1    2    0    0 -0.96886323819E+02 -0.45254447500E+02  0.39567023480E+02  0.20569373862E+03  0.17120000000E+03 0.  0.
        998    1    1    2    0    0  0.77529834906E+02  0.51404911148E+02  0.13513924320E+04  0.13545902906E+04  0.10000000000E+00 0.  1.
</event>
<event>
 5    1  0.2313627E-009  0.3882708E+03  0.7957747E-01  0.3415918E+00
         13   -1    0    0    0    0  0.00000000000E+00  0.00000000000E+00  0.14999999963E+04  0.15000000000E+04  0.10566000000E+00 0.  1.
        994   -1    0    0    0    0 -0.00000000000E+00 -0.00000000000E+00  0.11368683772E-12  0.17120000000E+03  0.17120000000E+03 0.  0.
         13    1    1    2    0    0 -0.62701309492E+02  0.10568191758E+02  0.37221991255E+03  0.37761199048E+03  0.10566000000E+00 0.  1.
        994    1    1    2    0    0  0.22593720406E+03 -0.45366634618E+02  0.19750384188E+03  0.34845797347E+03  0.17120000000E+03 0.  0.
        998    1    1    2    0    0 -0.16323589457E+03  0.34798442860E+02  0.93027624185E+03  0.94513003605E+03  0.10000000000E+00 0.  1.
</event>
<event>
 5    1  0.2313627E-009  0.3883007E+03  0.7957747E-01  0.3415793E+00
         13   -1    0    0    0    0  0.00000000000E+00  0.00000000000E+00  0.14999999963E+04  0.15000000000E+04  0.10566000000E+00 0.  1.
        994   -1    0    0    0    0 -0.00000000000E+00 -0.00000000000E+00  0.11368683772E-12  0.17120000000E+03  0.17120000000E+03 0.  0.
         13    1    1    2    0    0  0.14044583270E+03  0.95771150728E+02  0.94345801701E+03  0.95865018972E+03  0.10566000000E+00 0.  1.
        994    1    1    2    0    0 -0.19309111627E+03 -0.13187904846E+03  0.20431552542E+03  0.35458502017E+03  0.17120000000E+03 0.  0.
        998    1    1    2    0    0  0.52645283570E+02  0.36107897736E+02  0.35222645385E+03  0.35796479010E+03  0.10000000000E+00 0.  1.
</event>
<event>
 5    1  0.2313627E-009  0.3882884E+03  0.7957747E-01  0.3415844E+00
         13   -1    0    0    0    0  0.00000000000E+00  0.00000000000E+00  0.14999999963E+04  0.15000000000E+04  0.10566000000E+00 0.  1.
        994   -1    0    0    0    0 -0.00000000000E+00 -0.00000000000E+00  0.11368683772E-12  0.17120000000E+03  0.17120000000E+03 0.  0.
         13    1    1    2    0    0 -0.85921485471E+02  0.21342852725E+03  0.13012611398E+04  0.13214442111E+04  0.10566000000E+00 0.  1.
        994    1    1    2    0    0  0.86118959764E+02 -0.21364457284E+03  0.19728402107E+03  0.34826843628E+03  0.17120000000E+03 0.  0.
        998    1    1    2    0    0 -0.19747429362E+00  0.21604559519E+00  0.14548353747E+01  0.14873526022E+01  0.10000000000E+00 0.  0.
</event>
<event>
 5    1  0.2313627E-009  0.3830324E+03  0.7957747E-01  0.3438060E+00
         13   -1    0    0    0    0  0.00000000000E+00  0.00000000000E+00  0.14999999963E+04  0.15000000000E+04  0.10566000000E+00 0.  1.
        994   -1    0    0    0    0 -0.00000000000E+00 -0.00000000000E+00  0.11368683772E-12  0.17120000000E+03  0.17120000000E+03 0.  0.
         13    1    1    2    0    0  0.68606825506E+02  0.20343567012E+02  0.35021689011E+03  0.35745298782E+03  0.10566000000E+00 0.  1.
        994    1    1    2    0    0 -0.16886240975E+03 -0.19138451912E+03  0.26125398825E+03  0.40336786432E+03  0.17120000000E+03 0.  0.
        998    1    1    2    0    0  0.10025558424E+03  0.17104095210E+03  0.88852911792E+03  0.91037914786E+03  0.10000000000E+00 0.  1.
</event>
<event>
 5    1  0.2313627E-009  0.3831188E+03  0.7957747E-01  0.3437690E+00
         13   -1    0    0    0    0  0.00000000000E+00  0.00000000000E+00  0.14999999963E+04  0.15000000000E+04  0.10566000000E+00 0. -1.
        994   -1    0    0    0    0 -0.00000000000E+00 -0.00000000000E+00  0.11368683772E-12  0.17120000000E+03  0.17120000000E+03 0.  0.
         13    1    1    2    0    0  0.87781536214E+02  0.15165602584E+03  0.84443674721E+03  0.86242598493E+03  0.10566000000E+00 0. -1.
        994    1    1    2    0    0 -0.72661932353E+02 -0.21741333745E+03  0.20202793590E+03  0.35024711647E+03  0.17120000000E+03 0.  0.
        998    1    1    2    0    0 -0.15119603861E+02  0.65757311603E+02  0.45353531317E+03  0.45852689860E+03  0.10000000000E+00 0.  1.
</event>
<event>
 5    1  0.2313627E-009  0.3883006E+03  0.7957747E-01  0.3415793E+00
         13   -1    0    0    0    0  0.00000000000E+00  0.00000000000E+00  0.14999999963E+04  0.15000000000E+04  0.10566000000E+00 0. -1.
        994   -1    0    0    0    0 -0.00000000000E+00 -0.00000000000E+00  0.11368683772E-12  0.17120000000E+03  0.17120000000E+03 0.  0.
         13    1    1    2    0    0 -0.20531394672E+03  0.15207275662E+03  0.11863530242E+04  0.12135540570E+04  0.10566000000E+00 0. -1.
        994    1    1    2    0    0  0.21207491472E+03 -0.15718507544E+03  0.27434953607E+03  0.41744463745E+03  0.17120000000E+03 0.  0.
        998    1    1    2    0    0 -0.67609680072E+01  0.51123188231E+01  0.39297435993E+02  0.40201305548E+02  0.10000000000E+00 0.  0.
</event>
<event>
 5    1  0.2313627E-009  0.3882479E+03  0.7957747E-01  0.3416013E+00
         13   -1    0    0    0    0  0.00000000000E+00  0.00000000000E+00  0.14999999963E+04  0.15000000000E+04  0.10566000000E+00 0.  1.
        994   -1    0    0    0    0 -0.00000000000E+00 -0.00000000000E+00  0.11368683772E-12  0.17120000000E+03  0.17120000000E+03 0.  0.
         13    1    1    2    0    0  0.45184582244E+02 -0.19643085348E+03  0.11705955158E+04  0.11878217878E+04  0.10566000000E+00 0.  1.
        994    1    1    2    0    0 -0.47668552021E+02  0.21975573883E+03  0.18661102587E+03  0.33867091782E+03  0.17120000000E+03 0.  0.
        998    1    1    2    0    0  0.24839697770E+01 -0.23324885355E+02  0.14279345459E+03  0.14470729441E+03  0.10000000000E+00 0.  1.
</event>
<event>
 5    1  0.2313627E-009  0.3882801E+03  0.7957747E-01  0.3415879E+00
         13   -1    0    0    0    0  0.00000000000E+00  0.00000000000E+00  0.14999999963E+04  0.15000000000E+04  0.10566000000E+00 0.  1.
        994   -1    0    0    0    0 -0.00000000000E+00 -0.00000000000E+00  0.11368683772E-12  0.17120000000E+03  0.17120000000E+03 0.  0.
         13    1    1    2    0    0  0.24750143834E+03 -0.26804456577E+02  0.10906532216E+04  0.11187045641E+04  0.10566000000E+00 0.  1.
        994    1    1    2    0    0 -0.27271196602E+03  0.30744197280E+02  0.30327773242E+03  0.44340032145E+03  0.17120000000E+03 0.  0.
        998    1    1    2    0    0  0.25210527687E+02 -0.39397407038E+01  0.10606904225E+03  0.10909511441E+03  0.10000000000E+00 0. -1.
</event>
<event>
 5    1  0.2313627E-009  0.3882997E+03  0.7957747E-01  0.3415797E+00
         13   -1    0    0    0    0  0.00000000000E+00  0.00000000000E+00  0.14999999963E+04  0.15000000000E+04  0.10566000000E+00 0.  1.
        994   -1    0    0    0    0 -0.00000000000E+00 -0.00000000000E+00  0.11368683772E-12  0.17120000000E+03  0.17120000000E+03 0.  0.
         13    1    1    2    0    0  0.46808894404E+02 -0.90169349484E+02  0.50054740110E+03  0.51075365500E+03  0.10566000000E+00 0.  1.
        994    1    1    2    0    0 -0.11698660131E+03  0.22412993017E+03  0.24638954853E+03  0.39234849319E+03  0.17120000000E+03 0.  0.
        998    1    1    2    0    0  0.70177706908E+02 -0.13396058069E+03  0.75306304665E+03  0.76809785181E+03  0.10000000000E+00 0.  1.
</event>
<event>
 5    1  0.2313627E-009  0.3843459E+03  0.7957747E-01  0.3432451E+00
         13   -1    0    0    0    0  0.00000000000E+00  0.00000000000E+00  0.14999999963E+04  0.15000000000E+04  0.10566000000E+00 0.  1.
        994   -1    0    0    0    0 -0.00000000000E+00 -0.00000000000E+00  0.11368683772E-12  0.17120000000E+03  0.17120000000E+03 0.  0.
         13    1    1    2    0    0 -0.12349538678E+03 -0.12908212884E+03  0.10373755408E+04  0.10526449213E+04  0.10566000000E+00 0.  1.
        994    1    1    2    0    0  0.17214194029E+03  0.12736000512E+03  0.17148152345E+03  0.32337095014E+03  0.17120000000E+03 0.  0.
        998    1    1    2    0    0 -0.48646553507E+02  0.17221237268E+01  0.29114293205E+03  0.29518412857E+03  0.10000000000E+00 0.  1.
</event>
<event>
 5    1  0.5923562E-009  0.3882834E+03  0.7957747E-01  0.3415865E+00
         13   -1    0    0    0    0  0.00000000000E+00  0.00000000000E+00  0.14999999963E+04  0.15000000000E+04  0.10566000000E+00 0.  1.
        994   -1    0    0    0    0 -0.00000000000E+00 -0.00000000000E+00  0.11368683772E-12  0.17120000000E+03  0.17120000000E+03 0.  0.
         13    1    1    2    0    0  0.12119296700E+03  0.25790853128E+03  0.11634636632E+04  0.11978531849E+04  0.10566000000E+00 0.  1.
        994    1    1    2    0    0 -0.12123429413E+03 -0.25800538152E+03  0.33575462000E+03  0.47255172819E+03  0.17120000000E+03 0.  0.
        998    1    1    2    0    0  0.41327131166E-01  0.96850232132E-01  0.78171305185E+00  0.79508691013E+00  0.10000000000E+00 0.  1.
</event>
<event>
 5    1  0.2313627E-009  0.3882981E+03  0.7957747E-01  0.3415804E+00
         13   -1    0    0    0    0  0.00000000000E+00  0.00000000000E+00  0.14999999963E+04  0.15000000000E+04  0.10566000000E+00 0.  1.
        994   -1    0    0    0    0 -0.00000000000E+00 -0.00000000000E+00  0.11368683772E-12  0.17120000000E+03  0.17120000000E+03 0.  0.
         13    1    1    2    0    0 -0.26500513078E+03  0.42257709836E+02  0.11160780271E+04  0.11478865828E+04  0.10566000000E+00 0.  1.
        994    1    1    2    0    0  0.27857351760E+03 -0.44021456681E+02  0.32607443599E+03  0.46386967046E+03  0.17120000000E+03 0.  0.
        998    1    1    2    0    0 -0.13568386825E+02  0.17637468455E+01  0.57847533206E+02  0.59443746702E+02  0.10000000000E+00 0.  1.
</event>
<event>
 5    1  0.2313627E-009  0.3882989E+03  0.7957747E-01  0.3415800E+00
         13   -1    0    0    0    0  0.00000000000E+00  0.00000000000E+00  0.14999999963E+04  0.15000000000E+04  0.10566000000E+00 0. -1.
        994   -1    0    0    0    0 -0.00000000000E+00 -0.00000000000E+00  0.11368683772E-12  0.17120000000E+03  0.17120000000E+03 0.  0.
         13    1    1    2    0    0  0.22973495503E+03  0.46484162159E+02  0.11133988276E+04  0.11378030970E+04  0.10566000000E+00 0. -1.
        994    1    1    2    0    0 -0.25526600687E+03 -0.51833018868E+02  0.26528487900E+03  0.40930783419E+03  0.17120000000E+03 0.  0.
        998    1    1    2    0    0  0.25531051835E+02  0.53488567092E+01  0.12131628964E+03  0.12408906885E+03  0.10000000000E+00 0. -1.
</event>
<event>
 5    1  0.2313627E-009  0.3811921E+03  0.7957747E-01  0.3445984E+00
         13   -1    0    0    0    0  0.00000000000E+00  0.00000000000E+00  0.14999999963E+04  0.15000000000E+04  0.10566000000E+00 0.  1.
        994   -1    0    0    0    0 -0.00000000000E+00 -0.00000000000E+00  0.11368683772E-12  0.17120000000E+03  0.17120000000E+03 0.  0.
         13    1    1    2    0    0 -0.63024761915E+02 -0.15788194646E+02  0.18696027398E+03  0.19792812563E+03  0.10566000000E+00 0.  1.
        994    1    1    2    0    0  0.20592247451E+03  0.23673315315E+02  0.16306643574E+03  0.31442740630E+03  0.17120000000E+03 0.  0.
        998    1    1    2    0    0 -0.14289771259E+03 -0.78851206686E+01  0.11499732866E+04  0.11588444681E+04  0.10000000000E+00 0.  1.
</event>
<event>
 5    1  0.2313627E-009  0.3883001E+03  0.7957747E-01  0.3415796E+00
         13   -1    0    0    0    0  0.00000000000E+00  0.00000000000E+00  0.14999999963E+04  0.15000000000E+04  0.10566000000E+00 0.  1.
        994   -1    0    0    0    0 -0.00000000000E+00 -0.00000000000E+00  0.11368683772E-12  0.17120000000E+03  0.17120000000E+03 0.  0.
         13    1    1    2    0    0  0.11152698579E+03  0.14061317140E+03  0.86614190971E+03  0.88454064432E+03  0.10566000000E+00 0.  1.
        994    1    1    2    0    0 -0.15932347126E+03 -0.20179933339E+03  0.25682709667E+03  0.40171698624E+03  0.17120000000E+03 0.  0.
        998    1    1    2    0    0  0.47796485470E+02  0.61186161993E+02  0.37703098990E+03  0.38494236943E+03  0.10000000000E+00 0.  1.
</event>
<event>
 5    1  0.2313627E-009  0.3883002E+03  0.7957747E-01  0.3415795E+00
         13   -1    0    0    0    0  0.00000000000E+00  0.00000000000E+00  0.14999999963E+04  0.15000000000E+04  0.10566000000E+00 0.  1.
        994   -1    0    0    0    0 -0.00000000000E+00 -0.00000000000E+00  0.11368683772E-12  0.17120000000E+03  0.17120000000E+03 0.  0.
         13    1    1    2    0    0  0.20199411610E+03 -0.21628560952E+02  0.11646157913E+04  0.11822010700E+04  0.10566000000E+00 0.  1.
        994    1    1    2    0    0 -0.22671703044E+03  0.23922934301E+02  0.19257131962E+03  0.34404370626E+03  0.17120000000E+03 0.  0.
        998    1    1    2    0    0  0.24722914336E+02 -0.22943733493E+01  0.14281288540E+03  0.14495522370E+03  0.10000000000E+00 0.  1.
</event>
<event>
 5    1  0.2313627E-009  0.3883009E+03  0.7957747E-01  0.3415792E+00
         13   -1    0    0    0    0  0.00000000000E+00  0.00000000000E+00  0.14999999963E+04  0.15000000000E+04  0.10566000000E+00 0. -1.
        994   -1    0    0    0    0 -0.00000000000E+00 -0.00000000000E+00  0.11368683772E-12  0.17120000000E+03  0.17120000000E+03 0.  0.
         13    1    1    2    0    0  0.94370836461E+02 -0.70649365138E+02  0.47782596376E+03  0.49215327935E+03  0.10566000000E+00 0. -1.
        994    1    1    2    0    0 -0.22932106733E+03  0.17168606312E+03  0.34025935905E+03  0.47660269367E+03  0.17120000000E+03 0.  0.
        998    1    1    2    0    0  0.13495023087E+03 -0.10103669798E+03  0.68191467347E+03  0.70244402698E+03  0.10000000000E+00 0. -1.
</event>
<event>
 5    1  0.2313627E-009  0.3880611E+03  0.7957747E-01  0.3416792E+00
         13   -1    0    0    0    0  0.00000000000E+00  0.00000000000E+00  0.14999999963E+04  0.15000000000E+04  0.10566000000E+00 0. -1.
        994   -1    0    0    0    0 -0.00000000000E+00 -0.00000000000E+00  0.11368683772E-12  0.17120000000E+03  0.17120000000E+03 0.  0.
         13    1    1    2    0    0  0.75831823257E+01  0.16319173404E+03  0.74852910809E+03  0.76614938722E+03  0.10566000000E+00 0. -1.
        994    1    1    2    0    0 -0.18064173571E+02 -0.25643008743E+03  0.25711857112E+03  0.40187324335E+03  0.17120000000E+03 0.  0.
        998    1    1    2    0    0  0.10480991245E+02  0.93238353391E+02  0.49435231706E+03  0.50317736943E+03  0.10000000000E+00 0. -1.
</event>
<event>
 5    1  0.2313627E-009  0.4045169E+03  0.7957747E-01  0.3350894E+00
         13   -1    0    0    0    0  0.00000000000E+00  0.00000000000E+00  0.14999999963E+04  0.15000000000E+04  0.10566000000E+00 0.  1.
        994   -1    0    0    0    0 -0.00000000000E+00 -0.00000000000E+00  0.11368683772E-12  0.17120000000E+03  0.17120000000E+03 0.  0.
         13    1    1    2    0    0 -0.11649966432E+03  0.44743176721E+02  0.52049215631E+03  0.53524407478E+03  0.10566000000E+00 0.  1.
        994    1    1    2    0    0 -0.11183351097E+02  0.61613232283E+02  0.46317340032E+02  0.18808507044E+03  0.17120000000E+03 0.  0.
        998    1    1    2    0    0  0.12768301541E+03 -0.10635640900E+03  0.93319049994E+03  0.94787085478E+03  0.10000000000E+00 0.  1.
</event>
<event>
 5    1  0.2313627E-009  0.3874408E+03  0.7957747E-01  0.3419386E+00
         13   -1    0    0    0    0  0.00000000000E+00  0.00000000000E+00  0.14999999963E+04  0.15000000000E+04  0.10566000000E+00 0.  1.
        994   -1    0    0    0    0 -0.00000000000E+00 -0.00000000000E+00  0.11368683772E-12  0.17120000000E+03  0.17120000000E+03 0.  0.
         13    1    1    2    0    0 -0.11618332568E+03 -0.78917957915E+01  0.47376086737E+03  0.48786290720E+03  0.10566000000E+00 0.  1.
        994    1    1    2    0    0  0.26391099262E+03  0.50368747762E+02  0.28864680148E+03  0.42989817257E+03  0.17120000000E+03 0.  0.
        998    1    1    2    0    0 -0.14772766695E+03 -0.42476951970E+02  0.73759232743E+03  0.75343892023E+03  0.10000000000E+00 0. -1.
</event>
<event>
 5    1  0.2313627E-009  0.3882991E+03  0.7957747E-01  0.3415800E+00
         13   -1    0    0    0    0  0.00000000000E+00  0.00000000000E+00  0.14999999963E+04  0.15000000000E+04  0.10566000000E+00 0. -1.
        994   -1    0    0    0    0 -0.00000000000E+00 -0.00000000000E+00  0.11368683772E-12  0.17120000000E+03  0.17120000000E+03 0.  0.
         13    1    1    2    0    0  0.10075186191E+03 -0.16851158909E+03  0.10601565484E+04  0.10781831994E+04  0.10566000000E+00 0. -1.
        994    1    1    2    0    0 -0.12209975648E+03  0.20393276045E+03  0.21236217235E+03  0.36180665218E+03  0.17120000000E+03 0.  0.
        998    1    1    2    0    0  0.21347894571E+02 -0.35421171363E+02  0.22748127557E+03  0.23121014839E+03  0.10000000000E+00 0.  1.
</event>
<event>
 5    1  0.2313627E-009  0.3883009E+03  0.7957747E-01  0.3415792E+00
         13   -1    0    0    0    0  0.00000000000E+00  0.00000000000E+00  0.14999999963E+04  0.15000000000E+04  0.10566000000E+00 0.  1.
        994   -1    0    0    0    0 -0.00000000000E+00 -0.00000000000E+00  0.11368683772E-12  0.17120000000E+03  0.17120000000E+03 0.  0.
         13    1    1    2    0    0 -0.15889164443E+03 -0.16161949575E+02  0.79757925874E+03  0.81341284009E+03  0.10566000000E+00 0.  1.
        994    1    1    2    0    0  0.25026398144E+03  0.25489361588E+02  0.24337820458E+03  0.38964619647E+03  0.17120000000E+03 0.  0.
        998    1    1    2    0    0 -0.91372337014E+02 -0.93274120137E+01  0.45904253295E+03  0.46814096344E+03  0.10000000000E+00 0. -1.
</event>
<event>
 5    1  0.2313627E-009  0.3828706E+03  0.7957747E-01  0.3438754E+00
         13   -1    0    0    0    0  0.00000000000E+00  0.00000000000E+00  0.14999999963E+04  0.15000000000E+04  0.10566000000E+00 0. -1.
        994   -1    0    0    0    0 -0.00000000000E+00 -0.00000000000E+00  0.11368683772E-12  0.17120000000E+03  0.17120000000E+03 0.  0.
         13    1    1    2    0    0  0.41306293452E+02  0.23216098979E+02  0.20953483753E+03  0.21482564194E+03  0.10566000000E+00 0. -1.
        994    1    1    2    0    0 -0.61017304266E+02 -0.15966513290E+03  0.10635719191E+03  0.26426758855E+03  0.17120000000E+03 0.  0.
        998    1    1    2    0    0  0.19711010814E+02  0.13644903392E+03  0.11841079668E+04  0.11921067695E+04  0.10000000000E+00 0. -1.
</event>
<event>
 5    1  0.2313627E-009  0.3882831E+03  0.7957747E-01  0.3415866E+00
         13   -1    0    0    0    0  0.00000000000E+00  0.00000000000E+00  0.14999999963E+04  0.15000000000E+04  0.10566000000E+00 0. -1.
        994   -1    0    0    0    0 -0.00000000000E+00 -0.00000000000E+00  0.11368683772E-12  0.17120000000E+03  0.17120000000E+03 0.  0.
         13    1    1    2    0    0 -0.21049530348E+03 -0.54927753378E+02  0.11473758492E+04  0.11678170582E+04  0.10566000000E+00 0. -1.
        994    1    1    2    0    0  0.23563500065E+03  0.60462543407E+02  0.22444731577E+03  0.37264676336E+03  0.17120000000E+03 0.  0.
        998    1    1    2    0    0 -0.25139697166E+02 -0.55347900285E+01  0.12817683127E+03  0.13073617842E+03  0.10000000000E+00 0.  1.
</event>
<event>
 5    1  0.2313627E-009  0.3882992E+03  0.7957747E-01  0.3415799E+00
         13   -1    0    0    0    0  0.00000000000E+00  0.00000000000E+00  0.14999999963E+04  0.15000000000E+04  0.10566000000E+00 0. -1.
        994   -1    0    0    0    0 -0.00000000000E+00 -0.00000000000E+00  0.11368683772E-12  0.17120000000E+03  0.17120000000E+03 0.  0.
         13    1    1    2    0    0 -0.26748103933E+03 -0.20776615157E+02  0.11016502503E+04  0.11338478995E+04  0.10566000000E+00 0. -1.
        994    1    1    2    0    0  0.28318912437E+03  0.22289077919E+02  0.33249572476E+03  0.46963361266E+03  0.17120000000E+03 0.  0.
        998    1    1    2    0    0 -0.15708085037E+02 -0.15124627619E+01  0.65854021220E+02  0.67718487801E+02  0.10000000000E+00 0. -1.
</event>
<event>
 5    1  0.2313627E-009  0.3878909E+03  0.7957747E-01  0.3417503E+00
         13   -1    0    0    0    0  0.00000000000E+00  0.00000000000E+00  0.14999999963E+04  0.15000000000E+04  0.10566000000E+00 0. -1.
        994   -1    0    0    0    0 -0.00000000000E+00 -0.00000000000E+00  0.11368683772E-12  0.17120000000E+03  0.17120000000E+03 0.  0.
         13    1    1    2    0    0  0.25351434127E+03 -0.17626191391E+02  0.12228289542E+04  0.12489559104E+04  0.10566000000E+00 0. -1.
        994    1    1    2    0    0 -0.25725887230E+03  0.14884480685E+02  0.25896344383E+03  0.40345406230E+03  0.17120000000E+03 0.  0.
        998    1    1    2    0    0  0.37445310281E+01  0.27417107058E+01  0.18207598295E+02  0.18790027298E+02  0.10000000000E+00 0. -1.
</event>
<event>
 5    1  0.2313627E-009  0.3839387E+03  0.7957747E-01  0.3434186E+00
         13   -1    0    0    0    0  0.00000000000E+00  0.00000000000E+00  0.14999999963E+04  0.15000000000E+04  0.10566000000E+00 0. -1.
        994   -1    0    0    0    0 -0.00000000000E+00 -0.00000000000E+00  0.11368683772E-12  0.17120000000E+03  0.17120000000E+03 0.  0.
         13    1    1    2    0    0  0.18733362028E+02  0.29376491895E+01  0.10309247307E+03  0.10482193379E+03  0.10566000000E+00 0. -1.
        994    1    1    2    0    0  0.10989672913E+02  0.44442606568E+02  0.91054266965E+01  0.17744933639E+03  0.17120000000E+03 0.  0.
        998    1    1    2    0    0 -0.29723034941E+02 -0.47380255758E+02  0.13878020965E+04  0.13889287298E+04  0.10000000000E+00 0. -1.
</event>
<event>
 5    1  0.2313627E-009  0.3883010E+03  0.7957747E-01  0.3415792E+00
         13   -1    0    0    0    0  0.00000000000E+00  0.00000000000E+00  0.14999999963E+04  0.15000000000E+04  0.10566000000E+00 0. -1.
        994   -1    0    0    0    0 -0.00000000000E+00 -0.00000000000E+00  0.11368683772E-12  0.17120000000E+03  0.17120000000E+03 0.  0.
         13    1    1    2    0    0 -0.13547757911E+03  0.80340048292E+02  0.89657321175E+03  0.91030337415E+03  0.10566000000E+00 0. -1.
        994    1    1    2    0    0  0.19721159248E+03 -0.11691058019E+03  0.19510337926E+03  0.34631671136E+03  0.17120000000E+03 0.  0.
        998    1    1    2    0    0 -0.61734013365E+02  0.36570531896E+02  0.40832340527E+03  0.41457991449E+03  0.10000000000E+00 0.  0.
</event>
<event>
 5    1  0.2313627E-009  0.3882563E+03  0.7957747E-01  0.3415978E+00
         13   -1    0    0    0    0  0.00000000000E+00  0.00000000000E+00  0.14999999963E+04  0.15000000000E+04  0.10566000000E+00 0. -1.
        994   -1    0    0    0    0 -0.00000000000E+00 -0.00000000000E+00  0.11368683772E-12  0.17120000000E+03  0.17120000000E+03 0.  0.
         13    1    1    2    0    0  0.23599396432E+03 -0.10004723105E+03  0.12325025810E+04  0.12588745859E+04  0.10566000000E+00 0. -1.
        994    1    1    2    0    0 -0.23709211692E+03  0.10070188089E+03  0.25809218773E+03  0.40283316409E+03  0.17120000000E+03 0.  0.
        998    1    1    2    0    0  0.10981526048E+01 -0.65464983800E+00  0.94052275049E+01  0.94922499953E+01  0.10000000000E+00 0. -1.
</event>
<event>
 5    1  0.2313627E-009  0.3882440E+03  0.7957747E-01  0.3416029E+00
         13   -1    0    0    0    0  0.00000000000E+00  0.00000000000E+00  0.14999999963E+04  0.15000000000E+04  0.10566000000E+00 0. -1.
        994   -1    0    0    0    0 -0.00000000000E+00 -0.00000000000E+00  0.11368683772E-12  0.17120000000E+03  0.17120000000E+03 0.  0.
         13    1    1    2    0    0 -0.24140492205E+03 -0.10766824592E+03  0.11987890620E+04  0.12275846260E+04  0.10566000000E+00 0. -1.
        994    1    1    2    0    0  0.24459862313E+03  0.11008318415E+03  0.28586642704E+03  0.42775676263E+03  0.17120000000E+03 0.  0.
        998    1    1    2    0    0 -0.31937010757E+01 -0.24149382310E+01  0.15344507254E+02  0.15858611418E+02  0.10000000000E+00 0.  1.
</event>
<event>
 5    1  0.2313627E-009  0.3837415E+03  0.7957747E-01  0.3435027E+00
         13   -1    0    0    0    0  0.00000000000E+00  0.00000000000E+00  0.14999999963E+04  0.15000000000E+04  0.10566000000E+00 0.  1.
        994   -1    0    0    0    0 -0.00000000000E+00 -0.00000000000E+00  0.11368683772E-12  0.17120000000E+03  0.17120000000E+03 0.  0.
         13    1    1    2    0    0  0.13908681476E+02 -0.31672081097E+01  0.24784234489E+02  0.28596364643E+02  0.10566000000E+00 0.  1.
        994    1    1    2    0    0 -0.14307909847E+03  0.10309192069E+03  0.11279275393E+03  0.27042784226E+03  0.17120000000E+03 0.  0.
        998    1    1    2    0    0  0.12917041700E+03 -0.99924712579E+02  0.13624230079E+04  0.13721757931E+04  0.10000000000E+00 0.  1.
</event>
<event>
 5    1  0.2313627E-009  0.3881824E+03  0.7957747E-01  0.3416286E+00
         13   -1    0    0    0    0  0.00000000000E+00  0.00000000000E+00  0.14999999963E+04  0.15000000000E+04  0.10566000000E+00 0.  1.
        994   -1    0    0    0    0 -0.00000000000E+00 -0.00000000000E+00  0.11368683772E-12  0.17120000000E+03  0.17120000000E+03 0.  0.
         13    1    1    2    0    0  0.27270566614E+03 -0.18830351211E+03  0.92970098920E+03  0.98700077685E+03  0.10566000000E+00 0.  1.
        994    1    1    2    0    0 -0.27435200952E+03  0.18941526569E+03  0.56085453154E+03  0.67454756212E+03  0.17120000000E+03 0.  0.
        998    1    1    2    0    0  0.16463433858E+01 -0.11117535811E+01  0.94444755301E+01  0.96516610284E+01  0.10000000000E+00 0. -1.
</event>
<event>
 5    1  0.2313627E-009  0.3882982E+03  0.7957747E-01  0.3415804E+00
         13   -1    0    0    0    0  0.00000000000E+00  0.00000000000E+00  0.14999999963E+04  0.15000000000E+04  0.10566000000E+00 0.  1.
        994   -1    0    0    0    0 -0.00000000000E+00 -0.00000000000E+00  0.11368683772E-12  0.17120000000E+03  0.17120000000E+03 0.  0.
         13    1    1    2    0    0 -0.31752334074E+02  0.59612558352E+01  0.19046978428E+03  0.19319031337E+03  0.10566000000E+00 0.  1.
        994    1    1    2    0    0  0.21586232618E+03 -0.43248928831E+02  0.17767733204E+03  0.33067459538E+03  0.17120000000E+03 0.  0.
        998    1    1    2    0    0 -0.18410999211E+03  0.37287672996E+02  0.11318528800E+04  0.11473350913E+04  0.10000000000E+00 0.  1.
</event>
<event>
 5    1  0.2313627E-009  0.3871954E+03  0.7957747E-01  0.3420414E+00
         13   -1    0    0    0    0  0.00000000000E+00  0.00000000000E+00  0.14999999963E+04  0.15000000000E+04  0.10566000000E+00 0. -1.
        994   -1    0    0    0    0 -0.00000000000E+00 -0.00000000000E+00  0.11368683772E-12  0.17120000000E+03  0.17120000000E+03 0.  0.
         13    1    1    2    0    0 -0.18279322062E+03  0.69674220239E+02  0.11630749885E+04  0.11794114204E+04  0.10566000000E+00 0. -1.
        994    1    1    2    0    0  0.19748293452E+03 -0.71214170296E+02  0.16074615359E+03  0.31499164016E+03  0.17120000000E+03 0.  0.
        998    1    1    2    0    0 -0.14689713900E+02  0.15399500567E+01  0.17617885415E+03  0.17679693942E+03  0.10000000000E+00 0.  1.
</event>
<event>
 5    1  0.2313627E-009  0.3867060E+03  0.7957747E-01  0.3422469E+00
         13   -1    0    0    0    0  0.00000000000E+00  0.00000000000E+00  0.14999999963E+04  0.15000000000E+04  0.10566000000E+00 0.  1.
        994   -1    0    0    0    0 -0.00000000000E+00 -0.00000000000E+00  0.11368683772E-12  0.17120000000E+03  0.17120000000E+03 0.  0.
         13    1    1    2    0    0 -0.98159152787E+02  0.26624207194E+03  0.10258783409E+04  0.10643995686E+04  0.10566000000E+00 0.  1.
        994    1    1    2    0    0  0.96669143291E+02 -0.28025760390E+03  0.37934217546E+03  0.51097864328E+03  0.17120000000E+03 0.  0.
        998    1    1    2    0    0  0.14900094965E+01  0.14015531960E+02  0.94779479955E+02  0.95821788154E+02  0.10000000000E+00 0.  1.
</event>
<event>
 5    1  0.2313627E-009  0.3882999E+03  0.7957747E-01  0.3415797E+00
         13   -1    0    0    0    0  0.00000000000E+00  0.00000000000E+00  0.14999999963E+04  0.15000000000E+04  0.10566000000E+00 0.  1.
        994   -1    0    0    0    0 -0.00000000000E+00 -0.00000000000E+00  0.11368683772E-12  0.17120000000E+03  0.17120000000E+03 0.  0.
         13    1    1    2    0    0  0.20356461983E+03 -0.17668975604E+02  0.12340011235E+04  0.12508035541E+04  0.10566000000E+00 0.  1.
        994    1    1    2    0    0 -0.21865754318E+03  0.18836533208E+02  0.17641287985E+03  0.32954040776E+03  0.17120000000E+03 0.  0.
        998    1    1    2    0    0  0.15092923349E+02 -0.11675576041E+01  0.89585992968E+02  0.90856038116E+02  0.10000000000E+00 0. -1.
</event>
<event>
 5    1  0.2313627E-009  0.3883010E+03  0.7957747E-01  0.3415792E+00
         13   -1    0    0    0    0  0.00000000000E+00  0.00000000000E+00  0.14999999963E+04  0.15000000000E+04  0.10566000000E+00 0.  1.
        994   -1    0    0    0    0 -0.00000000000E+00 -0.00000000000E+00  0.11368683772E-12  0.17120000000E+03  0.17120000000E+03 0.  0.
         13    1    1    2    0    0  0.50706565672E+02 -0.85359543513E+02  0.57303502607E+03  0.58157248881E+03  0.10566000000E+00 0.  1.
        994    1    1    2    0    0 -0.11585059184E+03  0.19503416137E+03  0.19036652123E+03  0.34206510511E+03  0.17120000000E+03 0.  0.
        998    1    1    2    0    0  0.65144026167E+02 -0.10967461786E+03  0.73659844898E+03  0.74756240608E+03  0.10000000000E+00 0.  0.
</event>
<event>
 5    1  0.2313627E-009  0.3881131E+03  0.7957747E-01  0.3416576E+00
         13   -1    0    0    0    0  0.00000000000E+00  0.00000000000E+00  0.14999999963E+04  0.15000000000E+04  0.10566000000E+00 0.  1.
        994   -1    0    0    0    0 -0.00000000000E+00 -0.00000000000E+00  0.11368683772E-12  0.17120000000E+03  0.17120000000E+03 0.  0.
         13    1    1    2    0    0  0.15388744704E+03  0.12030441766E+03  0.99647938865E+03  0.10154435890E+04  0.10566000000E+00 0.  1.
        994    1    1    2    0    0 -0.19513616427E+03 -0.14527257087E+03  0.22471359032E+03  0.37281078328E+03  0.17120000000E+03 0.  0.
        998    1    1    2    0    0  0.41248717237E+02  0.24968153206E+02  0.27880701731E+03  0.28294562773E+03  0.10000000000E+00 0.  1.
</event>
<event>
 5    1  0.2313627E-009  0.3878680E+03  0.7957747E-01  0.3417599E+00
         13   -1    0    0    0    0  0.00000000000E+00  0.00000000000E+00  0.14999999963E+04  0.15000000000E+04  0.10566000000E+00 0.  1.
        994   -1    0    0    0    0 -0.00000000000E+00 -0.00000000000E+00  0.11368683772E-12  0.17120000000E+03  0.17120000000E+03 0.  0.
         13    1    1    2    0    0  0.22214742676E+03  0.35456052783E+02  0.12919947669E+04  0.13114332235E+04  0.10566000000E+00 0.  1.
        994    1    1    2    0    0 -0.22389138384E+03 -0.38543243174E+02  0.19158598499E+03  0.34296874930E+03  0.17120000000E+03 0.  0.
        998    1    1    2    0    0  0.17439570804E+01  0.30871903914E+01  0.16419244428E+02  0.16798027218E+02  0.10000000000E+00 0. -1.
</event>
<event>
 5    1  0.2313627E-009  0.3882718E+03  0.7957747E-01  0.3415914E+00
         13   -1    0    0    0    0  0.00000000000E+00  0.00000000000E+00  0.14999999963E+04  0.15000000000E+04  0.10566000000E+00 0. -1.
        994   -1    0    0    0    0 -0.00000000000E+00 -0.00000000000E+00  0.11368683772E-12  0.17120000000E+03  0.17120000000E+03 0.  0.
         13    1    1    2    0    0 -0.25758483888E+03  0.20021340625E+03  0.79473770389E+03  0.85909451541E+03  0.10566000000E+00 0. -1.
        994    1    1    2    0    0  0.27230401534E+03 -0.21027957234E+03  0.66458435771E+03  0.76769055213E+03  0.17120000000E+03 0.  0.
        998    1    1    2    0    0 -0.14719176465E+02  0.10066166096E+02  0.40677934676E+02  0.44414932457E+02  0.10000000000E+00 0.  1.
</event>
<event>
 5    1  0.2535693E-009  0.3882944E+03  0.7957747E-01  0.3415819E+00
         13   -1    0    0    0    0  0.00000000000E+00  0.00000000000E+00  0.14999999963E+04  0.15000000000E+04  0.10566000000E+00 0. -1.
        994   -1    0    0    0    0 -0.00000000000E+00 -0.00000000000E+00  0.11368683772E-12  0.17120000000E+03  0.17120000000E+03 0.  0.
         13    1    1    2    0    0  0.32856011080E+03  0.87219564265E+00  0.96655406544E+03  0.10208718234E+04  0.10566000000E+00 0. -1.
        994    1    1    2    0    0 -0.32923183682E+03 -0.80951595508E+00  0.53118759207E+03  0.64796910086E+03  0.17120000000E+03 0.  0.
        998    1    1    2    0    0  0.67172602475E+00 -0.62679687572E-01  0.22583387656E+01  0.23590757885E+01  0.10000000000E+00 0.  1.
</event>
<event>
 5    1  0.2313627E-009  0.3856439E+03  0.7957747E-01  0.3426946E+00
         13   -1    0    0    0    0  0.00000000000E+00  0.00000000000E+00  0.14999999963E+04  0.15000000000E+04  0.10566000000E+00 0.  1.
        994   -1    0    0    0    0 -0.00000000000E+00 -0.00000000000E+00  0.11368683772E-12  0.17120000000E+03  0.17120000000E+03 0.  0.
         13    1    1    2    0    0 -0.21866645149E+03 -0.13426218340E+03  0.99374136092E+03  0.10263348647E+04  0.10566000000E+00 0.  1.
        994    1    1    2    0    0  0.23392238079E+03  0.15004157913E+03  0.31926252147E+03  0.45658531877E+03  0.17120000000E+03 0.  0.
        998    1    1    2    0    0 -0.15255929307E+02 -0.15779395729E+02  0.18699611389E+03  0.18827981654E+03  0.10000000000E+00 0. -1.
</event>
<event>
 5    1  0.2313627E-009  0.3883002E+03  0.7957747E-01  0.3415795E+00
         13   -1    0    0    0    0  0.00000000000E+00  0.00000000000E+00  0.14999999963E+04  0.15000000000E+04  0.10566000000E+00 0.  1.
        994   -1    0    0    0    0 -0.00000000000E+00 -0.00000000000E+00  0.11368683772E-12  0.17120000000E+03  0.17120000000E+03 0.  0.
         13    1    1    2    0    0 -0.12962158664E+03  0.14032242890E+03  0.96155750040E+03  0.98034941603E+03  0.10566000000E+00 0.  1.
        994    1    1    2    0    0  0.17031704059E+03 -0.18367337390E+03  0.24085603636E+03  0.38738207605E+03  0.17120000000E+03 0.  0.
        998    1    1    2    0    0 -0.40695453957E+02  0.43350945008E+02  0.29758645952E+03  0.30346850792E+03  0.10000000000E+00 0.  1.
</event>
<event>
 5    1  0.2313627E-009  0.3882652E+03  0.7957747E-01  0.3415941E+00
         13   -1    0    0    0    0  0.00000000000E+00  0.00000000000E+00  0.14999999963E+04  0.15000000000E+04  0.10566000000E+00 0. -1.
        994   -1    0    0    0    0 -0.00000000000E+00 -0.00000000000E+00  0.11368683772E-12  0.17120000000E+03  0.17120000000E+03 0.  0.
         13    1    1    2    0    0 -0.17071207898E+02 -0.16994032568E+02  0.14327557214E+03  0.14528635180E+03  0.10566000000E+00 0. -1.
        994    1    1    2    0    0  0.15545432996E+03  0.13865000784E+03  0.15676176756E+03  0.31188710320E+03  0.17120000000E+03 0.  0.
        998    1    1    2    0    0 -0.13838312206E+03 -0.12165597527E+03  0.11999626566E+04  0.12140265450E+04  0.10000000000E+00 0. -1.
</event>
<event>
 5    1  0.2313627E-009  0.3882930E+03  0.7957747E-01  0.3415825E+00
         13   -1    0    0    0    0  0.00000000000E+00  0.00000000000E+00  0.14999999963E+04  0.15000000000E+04  0.10566000000E+00 0. -1.
        994   -1    0    0    0    0 -0.00000000000E+00 -0.00000000000E+00  0.11368683772E-12  0.17120000000E+03  0.17120000000E+03 0.  0.
         13    1    1    2    0    0 -0.56428747258E+02 -0.12013340835E+03  0.40616722807E+03  0.42730325021E+03  0.10566000000E+00 0. -1.
        994    1    1    2    0    0  0.14018809751E+03  0.29200844288E+03  0.49877252241E+03  0.61887406030E+03  0.17120000000E+03 0.  0.
        998    1    1    2    0    0 -0.83759350257E+02 -0.17187503453E+03  0.59506024580E+03  0.62502268949E+03  0.10000000000E+00 0. -1.
</event>
<event>
 5    1  0.2313627E-009  0.3854570E+03  0.7957747E-01  0.3427737E+00
         13   -1    0    0    0    0  0.00000000000E+00  0.00000000000E+00  0.14999999963E+04  0.15000000000E+04  0.10566000000E+00 0.  1.
        994   -1    0    0    0    0 -0.00000000000E+00 -0.00000000000E+00  0.11368683772E-12  0.17120000000E+03  0.17120000000E+03 0.  0.
         13    1    1    2    0    0  0.43547458932E+02 -0.12672638160E+02  0.26645867195E+03  0.27029097646E+03  0.10566000000E+00 0.  1.
        994    1    1    2    0    0 -0.11464372086E+03  0.76908507433E+01  0.46028070773E+02  0.21125897666E+03  0.17120000000E+03 0.  0.
        998    1    1    2    0    0  0.71096261933E+02  0.49817874169E+01  0.11875132536E+04  0.11896500469E+04  0.10000000000E+00 0.  1.
</event>
<event>
 5    1  0.2313627E-009  0.3882579E+03  0.7957747E-01  0.3415972E+00
         13   -1    0    0    0    0  0.00000000000E+00  0.00000000000E+00  0.14999999963E+04  0.15000000000E+04  0.10566000000E+00 0.  1.
        994   -1    0    0    0    0 -0.00000000000E+00 -0.00000000000E+00  0.11368683772E-12  0.17120000000E+03  0.17120000000E+03 0.  0.
         13    1    1    2    0    0  0.16757048852E+03  0.13581335890E+03  0.12839341275E+04  0.13019262621E+04  0.10566000000E+00 0.  1.
        994    1    1    2    0    0 -0.17109410991E+03 -0.13947998584E+03  0.17882274025E+03  0.33168490066E+03  0.17120000000E+03 0.  0.
        998    1    1    2    0    0  0.35236213943E+01  0.36666269356E+01  0.37243128516E+02  0.37588837206E+02  0.10000000000E+00 0. -1.
</event>
<event>
 5    1  0.2313627E-009  0.3882914E+03  0.7957747E-01  0.3415832E+00
         13   -1    0    0    0    0  0.00000000000E+00  0.00000000000E+00  0.14999999963E+04  0.15000000000E+04  0.10566000000E+00 0.  1.
        994   -1    0    0    0    0 -0.00000000000E+00 -0.00000000000E+00  0.11368683772E-12  0.17120000000E+03  0.17120000000E+03 0.  0.
         13    1    1    2    0    0  0.10090676916E+03  0.21543948208E+03  0.12776147002E+04  0.12995751921E+04  0.10566000000E+00 0.  1.
        994    1    1    2    0    0 -0.10131461778E+03 -0.21645035285E+03  0.21513155931E+03  0.36428894416E+03  0.17120000000E+03 0.  0.
        998    1    1    2    0    0  0.40784861489E+00  0.10108707658E+01  0.72537367696E+01  0.73358637747E+01  0.10000000000E+00 0.  1.
</event>
<event>
 5    1  0.2313627E-009  0.3883004E+03  0.7957747E-01  0.3415794E+00
         13   -1    0    0    0    0  0.00000000000E+00  0.00000000000E+00  0.14999999963E+04  0.15000000000E+04  0.10566000000E+00 0.  1.
        994   -1    0    0    0    0 -0.00000000000E+00 -0.00000000000E+00  0.11368683772E-12  0.17120000000E+03  0.17120000000E+03 0.  0.
         13    1    1    2    0    0 -0.28826939312E+02 -0.26990803217E+03  0.11613448987E+04  0.11926455144E+04  0.10566000000E+00 0.  1.
        994    1    1    2    0    0  0.29541346834E+02  0.27603697111E+03  0.31257429815E+03  0.45175350852E+03  0.17120000000E+03 0.  0.
        998    1    1    2    0    0 -0.71440752194E+00 -0.61289389391E+01  0.26080799475E+02  0.26800977070E+02  0.10000000000E+00 0.  0.
</event>
<event>
 5    1  0.2313627E-009  0.3882992E+03  0.7957747E-01  0.3415799E+00
         13   -1    0    0    0    0  0.00000000000E+00  0.00000000000E+00  0.14999999963E+04  0.15000000000E+04  0.10566000000E+00 0.  1.
        994   -1    0    0    0    0 -0.00000000000E+00 -0.00000000000E+00  0.11368683772E-12  0.17120000000E+03  0.17120000000E+03 0.  0.
         13    1    1    2    0    0 -0.19524239423E+02 -0.49115676740E+02  0.26044820056E+03  0.26575707322E+03  0.10566000000E+00 0.  1.
        994    1    1    2    0    0  0.96653799258E+02  0.23604834887E+03  0.25180986639E+03  0.39721332899E+03  0.17120000000E+03 0.  0.
        998    1    1    2    0    0 -0.77129559835E+02 -0.18693267213E+03  0.98774192933E+03  0.10082295978E+04  0.10000000000E+00 0.  1.
</event>
<event>
 5    1  0.2313627E-009  0.3883005E+03  0.7957747E-01  0.3415794E+00
         13   -1    0    0    0    0  0.00000000000E+00  0.00000000000E+00  0.14999999963E+04  0.15000000000E+04  0.10566000000E+00 0. -1.
        994   -1    0    0    0    0 -0.00000000000E+00 -0.00000000000E+00  0.11368683772E-12  0.17120000000E+03  0.17120000000E+03 0.  0.
         13    1    1    2    0    0 -0.20486480211E+03 -0.32494026103E+02  0.11788562216E+04  0.11969659357E+04  0.10566000000E+00 0. -1.
        994    1    1    2    0    0  0.22674221725E+03  0.35716391772E+02  0.19565371967E+03  0.34681048390E+03  0.17120000000E+03 0.  0.
        998    1    1    2    0    0 -0.21877415131E+02 -0.32223656691E+01  0.12549005504E+03  0.12742358042E+03  0.10000000000E+00 0.  1.
</event>
<event>
 5    1  0.2313627E-009  0.3883008E+03  0.7957747E-01  0.3415793E+00
         13   -1    0    0    0    0  0.00000000000E+00  0.00000000000E+00  0.14999999963E+04  0.15000000000E+04  0.10566000000E+00 0. -1.
        994   -1    0    0    0    0 -0.00000000000E+00 -0.00000000000E+00  0.11368683772E-12  0.17120000000E+03  0.17120000000E+03 0.  0.
         13    1    1    2    0    0  0.17750933673E+03 -0.12179448630E+03  0.11041851292E+04  0.11249747874E+04  0.10566000000E+00 0. -1.
        994    1    1    2    0    0 -0.20360612318E+03  0.13970310233E+03  0.23262693537E+03  0.37999623847E+03  0.17120000000E+03 0.  0.
        998    1    1    2    0    0  0.26096786452E+02 -0.17908616034E+02  0.16318793169E+03  0.16622897413E+03  0.10000000000E+00 0. -1.
</event>
<event>
 5    1  0.2313627E-009  0.3882688E+03  0.7957747E-01  0.3415926E+00
         13   -1    0    0    0    0  0.00000000000E+00  0.00000000000E+00  0.14999999963E+04  0.15000000000E+04  0.10566000000E+00 0. -1.
        994   -1    0    0    0    0 -0.00000000000E+00 -0.00000000000E+00  0.11368683772E-12  0.17120000000E+03  0.17120000000E+03 0.  0.
         13    1    1    2    0    0  0.15482356596E+03  0.13377698494E+03  0.11567115674E+04  0.11746694342E+04  0.10566000000E+00 0. -1.
        994    1    1    2    0    0 -0.17375693367E+03 -0.14875516287E+03  0.19410569323E+03  0.34540705063E+03  0.17120000000E+03 0.  0.
        998    1    1    2    0    0  0.18933367713E+02  0.14978177938E+02  0.14918273564E+03  0.15112351518E+03  0.10000000000E+00 0.  1.
</event>
<event>
 5    1  0.2313627E-009  0.3883009E+03  0.7957747E-01  0.3415792E+00
         13   -1    0    0    0    0  0.00000000000E+00  0.00000000000E+00  0.14999999963E+04  0.15000000000E+04  0.10566000000E+00 0. -1.
        994   -1    0    0    0    0 -0.00000000000E+00 -0.00000000000E+00  0.11368683772E-12  0.17120000000E+03  0.17120000000E+03 0.  0.
         13    1    1    2    0    0 -0.10087000768E+03  0.38519897303E+02  0.44559675395E+03  0.45849211469E+03  0.10566000000E+00 0. -1.
        994    1    1    2    0    0  0.26487500796E+03 -0.10130336459E+03  0.33096808369E+03  0.46826323146E+03  0.17120000000E+03 0.  0.
        998    1    1    2    0    0 -0.16400500028E+03  0.62783467291E+02  0.72343515864E+03  0.74444465385E+03  0.10000000000E+00 0. -1.
</event>
<event>
 5    1  0.2313627E-009  0.3877633E+03  0.7957747E-01  0.3418037E+00
         13   -1    0    0    0    0  0.00000000000E+00  0.00000000000E+00  0.14999999963E+04  0.15000000000E+04  0.10566000000E+00 0. -1.
        994   -1    0    0    0    0 -0.00000000000E+00 -0.00000000000E+00  0.11368683772E-12  0.17120000000E+03  0.17120000000E+03 0.  0.
         13    1    1    2    0    0 -0.10719152571E+03 -0.19182885608E+03  0.99061138370E+03  0.10146917058E+04  0.10566000000E+00 0. -1.
        994    1    1    2    0    0  0.14125637626E+03  0.22621505086E+03  0.28261317459E+03  0.42462484562E+03  0.17120000000E+03 0.  0.
        998    1    1    2    0    0 -0.34064850544E+02 -0.34386194778E+02  0.22677543799E+03  0.23188344855E+03  0.10000000000E+00 0.  1.
</event>
<event>
 5    1  0.2313627E-009  0.3846516E+03  0.7957747E-01  0.3431151E+00
         13   -1    0    0    0    0  0.00000000000E+00  0.00000000000E+00  0.14999999963E+04  0.15000000000E+04  0.10566000000E+00 0. -1.
        994   -1    0    0    0    0 -0.00000000000E+00 -0.00000000000E+00  0.11368683772E-12  0.17120000000E+03  0.17120000000E+03 0.  0.
         13    1    1    2    0    0  0.13584297417E+03  0.12721755945E+02  0.70233637465E+03  0.71546596776E+03  0.10566000000E+00 0. -1.
        994    1    1    2    0    0 -0.19407736827E+03 -0.46241465761E+02  0.14619625025E+03  0.30081070729E+03  0.17120000000E+03 0.  0.
        998    1    1    2    0    0  0.58234394101E+02  0.33519709816E+02  0.65146737138E+03  0.65492332496E+03  0.10000000000E+00 0. -1.
</event>
<event>
 5    1  0.2313627E-009  0.3882981E+03  0.7957747E-01  0.3415804E+00
         13   -1    0    0    0    0  0.00000000000E+00  0.00000000000E+00  0.14999999963E+04  0.15000000000E+04  0.10566000000E+00 0. -1.
        994   -1    0    0    0    0 -0.00000000000E+00 -0.00000000000E+00  0.11368683772E-12  0.17120000000E+03  0.17120000000E+03 0.  0.
         13    1    1    2    0    0  0.16172169209E+03  0.90962507841E+02  0.94447617727E+03  0.96252965883E+03  0.10566000000E+00 0. -1.
        994    1    1    2    0    0 -0.21609167964E+03 -0.12284877394E+03  0.23640173812E+03  0.38338317263E+03  0.17120000000E+03 0.  0.
        998    1    1    2    0    0  0.54369987543E+02  0.31886266099E+02  0.31912208088E+03  0.32528716854E+03  0.10000000000E+00 0.  1.
</event>
<event>
 5    1  0.2313627E-009  0.3882665E+03  0.7957747E-01  0.3415935E+00
         13   -1    0    0    0    0  0.00000000000E+00  0.00000000000E+00  0.14999999963E+04  0.15000000000E+04  0.10566000000E+00 0.  1.
        994   -1    0    0    0    0 -0.00000000000E+00 -0.00000000000E+00  0.11368683772E-12  0.17120000000E+03  0.17120000000E+03 0.  0.
         13    1    1    2    0    0  0.31963784011E+02 -0.22459879401E+03  0.11954480759E+04  0.12167836353E+04  0.10566000000E+00 0.  1.
        994    1    1    2    0    0 -0.35230462206E+02  0.24099441047E+03  0.22510838683E+03  0.37323279218E+03  0.17120000000E+03 0.  0.
        998    1    1    2    0    0  0.32666781957E+01 -0.16395616456E+02  0.79443533521E+02  0.81183572499E+02  0.10000000000E+00 0. -1.
</event>
<event>
 5    1  0.2313627E-009  0.3882775E+03  0.7957747E-01  0.3415890E+00
         13   -1    0    0    0    0  0.00000000000E+00  0.00000000000E+00  0.14999999963E+04  0.15000000000E+04  0.10566000000E+00 0. -1.
        994   -1    0    0    0    0 -0.00000000000E+00 -0.00000000000E+00  0.11368683772E-12  0.17120000000E+03  0.17120000000E+03 0.  0.
         13    1    1    2    0    0 -0.78296145223E+02  0.20545907043E+03  0.13008805299E+04  0.13193308456E+04  0.10566000000E+00 0. -1.
        994    1    1    2    0    0  0.79014561708E+02 -0.20858844869E+03  0.18312257684E+03  0.33555291689E+03  0.17120000000E+03 0.  0.
        998    1    1    2    0    0 -0.71841648500E+00  0.31293782600E+01  0.15996889546E+02  0.16316237486E+02  0.10000000000E+00 0. -1.
</event>
<event>
 5    1  0.2313627E-009  0.3882988E+03  0.7957747E-01  0.3415801E+00
         13   -1    0    0    0    0  0.00000000000E+00  0.00000000000E+00  0.14999999963E+04  0.15000000000E+04  0.10566000000E+00 0. -1.
        994   -1    0    0    0    0 -0.00000000000E+00 -0.00000000000E+00  0.11368683772E-12  0.17120000000E+03  0.17120000000E+03 0.  0.
         13    1    1    2    0    0 -0.75715808448E+02 -0.21168075937E+03  0.12656153138E+04  0.12854274624E+04  0.10566000000E+00 0. -1.
        994    1    1    2    0    0  0.77893563760E+02  0.21783342752E+03  0.19926089581E+03  0.35004735968E+03  0.17120000000E+03 0.  0.
        998    1    1    2    0    0 -0.21777553115E+01 -0.61526681530E+01  0.35123786712E+02  0.35725177908E+02  0.10000000000E+00 0.  1.
</event>
<event>
 5    1  0.2313627E-009  0.3883005E+03  0.7957747E-01  0.3415794E+00
         13   -1    0    0    0    0  0.00000000000E+00  0.00000000000E+00  0.14999999963E+04  0.15000000000E+04  0.10566000000E+00 0. -1.
        994   -1    0    0    0    0 -0.00000000000E+00 -0.00000000000E+00  0.11368683772E-12  0.17120000000E+03  0.17120000000E+03 0.  0.
         13    1    1    2    0    0 -0.27461593896E+03 -0.11772735198E+03  0.10304384841E+04  0.10728826236E+04  0.10566000000E+00 0. -1.
        994    1    1    2    0    0  0.28512289663E+03  0.12232189068E+03  0.43036425484E+03  0.55747694389E+03  0.17120000000E+03 0.  0.
        998    1    1    2    0    0 -0.10506957667E+02 -0.45945387029E+01  0.39197257360E+02  0.40840432538E+02  0.10000000000E+00 0.  0.
</event>
<event>
 5    1  0.2313627E-009  0.3883006E+03  0.7957747E-01  0.3415793E+00
         13   -1    0    0    0    0  0.00000000000E+00  0.00000000000E+00  0.14999999963E+04  0.15000000000E+04  0.10566000000E+00 0.  1.
        994   -1    0    0    0    0 -0.00000000000E+00 -0.00000000000E+00  0.11368683772E-12  0.17120000000E+03  0.17120000000E+03 0.  0.
         13    1    1    2    0    0  0.21180945560E+03 -0.58391929715E+02  0.12475636500E+04  0.12667627777E+04  0.10566000000E+00 0.  1.
        994    1    1    2    0    0 -0.22137810552E+03  0.60941206976E+02  0.19580234472E+03  0.34694393568E+03  0.17120000000E+03 0.  0.
        998    1    1    2    0    0  0.95686499175E+01 -0.25492772602E+01  0.56634001533E+02  0.57493286612E+02  0.10000000000E+00 0.  0.
</event>
<event>
 5    1  0.2313627E-009  0.3883003E+03  0.7957747E-01  0.3415795E+00
         13   -1    0    0    0    0  0.00000000000E+00  0.00000000000E+00  0.14999999963E+04  0.15000000000E+04  0.10566000000E+00 0.  1.
        994   -1    0    0    0    0 -0.00000000000E+00 -0.00000000000E+00  0.11368683772E-12  0.17120000000E+03  0.17120000000E+03 0.  0.
         13    1    1    2    0    0 -0.15005176986E+03  0.46361880334E+02  0.92434772322E+03  0.93759462572E+03  0.10566000000E+00 0.  1.
        994    1    1    2    0    0  0.21384972053E+03 -0.65404937473E+02  0.18418366218E+03  0.33651533432E+03  0.17120000000E+03 0.  0.
        998    1    1    2    0    0 -0.63797950679E+02  0.19043057138E+02  0.39146861088E+03  0.39709003996E+03  0.10000000000E+00 0.  1.
</event>
<event>
 5    1  0.2313627E-009  0.3882872E+03  0.7957747E-01  0.3415849E+00
         13   -1    0    0    0    0  0.00000000000E+00  0.00000000000E+00  0.14999999963E+04  0.15000000000E+04  0.10566000000E+00 0.  1.
        994   -1    0    0    0    0 -0.00000000000E+00 -0.00000000000E+00  0.11368683772E-12  0.17120000000E+03  0.17120000000E+03 0.  0.
         13    1    1    2    0    0  0.14795567821E+03 -0.17367696547E+03  0.12979311855E+04  0.13178315311E+04  0.10566000000E+00 0.  1.
        994    1    1    2    0    0 -0.14849951220E+03  0.17479203862E+03  0.19531107193E+03  0.34649706594E+03  0.17120000000E+03 0.  0.
        998    1    1    2    0    0  0.54383398723E+00 -0.11150731494E+01  0.67577388693E+01  0.68714029252E+01  0.10000000000E+00 0. -1.
</event>
<event>
 5    1  0.2313627E-009  0.3883009E+03  0.7957747E-01  0.3415792E+00
         13   -1    0    0    0    0  0.00000000000E+00  0.00000000000E+00  0.14999999963E+04  0.15000000000E+04  0.10566000000E+00 0. -1.
        994   -1    0    0    0    0 -0.00000000000E+00 -0.00000000000E+00  0.11368683772E-12  0.17120000000E+03  0.17120000000E+03 0.  0.
         13    1    1    2    0    0  0.16317694058E+03  0.14354790054E+03  0.10099090840E+04  0.10330290813E+04  0.10566000000E+00 0. -1.
        994    1    1    2    0    0 -0.19809194205E+03 -0.17437799573E+03  0.27417559763E+03  0.41728863061E+03  0.17120000000E+03 0.  0.
        998    1    1    2    0    0  0.34915001473E+02  0.30830095184E+02  0.21591531463E+03  0.22088228808E+03  0.10000000000E+00 0.  1.
</event>
<event>
 5    1  0.2313627E-009  0.3883008E+03  0.7957747E-01  0.3415792E+00
         13   -1    0    0    0    0  0.00000000000E+00  0.00000000000E+00  0.14999999963E+04  0.15000000000E+04  0.10566000000E+00 0.  1.
        994   -1    0    0    0    0 -0.00000000000E+00 -0.00000000000E+00  0.11368683772E-12  0.17120000000E+03  0.17120000000E+03 0.  0.
         13    1    1    2    0    0 -0.96428670228E+02  0.24217235761E+03  0.10428433317E+04  0.10749270509E+04  0.10566000000E+00 0.  1.
        994    1    1    2    0    0  0.10660001247E+03 -0.26794326616E+03  0.34654716761E+03  0.48224634360E+03  0.17120000000E+03 0.  0.
        998    1    1    2    0    0 -0.10171342240E+02  0.25770908546E+02  0.11060949698E+03  0.11402660546E+03  0.10000000000E+00 0. -1.
</event>
<event>
 5    1  0.2313627E-009  0.3882992E+03  0.7957747E-01  0.3415799E+00
         13   -1    0    0    0    0  0.00000000000E+00  0.00000000000E+00  0.14999999963E+04  0.15000000000E+04  0.10566000000E+00 0. -1.
        994   -1    0    0    0    0 -0.00000000000E+00 -0.00000000000E+00  0.11368683772E-12  0.17120000000E+03  0.17120000000E+03 0.  0.
         13    1    1    2    0    0 -0.49606058075E+02 -0.16549670350E+02  0.26710578485E+03  0.27217671475E+03  0.10566000000E+00 0. -1.
        994    1    1    2    0    0  0.23403543054E+03  0.81348334193E+02  0.23455880228E+03  0.38172949316E+03  0.17120000000E+03 0.  0.
        998    1    1    2    0    0 -0.18442937246E+03 -0.64798663844E+02  0.99833540915E+03  0.10172937921E+04  0.10000000000E+00 0. -1.
</event>
<event>
 5    1  0.2313627E-009  0.3883008E+03  0.7957747E-01  0.3415793E+00
         13   -1    0    0    0    0  0.00000000000E+00  0.00000000000E+00  0.14999999963E+04  0.15000000000E+04  0.10566000000E+00 0.  1.
        994   -1    0    0    0    0 -0.00000000000E+00 -0.00000000000E+00  0.11368683772E-12  0.17120000000E+03  0.17120000000E+03 0.  0.
         13    1    1    2    0    0  0.53545478849E+01  0.40230163306E+02  0.19900110461E+03  0.20309748404E+03  0.10566000000E+00 0.  1.
        994    1    1    2    0    0 -0.34029067316E+02 -0.25182725281E+03  0.24949230639E+03  0.39513389329E+03  0.17120000000E+03 0.  0.
        998    1    1    2    0    0  0.28674519431E+02  0.21159708950E+03  0.10515065853E+04  0.10729686227E+04  0.10000000000E+00 0.  1.
</event>
<event>
 5    1  0.2313627E-009  0.3877899E+03  0.7957747E-01  0.3417926E+00
         13   -1    0    0    0    0  0.00000000000E+00  0.00000000000E+00  0.14999999963E+04  0.15000000000E+04  0.10566000000E+00 0.  1.
        994   -1    0    0    0    0 -0.00000000000E+00 -0.00000000000E+00  0.11368683772E-12  0.17120000000E+03  0.17120000000E+03 0.  0.
         13    1    1    2    0    0 -0.15349328916E+02  0.29086431690E+03  0.62993254478E+03  0.69401201350E+03  0.10566000000E+00 0.  1.
        994    1    1    2    0    0  0.28344791421E+02 -0.34658111100E+03  0.76170272717E+03  0.85464751698E+03  0.17120000000E+03 0.  0.
        998    1    1    2    0    0 -0.12995462505E+02  0.55716794104E+02  0.10836472433E+03  0.12254046952E+03  0.10000000000E+00 0. -1.
</event>
<event>
 5    1  0.2313627E-009  0.3861153E+03  0.7957747E-01  0.3424956E+00
         13   -1    0    0    0    0  0.00000000000E+00  0.00000000000E+00  0.14999999963E+04  0.15000000000E+04  0.10566000000E+00 0. -1.
        994   -1    0    0    0    0 -0.00000000000E+00 -0.00000000000E+00  0.11368683772E-12  0.17120000000E+03  0.17120000000E+03 0.  0.
         13    1    1    2    0    0 -0.15628383219E+03  0.31196741517E+02  0.96401855837E+03  0.97710268904E+03  0.10566000000E+00 0. -1.
        994    1    1    2    0    0  0.18901565774E+03 -0.63077160332E+02  0.14424021937E+03  0.29970039691E+03  0.17120000000E+03 0.  0.
        998    1    1    2    0    0 -0.32731825550E+02  0.31880418815E+02  0.39174121854E+03  0.39439691405E+03  0.10000000000E+00 0. -1.
</event>
<event>
 5    1  0.2313627E-009  0.3882991E+03  0.7957747E-01  0.3415800E+00
         13   -1    0    0    0    0  0.00000000000E+00  0.00000000000E+00  0.14999999963E+04  0.15000000000E+04  0.10566000000E+00 0. -1.
        994   -1    0    0    0    0 -0.00000000000E+00 -0.00000000000E+00  0.11368683772E-12  0.17120000000E+03  0.17120000000E+03 0.  0.
         13    1    1    2    0    0  0.12230153094E+03  0.21099577578E+03  0.12302691042E+04  0.12542085001E+04  0.10566000000E+00 0. -1.
        994    1    1    2    0    0 -0.12533831101E+03 -0.21600536297E+03  0.23910191482E+03  0.38580717296E+03  0.17120000000E+03 0.  0.
        998    1    1    2    0    0  0.30367800699E+01  0.50095871940E+01  0.30628977246E+02  0.31184326899E+02  0.10000000000E+00 0.  1.
</event>
<event>
 5    1  0.2313627E-009  0.3881933E+03  0.7957747E-01  0.3416241E+00
         13   -1    0    0    0    0  0.00000000000E+00  0.00000000000E+00  0.14999999963E+04  0.15000000000E+04  0.10566000000E+00 0. -1.
        994   -1    0    0    0    0 -0.00000000000E+00 -0.00000000000E+00  0.11368683772E-12  0.17120000000E+03  0.17120000000E+03 0.  0.
         13    1    1    2    0    0  0.83358178938E+02  0.23763948173E+03  0.12553878757E+04  0.12803983126E+04  0.10566000000E+00 0. -1.
        994    1    1    2    0    0 -0.83406328692E+02 -0.23775310389E+03  0.24451845460E+03  0.39061729188E+03  0.17120000000E+03 0.  0.
        998    1    1    2    0    0  0.48149754563E-01  0.11362216293E+00  0.93665974329E-01  0.18439552467E+00  0.10000000000E+00 0.  0.
</event>
<event>
 5    1  0.2313627E-009  0.3883010E+03  0.7957747E-01  0.3415792E+00
         13   -1    0    0    0    0  0.00000000000E+00  0.00000000000E+00  0.14999999963E+04  0.15000000000E+04  0.10566000000E+00 0.  1.
        994   -1    0    0    0    0 -0.00000000000E+00 -0.00000000000E+00  0.11368683772E-12  0.17120000000E+03  0.17120000000E+03 0.  0.
         13    1    1    2    0    0 -0.10363624442E+03  0.25782845191E+02  0.47306439659E+03  0.48496923691E+03  0.10566000000E+00 0. -1.
        994    1    1    2    0    0  0.26377447557E+03 -0.65582736265E+02  0.29569680503E+03  0.43660521042E+03  0.17120000000E+03 0.  0.
        998    1    1    2    0    0 -0.16013823115E+03  0.39799891074E+02  0.73123879466E+03  0.74962555267E+03  0.10000000000E+00 0.  1.
</event>
<event>
 5    1  0.2313627E-009  0.3882659E+03  0.7957747E-01  0.3415938E+00
         13   -1    0    0    0    0  0.00000000000E+00  0.00000000000E+00  0.14999999963E+04  0.15000000000E+04  0.10566000000E+00 0. -1.
        994   -1    0    0    0    0 -0.00000000000E+00 -0.00000000000E+00  0.11368683772E-12  0.17120000000E+03  0.17120000000E+03 0.  0.
         13    1    1    2    0    0  0.21190709189E+03  0.69310602439E+01  0.12433848756E+04  0.12613320797E+04  0.10566000000E+00 0. -1.
        994    1    1    2    0    0 -0.22272805118E+03 -0.72487920621E+01  0.18274711767E+03  0.33521079754E+03  0.17120000000E+03 0.  0.
        998    1    1    2    0    0  0.10820959291E+02  0.31773181822E+00  0.73868002963E+02  0.74657122736E+02  0.10000000000E+00 0. -1.
</event>
<event>
 5    1  0.2313627E-009  0.3882845E+03  0.7957747E-01  0.3415861E+00
         13   -1    0    0    0    0  0.00000000000E+00  0.00000000000E+00  0.14999999963E+04  0.15000000000E+04  0.10566000000E+00 0. -1.
        994   -1    0    0    0    0 -0.00000000000E+00 -0.00000000000E+00  0.11368683772E-12  0.17120000000E+03  0.17120000000E+03 0.  0.
         13    1    1    2    0    0 -0.26032981890E+03  0.13648370466E+03  0.11267778460E+04  0.11644860418E+04  0.10566000000E+00 0. -1.
        994    1    1    2    0    0  0.26138642402E+03 -0.13679611980E+03  0.36966514574E+03  0.50298886770E+03  0.17120000000E+03 0.  0.
        998    1    1    2    0    0 -0.10566051251E+01  0.31241513921E+00  0.35570045574E+01  0.37250904728E+01  0.10000000000E+00 0. -1.
</event>
<event>
 5    1  0.2313627E-009  0.3882994E+03  0.7957747E-01  0.3415798E+00
         13   -1    0    0    0    0  0.00000000000E+00  0.00000000000E+00  0.14999999963E+04  0.15000000000E+04  0.10566000000E+00 0.  1.
        994   -1    0    0    0    0 -0.00000000000E+00 -0.00000000000E+00  0.11368683772E-12  0.17120000000E+03  0.17120000000E+03 0.  0.
         13    1    1    2    0    0 -0.12429601161E+03  0.22676109495E+03  0.12149268581E+04  0.12421422521E+04  0.10566000000E+00 0.  1.
        994    1    1    2    0    0  0.12583758423E+03 -0.22967994567E+03  0.26892362416E+03  0.41257403055E+03  0.17120000000E+03 0.  0.
        998    1    1    2    0    0 -0.15415726176E+01  0.29188507256E+01  0.16149513973E+02  0.16483717337E+02  0.10000000000E+00 0.  1.
</event>
<event>
 5    1  0.2313627E-009  0.3883006E+03  0.7957747E-01  0.3415794E+00
         13   -1    0    0    0    0  0.00000000000E+00  0.00000000000E+00  0.14999999963E+04  0.15000000000E+04  0.10566000000E+00 0. -1.
        994   -1    0    0    0    0 -0.00000000000E+00 -0.00000000000E+00  0.11368683772E-12  0.17120000000E+03  0.17120000000E+03 0.  0.
         13    1    1    2    0    0 -0.19082923990E+02 -0.21776305949E+03  0.12758203947E+04  0.12944120668E+04  0.10566000000E+00 0. -1.
        994    1    1    2    0    0  0.19596704936E+02  0.22409300192E+03  0.18670082485E+03  0.33877476641E+03  0.17120000000E+03 0.  0.
        998    1    1    2    0    0 -0.51378094591E+00 -0.63299424352E+01  0.37478776754E+02  0.38013166785E+02  0.10000000000E+00 0.  0.
</event>
<event>
 5    1  0.2313627E-009  0.3880882E+03  0.7957747E-01  0.3416679E+00
         13   -1    0    0    0    0  0.00000000000E+00  0.00000000000E+00  0.14999999963E+04  0.15000000000E+04  0.10566000000E+00 0. -1.
        994   -1    0    0    0    0 -0.00000000000E+00 -0.00000000000E+00  0.11368683772E-12  0.17120000000E+03  0.17120000000E+03 0.  0.
         13    1    1    2    0    0 -0.10273798943E+03  0.66097129617E+02  0.62979532763E+03  0.64153416969E+03  0.10566000000E+00 0. -1.
        994    1    1    2    0    0  0.20977341262E+03 -0.11651636444E+03  0.21751117383E+03  0.36633522703E+03  0.17120000000E+03 0.  0.
        998    1    1    2    0    0 -0.10703542319E+03  0.50419234823E+02  0.65269349482E+03  0.66333060327E+03  0.10000000000E+00 0. -1.
</event>
<event>
 5    1  0.2313627E-009  0.3882954E+03  0.7957747E-01  0.3415815E+00
         13   -1    0    0    0    0  0.00000000000E+00  0.00000000000E+00  0.14999999963E+04  0.15000000000E+04  0.10566000000E+00 0.  1.
        994   -1    0    0    0    0 -0.00000000000E+00 -0.00000000000E+00  0.11368683772E-12  0.17120000000E+03  0.17120000000E+03 0.  0.
         13    1    1    2    0    0  0.11122513135E+03 -0.19176936975E+03  0.12038747747E+04  0.12241164182E+04  0.10566000000E+00 0.  1.
        994    1    1    2    0    0 -0.11859451484E+03  0.20580245080E+03  0.21202209492E+03  0.36149981527E+03  0.17120000000E+03 0.  0.
        998    1    1    2    0    0  0.73693834984E+01 -0.14033081051E+02  0.84103126701E+02  0.85583766555E+02  0.10000000000E+00 0. -1.
</event>
<event>
 5    1  0.2313627E-009  0.3883007E+03  0.7957747E-01  0.3415793E+00
         13   -1    0    0    0    0  0.00000000000E+00  0.00000000000E+00  0.14999999963E+04  0.15000000000E+04  0.10566000000E+00 0. -1.
        994   -1    0    0    0    0 -0.00000000000E+00 -0.00000000000E+00  0.11368683772E-12  0.17120000000E+03  0.17120000000E+03 0.  0.
         13    1    1    2    0    0  0.24860333387E+03  0.39999208429E+02  0.10387149927E+04  0.10687995142E+04  0.10566000000E+00 0. -1.
        994    1    1    2    0    0 -0.27999272737E+03 -0.45016263257E+02  0.33097553958E+03  0.46826983582E+03  0.17120000000E+03 0.  0.
        998    1    1    2    0    0  0.31389393491E+02  0.50170548278E+01  0.13030946400E+03  0.13413065001E+03  0.10000000000E+00 0.  0.
</event>
<event>
 5    1  0.2313627E-009  0.3882621E+03  0.7957747E-01  0.3415954E+00
         13   -1    0    0    0    0  0.00000000000E+00  0.00000000000E+00  0.14999999963E+04  0.15000000000E+04  0.10566000000E+00 0.  1.
        994   -1    0    0    0    0 -0.00000000000E+00 -0.00000000000E+00  0.11368683772E-12  0.17120000000E+03  0.17120000000E+03 0.  0.
         13    1    1    2    0    0 -0.11184849293E+03 -0.17140898509E+03  0.11640684762E+04  0.11819249359E+04  0.10566000000E+00 0.  1.
        994    1    1    2    0    0  0.12752174028E+03  0.19254489453E+03  0.19851231463E+03  0.34935928457E+03  0.17120000000E+03 0.  0.
        998    1    1    2    0    0 -0.15673247353E+02 -0.21135909437E+02  0.13741920545E+03  0.13991577958E+03  0.10000000000E+00 0.  1.
</event>
<event>
 5    1  0.2313627E-009  0.3840760E+03  0.7957747E-01  0.3433601E+00
         13   -1    0    0    0    0  0.00000000000E+00  0.00000000000E+00  0.14999999963E+04  0.15000000000E+04  0.10566000000E+00 0.  1.
        994   -1    0    0    0    0 -0.00000000000E+00 -0.00000000000E+00  0.11368683772E-12  0.17120000000E+03  0.17120000000E+03 0.  0.
         13    1    1    2    0    0  0.24590717668E+02  0.19059202454E+02  0.16071376145E+03  0.16369752863E+03  0.10566000000E+00 0.  1.
        994    1    1    2    0    0 -0.96540024600E+01 -0.10235355487E+03  0.37769216122E+02  0.20323730869E+03  0.17120000000E+03 0.  0.
        998    1    1    2    0    0 -0.14936715208E+02  0.83294352420E+02  0.13015170187E+04  0.13042651627E+04  0.10000000000E+00 0.  1.
</event>
<event>
 5    1  0.2494676E-009  0.3882796E+03  0.7957747E-01  0.3415881E+00
         13   -1    0    0    0    0  0.00000000000E+00  0.00000000000E+00  0.14999999963E+04  0.15000000000E+04  0.10566000000E+00 0. -1.
        994   -1    0    0    0    0 -0.00000000000E+00 -0.00000000000E+00  0.11368683772E-12  0.17120000000E+03  0.17120000000E+03 0.  0.
         13    1    1    2    0    0 -0.34431328342E+02 -0.22383337828E+03  0.13092839431E+04  0.13287254616E+04  0.10566000000E+00 0. -1.
        994    1    1    2    0    0  0.34539903672E+02  0.22392327473E+03  0.18985830594E+03  0.34159955247E+03  0.17120000000E+03 0.  0.
        998    1    1    2    0    0 -0.10857532951E+00 -0.89896450836E-01  0.85774728525E+00  0.87498593098E+00  0.10000000000E+00 0. -1.
</event>
<event>
 5    1  0.2313627E-009  0.3882930E+03  0.7957747E-01  0.3415825E+00
         13   -1    0    0    0    0  0.00000000000E+00  0.00000000000E+00  0.14999999963E+04  0.15000000000E+04  0.10566000000E+00 0.  1.
        994   -1    0    0    0    0 -0.00000000000E+00 -0.00000000000E+00  0.11368683772E-12  0.17120000000E+03  0.17120000000E+03 0.  0.
         13    1    1    2    0    0  0.20084167826E+03 -0.57691819575E+02  0.12306822158E+04  0.12482966207E+04  0.10566000000E+00 0.  1.
        994    1    1    2    0    0 -0.21541361586E+03  0.61200703165E+02  0.18478302482E+03  0.33705008267E+03  0.17120000000E+03 0.  0.
        998    1    1    2    0    0  0.14571937601E+02 -0.35088835904E+01  0.84534755627E+02  0.85853296608E+02  0.10000000000E+00 0.  1.
</event>
<event>
 5    1  0.2313627E-009  0.3882943E+03  0.7957747E-01  0.3415820E+00
         13   -1    0    0    0    0  0.00000000000E+00  0.00000000000E+00  0.14999999963E+04  0.15000000000E+04  0.10566000000E+00 0.  1.
        994   -1    0    0    0    0 -0.00000000000E+00 -0.00000000000E+00  0.11368683772E-12  0.17120000000E+03  0.17120000000E+03 0.  0.
         13    1    1    2    0    0  0.12610456736E+03  0.86100878017E+02  0.79615776344E+03  0.81066819264E+03  0.10566000000E+00 0.  1.
        994    1    1    2    0    0 -0.20016647372E+03 -0.13689021588E+03  0.22273357259E+03  0.37111350388E+03  0.17120000000E+03 0.  0.
        998    1    1    2    0    0  0.74061906356E+02  0.50789337868E+02  0.48110866025E+03  0.48941830348E+03  0.10000000000E+00 0. -1.
</event>
<event>
 5    1  0.2313627E-009  0.3882966E+03  0.7957747E-01  0.3415810E+00
         13   -1    0    0    0    0  0.00000000000E+00  0.00000000000E+00  0.14999999963E+04  0.15000000000E+04  0.10566000000E+00 0.  1.
        994   -1    0    0    0    0 -0.00000000000E+00 -0.00000000000E+00  0.11368683772E-12  0.17120000000E+03  0.17120000000E+03 0.  0.
         13    1    1    2    0    0  0.21952804807E+03 -0.18257833300E+03  0.10371631357E+04  0.10757484803E+04  0.10566000000E+00 0.  1.
        994    1    1    2    0    0 -0.23301134799E+03  0.19323208494E+03  0.39873409797E+03  0.52908529352E+03  0.17120000000E+03 0.  0.
        998    1    1    2    0    0  0.13483299921E+02 -0.10653751944E+02  0.64102762586E+02  0.66366226188E+02  0.10000000000E+00 0. -1.
</event>
<event>
 5    1  0.2313627E-009  0.3882192E+03  0.7957747E-01  0.3416133E+00
         13   -1    0    0    0    0  0.00000000000E+00  0.00000000000E+00  0.14999999963E+04  0.15000000000E+04  0.10566000000E+00 0. -1.
        994   -1    0    0    0    0 -0.00000000000E+00 -0.00000000000E+00  0.11368683772E-12  0.17120000000E+03  0.17120000000E+03 0.  0.
         13    1    1    2    0    0 -0.29140578364E+03  0.11647615196E+03  0.10511995325E+04  0.10970435238E+04  0.10566000000E+00 0. -1.
        994    1    1    2    0    0  0.29144315253E+03 -0.11680943634E+03  0.44768647396E+03  0.57298880839E+03  0.17120000000E+03 0.  0.
        998    1    1    2    0    0 -0.37368890510E-01  0.33328437706E+00  0.11139897808E+01  0.11676678217E+01  0.10000000000E+00 0. -1.
</event>
<event>
 5    1  0.4164489E-009  0.3882814E+03  0.7957747E-01  0.3415874E+00
         13   -1    0    0    0    0  0.00000000000E+00  0.00000000000E+00  0.14999999963E+04  0.15000000000E+04  0.10566000000E+00 0.  1.
        994   -1    0    0    0    0 -0.00000000000E+00 -0.00000000000E+00  0.11368683772E-12  0.17120000000E+03  0.17120000000E+03 0.  0.
         13    1    1    2    0    0 -0.25597210528E+03  0.18696529244E+02  0.12433205028E+04  0.12695342306E+04  0.10566000000E+00 0.  1.
        994    1    1    2    0    0  0.25607370708E+03 -0.18773396581E+02  0.25598843696E+03  0.40095598727E+03  0.17120000000E+03 0.  0.
        998    1    1    2    0    0 -0.10160179530E+00  0.76867336743E-01  0.69105650415E+00  0.70978208219E+00  0.10000000000E+00 0.  1.
</event>
<event>
 5    1  0.2313627E-009  0.3882905E+03  0.7957747E-01  0.3415835E+00
         13   -1    0    0    0    0  0.00000000000E+00  0.00000000000E+00  0.14999999963E+04  0.15000000000E+04  0.10566000000E+00 0. -1.
        994   -1    0    0    0    0 -0.00000000000E+00 -0.00000000000E+00  0.11368683772E-12  0.17120000000E+03  0.17120000000E+03 0.  0.
         13    1    1    2    0    0  0.41729340102E+02  0.21901240018E+03  0.12968686821E+04  0.13158936731E+04  0.10566000000E+00 0. -1.
        994    1    1    2    0    0 -0.42345717236E+02 -0.22186884543E+03  0.18849379516E+03  0.34037963388E+03  0.17120000000E+03 0.  0.
        998    1    1    2    0    0  0.61637713423E+00  0.28564452499E+01  0.14637519015E+02  0.14926692974E+02  0.10000000000E+00 0. -1.
</event>
<event>
 5    1  0.2313627E-009  0.3882695E+03  0.7957747E-01  0.3415923E+00
         13   -1    0    0    0    0  0.00000000000E+00  0.00000000000E+00  0.14999999963E+04  0.15000000000E+04  0.10566000000E+00 0.  1.
        994   -1    0    0    0    0 -0.00000000000E+00 -0.00000000000E+00  0.11368683772E-12  0.17120000000E+03  0.17120000000E+03 0.  0.
         13    1    1    2    0    0  0.12758705329E+03 -0.14580224262E+03  0.10079902454E+04  0.10264409852E+04  0.10566000000E+00 0.  1.
        994    1    1    2    0    0 -0.16178080290E+03  0.18110020597E+03  0.22351750109E+03  0.37180616735E+03  0.17120000000E+03 0.  0.
        998    1    1    2    0    0  0.34193749610E+02 -0.35297963356E+02  0.26849224980E+03  0.27295284745E+03  0.10000000000E+00 0.  1.
</event>
<event>
 5    1  0.2313627E-009  0.3882952E+03  0.7957747E-01  0.3415816E+00
         13   -1    0    0    0    0  0.00000000000E+00  0.00000000000E+00  0.14999999963E+04  0.15000000000E+04  0.10566000000E+00 0.  1.
        994   -1    0    0    0    0 -0.00000000000E+00 -0.00000000000E+00  0.11368683772E-12  0.17120000000E+03  0.17120000000E+03 0.  0.
         13    1    1    2    0    0  0.82619173878E+02  0.25233917780E+03  0.12123671073E+04  0.12411023337E+04  0.10566000000E+00 0.  1.
        994    1    1    2    0    0 -0.83101749294E+02 -0.25342420367E+03  0.28162103608E+03  0.42396883813E+03  0.17120000000E+03 0.  0.
        998    1    1    2    0    0  0.48257541659E+00  0.10850258676E+01  0.60118528944E+01  0.61288282233E+01  0.10000000000E+00 0.  1.
</event>
<event>
 5    1  0.2313627E-009  0.3882857E+03  0.7957747E-01  0.3415856E+00
         13   -1    0    0    0    0  0.00000000000E+00  0.00000000000E+00  0.14999999963E+04  0.15000000000E+04  0.10566000000E+00 0.  1.
        994   -1    0    0    0    0 -0.00000000000E+00 -0.00000000000E+00  0.11368683772E-12  0.17120000000E+03  0.17120000000E+03 0.  0.
         13    1    1    2    0    0  0.23949441996E+03  0.13234458226E+02  0.12769049770E+04  0.12992378764E+04  0.10566000000E+00 0.  1.
        994    1    1    2    0    0 -0.24048073577E+03 -0.13216273487E+02  0.21913374164E+03  0.36787863609E+03  0.17120000000E+03 0.  0.
        998    1    1    2    0    0  0.98631581818E+00 -0.18184738908E-01  0.39612776297E+01  0.40834874847E+01  0.10000000000E+00 0.  1.
</event>
<event>
 5    1  0.2313627E-009  0.3696126E+03  0.7957747E-01  0.3497673E+00
         13   -1    0    0    0    0  0.00000000000E+00  0.00000000000E+00  0.14999999963E+04  0.15000000000E+04  0.10566000000E+00 0. -1.
        994   -1    0    0    0    0 -0.00000000000E+00 -0.00000000000E+00  0.11368683772E-12  0.17120000000E+03  0.17120000000E+03 0.  0.
         13    1    1    2    0    0 -0.37122241477E+02 -0.14587060685E+02  0.10679566419E+03  0.11400073774E+03  0.10566000000E+00 0. -1.
        994    1    1    2    0    0 -0.27934711340E+02 -0.15062934538E+03  0.97809032362E+02  0.24969099823E+03  0.17120000000E+03 0.  0.
        998    1    1    2    0    0  0.65056952817E+02  0.16521640606E+03  0.12953952997E+04  0.13075082640E+04  0.10000000000E+00 0. -1.
</event>
<event>
 5    1  0.2313627E-009  0.3883007E+03  0.7957747E-01  0.3415793E+00
         13   -1    0    0    0    0  0.00000000000E+00  0.00000000000E+00  0.14999999963E+04  0.15000000000E+04  0.10566000000E+00 0. -1.
        994   -1    0    0    0    0 -0.00000000000E+00 -0.00000000000E+00  0.11368683772E-12  0.17120000000E+03  0.17120000000E+03 0.  0.
         13    1    1    2    0    0  0.21639145106E+03  0.16185216050E+03  0.10725771253E+04  0.11060936140E+04  0.10566000000E+00 0. -1.
        994    1    1    2    0    0 -0.23198089590E+03 -0.17337646624E+03  0.35072353448E+03  0.48599482790E+03  0.17120000000E+03 0.  0.
        998    1    1    2    0    0  0.15589444831E+02  0.11524305739E+02  0.76699336486E+02  0.79111558133E+02  0.10000000000E+00 0. -1.
</event>
<event>
 5    1  0.2313627E-009  0.3881886E+03  0.7957747E-01  0.3416261E+00
         13   -1    0    0    0    0  0.00000000000E+00  0.00000000000E+00  0.14999999963E+04  0.15000000000E+04  0.10566000000E+00 0. -1.
        994   -1    0    0    0    0 -0.00000000000E+00 -0.00000000000E+00  0.11368683772E-12  0.17120000000E+03  0.17120000000E+03 0.  0.
         13    1    1    2    0    0 -0.18694478385E+03 -0.14023635882E+03  0.12469551412E+04  0.12686653317E+04  0.10566000000E+00 0. -1.
        994    1    1    2    0    0  0.19054670891E+03  0.14552546180E+03  0.21693812143E+03  0.36586513477E+03  0.17120000000E+03 0.  0.
        998    1    1    2    0    0 -0.36019250623E+01 -0.52891029802E+01  0.36106733668E+02  0.36669533549E+02  0.10000000000E+00 0.  1.
</event>
<event>
 5    1  0.2313627E-009  0.3881793E+03  0.7957747E-01  0.3416299E+00
         13   -1    0    0    0    0  0.00000000000E+00  0.00000000000E+00  0.14999999963E+04  0.15000000000E+04  0.10566000000E+00 0.  1.
        994   -1    0    0    0    0 -0.00000000000E+00 -0.00000000000E+00  0.11368683772E-12  0.17120000000E+03  0.17120000000E+03 0.  0.
         13    1    1    2    0    0  0.20712002703E+02 -0.82271505410E+01  0.11027406234E+03  0.11250356906E+03  0.10566000000E+00 0.  1.
        994    1    1    2    0    0 -0.22680962449E+03  0.55736034836E+02  0.20392398864E+03  0.35418010176E+03  0.17120000000E+03 0.  0.
        998    1    1    2    0    0  0.20609762179E+03 -0.47508884295E+02  0.11858019453E+04  0.12045163292E+04  0.10000000000E+00 0.  1.
</event>
<event>
 5    1  0.2313627E-009  0.3881183E+03  0.7957747E-01  0.3416554E+00
         13   -1    0    0    0    0  0.00000000000E+00  0.00000000000E+00  0.14999999963E+04  0.15000000000E+04  0.10566000000E+00 0. -1.
        994   -1    0    0    0    0 -0.00000000000E+00 -0.00000000000E+00  0.11368683772E-12  0.17120000000E+03  0.17120000000E+03 0.  0.
         13    1    1    2    0    0  0.19513596649E+03  0.12107641200E+03  0.12188105088E+04  0.12402566712E+04  0.10566000000E+00 0. -1.
        994    1    1    2    0    0 -0.20549384037E+03 -0.13006007787E+03  0.22452882692E+03  0.37264725466E+03  0.17120000000E+03 0.  0.
        998    1    1    2    0    0  0.10357873884E+02  0.89836658732E+01  0.56660660561E+02  0.58296074132E+02  0.10000000000E+00 0. -1.
</event>
<event>
 5    1  0.2313627E-009  0.3883009E+03  0.7957747E-01  0.3415792E+00
         13   -1    0    0    0    0  0.00000000000E+00  0.00000000000E+00  0.14999999963E+04  0.15000000000E+04  0.10566000000E+00 0.  1.
        994   -1    0    0    0    0 -0.00000000000E+00 -0.00000000000E+00  0.11368683772E-12  0.17120000000E+03  0.17120000000E+03 0.  0.
         13    1    1    2    0    0  0.16267435834E+03 -0.44362344971E+02  0.96471491399E+03  0.97933949219E+03  0.10566000000E+00 0.  1.
        994    1    1    2    0    0 -0.22027590595E+03  0.59935335537E+02  0.19317642832E+03  0.34458713216E+03  0.17120000000E+03 0.  0.
        998    1    1    2    0    0  0.57601547611E+02 -0.15572990566E+02  0.34210865397E+03  0.34727337566E+03  0.10000000000E+00 0.  1.
</event>
<event>
 5    1  0.2313627E-009  0.3881757E+03  0.7957747E-01  0.3416315E+00
         13   -1    0    0    0    0  0.00000000000E+00  0.00000000000E+00  0.14999999963E+04  0.15000000000E+04  0.10566000000E+00 0. -1.
        994   -1    0    0    0    0 -0.00000000000E+00 -0.00000000000E+00  0.11368683772E-12  0.17120000000E+03  0.17120000000E+03 0.  0.
         13    1    1    2    0    0  0.24971494443E+03 -0.11751307101E+03  0.11801051094E+04  0.12119467628E+04  0.10566000000E+00 0. -1.
        994    1    1    2    0    0 -0.25040198507E+03  0.11853919538E+03  0.31114020637E+03  0.45041132644E+03  0.17120000000E+03 0.  0.
        998    1    1    2    0    0  0.68704063825E+00 -0.10261243661E+01  0.87546804820E+01  0.88419107887E+01  0.10000000000E+00 0. -1.
</event>
<event>
 5    1  0.2313627E-009  0.3882993E+03  0.7957747E-01  0.3415799E+00
         13   -1    0    0    0    0  0.00000000000E+00  0.00000000000E+00  0.14999999963E+04  0.15000000000E+04  0.10566000000E+00 0. -1.
        994   -1    0    0    0    0 -0.00000000000E+00 -0.00000000000E+00  0.11368683772E-12  0.17120000000E+03  0.17120000000E+03 0.  0.
         13    1    1    2    0    0  0.13859944573E+03  0.15992983365E+03  0.12530465238E+04  0.12707922569E+04  0.10566000000E+00 0. -1.
        994    1    1    2    0    0 -0.14570683909E+03 -0.16791995388E+03  0.18172125663E+03  0.33430472473E+03  0.17120000000E+03 0.  0.
        998    1    1    2    0    0  0.71073933574E+01  0.79901202237E+01  0.65232215815E+02  0.66103018401E+02  0.10000000000E+00 0.  1.
</event>
<event>
 5    1  0.2313627E-009  0.3870893E+03  0.7957747E-01  0.3420859E+00
         13   -1    0    0    0    0  0.00000000000E+00  0.00000000000E+00  0.14999999963E+04  0.15000000000E+04  0.10566000000E+00 0. -1.
        994   -1    0    0    0    0 -0.00000000000E+00 -0.00000000000E+00  0.11368683772E-12  0.17120000000E+03  0.17120000000E+03 0.  0.
         13    1    1    2    0    0 -0.39608341019E+01  0.17421773300E+02  0.86811162945E+02  0.88630669452E+02  0.10566000000E+00 0. -1.
        994    1    1    2    0    0  0.16366076984E+02 -0.12826432524E+03  0.57249803488E+02  0.22205081762E+03  0.17120000000E+03 0.  0.
        998    1    1    2    0    0 -0.12405242882E+02  0.11084255194E+03  0.13559390298E+04  0.13605185129E+04  0.10000000000E+00 0. -1.
</event>
<event>
 5    1  0.2313627E-009  0.3882707E+03  0.7957747E-01  0.3415918E+00
         13   -1    0    0    0    0  0.00000000000E+00  0.00000000000E+00  0.14999999963E+04  0.15000000000E+04  0.10566000000E+00 0.  1.
        994   -1    0    0    0    0 -0.00000000000E+00 -0.00000000000E+00  0.11368683772E-12  0.17120000000E+03  0.17120000000E+03 0.  0.
         13    1    1    2    0    0  0.56769806663E+02 -0.27874112712E+03  0.11640422436E+04  0.11982962001E+04  0.10566000000E+00 0.  1.
        994    1    1    2    0    0 -0.56934358386E+02  0.27890235399E+03  0.33444860987E+03  0.47137390347E+03  0.17120000000E+03 0.  0.
        998    1    1    2    0    0  0.16455172313E+00 -0.16122686809E+00  0.15091427579E+01  0.15298964789E+01  0.10000000000E+00 0. -1.
</event>
<event>
 5    1  0.2313627E-009  0.3880610E+03  0.7957747E-01  0.3416793E+00
         13   -1    0    0    0    0  0.00000000000E+00  0.00000000000E+00  0.14999999963E+04  0.15000000000E+04  0.10566000000E+00 0. -1.
        994   -1    0    0    0    0 -0.00000000000E+00 -0.00000000000E+00  0.11368683772E-12  0.17120000000E+03  0.17120000000E+03 0.  0.
         13    1    1    2    0    0 -0.26983087118E+03 -0.11055476088E+03  0.11315414091E+04  0.11685106015E+04  0.10566000000E+00 0. -1.
        994    1    1    2    0    0  0.27104413792E+03  0.10985241498E+03  0.36115697507E+03  0.49525375154E+03  0.17120000000E+03 0.  0.
        998    1    1    2    0    0 -0.12132667347E+01  0.70234589467E+00  0.73016121264E+01  0.74356469503E+01  0.10000000000E+00 0. -1.
</event>
<event>
 5    1  0.2313627E-009  0.3874855E+03  0.7957747E-01  0.3419199E+00
         13   -1    0    0    0    0  0.00000000000E+00  0.00000000000E+00  0.14999999963E+04  0.15000000000E+04  0.10566000000E+00 0.  1.
        994   -1    0    0    0    0 -0.00000000000E+00 -0.00000000000E+00  0.11368683772E-12  0.17120000000E+03  0.17120000000E+03 0.  0.
         13    1    1    2    0    0 -0.24241294852E+03 -0.68761731453E+02  0.11144469596E+04  0.11425778968E+04  0.10566000000E+00 0.  1.
        994    1    1    2    0    0  0.25823291944E+03  0.66677471071E+02  0.28315989912E+03  0.42499305206E+03  0.17120000000E+03 0.  0.
        998    1    1    2    0    0 -0.15819970915E+02  0.20842603828E+01  0.10239313753E+03  0.10362905111E+03  0.10000000000E+00 0. -1.
</event>
<event>
 5    1  0.2313627E-009  0.3882371E+03  0.7957747E-01  0.3416058E+00
         13   -1    0    0    0    0  0.00000000000E+00  0.00000000000E+00  0.14999999963E+04  0.15000000000E+04  0.10566000000E+00 0.  1.
        994   -1    0    0    0    0 -0.00000000000E+00 -0.00000000000E+00  0.11368683772E-12  0.17120000000E+03  0.17120000000E+03 0.  0.
         13    1    1    2    0    0 -0.15564661084E+03  0.18461317075E+03  0.12634211683E+04  0.12862896058E+04  0.10566000000E+00 0.  1.
        994    1    1    2    0    0  0.15633397503E+03 -0.18602877945E+03  0.22391388551E+03  0.37214766781E+03  0.17120000000E+03 0.  0.
        998    1    1    2    0    0 -0.68736418291E+00  0.14156086999E+01  0.12664942479E+02  0.12762726414E+02  0.10000000000E+00 0. -1.
</event>
<event>
 5    1  0.2313627E-009  0.3882950E+03  0.7957747E-01  0.3415817E+00
         13   -1    0    0    0    0  0.00000000000E+00  0.00000000000E+00  0.14999999963E+04  0.15000000000E+04  0.10566000000E+00 0. -1.
        994   -1    0    0    0    0 -0.00000000000E+00 -0.00000000000E+00  0.11368683772E-12  0.17120000000E+03  0.17120000000E+03 0.  0.
         13    1    1    2    0    0 -0.20822085529E+03 -0.11155381298E+03  0.12339594718E+04  0.12563662551E+04  0.10566000000E+00 0. -1.
        994    1    1    2    0    0  0.21476460331E+03  0.11565532131E+03  0.22588747291E+03  0.37394461970E+03  0.17120000000E+03 0.  0.
        998    1    1    2    0    0 -0.65437480198E+01 -0.41015083291E+01  0.40153051581E+02  0.40889125204E+02  0.10000000000E+00 0.  1.
</event>
<event>
 5    1  0.2313627E-009  0.3804396E+03  0.7957747E-01  0.3449247E+00
         13   -1    0    0    0    0  0.00000000000E+00  0.00000000000E+00  0.14999999963E+04  0.15000000000E+04  0.10566000000E+00 0.  1.
        994   -1    0    0    0    0 -0.00000000000E+00 -0.00000000000E+00  0.11368683772E-12  0.17120000000E+03  0.17120000000E+03 0.  0.
         13    1    1    2    0    0  0.22066213280E+02  0.50744137362E+02  0.13964902374E+03  0.15021233718E+03  0.10566000000E+00 0.  1.
        994    1    1    2    0    0  0.42073997820E+02 -0.25200213330E+03  0.26656203634E+03  0.40698901177E+03  0.17120000000E+03 0.  0.
        998    1    1    2    0    0 -0.64140211100E+02  0.20125799594E+03  0.10937889362E+04  0.11139986510E+04  0.10000000000E+00 0.  1.
</event>
<event>
 5    1  0.2313627E-009  0.3882875E+03  0.7957747E-01  0.3415848E+00
         13   -1    0    0    0    0  0.00000000000E+00  0.00000000000E+00  0.14999999963E+04  0.15000000000E+04  0.10566000000E+00 0. -1.
        994   -1    0    0    0    0 -0.00000000000E+00 -0.00000000000E+00  0.11368683772E-12  0.17120000000E+03  0.17120000000E+03 0.  0.
         13    1    1    2    0    0  0.26120000330E+03  0.32814606095E+02  0.11917646263E+04  0.12204938245E+04  0.10566000000E+00 0. -1.
        994    1    1    2    0    0 -0.26648279865E+03 -0.33579782029E+02  0.28677188725E+03  0.42858865950E+03  0.17120000000E+03 0.  0.
        998    1    1    2    0    0  0.52827953498E+01  0.76517593476E+00  0.21463482775E+02  0.22117515994E+02  0.10000000000E+00 0.  1.
</event>
<event>
 5    1  0.2313627E-009  0.3871457E+03  0.7957747E-01  0.3420623E+00
         13   -1    0    0    0    0  0.00000000000E+00  0.00000000000E+00  0.14999999963E+04  0.15000000000E+04  0.10566000000E+00 0.  1.
        994   -1    0    0    0    0 -0.00000000000E+00 -0.00000000000E+00  0.11368683772E-12  0.17120000000E+03  0.17120000000E+03 0.  0.
         13    1    1    2    0    0 -0.22725697218E+03 -0.75924485457E+02  0.11884476051E+04  0.12123604992E+04  0.10566000000E+00 0.  1.
        994    1    1    2    0    0  0.24229277600E+03  0.86603071045E+02  0.25929020769E+03  0.40341880598E+03  0.17120000000E+03 0.  0.
        998    1    1    2    0    0 -0.15035803813E+02 -0.10678585588E+02  0.52262183503E+02  0.55420694790E+02  0.10000000000E+00 0.  1.
</event>
<event>
 5    1  0.2313627E-009  0.3863997E+03  0.7957747E-01  0.3423757E+00
         13   -1    0    0    0    0  0.00000000000E+00  0.00000000000E+00  0.14999999963E+04  0.15000000000E+04  0.10566000000E+00 0. -1.
        994   -1    0    0    0    0 -0.00000000000E+00 -0.00000000000E+00  0.11368683772E-12  0.17120000000E+03  0.17120000000E+03 0.  0.
         13    1    1    2    0    0  0.34181181526E+02 -0.12972001849E+02  0.19521391974E+03  0.19860793445E+03  0.10566000000E+00 0. -1.
        994    1    1    2    0    0 -0.11508492268E+03  0.10192496130E+03  0.82545707139E+02  0.24445136721E+03  0.17120000000E+03 0.  0.
        998    1    1    2    0    0  0.80903741154E+02 -0.88952959449E+02  0.12222403694E+04  0.12281406983E+04  0.10000000000E+00 0. -1.
</event>
<event>
 5    1  0.2313627E-009  0.3882817E+03  0.7957747E-01  0.3415872E+00
         13   -1    0    0    0    0  0.00000000000E+00  0.00000000000E+00  0.14999999963E+04  0.15000000000E+04  0.10566000000E+00 0.  1.
        994   -1    0    0    0    0 -0.00000000000E+00 -0.00000000000E+00  0.11368683772E-12  0.17120000000E+03  0.17120000000E+03 0.  0.
         13    1    1    2    0    0 -0.30853994658E+03  0.68982380085E+02  0.10226488399E+04  0.10704046563E+04  0.10566000000E+00 0.  1.
        994    1    1    2    0    0  0.31092792698E+03 -0.69054384773E+02  0.46962205426E+03  0.59270481496E+03  0.17120000000E+03 0.  0.
        998    1    1    2    0    0 -0.23879804019E+01  0.72004688554E-01  0.77291021130E+01  0.80905286940E+01  0.10000000000E+00 0.  1.
</event>
<event>
 5    1  0.2313627E-009  0.3882674E+03  0.7957747E-01  0.3415932E+00
         13   -1    0    0    0    0  0.00000000000E+00  0.00000000000E+00  0.14999999963E+04  0.15000000000E+04  0.10566000000E+00 0.  1.
        994   -1    0    0    0    0 -0.00000000000E+00 -0.00000000000E+00  0.11368683772E-12  0.17120000000E+03  0.17120000000E+03 0.  0.
         13    1    1    2    0    0 -0.21670198873E+03  0.11121804385E+03  0.90757395282E+03  0.93969127707E+03  0.10566000000E+00 0.  1.
        994    1    1    2    0    0  0.26426085640E+03 -0.13925618205E+03  0.38332120423E+03  0.51523845943E+03  0.17120000000E+03 0.  0.
        998    1    1    2    0    0 -0.47558867663E+02  0.28038138197E+02  0.20910483923E+03  0.21627026350E+03  0.10000000000E+00 0. -1.
</event>
<event>
 5    1  0.2313627E-009  0.3868237E+03  0.7957747E-01  0.3421974E+00
         13   -1    0    0    0    0  0.00000000000E+00  0.00000000000E+00  0.14999999963E+04  0.15000000000E+04  0.10566000000E+00 0. -1.
        994   -1    0    0    0    0 -0.00000000000E+00 -0.00000000000E+00  0.11368683772E-12  0.17120000000E+03  0.17120000000E+03 0.  0.
         13    1    1    2    0    0 -0.12277099929E+03 -0.20077312156E+03  0.12600853751E+04  0.12818727427E+04  0.10566000000E+00 0. -1.
        994    1    1    2    0    0  0.11860258567E+03  0.20547103076E+03  0.21351843420E+03  0.36219398056E+03  0.17120000000E+03 0.  0.
        998    1    1    2    0    0  0.41684136151E+01 -0.46979092076E+01  0.26396186965E+02  0.27133276789E+02  0.10000000000E+00 0.  1.
</event>
<event>
 5    1  0.2313627E-009  0.3882914E+03  0.7957747E-01  0.3415832E+00
         13   -1    0    0    0    0  0.00000000000E+00  0.00000000000E+00  0.14999999963E+04  0.15000000000E+04  0.10566000000E+00 0. -1.
        994   -1    0    0    0    0 -0.00000000000E+00 -0.00000000000E+00  0.11368683772E-12  0.17120000000E+03  0.17120000000E+03 0.  0.
         13    1    1    2    0    0  0.54510215796E+02 -0.15964543784E+03  0.91716634797E+03  0.93255141974E+03  0.10566000000E+00 0. -1.
        994    1    1    2    0    0 -0.75413559446E+02  0.22297852602E+03  0.20754209117E+03  0.35747697495E+03  0.17120000000E+03 0.  0.
        998    1    1    2    0    0  0.20903343650E+02 -0.63333088181E+02  0.37529155713E+03  0.38117160531E+03  0.10000000000E+00 0.  1.
</event>
<event>
 5    1  0.2313627E-009  0.3883001E+03  0.7957747E-01  0.3415796E+00
         13   -1    0    0    0    0  0.00000000000E+00  0.00000000000E+00  0.14999999963E+04  0.15000000000E+04  0.10566000000E+00 0.  1.
        994   -1    0    0    0    0 -0.00000000000E+00 -0.00000000000E+00  0.11368683772E-12  0.17120000000E+03  0.17120000000E+03 0.  0.
         13    1    1    2    0    0  0.13851415116E+02  0.13432061518E+02  0.96480481804E+02  0.98390937136E+02  0.10566000000E+00 0.  1.
        994    1    1    2    0    0 -0.17773057779E+03 -0.17433372356E+03  0.23729522656E+03  0.38418598361E+03  0.17120000000E+03 0.  0.
        998    1    1    2    0    0  0.16387916268E+03  0.16090166205E+03  0.11662242879E+04  0.11886230793E+04  0.10000000000E+00 0.  1.
</event>
<event>
 5    1  0.2313627E-009  0.3882493E+03  0.7957747E-01  0.3416007E+00
         13   -1    0    0    0    0  0.00000000000E+00  0.00000000000E+00  0.14999999963E+04  0.15000000000E+04  0.10566000000E+00 0.  1.
        994   -1    0    0    0    0 -0.00000000000E+00 -0.00000000000E+00  0.11368683772E-12  0.17120000000E+03  0.17120000000E+03 0.  0.
         13    1    1    2    0    0  0.22656309800E+03  0.74122700049E+02  0.12118279920E+04  0.12350514586E+04  0.10566000000E+00 0.  1.
        994    1    1    2    0    0 -0.23653065268E+03 -0.75522206062E+02  0.23584217105E+03  0.38285940358E+03  0.17120000000E+03 0.  0.
        998    1    1    2    0    0  0.99675546763E+01  0.13995060133E+01  0.52329833235E+02  0.53289137821E+02  0.10000000000E+00 0.  1.
</event>
<event>
 5    1  0.2313627E-009  0.3882918E+03  0.7957747E-01  0.3415830E+00
         13   -1    0    0    0    0  0.00000000000E+00  0.00000000000E+00  0.14999999963E+04  0.15000000000E+04  0.10566000000E+00 0.  1.
        994   -1    0    0    0    0 -0.00000000000E+00 -0.00000000000E+00  0.11368683772E-12  0.17120000000E+03  0.17120000000E+03 0.  0.
         13    1    1    2    0    0  0.13708455270E+03  0.11084743094E+03  0.85200942704E+03  0.87005712598E+03  0.10566000000E+00 0.  1.
        994    1    1    2    0    0 -0.20096202947E+03 -0.16310467549E+03  0.26110928354E+03  0.40555686458E+03  0.17120000000E+03 0.  0.
        998    1    1    2    0    0  0.63877476773E+02  0.52257244552E+02  0.38688128570E+03  0.39558600945E+03  0.10000000000E+00 0. -1.
</event>
<event>
 5    1  0.2313627E-009  0.3780619E+03  0.7957747E-01  0.3459641E+00
         13   -1    0    0    0    0  0.00000000000E+00  0.00000000000E+00  0.14999999963E+04  0.15000000000E+04  0.10566000000E+00 0. -1.
        994   -1    0    0    0    0 -0.00000000000E+00 -0.00000000000E+00  0.11368683772E-12  0.17120000000E+03  0.17120000000E+03 0.  0.
         13    1    1    2    0    0 -0.78120689952E+02  0.11273946129E+03  0.76343329276E+03  0.77565677460E+03  0.10566000000E+00 0. -1.
        994    1    1    2    0    0  0.39503858588E+02 -0.16258909402E+03  0.10595309651E+03  0.26178477228E+03  0.17120000000E+03 0.  0.
        998    1    1    2    0    0  0.38616831365E+02  0.49849632731E+02  0.63061360701E+03  0.63375845312E+03  0.10000000000E+00 0. -1.
</event>
<event>
 5    1  0.2313627E-009  0.3882907E+03  0.7957747E-01  0.3415835E+00
         13   -1    0    0    0    0  0.00000000000E+00  0.00000000000E+00  0.14999999963E+04  0.15000000000E+04  0.10566000000E+00 0. -1.
        994   -1    0    0    0    0 -0.00000000000E+00 -0.00000000000E+00  0.11368683772E-12  0.17120000000E+03  0.17120000000E+03 0.  0.
         13    1    1    2    0    0  0.10361699145E+03 -0.15262938534E+03  0.71343988968E+03  0.73690480901E+03  0.10566000000E+00 0. -1.
        994    1    1    2    0    0 -0.16655412085E+03  0.24076992644E+03  0.36162231505E+03  0.49577270134E+03  0.17120000000E+03 0.  0.
        998    1    1    2    0    0  0.62937129407E+02 -0.88140541109E+02  0.42493779155E+03  0.43852248965E+03  0.10000000000E+00 0.  1.
</event>
<event>
 5    1  0.2313627E-009  0.3847017E+03  0.7957747E-01  0.3430938E+00
         13   -1    0    0    0    0  0.00000000000E+00  0.00000000000E+00  0.14999999963E+04  0.15000000000E+04  0.10566000000E+00 0.  1.
        994   -1    0    0    0    0 -0.00000000000E+00 -0.00000000000E+00  0.11368683772E-12  0.17120000000E+03  0.17120000000E+03 0.  0.
         13    1    1    2    0    0 -0.47596995234E+01  0.27086165327E+02  0.13131463411E+03  0.13416355462E+03  0.10566000000E+00 0.  1.
        994    1    1    2    0    0  0.18059544661E+03 -0.99065679738E+02  0.15682917374E+03  0.31037647136E+03  0.17120000000E+03 0.  0.
        998    1    1    2    0    0 -0.17583574708E+03  0.71979514411E+02  0.12118561884E+04  0.12266599740E+04  0.10000000000E+00 0.  1.
</event>
<event>
 5    1  0.2313627E-009  0.3882752E+03  0.7957747E-01  0.3415899E+00
         13   -1    0    0    0    0  0.00000000000E+00  0.00000000000E+00  0.14999999963E+04  0.15000000000E+04  0.10566000000E+00 0.  1.
        994   -1    0    0    0    0 -0.00000000000E+00 -0.00000000000E+00  0.11368683772E-12  0.17120000000E+03  0.17120000000E+03 0.  0.
         13    1    1    2    0    0  0.19171968877E+03 -0.28061553151E+03  0.86903270884E+03  0.93312345152E+03  0.10566000000E+00 0.  1.
        994    1    1    2    0    0 -0.19247930455E+03  0.28145194234E+03  0.62712130928E+03  0.73406679197E+03  0.17120000000E+03 0.  0.
        998    1    1    2    0    0  0.75961578455E+00 -0.83641082786E+00  0.38459781594E+01  0.40097565033E+01  0.10000000000E+00 0. -1.
</event>
<event>
 5    1  0.2313627E-009  0.2665606E+03  0.7957747E-01  0.4168051E+00
         13   -1    0    0    0    0  0.00000000000E+00  0.00000000000E+00  0.14999999963E+04  0.15000000000E+04  0.10566000000E+00 0. -1.
        994   -1    0    0    0    0 -0.00000000000E+00 -0.00000000000E+00  0.11368683772E-12  0.17120000000E+03  0.17120000000E+03 0.  0.
         13    1    1    2    0    0  0.51771215517E+02  0.12594165862E+03  0.64923339642E+03  0.66335931012E+03  0.10566000000E+00 0. -1.
        994    1    1    2    0    0  0.12669176204E+03 -0.92773129951E+02  0.13344356451E+03  0.26790722484E+03  0.17120000000E+03 0.  0.
        998    1    1    2    0    0 -0.17846297756E+03 -0.33168528672E+02  0.71732303535E+03  0.73993346505E+03  0.10000000000E+00 0. -1.
</event>
<event>
 5    1  0.2957503E-009  0.3882827E+03  0.7957747E-01  0.3415868E+00
         13   -1    0    0    0    0  0.00000000000E+00  0.00000000000E+00  0.14999999963E+04  0.15000000000E+04  0.10566000000E+00 0.  1.
        994   -1    0    0    0    0 -0.00000000000E+00 -0.00000000000E+00  0.11368683772E-12  0.17120000000E+03  0.17120000000E+03 0.  0.
         13    1    1    2    0    0 -0.33457339553E+02  0.23906884171E+03  0.12773064261E+04  0.12999173135E+04  0.10566000000E+00 0.  1.
        994    1    1    2    0    0  0.33601342267E+02 -0.23927452452E+03  0.22083206321E+03  0.36940166273E+03  0.17120000000E+03 0.  0.
        998    1    1    2    0    0 -0.14400271384E+00  0.20568280788E+00  0.18615069724E+01  0.18810237657E+01  0.10000000000E+00 0. -1.
</event>
<event>
 5    1  0.2313627E-009  0.3742339E+03  0.7957747E-01  0.3476656E+00
         13   -1    0    0    0    0  0.00000000000E+00  0.00000000000E+00  0.14999999963E+04  0.15000000000E+04  0.10566000000E+00 0. -1.
        994   -1    0    0    0    0 -0.00000000000E+00 -0.00000000000E+00  0.11368683772E-12  0.17120000000E+03  0.17120000000E+03 0.  0.
         13    1    1    2    0    0 -0.23701060967E+02  0.12734366056E+02  0.73185169042E+02  0.77974255377E+02  0.10566000000E+00 0. -1.
        994    1    1    2    0    0  0.42403920382E+02  0.23274014803E+03  0.23101914646E+03  0.37235111790E+03  0.17120000000E+03 0.  0.
        998    1    1    2    0    0 -0.18702859415E+02 -0.24547451409E+03  0.11957956808E+04  0.12208746267E+04  0.10000000000E+00 0. -1.
</event>
<event>
 5    1  0.2313627E-009  0.3882946E+03  0.7957747E-01  0.3415819E+00
         13   -1    0    0    0    0  0.00000000000E+00  0.00000000000E+00  0.14999999963E+04  0.15000000000E+04  0.10566000000E+00 0.  1.
        994   -1    0    0    0    0 -0.00000000000E+00 -0.00000000000E+00  0.11368683772E-12  0.17120000000E+03  0.17120000000E+03 0.  0.
         13    1    1    2    0    0  0.20469916204E+03 -0.20315701230E+03  0.10187489323E+04  0.10587841692E+04  0.10566000000E+00 0.  1.
        994    1    1    2    0    0 -0.21830990237E+03  0.21615990823E+03  0.41724299125E+03  0.54569723579E+03  0.17120000000E+03 0.  0.
        998    1    1    2    0    0  0.13610740328E+02 -0.13002895924E+02  0.64008072710E+02  0.66718595060E+02  0.10000000000E+00 0.  0.
</event>
<event>
 5    1  0.2313627E-009  0.3883009E+03  0.7957747E-01  0.3415792E+00
         13   -1    0    0    0    0  0.00000000000E+00  0.00000000000E+00  0.14999999963E+04  0.15000000000E+04  0.10566000000E+00 0.  1.
        994   -1    0    0    0    0 -0.00000000000E+00 -0.00000000000E+00  0.11368683772E-12  0.17120000000E+03  0.17120000000E+03 0.  0.
         13    1    1    2    0    0  0.15994170728E+03 -0.18024487819E+02  0.80286662504E+03  0.81884129149E+03  0.10566000000E+00 0.  1.
        994    1    1    2    0    0 -0.25018212226E+03  0.28090552498E+02  0.24384105912E+03  0.39006163045E+03  0.17120000000E+03 0.  0.
        998    1    1    2    0    0  0.90240414981E+02 -0.10066064679E+02  0.45329231212E+03  0.46229707806E+03  0.10000000000E+00 0. -1.
</event>
<event>
 5    1  0.2313627E-009  0.3882890E+03  0.7957747E-01  0.3415842E+00
         13   -1    0    0    0    0  0.00000000000E+00  0.00000000000E+00  0.14999999963E+04  0.15000000000E+04  0.10566000000E+00 0.  1.
        994   -1    0    0    0    0 -0.00000000000E+00 -0.00000000000E+00  0.11368683772E-12  0.17120000000E+03  0.17120000000E+03 0.  0.
         13    1    1    2    0    0 -0.21075955147E+03 -0.70921034082E+02  0.13153014884E+04  0.13339667905E+04  0.10566000000E+00 0.  1.
        994    1    1    2    0    0  0.21113913849E+03  0.70902730230E+02  0.18249225342E+03  0.33499223202E+03  0.17120000000E+03 0.  0.
        998    1    1    2    0    0 -0.37958701698E+00  0.18303852169E-01  0.22062544930E+01  0.22409775149E+01  0.10000000000E+00 0.  1.
</event>
<event>
 5    1  0.2313627E-009  0.3883009E+03  0.7957747E-01  0.3415792E+00
         13   -1    0    0    0    0  0.00000000000E+00  0.00000000000E+00  0.14999999963E+04  0.15000000000E+04  0.10566000000E+00 0. -1.
        994   -1    0    0    0    0 -0.00000000000E+00 -0.00000000000E+00  0.11368683772E-12  0.17120000000E+03  0.17120000000E+03 0.  0.
         13    1    1    2    0    0  0.15380813200E+03 -0.66640468774E+02  0.99090252085E+03  0.10049804528E+04  0.10566000000E+00 0. -1.
        994    1    1    2    0    0 -0.20444674490E+03  0.88668544819E+02  0.18270438429E+03  0.33518787922E+03  0.17120000000E+03 0.  0.
        998    1    1    2    0    0  0.50638612894E+02 -0.22028076044E+02  0.32639309114E+03  0.33103166796E+03  0.10000000000E+00 0.  0.
</event>
<event>
 5    1  0.2313627E-009  0.3883009E+03  0.7957747E-01  0.3415792E+00
         13   -1    0    0    0    0  0.00000000000E+00  0.00000000000E+00  0.14999999963E+04  0.15000000000E+04  0.10566000000E+00 0.  1.
        994   -1    0    0    0    0 -0.00000000000E+00 -0.00000000000E+00  0.11368683772E-12  0.17120000000E+03  0.17120000000E+03 0.  0.
         13    1    1    2    0    0 -0.10797911907E+02  0.17470223685E+03  0.87329575475E+03  0.89066433233E+03  0.10566000000E+00 0.  1.
        994    1    1    2    0    0  0.15591951228E+02 -0.25124319513E+03  0.24377555008E+03  0.39000283443E+03  0.17120000000E+03 0.  0.
        998    1    1    2    0    0 -0.47940393211E+01  0.76540958280E+02  0.38292869145E+03  0.39053283324E+03  0.10000000000E+00 0.  0.
</event>
<event>
 5    1  0.2313627E-009  0.3881665E+03  0.7957747E-01  0.3416353E+00
         13   -1    0    0    0    0  0.00000000000E+00  0.00000000000E+00  0.14999999963E+04  0.15000000000E+04  0.10566000000E+00 0. -1.
        994   -1    0    0    0    0 -0.00000000000E+00 -0.00000000000E+00  0.11368683772E-12  0.17120000000E+03  0.17120000000E+03 0.  0.
         13    1    1    2    0    0 -0.19555376103E+03 -0.79632707491E+02  0.12677374983E+04  0.12852007693E+04  0.10566000000E+00 0. -1.
        994    1    1    2    0    0  0.20161708949E+03  0.82614789128E+02  0.17368448488E+03  0.32703271158E+03  0.17120000000E+03 0.  0.
        998    1    1    2    0    0 -0.60633284573E+01 -0.29820816373E+01  0.58578013057E+02  0.58966519116E+02  0.10000000000E+00 0. -1.
</event>
<event>
 5    1  0.2313627E-009  0.3882188E+03  0.7957747E-01  0.3416135E+00
         13   -1    0    0    0    0  0.00000000000E+00  0.00000000000E+00  0.14999999963E+04  0.15000000000E+04  0.10566000000E+00 0. -1.
        994   -1    0    0    0    0 -0.00000000000E+00 -0.00000000000E+00  0.11368683772E-12  0.17120000000E+03  0.17120000000E+03 0.  0.
         13    1    1    2    0    0  0.11717693072E+03 -0.20376961928E+03  0.12237065053E+04  0.12460778921E+04  0.10566000000E+00 0. -1.
        994    1    1    2    0    0 -0.11990588637E+03  0.21292968799E+03  0.22698965280E+03  0.37490027486E+03  0.17120000000E+03 0.  0.
        998    1    1    2    0    0  0.27289556507E+01 -0.91600687111E+01  0.49303838162E+02  0.50221833053E+02  0.10000000000E+00 0. -1.
</event>
<event>
 5    1  0.2313627E-009  0.3875957E+03  0.7957747E-01  0.3418737E+00
         13   -1    0    0    0    0  0.00000000000E+00  0.00000000000E+00  0.14999999963E+04  0.15000000000E+04  0.10566000000E+00 0. -1.
        994   -1    0    0    0    0 -0.00000000000E+00 -0.00000000000E+00  0.11368683772E-12  0.17120000000E+03  0.17120000000E+03 0.  0.
         13    1    1    2    0    0  0.97150381011E+02  0.10840712468E+03  0.83912528514E+03  0.85165812187E+03  0.10566000000E+00 0. -1.
        994    1    1    2    0    0 -0.14353456800E+03 -0.15115439090E+03  0.15775503768E+03  0.31248346198E+03  0.17120000000E+03 0.  0.
        998    1    1    2    0    0  0.46384186989E+02  0.42747266214E+02  0.50311967346E+03  0.50705841615E+03  0.10000000000E+00 0. -1.
</event>
<event>
 5    1  0.2313627E-009  0.3882993E+03  0.7957747E-01  0.3415799E+00
         13   -1    0    0    0    0  0.00000000000E+00  0.00000000000E+00  0.14999999963E+04  0.15000000000E+04  0.10566000000E+00 0. -1.
        994   -1    0    0    0    0 -0.00000000000E+00 -0.00000000000E+00  0.11368683772E-12  0.17120000000E+03  0.17120000000E+03 0.  0.
         13    1    1    2    0    0 -0.76437622308E+02  0.18288496813E+03  0.87435185023E+03  0.89653822609E+03  0.10566000000E+00 0. -1.
        994    1    1    2    0    0  0.10423734093E+03 -0.25148308915E+03  0.29690288888E+03  0.43768702608E+03  0.17120000000E+03 0.  0.
        998    1    1    2    0    0 -0.27799718624E+02  0.68598121019E+02  0.32874525717E+03  0.33697474783E+03  0.10000000000E+00 0. -1.
</event>
<event>
 5    1  0.2313627E-009  0.3851082E+03  0.7957747E-01  0.3429214E+00
         13   -1    0    0    0    0  0.00000000000E+00  0.00000000000E+00  0.14999999963E+04  0.15000000000E+04  0.10566000000E+00 0.  1.
        994   -1    0    0    0    0 -0.00000000000E+00 -0.00000000000E+00  0.11368683772E-12  0.17120000000E+03  0.17120000000E+03 0.  0.
         13    1    1    2    0    0 -0.97533969754E+02 -0.17608158526E+03  0.11887809168E+04  0.12057021519E+04  0.10566000000E+00 0.  1.
        994    1    1    2    0    0  0.11515080904E+03  0.17447652826E+03  0.16161216668E+03  0.31484869407E+03  0.17120000000E+03 0.  0.
        998    1    1    2    0    0 -0.17616839291E+02  0.16050569930E+01  0.14960691283E+03  0.15064915400E+03  0.10000000000E+00 0.  1.
</event>
<event>
 5    1  0.2313627E-009  0.3882987E+03  0.7957747E-01  0.3415802E+00
         13   -1    0    0    0    0  0.00000000000E+00  0.00000000000E+00  0.14999999963E+04  0.15000000000E+04  0.10566000000E+00 0. -1.
        994   -1    0    0    0    0 -0.00000000000E+00 -0.00000000000E+00  0.11368683772E-12  0.17120000000E+03  0.17120000000E+03 0.  0.
         13    1    1    2    0    0  0.27116536726E+02 -0.22039311625E+03  0.10674345236E+04  0.10902866163E+04  0.10566000000E+00 0. -1.
        994    1    1    2    0    0 -0.32108132383E+02  0.25583435311E+03  0.25864106356E+03  0.40334450307E+03  0.17120000000E+03 0.  0.
        998    1    1    2    0    0  0.49915956570E+01 -0.35441236856E+02  0.17392440908E+03  0.17756888064E+03  0.10000000000E+00 0.  1.
</event>
<event>
 5    1  0.2313627E-009  0.3879453E+03  0.7957747E-01  0.3417276E+00
         13   -1    0    0    0    0  0.00000000000E+00  0.00000000000E+00  0.14999999963E+04  0.15000000000E+04  0.10566000000E+00 0. -1.
        994   -1    0    0    0    0 -0.00000000000E+00 -0.00000000000E+00  0.11368683772E-12  0.17120000000E+03  0.17120000000E+03 0.  0.
         13    1    1    2    0    0  0.24871238769E+03  0.27081822352E+02  0.11636702828E+04  0.11902603980E+04  0.10566000000E+00 0. -1.
        994    1    1    2    0    0 -0.26483812921E+03 -0.25464362836E+02  0.28055266905E+03  0.42285565926E+03  0.17120000000E+03 0.  0.
        998    1    1    2    0    0  0.16125741522E+02 -0.16174595161E+01  0.55777044412E+02  0.58083942689E+02  0.10000000000E+00 0. -1.
</event>
<event>
 5    1  0.2313627E-009  0.3862547E+03  0.7957747E-01  0.3424368E+00
         13   -1    0    0    0    0  0.00000000000E+00  0.00000000000E+00  0.14999999963E+04  0.15000000000E+04  0.10566000000E+00 0. -1.
        994   -1    0    0    0    0 -0.00000000000E+00 -0.00000000000E+00  0.11368683772E-12  0.17120000000E+03  0.17120000000E+03 0.  0.
         13    1    1    2    0    0  0.25085295246E+03 -0.43105906348E+02  0.11135068385E+04  0.11422271287E+04  0.10566000000E+00 0. -1.
        994    1    1    2    0    0 -0.26929347580E+03  0.60267963118E+02  0.31201109776E+03  0.45034605428E+03  0.17120000000E+03 0.  0.
        998    1    1    2    0    0  0.18440523337E+02 -0.17162056771E+02  0.74482060009E+02  0.78626817033E+02  0.10000000000E+00 0.  1.
</event>
<event>
 5    1  0.2313627E-009  0.3881692E+03  0.7957747E-01  0.3416342E+00
         13   -1    0    0    0    0  0.00000000000E+00  0.00000000000E+00  0.14999999963E+04  0.15000000000E+04  0.10566000000E+00 0.  1.
        994   -1    0    0    0    0 -0.00000000000E+00 -0.00000000000E+00  0.11368683772E-12  0.17120000000E+03  0.17120000000E+03 0.  0.
         13    1    1    2    0    0 -0.84925767716E+02 -0.27161265028E+03  0.10742426613E+04  0.11112979458E+04  0.10566000000E+00 0.  1.
        994    1    1    2    0    0  0.87217873333E+02  0.28528102726E+03  0.38212671851E+03  0.51412303094E+03  0.17120000000E+03 0.  0.
        998    1    1    2    0    0 -0.22921056165E+01 -0.13668376983E+02  0.43630616510E+02  0.45779023302E+02  0.10000000000E+00 0. -1.
</event>
<event>
 5    1  0.2313627E-009  0.3881973E+03  0.7957747E-01  0.3416224E+00
         13   -1    0    0    0    0  0.00000000000E+00  0.00000000000E+00  0.14999999963E+04  0.15000000000E+04  0.10566000000E+00 0. -1.
        994   -1    0    0    0    0 -0.00000000000E+00 -0.00000000000E+00  0.11368683772E-12  0.17120000000E+03  0.17120000000E+03 0.  0.
         13    1    1    2    0    0 -0.19887535229E+03  0.38951995668E+02  0.11908391475E+04  0.12079596641E+04  0.10566000000E+00 0. -1.
        994    1    1    2    0    0  0.21801680390E+03 -0.46612026912E+02  0.18301798771E+03  0.33542365996E+03  0.17120000000E+03 0.  0.
        998    1    1    2    0    0 -0.19141451620E+02  0.76600312448E+01  0.12614286102E+03  0.12781667589E+03  0.10000000000E+00 0.  1.
</event>
<event>
 5    1  0.2313627E-009  0.3883002E+03  0.7957747E-01  0.3415795E+00
         13   -1    0    0    0    0  0.00000000000E+00  0.00000000000E+00  0.14999999963E+04  0.15000000000E+04  0.10566000000E+00 0.  1.
        994   -1    0    0    0    0 -0.00000000000E+00 -0.00000000000E+00  0.11368683772E-12  0.17120000000E+03  0.17120000000E+03 0.  0.
         13    1    1    2    0    0 -0.55003741417E+02 -0.23454430022E+03  0.10964701767E+04  0.11226234008E+04  0.10566000000E+00 0.  1.
        994    1    1    2    0    0  0.60903979587E+02  0.26008298395E+03  0.28273853417E+03  0.42497408388E+03  0.17120000000E+03 0.  0.
        998    1    1    2    0    0 -0.59002381694E+01 -0.25538683725E+02  0.12079128539E+03  0.12360251536E+03  0.10000000000E+00 0.  1.
</event>
<event>
 5    1  0.2313627E-009  0.3883002E+03  0.7957747E-01  0.3415795E+00
         13   -1    0    0    0    0  0.00000000000E+00  0.00000000000E+00  0.14999999963E+04  0.15000000000E+04  0.10566000000E+00 0. -1.
        994   -1    0    0    0    0 -0.00000000000E+00 -0.00000000000E+00  0.11368683772E-12  0.17120000000E+03  0.17120000000E+03 0.  0.
         13    1    1    2    0    0 -0.19774674149E+03  0.11089295117E+03  0.11187367642E+04  0.11414784182E+04  0.10566000000E+00 0. -1.
        994    1    1    2    0    0  0.22115726046E+03 -0.12439067732E+03  0.24858415305E+03  0.39431852050E+03  0.17120000000E+03 0.  0.
        998    1    1    2    0    0 -0.23410518971E+02  0.13497726153E+02  0.13267907900E+03  0.13540306131E+03  0.10000000000E+00 0.  1.
</event>
<event>
 5    1  0.2313627E-009  0.3699800E+03  0.7957747E-01  0.3495983E+00
         13   -1    0    0    0    0  0.00000000000E+00  0.00000000000E+00  0.14999999963E+04  0.15000000000E+04  0.10566000000E+00 0. -1.
        994   -1    0    0    0    0 -0.00000000000E+00 -0.00000000000E+00  0.11368683772E-12  0.17120000000E+03  0.17120000000E+03 0.  0.
         13    1    1    2    0    0 -0.13293124306E+02  0.61245385836E+02  0.37107775868E+03  0.37633285611E+03  0.10566000000E+00 0. -1.
        994    1    1    2    0    0 -0.13440090304E+02  0.56078231318E+02  0.22645037878E+02  0.18206493840E+03  0.17120000000E+03 0.  0.
        998    1    1    2    0    0  0.26733214610E+02 -0.11732361715E+03  0.11062771997E+04  0.11128022055E+04  0.10000000000E+00 0. -1.
</event>
<event>
 5    1  0.2313627E-009  0.3881747E+03  0.7957747E-01  0.3416318E+00
         13   -1    0    0    0    0  0.00000000000E+00  0.00000000000E+00  0.14999999963E+04  0.15000000000E+04  0.10566000000E+00 0. -1.
        994   -1    0    0    0    0 -0.00000000000E+00 -0.00000000000E+00  0.11368683772E-12  0.17120000000E+03  0.17120000000E+03 0.  0.
         13    1    1    2    0    0  0.22622790609E+03 -0.37288726630E+02  0.12815037052E+04  0.13018530149E+04  0.10566000000E+00 0. -1.
        994    1    1    2    0    0 -0.22824301222E+03  0.38866126602E+02  0.19980484531E+03  0.35048090480E+03  0.17120000000E+03 0.  0.
        998    1    1    2    0    0  0.20151061304E+01 -0.15773999717E+01  0.18691445743E+02  0.18866080338E+02  0.10000000000E+00 0.  1.
</event>
<event>
 5    1  0.2313627E-009  0.3882849E+03  0.7957747E-01  0.3415859E+00
         13   -1    0    0    0    0  0.00000000000E+00  0.00000000000E+00  0.14999999963E+04  0.15000000000E+04  0.10566000000E+00 0. -1.
        994   -1    0    0    0    0 -0.00000000000E+00 -0.00000000000E+00  0.11368683772E-12  0.17120000000E+03  0.17120000000E+03 0.  0.
         13    1    1    2    0    0  0.73158245714E+01 -0.72578830744E+02  0.38003549603E+03  0.38697312228E+03  0.10566000000E+00 0. -1.
        994    1    1    2    0    0 -0.17085758393E+02  0.24378970670E+03  0.22693030701E+03  0.37487617752E+03  0.17120000000E+03 0.  0.
        998    1    1    2    0    0  0.97699338215E+01 -0.17121087596E+03  0.89303419325E+03  0.90935070020E+03  0.10000000000E+00 0. -1.
</event>
<event>
 5    1  0.2313627E-009  0.3850340E+03  0.7957747E-01  0.3429528E+00
         13   -1    0    0    0    0  0.00000000000E+00  0.00000000000E+00  0.14999999963E+04  0.15000000000E+04  0.10566000000E+00 0.  1.
        994   -1    0    0    0    0 -0.00000000000E+00 -0.00000000000E+00  0.11368683772E-12  0.17120000000E+03  0.17120000000E+03 0.  0.
         13    1    1    2    0    0 -0.33076711360E+02  0.58857832151E+01  0.17081515562E+03  0.17408773602E+03  0.10566000000E+00 0.  1.
        994    1    1    2    0    0  0.94105913276E+02 -0.19401527161E+02  0.32584849364E+02  0.19900641843E+03  0.17120000000E+03 0.  0.
        998    1    1    2    0    0 -0.61029201916E+02  0.13515743946E+02  0.12965999913E+04  0.12981058455E+04  0.10000000000E+00 0.  1.
</event>
<event>
 5    1  0.2313627E-009  0.3881946E+03  0.7957747E-01  0.3416236E+00
         13   -1    0    0    0    0  0.00000000000E+00  0.00000000000E+00  0.14999999963E+04  0.15000000000E+04  0.10566000000E+00 0.  1.
        994   -1    0    0    0    0 -0.00000000000E+00 -0.00000000000E+00  0.11368683772E-12  0.17120000000E+03  0.17120000000E+03 0.  0.
         13    1    1    2    0    0  0.16002694606E+03 -0.22736146639E+03  0.77788065262E+03  0.82607516653E+03  0.10566000000E+00 0.  1.
        994    1    1    2    0    0 -0.19095570240E+03  0.27198928232E+03  0.55300437811E+03  0.66750695291E+03  0.17120000000E+03 0.  0.
        998    1    1    2    0    0  0.30928756342E+02 -0.44627815930E+02  0.16911496555E+03  0.17761788056E+03  0.10000000000E+00 0.  1.
</event>
<event>
 5    1  0.2313627E-009  0.3882944E+03  0.7957747E-01  0.3415819E+00
         13   -1    0    0    0    0  0.00000000000E+00  0.00000000000E+00  0.14999999963E+04  0.15000000000E+04  0.10566000000E+00 0. -1.
        994   -1    0    0    0    0 -0.00000000000E+00 -0.00000000000E+00  0.11368683772E-12  0.17120000000E+03  0.17120000000E+03 0.  0.
         13    1    1    2    0    0  0.17514583661E+03 -0.24007198545E+03  0.10865652511E+04  0.11264700077E+04  0.10566000000E+00 0. -1.
        994    1    1    2    0    0 -0.17822512050E+03  0.24368820992E+03  0.39557028318E+03  0.52624464479E+03  0.17120000000E+03 0.  0.
        998    1    1    2    0    0  0.30792838936E+01 -0.36162244672E+01  0.17864462037E+02  0.18485347510E+02  0.10000000000E+00 0. -1.
</event>
<event>
 5    1  0.2313627E-009  0.3882668E+03  0.7957747E-01  0.3415934E+00
         13   -1    0    0    0    0  0.00000000000E+00  0.00000000000E+00  0.14999999963E+04  0.15000000000E+04  0.10566000000E+00 0. -1.
        994   -1    0    0    0    0 -0.00000000000E+00 -0.00000000000E+00  0.11368683772E-12  0.17120000000E+03  0.17120000000E+03 0.  0.
         13    1    1    2    0    0 -0.23626782357E+03 -0.51213573943E+02  0.12731585425E+04  0.12959081758E+04  0.10566000000E+00 0. -1.
        994    1    1    2    0    0  0.23709156677E+03  0.51710171060E+02  0.22314060651E+03  0.37146671869E+03  0.17120000000E+03 0.  0.
        998    1    1    2    0    0 -0.82374320127E+00 -0.49659711693E+00  0.37008472791E+01  0.38251055072E+01  0.10000000000E+00 0. -1.
</event>
<event>
 5    1  0.2313627E-009  0.3882252E+03  0.7957747E-01  0.3416108E+00
         13   -1    0    0    0    0  0.00000000000E+00  0.00000000000E+00  0.14999999963E+04  0.15000000000E+04  0.10566000000E+00 0.  1.
        994   -1    0    0    0    0 -0.00000000000E+00 -0.00000000000E+00  0.11368683772E-12  0.17120000000E+03  0.17120000000E+03 0.  0.
         13    1    1    2    0    0 -0.11539034401E+03  0.68383699305E+02  0.79398542378E+03  0.80523544766E+03  0.10566000000E+00 0.  1.
        994    1    1    2    0    0  0.19060840959E+03 -0.12148953788E+03  0.18888691713E+03  0.34070365581E+03  0.17120000000E+03 0.  0.
        998    1    1    2    0    0 -0.75218065579E+02  0.53105838573E+02  0.51712765537E+03  0.52526089653E+03  0.10000000000E+00 0.  1.
</event>
<event>
 5    1  0.2313627E-009  0.3882287E+03  0.7957747E-01  0.3416093E+00
         13   -1    0    0    0    0  0.00000000000E+00  0.00000000000E+00  0.14999999963E+04  0.15000000000E+04  0.10566000000E+00 0. -1.
        994   -1    0    0    0    0 -0.00000000000E+00 -0.00000000000E+00  0.11368683772E-12  0.17120000000E+03  0.17120000000E+03 0.  0.
         13    1    1    2    0    0  0.19912426181E+03  0.10250822510E+03  0.13100751071E+04  0.13290805864E+04  0.10566000000E+00 0. -1.
        994    1    1    2    0    0 -0.19963264589E+03 -0.10228227276E+03  0.18557108409E+03  0.33772906875E+03  0.17120000000E+03 0.  0.
        998    1    1    2    0    0  0.50838407093E+00 -0.22595234030E+00  0.43538051098E+01  0.43903448335E+01  0.10000000000E+00 0.  1.
</event>
<event>
 5    1  0.2313627E-009  0.3882509E+03  0.7957747E-01  0.3416001E+00
         13   -1    0    0    0    0  0.00000000000E+00  0.00000000000E+00  0.14999999963E+04  0.15000000000E+04  0.10566000000E+00 0. -1.
        994   -1    0    0    0    0 -0.00000000000E+00 -0.00000000000E+00  0.11368683772E-12  0.17120000000E+03  0.17120000000E+03 0.  0.
         13    1    1    2    0    0 -0.20226115716E+03 -0.11733784058E+03  0.12852045660E+04  0.13063033845E+04  0.10566000000E+00 0. -1.
        994    1    1    2    0    0  0.20394560288E+03  0.11773736100E+03  0.20781586448E+03  0.35770486248E+03  0.17120000000E+03 0.  0.
        998    1    1    2    0    0 -0.16844457163E+01 -0.39952042037E+00  0.69795657562E+01  0.71917530604E+01  0.10000000000E+00 0.  1.
</event>
<event>
 5    1  0.2313627E-009  0.3848059E+03  0.7957747E-01  0.3430496E+00
         13   -1    0    0    0    0  0.00000000000E+00  0.00000000000E+00  0.14999999963E+04  0.15000000000E+04  0.10566000000E+00 0.  1.
        994   -1    0    0    0    0 -0.00000000000E+00 -0.00000000000E+00  0.11368683772E-12  0.17120000000E+03  0.17120000000E+03 0.  0.
         13    1    1    2    0    0  0.78668030744E+02 -0.35063404166E+02  0.33068948721E+03  0.34172159646E+03  0.10566000000E+00 0.  1.
        994    1    1    2    0    0 -0.20547055390E+03  0.75276512976E+02  0.17952150126E+03  0.33079013187E+03  0.17120000000E+03 0.  0.
        998    1    1    2    0    0  0.12680252316E+03 -0.40213108810E+02  0.98978900781E+03  0.99868827167E+03  0.10000000000E+00 0.  1.
</event>
<event>
 5    1  0.2313627E-009  0.3881360E+03  0.7957747E-01  0.3416480E+00
         13   -1    0    0    0    0  0.00000000000E+00  0.00000000000E+00  0.14999999963E+04  0.15000000000E+04  0.10566000000E+00 0.  1.
        994   -1    0    0    0    0 -0.00000000000E+00 -0.00000000000E+00  0.11368683772E-12  0.17120000000E+03  0.17120000000E+03 0.  0.
         13    1    1    2    0    0  0.20417809876E+03 -0.53216285080E+02  0.10058169613E+04  0.10277102898E+04  0.10566000000E+00 0.  1.
        994    1    1    2    0    0 -0.24577507044E+03  0.67352004635E+02  0.25151389740E+03  0.39687574675E+03  0.17120000000E+03 0.  0.
        998    1    1    2    0    0  0.41596971678E+02 -0.14135719556E+02  0.24266913761E+03  0.24661396345E+03  0.10000000000E+00 0. -1.
</event>
<event>
 5    1  0.2313627E-009  0.3882733E+03  0.7957747E-01  0.3415907E+00
         13   -1    0    0    0    0  0.00000000000E+00  0.00000000000E+00  0.14999999963E+04  0.15000000000E+04  0.10566000000E+00 0. -1.
        994   -1    0    0    0    0 -0.00000000000E+00 -0.00000000000E+00  0.11368683772E-12  0.17120000000E+03  0.17120000000E+03 0.  0.
         13    1    1    2    0    0  0.21839032807E+02  0.12755340135E+03  0.70565872964E+03  0.71742669829E+03  0.10566000000E+00 0. -1.
        994    1    1    2    0    0 -0.45321222795E+02 -0.23420333812E+03  0.21421843407E+03  0.36346140692E+03  0.17120000000E+03 0.  0.
        998    1    1    2    0    0  0.23482189988E+02  0.10664993677E+03  0.58012283257E+03  0.59031189479E+03  0.10000000000E+00 0.  1.
</event>
<event>
 5    1  0.2313627E-009  0.3849733E+03  0.7957747E-01  0.3429786E+00
         13   -1    0    0    0    0  0.00000000000E+00  0.00000000000E+00  0.14999999963E+04  0.15000000000E+04  0.10566000000E+00 0. -1.
        994   -1    0    0    0    0 -0.00000000000E+00 -0.00000000000E+00  0.11368683772E-12  0.17120000000E+03  0.17120000000E+03 0.  0.
         13    1    1    2    0    0  0.25795887149E+03 -0.15811622579E+02  0.85087850432E+03  0.88926206883E+03  0.10566000000E+00 0. -1.
        994    1    1    2    0    0 -0.29741827468E+03  0.15014134607E+02  0.38948106464E+03  0.51931492763E+03  0.17120000000E+03 0.  0.
        998    1    1    2    0    0  0.39459403187E+02  0.79748797167E+00  0.25964042732E+03  0.26262300354E+03  0.10000000000E+00 0.  1.
</event>
<event>
 5    1  0.2313627E-009  0.3860030E+03  0.7957747E-01  0.3425430E+00
         13   -1    0    0    0    0  0.00000000000E+00  0.00000000000E+00  0.14999999963E+04  0.15000000000E+04  0.10566000000E+00 0.  1.
        994   -1    0    0    0    0 -0.00000000000E+00 -0.00000000000E+00  0.11368683772E-12  0.17120000000E+03  0.17120000000E+03 0.  0.
         13    1    1    2    0    0  0.10166983064E+02 -0.30259463943E+02  0.17592015201E+03  0.17879293541E+03  0.10566000000E+00 0.  1.
        994    1    1    2    0    0 -0.71098460202E+01  0.11246649324E+03  0.43928071066E+02  0.20961483115E+03  0.17120000000E+03 0.  0.
        998    1    1    2    0    0 -0.30571370437E+01 -0.82207029295E+02  0.12801517732E+04  0.12827922334E+04  0.10000000000E+00 0.  1.
</event>
<event>
 5    1  0.2313627E-009  0.3882781E+03  0.7957747E-01  0.3415887E+00
         13   -1    0    0    0    0  0.00000000000E+00  0.00000000000E+00  0.14999999963E+04  0.15000000000E+04  0.10566000000E+00 0. -1.
        994   -1    0    0    0    0 -0.00000000000E+00 -0.00000000000E+00  0.11368683772E-12  0.17120000000E+03  0.17120000000E+03 0.  0.
         13    1    1    2    0    0  0.21333453829E+03  0.57775102365E+02  0.13164208810E+04  0.13348458843E+04  0.10566000000E+00 0. -1.
        994    1    1    2    0    0 -0.21380520741E+03 -0.58181333598E+02  0.18035530563E+03  0.33306937800E+03  0.17120000000E+03 0.  0.
        998    1    1    2    0    0  0.47066911977E+00  0.40623123269E+00  0.32238096509E+01  0.32847377216E+01  0.10000000000E+00 0. -1.
</event>
<event>
 5    1  0.2313627E-009  0.3880576E+03  0.7957747E-01  0.3416807E+00
         13   -1    0    0    0    0  0.00000000000E+00  0.00000000000E+00  0.14999999963E+04  0.15000000000E+04  0.10566000000E+00 0.  1.
        994   -1    0    0    0    0 -0.00000000000E+00 -0.00000000000E+00  0.11368683772E-12  0.17120000000E+03  0.17120000000E+03 0.  0.
         13    1    1    2    0    0  0.83937153476E+02 -0.24814373043E+03  0.11908341758E+04  0.12193058690E+04  0.10566000000E+00 0.  1.
        994    1    1    2    0    0 -0.85925616611E+02  0.25497663778E+03  0.28852565864E+03  0.43006138294E+03  0.17120000000E+03 0.  0.
        998    1    1    2    0    0  0.19884631355E+01 -0.68329073472E+01  0.20640161812E+02  0.21832748065E+02  0.10000000000E+00 0.  1.
</event>
<event>
 5    1  0.2313627E-009  0.3883007E+03  0.7957747E-01  0.3415793E+00
         13   -1    0    0    0    0  0.00000000000E+00  0.00000000000E+00  0.14999999963E+04  0.15000000000E+04  0.10566000000E+00 0.  1.
        994   -1    0    0    0    0 -0.00000000000E+00 -0.00000000000E+00  0.11368683772E-12  0.17120000000E+03  0.17120000000E+03 0.  0.
         13    1    1    2    0    0  0.21404045530E+03  0.23104209160E+02  0.10511789264E+04  0.10729977947E+04  0.10566000000E+00 0.  1.
        994    1    1    2    0    0 -0.25402224946E+03 -0.27631041307E+02  0.25290662589E+03  0.39819841673E+03  0.17120000000E+03 0.  0.
        998    1    1    2    0    0  0.39981794166E+02  0.45268321467E+01  0.19591444401E+03  0.20000378858E+03  0.10000000000E+00 0. -1.
</event>
<event>
 5    1  0.2313627E-009  0.3882977E+03  0.7957747E-01  0.3415806E+00
         13   -1    0    0    0    0  0.00000000000E+00  0.00000000000E+00  0.14999999963E+04  0.15000000000E+04  0.10566000000E+00 0. -1.
        994   -1    0    0    0    0 -0.00000000000E+00 -0.00000000000E+00  0.11368683772E-12  0.17120000000E+03  0.17120000000E+03 0.  0.
         13    1    1    2    0    0  0.31004629543E+02 -0.41739564206E+02  0.22323820371E+03  0.22921340501E+03  0.10566000000E+00 0. -1.
        994    1    1    2    0    0 -0.16914651250E+03  0.22052274388E+03  0.31350524914E+03  0.45258789699E+03  0.17120000000E+03 0.  0.
        998    1    1    2    0    0  0.13814188296E+03 -0.17878317968E+03  0.96325654343E+03  0.98939869801E+03  0.10000000000E+00 0. -1.
</event>
<event>
 5    1  0.2313627E-009  0.3883000E+03  0.7957747E-01  0.3415796E+00
         13   -1    0    0    0    0  0.00000000000E+00  0.00000000000E+00  0.14999999963E+04  0.15000000000E+04  0.10566000000E+00 0. -1.
        994   -1    0    0    0    0 -0.00000000000E+00 -0.00000000000E+00  0.11368683772E-12  0.17120000000E+03  0.17120000000E+03 0.  0.
         13    1    1    2    0    0 -0.24692656064E+03  0.31772267866E+01  0.12319188784E+04  0.12564262634E+04  0.10566000000E+00 0. -1.
        994    1    1    2    0    0  0.25168212284E+03 -0.32948050401E+01  0.24372295559E+03  0.38995520997E+03  0.17120000000E+03 0.  0.
        998    1    1    2    0    0 -0.47555622066E+01  0.11757825348E+00  0.24358162272E+02  0.24818526665E+02  0.10000000000E+00 0.  0.
</event>
<event>
 5    1  0.2313627E-009  0.3882906E+03  0.7957747E-01  0.3415835E+00
         13   -1    0    0    0    0  0.00000000000E+00  0.00000000000E+00  0.14999999963E+04  0.15000000000E+04  0.10566000000E+00 0.  1.
        994   -1    0    0    0    0 -0.00000000000E+00 -0.00000000000E+00  0.11368683772E-12  0.17120000000E+03  0.17120000000E+03 0.  0.
         13    1    1    2    0    0 -0.16707577460E+03  0.16061518350E+03  0.10588070481E+04  0.10838744982E+04  0.10566000000E+00 0.  1.
        994    1    1    2    0    0  0.19113280866E+03 -0.18582469283E+03  0.28129022852E+03  0.42366991830E+03  0.17120000000E+03 0.  0.
        998    1    1    2    0    0 -0.24057034066E+02  0.25209509324E+02  0.15990271965E+03  0.16365558347E+03  0.10000000000E+00 0. -1.
</event>
<event>
 5    1  0.2313627E-009  0.3883009E+03  0.7957747E-01  0.3415792E+00
         13   -1    0    0    0    0  0.00000000000E+00  0.00000000000E+00  0.14999999963E+04  0.15000000000E+04  0.10566000000E+00 0.  1.
        994   -1    0    0    0    0 -0.00000000000E+00 -0.00000000000E+00  0.11368683772E-12  0.17120000000E+03  0.17120000000E+03 0.  0.
         13    1    1    2    0    0 -0.16759902978E+03  0.79560658970E+02  0.97245460326E+03  0.98999358574E+03  0.10566000000E+00 0.  1.
        994    1    1    2    0    0  0.21979656114E+03 -0.10445679085E+03  0.22461245126E+03  0.37280282014E+03  0.17120000000E+03 0.  0.
        998    1    1    2    0    0 -0.52197531363E+02  0.24896131881E+02  0.30293294177E+03  0.30840359413E+03  0.10000000000E+00 0.  1.
</event>
<event>
 5    1  0.2313627E-009  0.3881672E+03  0.7957747E-01  0.3416350E+00
         13   -1    0    0    0    0  0.00000000000E+00  0.00000000000E+00  0.14999999963E+04  0.15000000000E+04  0.10566000000E+00 0. -1.
        994   -1    0    0    0    0 -0.00000000000E+00 -0.00000000000E+00  0.11368683772E-12  0.17120000000E+03  0.17120000000E+03 0.  0.
         13    1    1    2    0    0  0.16779751213E+03 -0.16179312340E+03  0.12710177451E+04  0.12922148193E+04  0.10566000000E+00 0. -1.
        994    1    1    2    0    0 -0.17063844969E+03  0.16539622213E+03  0.21244462867E+03  0.36182254083E+03  0.17120000000E+03 0.  0.
        998    1    1    2    0    0  0.28409375536E+01 -0.36030987354E+01  0.16537622555E+02  0.17162639845E+02  0.10000000000E+00 0. -1.
</event>
<event>
 5    1  0.2313627E-009  0.3882893E+03  0.7957747E-01  0.3415841E+00
         13   -1    0    0    0    0  0.00000000000E+00  0.00000000000E+00  0.14999999963E+04  0.15000000000E+04  0.10566000000E+00 0. -1.
        994   -1    0    0    0    0 -0.00000000000E+00 -0.00000000000E+00  0.11368683772E-12  0.17120000000E+03  0.17120000000E+03 0.  0.
         13    1    1    2    0    0  0.20897510093E+03  0.81763455899E+02  0.11988352043E+04  0.12196563917E+04  0.10566000000E+00 0. -1.
        994    1    1    2    0    0 -0.22314602268E+03 -0.86685440255E+02  0.21599850115E+03  0.36506616590E+03  0.17120000000E+03 0.  0.
        998    1    1    2    0    0  0.14170921745E+02  0.49219843560E+01  0.85166290790E+02  0.86477442377E+02  0.10000000000E+00 0.  1.
</event>
<event>
 5    1  0.2313627E-009  0.3882911E+03  0.7957747E-01  0.3415833E+00
         13   -1    0    0    0    0  0.00000000000E+00  0.00000000000E+00  0.14999999963E+04  0.15000000000E+04  0.10566000000E+00 0. -1.
        994   -1    0    0    0    0 -0.00000000000E+00 -0.00000000000E+00  0.11368683772E-12  0.17120000000E+03  0.17120000000E+03 0.  0.
         13    1    1    2    0    0  0.38096547350E+01  0.19746596660E+03  0.79735383527E+03  0.82145022443E+03  0.10566000000E+00 0. -1.
        994    1    1    2    0    0 -0.38250364033E+01 -0.28794346098E+03  0.34523409509E+03  0.48106349689E+03  0.17120000000E+03 0.  0.
        998    1    1    2    0    0  0.15381668233E-01  0.90477494380E+02  0.35741206591E+03  0.36868627868E+03  0.10000000000E+00 0.  1.
</event>
<event>
 5    1  0.2313627E-009  0.3865331E+03  0.7957747E-01  0.3423196E+00
         13   -1    0    0    0    0  0.00000000000E+00  0.00000000000E+00  0.14999999963E+04  0.15000000000E+04  0.10566000000E+00 0. -1.
        994   -1    0    0    0    0 -0.00000000000E+00 -0.00000000000E+00  0.11368683772E-12  0.17120000000E+03  0.17120000000E+03 0.  0.
         13    1    1    2    0    0  0.13773683757E+01 -0.13237501506E+02  0.61541024651E+02  0.62963779023E+02  0.10566000000E+00 0. -1.
        994    1    1    2    0    0  0.15554014481E+02  0.76058983907E+02  0.20847113161E+02  0.18913206636E+03  0.17120000000E+03 0.  0.
        998    1    1    2    0    0 -0.16931382857E+02 -0.62821482402E+02  0.14176118585E+04  0.14191041546E+04  0.10000000000E+00 0. -1.
</event>
<event>
 5    1  0.2529258E-009  0.3882813E+03  0.7957747E-01  0.3415874E+00
         13   -1    0    0    0    0  0.00000000000E+00  0.00000000000E+00  0.14999999963E+04  0.15000000000E+04  0.10566000000E+00 0. -1.
        994   -1    0    0    0    0 -0.00000000000E+00 -0.00000000000E+00  0.11368683772E-12  0.17120000000E+03  0.17120000000E+03 0.  0.
         13    1    1    2    0    0  0.20612232480E+03 -0.14819805675E+03  0.12473596145E+04  0.12729316934E+04  0.10566000000E+00 0. -1.
        994    1    1    2    0    0 -0.20642713429E+03  0.14836875269E+03  0.24976487317E+03  0.39536992857E+03  0.17120000000E+03 0.  0.
        998    1    1    2    0    0  0.30480949011E+00 -0.17069593838E+00  0.28755085741E+01  0.28983780789E+01  0.10000000000E+00 0.  1.
</event>
<event>
 5    1  0.2313627E-009  0.3882888E+03  0.7957747E-01  0.3415842E+00
         13   -1    0    0    0    0  0.00000000000E+00  0.00000000000E+00  0.14999999963E+04  0.15000000000E+04  0.10566000000E+00 0.  1.
        994   -1    0    0    0    0 -0.00000000000E+00 -0.00000000000E+00  0.11368683772E-12  0.17120000000E+03  0.17120000000E+03 0.  0.
         13    1    1    2    0    0 -0.25122994046E+03  0.10737554615E+03  0.11607050413E+04  0.11924270188E+04  0.10566000000E+00 0.  1.
        994    1    1    2    0    0  0.25590934359E+03 -0.10953380480E+03  0.31485512780E+03  0.45379559058E+03  0.17120000000E+03 0.  0.
        998    1    1    2    0    0 -0.46794031245E+01  0.21582586467E+01  0.24439827136E+02  0.24977390665E+02  0.10000000000E+00 0.  0.
</event>
<event>
 5    1  0.2313627E-009  0.3882378E+03  0.7957747E-01  0.3416055E+00
         13   -1    0    0    0    0  0.00000000000E+00  0.00000000000E+00  0.14999999963E+04  0.15000000000E+04  0.10566000000E+00 0.  1.
        994   -1    0    0    0    0 -0.00000000000E+00 -0.00000000000E+00  0.11368683772E-12  0.17120000000E+03  0.17120000000E+03 0.  0.
         13    1    1    2    0    0  0.13621521889E+02  0.11123813942E+03  0.66735988122E+03  0.67670428678E+03  0.10566000000E+00 0.  1.
        994    1    1    2    0    0 -0.31024201153E+02 -0.22629301360E+03  0.19350596374E+03  0.34485508125E+03  0.17120000000E+03 0.  0.
        998    1    1    2    0    0  0.17402679264E+02  0.11505487418E+03  0.63913415132E+03  0.64964063196E+03  0.10000000000E+00 0.  1.
</event>
<event>
 5    1  0.2313627E-009  0.3831222E+03  0.7957747E-01  0.3437675E+00
         13   -1    0    0    0    0  0.00000000000E+00  0.00000000000E+00  0.14999999963E+04  0.15000000000E+04  0.10566000000E+00 0. -1.
        994   -1    0    0    0    0 -0.00000000000E+00 -0.00000000000E+00  0.11368683772E-12  0.17120000000E+03  0.17120000000E+03 0.  0.
         13    1    1    2    0    0 -0.84085379223E+01 -0.61809243927E+02  0.32900334783E+03  0.33486459978E+03  0.10566000000E+00 0. -1.
        994    1    1    2    0    0  0.75073485909E+02  0.11309667902E+03  0.66134608196E+02  0.22827639714E+03  0.17120000000E+03 0.  0.
        998    1    1    2    0    0 -0.66664947987E+02 -0.51287435089E+02  0.11048620403E+04  0.11080590031E+04  0.10000000000E+00 0. -1.
</event>
<event>
 5    1  0.2313627E-009  0.3882987E+03  0.7957747E-01  0.3415801E+00
         13   -1    0    0    0    0  0.00000000000E+00  0.00000000000E+00  0.14999999963E+04  0.15000000000E+04  0.10566000000E+00 0. -1.
        994   -1    0    0    0    0 -0.00000000000E+00 -0.00000000000E+00  0.11368683772E-12  0.17120000000E+03  0.17120000000E+03 0.  0.
         13    1    1    2    0    0  0.10652923902E+03  0.25216974124E+03  0.11926356364E+04  0.12236493900E+04  0.10566000000E+00 0. -1.
        994    1    1    2    0    0 -0.10685182796E+03 -0.25294067796E+03  0.30365784583E+03  0.44374973470E+03  0.17120000000E+03 0.  0.
        998    1    1    2    0    0  0.32258894153E+00  0.77093671675E+00  0.37065140164E+01  0.38008753203E+01  0.10000000000E+00 0.  0.
</event>
<event>
 5    1  0.2313627E-009  0.3883002E+03  0.7957747E-01  0.3415795E+00
         13   -1    0    0    0    0  0.00000000000E+00  0.00000000000E+00  0.14999999963E+04  0.15000000000E+04  0.10566000000E+00 0.  1.
        994   -1    0    0    0    0 -0.00000000000E+00 -0.00000000000E+00  0.11368683772E-12  0.17120000000E+03  0.17120000000E+03 0.  0.
         13    1    1    2    0    0 -0.28331496448E+03 -0.31690486044E+01  0.11500456339E+04  0.11844333595E+04  0.10566000000E+00 0.  1.
        994    1    1    2    0    0  0.28602115169E+03  0.31985816747E+01  0.33885820062E+03  0.47534476990E+03  0.17120000000E+03 0.  0.
        998    1    1    2    0    0 -0.27061872143E+01 -0.29533070239E-01  0.11096161774E+02  0.11421870581E+02  0.10000000000E+00 0.  0.
</event>
<event>
 5    1  0.2313627E-009  0.3883006E+03  0.7957747E-01  0.3415793E+00
         13   -1    0    0    0    0  0.00000000000E+00  0.00000000000E+00  0.14999999963E+04  0.15000000000E+04  0.10566000000E+00 0. -1.
        994   -1    0    0    0    0 -0.00000000000E+00 -0.00000000000E+00  0.11368683772E-12  0.17120000000E+03  0.17120000000E+03 0.  0.
         13    1    1    2    0    0 -0.15622610898E+03  0.63173704832E+02  0.67907274331E+03  0.69966943336E+03  0.10566000000E+00 0. -1.
        994    1    1    2    0    0  0.26659041295E+03 -0.10720055967E+03  0.34311509465E+03  0.47916575049E+03  0.17120000000E+03 0.  0.
        998    1    1    2    0    0 -0.11036430397E+03  0.44026854843E+02  0.47781215832E+03  0.49236481614E+03  0.10000000000E+00 0. -1.
</event>
<event>
 5    1  0.2313627E-009  0.3715001E+03  0.7957747E-01  0.3489025E+00
         13   -1    0    0    0    0  0.00000000000E+00  0.00000000000E+00  0.14999999963E+04  0.15000000000E+04  0.10566000000E+00 0. -1.
        994   -1    0    0    0    0 -0.00000000000E+00 -0.00000000000E+00  0.11368683772E-12  0.17120000000E+03  0.17120000000E+03 0.  0.
         13    1    1    2    0    0 -0.21875061443E+03 -0.14316238321E+03  0.10960781716E+04  0.11268250391E+04  0.10566000000E+00 0. -1.
        994    1    1    2    0    0  0.23583579661E+03  0.11814745210E+03  0.29448441559E+03  0.43082230028E+03  0.17120000000E+03 0.  0.
        998    1    1    2    0    0 -0.17085182178E+02  0.25014931108E+02  0.10943740910E+03  0.11355266064E+03  0.10000000000E+00 0.  1.
</event>
<event>
 5    1  0.2534989E-009  0.3882639E+03  0.7957747E-01  0.3415946E+00
         13   -1    0    0    0    0  0.00000000000E+00  0.00000000000E+00  0.14999999963E+04  0.15000000000E+04  0.10566000000E+00 0.  1.
        994   -1    0    0    0    0 -0.00000000000E+00 -0.00000000000E+00  0.11368683772E-12  0.17120000000E+03  0.17120000000E+03 0.  0.
         13    1    1    2    0    0 -0.21176100327E+03 -0.21886211150E+03  0.10906714935E+04  0.11323902438E+04  0.10566000000E+00 0.  1.
        994    1    1    2    0    0  0.21209601791E+03  0.21895269709E+03  0.40741548962E+03  0.53686294858E+03  0.17120000000E+03 0.  0.
        998    1    1    2    0    0 -0.33501463789E+00 -0.90585585258E-01  0.19130131345E+01  0.19468075942E+01  0.10000000000E+00 0. -1.
</event>
<event>
 5    1  0.2313627E-009  0.3882694E+03  0.7957747E-01  0.3415924E+00
         13   -1    0    0    0    0  0.00000000000E+00  0.00000000000E+00  0.14999999963E+04  0.15000000000E+04  0.10566000000E+00 0.  1.
        994   -1    0    0    0    0 -0.00000000000E+00 -0.00000000000E+00  0.11368683772E-12  0.17120000000E+03  0.17120000000E+03 0.  0.
         13    1    1    2    0    0  0.25259706125E+03 -0.21299951578E+03  0.92624000532E+03  0.98340969473E+03  0.10566000000E+00 0.  1.
        994    1    1    2    0    0 -0.25477827100E+03  0.21574061697E+03  0.56375342875E+03  0.67718782447E+03  0.17120000000E+03 0.  0.
        998    1    1    2    0    0  0.21812097538E+01 -0.27411011939E+01  0.10006562218E+02  0.10602480803E+02  0.10000000000E+00 0.  1.
</event>
<event>
 5    1  0.2313627E-009  0.3880534E+03  0.7957747E-01  0.3416825E+00
         13   -1    0    0    0    0  0.00000000000E+00  0.00000000000E+00  0.14999999963E+04  0.15000000000E+04  0.10566000000E+00 0.  1.
        994   -1    0    0    0    0 -0.00000000000E+00 -0.00000000000E+00  0.11368683772E-12  0.17120000000E+03  0.17120000000E+03 0.  0.
         13    1    1    2    0    0 -0.25982554147E+03 -0.19904350532E+03  0.83438465882E+03  0.89628421779E+03  0.10566000000E+00 0.  1.
        994    1    1    2    0    0  0.27296328844E+03  0.20517681594E+03  0.63499605328E+03  0.74103705056E+03  0.17120000000E+03 0.  0.
        998    1    1    2    0    0 -0.13137746964E+02 -0.61333106146E+01  0.30619284183E+02  0.33878731651E+02  0.10000000000E+00 0. -1.
</event>
<event>
 5    1  0.2313627E-009  0.3882748E+03  0.7957747E-01  0.3415901E+00
         13   -1    0    0    0    0  0.00000000000E+00  0.00000000000E+00  0.14999999963E+04  0.15000000000E+04  0.10566000000E+00 0.  1.
        994   -1    0    0    0    0 -0.00000000000E+00 -0.00000000000E+00  0.11368683772E-12  0.17120000000E+03  0.17120000000E+03 0.  0.
         13    1    1    2    0    0 -0.37741541436E+02  0.25020825680E+03  0.11556894008E+04  0.11830666076E+04  0.10566000000E+00 0.  1.
        994    1    1    2    0    0  0.38518632666E+02 -0.26428571517E+03  0.28267624452E+03  0.42490695866E+03  0.17120000000E+03 0.  0.
        998    1    1    2    0    0 -0.77709122982E+00  0.14077458377E+02  0.61634350913E+02  0.63226433694E+02  0.10000000000E+00 0. -1.
</event>
<event>
 5    1  0.2313627E-009  0.3882934E+03  0.7957747E-01  0.3415823E+00
         13   -1    0    0    0    0  0.00000000000E+00  0.00000000000E+00  0.14999999963E+04  0.15000000000E+04  0.10566000000E+00 0.  1.
        994   -1    0    0    0    0 -0.00000000000E+00 -0.00000000000E+00  0.11368683772E-12  0.17120000000E+03  0.17120000000E+03 0.  0.
         13    1    1    2    0    0 -0.18982818227E+03  0.11972446416E+03  0.13114434720E+04  0.13305084282E+04  0.10566000000E+00 0.  1.
        994    1    1    2    0    0  0.19017340984E+03 -0.11997781001E+03  0.18653487610E+03  0.33862265238E+03  0.17120000000E+03 0.  0.
        998    1    1    2    0    0 -0.34522756934E+00  0.25334585424E+00  0.20216482105E+01  0.20689194482E+01  0.10000000000E+00 0.  0.
</event>
<event>
 5    1  0.2313627E-009  0.3873178E+03  0.7957747E-01  0.3419901E+00
         13   -1    0    0    0    0  0.00000000000E+00  0.00000000000E+00  0.14999999963E+04  0.15000000000E+04  0.10566000000E+00 0.  1.
        994   -1    0    0    0    0 -0.00000000000E+00 -0.00000000000E+00  0.11368683772E-12  0.17120000000E+03  0.17120000000E+03 0.  0.
         13    1    1    2    0    0 -0.18862639455E+03  0.19344949394E+03  0.10425278164E+04  0.10769711614E+04  0.10566000000E+00 0.  1.
        994    1    1    2    0    0  0.19565547879E+03 -0.21259804039E+03  0.35087342355E+03  0.48569598775E+03  0.17120000000E+03 0.  0.
        998    1    1    2    0    0 -0.70290842445E+01  0.19148546454E+02  0.10659875631E+03  0.10853285080E+03  0.10000000000E+00 0.  1.
</event>
<event>
 5    1  0.2313627E-009  0.3880697E+03  0.7957747E-01  0.3416757E+00
         13   -1    0    0    0    0  0.00000000000E+00  0.00000000000E+00  0.14999999963E+04  0.15000000000E+04  0.10566000000E+00 0.  1.
        994   -1    0    0    0    0 -0.00000000000E+00 -0.00000000000E+00  0.11368683772E-12  0.17120000000E+03  0.17120000000E+03 0.  0.
         13    1    1    2    0    0  0.17893138627E+03 -0.13521759232E+03  0.13002749661E+04  0.13194753643E+04  0.10566000000E+00 0.  1.
        994    1    1    2    0    0 -0.17910899349E+03  0.13741550395E+03  0.18853821608E+03  0.34032212858E+03  0.17120000000E+03 0.  0.
        998    1    1    2    0    0  0.17760722667E+00 -0.21979116292E+01  0.11186814098E+02  0.11402507160E+02  0.10000000000E+00 0. -1.
</event>
<event>
 5    1  0.2313627E-009  0.3881799E+03  0.7957747E-01  0.3416297E+00
         13   -1    0    0    0    0  0.00000000000E+00  0.00000000000E+00  0.14999999963E+04  0.15000000000E+04  0.10566000000E+00 0. -1.
        994   -1    0    0    0    0 -0.00000000000E+00 -0.00000000000E+00  0.11368683772E-12  0.17120000000E+03  0.17120000000E+03 0.  0.
         13    1    1    2    0    0  0.10207358988E+03 -0.22503218861E+03  0.12489422384E+04  0.12731516916E+04  0.10566000000E+00 0. -1.
        994    1    1    2    0    0 -0.10396744446E+03  0.22631623914E+03  0.23770747615E+03  0.38450299586E+03  0.17120000000E+03 0.  0.
        998    1    1    2    0    0  0.18938545819E+01 -0.12840505350E+01  0.13350281700E+02  0.13545312562E+02  0.10000000000E+00 0. -1.
</event>
<event>
 5    1  0.2313627E-009  0.3883009E+03  0.7957747E-01  0.3415792E+00
         13   -1    0    0    0    0  0.00000000000E+00  0.00000000000E+00  0.14999999963E+04  0.15000000000E+04  0.10566000000E+00 0.  1.
        994   -1    0    0    0    0 -0.00000000000E+00 -0.00000000000E+00  0.11368683772E-12  0.17120000000E+03  0.17120000000E+03 0.  0.
         13    1    1    2    0    0  0.13918772500E+03 -0.22758885786E+03  0.93469455663E+03  0.97202049174E+03  0.10566000000E+00 0.  1.
        994    1    1    2    0    0 -0.16061199533E+03  0.26283399630E+03  0.42063923919E+03  0.54874833230E+03  0.17120000000E+03 0.  0.
        998    1    1    2    0    0  0.21424270332E+02 -0.35245138443E+02  0.14466620047E+03  0.15043117596E+03  0.10000000000E+00 0.  0.
</event>
<event>
 5    1  0.2313627E-009  0.3882880E+03  0.7957747E-01  0.3415846E+00
         13   -1    0    0    0    0  0.00000000000E+00  0.00000000000E+00  0.14999999963E+04  0.15000000000E+04  0.10566000000E+00 0.  1.
        994   -1    0    0    0    0 -0.00000000000E+00 -0.00000000000E+00  0.11368683772E-12  0.17120000000E+03  0.17120000000E+03 0.  0.
         13    1    1    2    0    0  0.87434183844E+02 -0.27156907756E+03  0.10091603283E+04  0.10487130588E+04  0.10566000000E+00 0.  1.
        994    1    1    2    0    0 -0.95133197008E+02  0.29174612236E+03  0.41576417588E+03  0.54436698562E+03  0.17120000000E+03 0.  0.
        998    1    1    2    0    0  0.76990131640E+01 -0.20177044806E+02  0.75075492145E+02  0.78119955592E+02  0.10000000000E+00 0.  1.
</event>
<event>
 5    1  0.2313627E-009  0.3880507E+03  0.7957747E-01  0.3416836E+00
         13   -1    0    0    0    0  0.00000000000E+00  0.00000000000E+00  0.14999999963E+04  0.15000000000E+04  0.10566000000E+00 0.  1.
        994   -1    0    0    0    0 -0.00000000000E+00 -0.00000000000E+00  0.11368683772E-12  0.17120000000E+03  0.17120000000E+03 0.  0.
         13    1    1    2    0    0  0.92528708299E+02 -0.30167337269E+03  0.97736973374E+03  0.10270442996E+04  0.10566000000E+00 0.  1.
        994    1    1    2    0    0 -0.96639688746E+02  0.30966632643E+03  0.50271252165E+03  0.62230360966E+03  0.17120000000E+03 0.  0.
        998    1    1    2    0    0  0.41109804471E+01 -0.79929537394E+01  0.19917740885E+02  0.21852090785E+02  0.10000000000E+00 0.  1.
</event>
<event>
 5    1  0.2313627E-009  0.3840781E+03  0.7957747E-01  0.3433591E+00
         13   -1    0    0    0    0  0.00000000000E+00  0.00000000000E+00  0.14999999963E+04  0.15000000000E+04  0.10566000000E+00 0. -1.
        994   -1    0    0    0    0 -0.00000000000E+00 -0.00000000000E+00  0.11368683772E-12  0.17120000000E+03  0.17120000000E+03 0.  0.
         13    1    1    2    0    0  0.21943621438E+03 -0.11984900549E+03  0.10402539992E+04  0.10698805682E+04  0.10566000000E+00 0. -1.
        994    1    1    2    0    0 -0.25565846478E+03  0.14442753966E+03  0.37624903314E+03  0.50704372570E+03  0.17120000000E+03 0.  0.
        998    1    1    2    0    0  0.36222250403E+02 -0.24578534169E+02  0.83496963943E+02  0.94275706064E+02  0.10000000000E+00 0. -1.
</event>
<event>
 5    1  0.2313627E-009  0.3871961E+03  0.7957747E-01  0.3420411E+00
         13   -1    0    0    0    0  0.00000000000E+00  0.00000000000E+00  0.14999999963E+04  0.15000000000E+04  0.10566000000E+00 0. -1.
        994   -1    0    0    0    0 -0.00000000000E+00 -0.00000000000E+00  0.11368683772E-12  0.17120000000E+03  0.17120000000E+03 0.  0.
         13    1    1    2    0    0 -0.11551412037E+02 -0.50481023037E+01  0.75130667492E+02  0.76181013506E+02  0.10566000000E+00 0. -1.
        994    1    1    2    0    0  0.10226248208E+03 -0.25413009502E+02  0.37676435431E+02  0.20452968019E+03  0.17120000000E+03 0.  0.
        998    1    1    2    0    0 -0.90711070043E+02  0.30461111806E+02  0.13871928934E+04  0.13904893063E+04  0.10000000000E+00 0. -1.
</event>
<event>
 5    1  0.2313627E-009  0.3881353E+03  0.7957747E-01  0.3416483E+00
         13   -1    0    0    0    0  0.00000000000E+00  0.00000000000E+00  0.14999999963E+04  0.15000000000E+04  0.10566000000E+00 0.  1.
        994   -1    0    0    0    0 -0.00000000000E+00 -0.00000000000E+00  0.11368683772E-12  0.17120000000E+03  0.17120000000E+03 0.  0.
         13    1    1    2    0    0 -0.71359293705E+02  0.20501149574E+03  0.12569103297E+04  0.12755177186E+04  0.10566000000E+00 0.  1.
        994    1    1    2    0    0  0.73611129772E+02 -0.21131229734E+03  0.18465466535E+03  0.33686536015E+03  0.17120000000E+03 0.  0.
        998    1    1    2    0    0 -0.22518360675E+01  0.63008015977E+01  0.58435001188E+02  0.58816921292E+02  0.10000000000E+00 0.  1.
</event>
<event>
 5    1  0.2313627E-009  0.3800128E+03  0.7957747E-01  0.3451103E+00
         13   -1    0    0    0    0  0.00000000000E+00  0.00000000000E+00  0.14999999963E+04  0.15000000000E+04  0.10566000000E+00 0. -1.
        994   -1    0    0    0    0 -0.00000000000E+00 -0.00000000000E+00  0.11368683772E-12  0.17120000000E+03  0.17120000000E+03 0.  0.
         13    1    1    2    0    0  0.17083587067E+02 -0.11158877190E+02  0.79267338773E+02  0.81851644134E+02  0.10566000000E+00 0. -1.
        994    1    1    2    0    0  0.11959965331E+03  0.40974684124E+02  0.59548850786E+02  0.22099436065E+03  0.17120000000E+03 0.  0.
        998    1    1    2    0    0 -0.13668324037E+03 -0.29815806934E+02  0.13611838067E+04  0.13683539952E+04  0.10000000000E+00 0. -1.
</event>
<event>
 5    1  0.2313627E-009  0.3883008E+03  0.7957747E-01  0.3415792E+00
         13   -1    0    0    0    0  0.00000000000E+00  0.00000000000E+00  0.14999999963E+04  0.15000000000E+04  0.10566000000E+00 0.  1.
        994   -1    0    0    0    0 -0.00000000000E+00 -0.00000000000E+00  0.11368683772E-12  0.17120000000E+03  0.17120000000E+03 0.  0.
         13    1    1    2    0    0  0.10973210146E+03 -0.13978619582E+03  0.83977155750E+03  0.85836914820E+03  0.10566000000E+00 0.  1.
        994    1    1    2    0    0 -0.16094229897E+03  0.20548392387E+03  0.26664806834E+03  0.41053221422E+03  0.17120000000E+03 0.  0.
        998    1    1    2    0    0  0.51210197509E+02 -0.65697728053E+02  0.39358037044E+03  0.40229863758E+03  0.10000000000E+00 0. -1.
</event>
<event>
 5    1  0.2313627E-009  0.3881515E+03  0.7957747E-01  0.3416415E+00
         13   -1    0    0    0    0  0.00000000000E+00  0.00000000000E+00  0.14999999963E+04  0.15000000000E+04  0.10566000000E+00 0. -1.
        994   -1    0    0    0    0 -0.00000000000E+00 -0.00000000000E+00  0.11368683772E-12  0.17120000000E+03  0.17120000000E+03 0.  0.
         13    1    1    2    0    0 -0.15085014258E+03  0.14467334167E+00  0.88257425334E+03  0.89537316817E+03  0.10566000000E+00 0. -1.
        994    1    1    2    0    0  0.22764562928E+03 -0.96642119355E+01  0.19252013023E+03  0.34393221725E+03  0.17120000000E+03 0.  0.
        998    1    1    2    0    0 -0.76795486695E+02  0.95195385939E+01  0.42490561271E+03  0.43189461458E+03  0.10000000000E+00 0. -1.
</event>
<event>
 5    1  0.2313627E-009  0.3882293E+03  0.7957747E-01  0.3416091E+00
         13   -1    0    0    0    0  0.00000000000E+00  0.00000000000E+00  0.14999999963E+04  0.15000000000E+04  0.10566000000E+00 0.  1.
        994   -1    0    0    0    0 -0.00000000000E+00 -0.00000000000E+00  0.11368683772E-12  0.17120000000E+03  0.17120000000E+03 0.  0.
         13    1    1    2    0    0 -0.19849615523E+03  0.17361925972E+03  0.11654694219E+04  0.11949323644E+04  0.10566000000E+00 0.  1.
        994    1    1    2    0    0  0.20346692541E+03 -0.18034267910E+03  0.29607033453E+03  0.43690886307E+03  0.17120000000E+03 0.  0.
        998    1    1    2    0    0 -0.49707701861E+01  0.67234193794E+01  0.38460239821E+02  0.39358772484E+02  0.10000000000E+00 0.  1.
</event>
<event>
 5    1  0.2313627E-009  0.3882568E+03  0.7957747E-01  0.3415976E+00
         13   -1    0    0    0    0  0.00000000000E+00  0.00000000000E+00  0.14999999963E+04  0.15000000000E+04  0.10566000000E+00 0. -1.
        994   -1    0    0    0    0 -0.00000000000E+00 -0.00000000000E+00  0.11368683772E-12  0.17120000000E+03  0.17120000000E+03 0.  0.
         13    1    1    2    0    0 -0.41445148773E+02 -0.30326634935E+03  0.10688833767E+04  0.11118452515E+04  0.10566000000E+00 0. -1.
        994    1    1    2    0    0  0.41625037930E+02  0.30530337488E+03  0.42123944353E+03  0.54926760626E+03  0.17120000000E+03 0.  0.
        998    1    1    2    0    0 -0.17988915714E+00 -0.20370255328E+01  0.98771760196E+01  0.10087142274E+02  0.10000000000E+00 0. -1.
</event>
<event>
 5    1  0.2313627E-009  0.3873566E+03  0.7957747E-01  0.3419739E+00
         13   -1    0    0    0    0  0.00000000000E+00  0.00000000000E+00  0.14999999963E+04  0.15000000000E+04  0.10566000000E+00 0.  1.
        994   -1    0    0    0    0 -0.00000000000E+00 -0.00000000000E+00  0.11368683772E-12  0.17120000000E+03  0.17120000000E+03 0.  0.
         13    1    1    2    0    0  0.64764661890E+02 -0.11437280559E+02  0.31985918740E+03  0.32655043063E+03  0.10566000000E+00 0.  1.
        994    1    1    2    0    0 -0.20820817382E+03  0.23829789063E+02  0.15993858008E+03  0.31433786264E+03  0.17120000000E+03 0.  0.
        998    1    1    2    0    0  0.14344351193E+03 -0.12392508504E+02  0.10202022288E+04  0.10303117067E+04  0.10000000000E+00 0.  1.
</event>
<event>
 5    1  0.2313627E-009  0.3883007E+03  0.7957747E-01  0.3415793E+00
         13   -1    0    0    0    0  0.00000000000E+00  0.00000000000E+00  0.14999999963E+04  0.15000000000E+04  0.10566000000E+00 0. -1.
        994   -1    0    0    0    0 -0.00000000000E+00 -0.00000000000E+00  0.11368683772E-12  0.17120000000E+03  0.17120000000E+03 0.  0.
         13    1    1    2    0    0 -0.14865010796E+03  0.84309619921E+02  0.10306443992E+04  0.10447166388E+04  0.10566000000E+00 0. -1.
        994    1    1    2    0    0  0.19110812138E+03 -0.10799461778E+03  0.17649239478E+03  0.32961213106E+03  0.17120000000E+03 0.  0.
        998    1    1    2    0    0 -0.42458013427E+02  0.23684997858E+02  0.29286320231E+03  0.29687123016E+03  0.10000000000E+00 0. -1.
</event>
<event>
 5    1  0.2313627E-009  0.3882374E+03  0.7957747E-01  0.3416057E+00
         13   -1    0    0    0    0  0.00000000000E+00  0.00000000000E+00  0.14999999963E+04  0.15000000000E+04  0.10566000000E+00 0.  1.
        994   -1    0    0    0    0 -0.00000000000E+00 -0.00000000000E+00  0.11368683772E-12  0.17120000000E+03  0.17120000000E+03 0.  0.
         13    1    1    2    0    0 -0.32570223659E+02  0.28699044326E+03  0.10878292363E+04  0.11255206761E+04  0.10566000000E+00 0.  1.
        994    1    1    2    0    0  0.33615186427E+02 -0.29476311700E+03  0.37582509196E+03  0.50849701636E+03  0.17120000000E+03 0.  0.
        998    1    1    2    0    0 -0.10449627683E+01  0.77726737443E+01  0.36345668066E+02  0.37182307506E+02  0.10000000000E+00 0.  1.
</event>
<event>
 5    1  0.2313627E-009  0.3881551E+03  0.7957747E-01  0.3416400E+00
         13   -1    0    0    0    0  0.00000000000E+00  0.00000000000E+00  0.14999999963E+04  0.15000000000E+04  0.10566000000E+00 0. -1.
        994   -1    0    0    0    0 -0.00000000000E+00 -0.00000000000E+00  0.11368683772E-12  0.17120000000E+03  0.17120000000E+03 0.  0.
         13    1    1    2    0    0 -0.14879761797E+03  0.12121218614E+03  0.11231537773E+04  0.11394329923E+04  0.10566000000E+00 0. -1.
        994    1    1    2    0    0  0.17511561974E+03 -0.13621512642E+03  0.18102387690E+03  0.33361523489E+03  0.17120000000E+03 0.  0.
        998    1    1    2    0    0 -0.26318001768E+02  0.15002940276E+02  0.19582234204E+03  0.19815177283E+03  0.10000000000E+00 0. -1.
</event>
<event>
 5    1  0.2313627E-009  0.3882992E+03  0.7957747E-01  0.3415799E+00
         13   -1    0    0    0    0  0.00000000000E+00  0.00000000000E+00  0.14999999963E+04  0.15000000000E+04  0.10566000000E+00 0.  1.
        994   -1    0    0    0    0 -0.00000000000E+00 -0.00000000000E+00  0.11368683772E-12  0.17120000000E+03  0.17120000000E+03 0.  0.
         13    1    1    2    0    0  0.59590524485E+02 -0.24162283275E+02  0.21488619037E+03  0.22430098644E+03  0.10566000000E+00 0.  1.
        994    1    1    2    0    0 -0.28964175458E+03  0.12014323222E+03  0.44546337031E+03  0.57102871778E+03  0.17120000000E+03 0.  0.
        998    1    1    2    0    0  0.23005123010E+03 -0.95980948944E+02  0.83965043559E+03  0.87587029577E+03  0.10000000000E+00 0.  1.
</event>
<event>
 5    1  0.2313627E-009  0.3878477E+03  0.7957747E-01  0.3417684E+00
         13   -1    0    0    0    0  0.00000000000E+00  0.00000000000E+00  0.14999999963E+04  0.15000000000E+04  0.10566000000E+00 0. -1.
        994   -1    0    0    0    0 -0.00000000000E+00 -0.00000000000E+00  0.11368683772E-12  0.17120000000E+03  0.17120000000E+03 0.  0.
         13    1    1    2    0    0 -0.19435400568E+03 -0.12480289977E+03  0.70012101715E+03  0.73723720276E+03  0.10566000000E+00 0. -1.
        994    1    1    2    0    0  0.27580584818E+03  0.16425548907E+03  0.48469581453E+03  0.60604307124E+03  0.17120000000E+03 0.  0.
        998    1    1    2    0    0 -0.81451842501E+02 -0.39452589298E+02  0.31518316460E+03  0.32791972599E+03  0.10000000000E+00 0.  1.
</event>
<event>
 5    1  0.2313627E-009  0.3883007E+03  0.7957747E-01  0.3415793E+00
         13   -1    0    0    0    0  0.00000000000E+00  0.00000000000E+00  0.14999999963E+04  0.15000000000E+04  0.10566000000E+00 0.  1.
        994   -1    0    0    0    0 -0.00000000000E+00 -0.00000000000E+00  0.11368683772E-12  0.17120000000E+03  0.17120000000E+03 0.  0.
         13    1    1    2    0    0  0.21523513373E+03  0.73489774073E+02  0.10853921109E+04  0.11089648124E+04  0.10566000000E+00 0.  1.
        994    1    1    2    0    0 -0.24557492751E+03 -0.83803754096E+02  0.26275452493E+03  0.40703746092E+03  0.17120000000E+03 0.  0.
        998    1    1    2    0    0  0.30339793784E+02  0.10313980023E+02  0.15185336047E+03  0.15519772664E+03  0.10000000000E+00 0.  1.
</event>
<event>
 5    1  0.2313627E-009  0.3882769E+03  0.7957747E-01  0.3415892E+00
         13   -1    0    0    0    0  0.00000000000E+00  0.00000000000E+00  0.14999999963E+04  0.15000000000E+04  0.10566000000E+00 0.  1.
        994   -1    0    0    0    0 -0.00000000000E+00 -0.00000000000E+00  0.11368683772E-12  0.17120000000E+03  0.17120000000E+03 0.  0.
         13    1    1    2    0    0  0.10672204667E+03 -0.19012222165E+03  0.12188276967E+04  0.12381748745E+04  0.10566000000E+00 0.  1.
        994    1    1    2    0    0 -0.11418728262E+03  0.20133887085E+03  0.19953947847E+03  0.35028776727E+03  0.17120000000E+03 0.  0.
        998    1    1    2    0    0  0.74652359530E+01 -0.11216649199E+02  0.81632821109E+02  0.82737358245E+02  0.10000000000E+00 0.  1.
</event>
<event>
 5    1  0.2789472E-009  0.3882914E+03  0.7957747E-01  0.3415832E+00
         13   -1    0    0    0    0  0.00000000000E+00  0.00000000000E+00  0.14999999963E+04  0.15000000000E+04  0.10566000000E+00 0. -1.
        994   -1    0    0    0    0 -0.00000000000E+00 -0.00000000000E+00  0.11368683772E-12  0.17120000000E+03  0.17120000000E+03 0.  0.
         13    1    1    2    0    0 -0.24127859856E+03  0.19078449080E+03  0.10778847389E+04  0.11209146291E+04  0.10566000000E+00 0. -1.
        994    1    1    2    0    0  0.24163549744E+03 -0.19096285060E+03  0.42050848664E+03  0.54862678687E+03  0.17120000000E+03 0.  0.
        998    1    1    2    0    0 -0.35689887778E+00  0.17835979348E+00  0.16067707168E+01  0.16585840832E+01  0.10000000000E+00 0. -1.
</event>
<event>
 5    1  0.2313627E-009  0.3811378E+03  0.7957747E-01  0.3446219E+00
         13   -1    0    0    0    0  0.00000000000E+00  0.00000000000E+00  0.14999999963E+04  0.15000000000E+04  0.10566000000E+00 0.  1.
        994   -1    0    0    0    0 -0.00000000000E+00 -0.00000000000E+00  0.11368683772E-12  0.17120000000E+03  0.17120000000E+03 0.  0.
         13    1    1    2    0    0 -0.11532435510E+02 -0.17400753899E+02  0.70059276260E+02  0.73103328646E+02  0.10566000000E+00 0.  1.
        994    1    1    2    0    0  0.97656218682E+01 -0.32239661673E+02  0.73483106972E+01  0.17463734087E+03  0.17120000000E+03 0.  0.
        998    1    1    2    0    0  0.17668136422E+01  0.49640415572E+02  0.14225924093E+04  0.14234593305E+04  0.10000000000E+00 0.  1.
</event>
<event>
 5    1  0.2313627E-009  0.3882128E+03  0.7957747E-01  0.3416160E+00
         13   -1    0    0    0    0  0.00000000000E+00  0.00000000000E+00  0.14999999963E+04  0.15000000000E+04  0.10566000000E+00 0.  1.
        994   -1    0    0    0    0 -0.00000000000E+00 -0.00000000000E+00  0.11368683772E-12  0.17120000000E+03  0.17120000000E+03 0.  0.
         13    1    1    2    0    0  0.18511194761E+03  0.17466209465E+03  0.92838014810E+03  0.96263336271E+03  0.10566000000E+00 0.  1.
        994    1    1    2    0    0 -0.21632428481E+03 -0.21089261253E+03  0.39662496928E+03  0.52715528687E+03  0.17120000000E+03 0.  0.
        998    1    1    2    0    0  0.31212337201E+02  0.36230517881E+02  0.17499487891E+03  0.18141135043E+03  0.10000000000E+00 0.  1.
</event>
<event>
 5    1  0.2313627E-009  0.3882697E+03  0.7957747E-01  0.3415922E+00
         13   -1    0    0    0    0  0.00000000000E+00  0.00000000000E+00  0.14999999963E+04  0.15000000000E+04  0.10566000000E+00 0.  1.
        994   -1    0    0    0    0 -0.00000000000E+00 -0.00000000000E+00  0.11368683772E-12  0.17120000000E+03  0.17120000000E+03 0.  0.
         13    1    1    2    0    0  0.20628003313E+02 -0.22322736876E+03  0.13073635270E+04  0.13264446372E+04  0.10566000000E+00 0.  1.
        994    1    1    2    0    0 -0.20665962266E+02  0.22383120785E+03  0.18642397085E+03  0.33851267113E+03  0.17120000000E+03 0.  0.
        998    1    1    2    0    0  0.37958952900E-01 -0.60383908776E+00  0.62124983929E+01  0.62426916316E+01  0.10000000000E+00 0. -1.
</event>
<event>
 5    1  0.2313627E-009  0.3808975E+03  0.7957747E-01  0.3447260E+00
         13   -1    0    0    0    0  0.00000000000E+00  0.00000000000E+00  0.14999999963E+04  0.15000000000E+04  0.10566000000E+00 0.  1.
        994   -1    0    0    0    0 -0.00000000000E+00 -0.00000000000E+00  0.11368683772E-12  0.17120000000E+03  0.17120000000E+03 0.  0.
         13    1    1    2    0    0 -0.19351098427E+02 -0.85109141703E-01  0.10267560118E+03  0.10448331204E+03  0.10566000000E+00 0.  1.
        994    1    1    2    0    0 -0.10330160483E+03  0.40039655145E+02  0.45736795371E+02  0.20898729625E+03  0.17120000000E+03 0.  0.
        998    1    1    2    0    0  0.12265270325E+03 -0.39954546003E+02  0.13515875997E+04  0.13577293917E+04  0.10000000000E+00 0.  1.
</event>
<event>
 5    1  0.2313627E-009  0.3882333E+03  0.7957747E-01  0.3416074E+00
         13   -1    0    0    0    0  0.00000000000E+00  0.00000000000E+00  0.14999999963E+04  0.15000000000E+04  0.10566000000E+00 0. -1.
        994   -1    0    0    0    0 -0.00000000000E+00 -0.00000000000E+00  0.11368683772E-12  0.17120000000E+03  0.17120000000E+03 0.  0.
         13    1    1    2    0    0  0.12246591588E+03 -0.22708581524E+03  0.11814411393E+04  0.12092845178E+04  0.10566000000E+00 0. -1.
        994    1    1    2    0    0 -0.12499732178E+03  0.23541937209E+03  0.28131776953E+03  0.42366937423E+03  0.17120000000E+03 0.  0.
        998    1    1    2    0    0  0.25314058949E+01 -0.83335568495E+01  0.37241087403E+02  0.38246107992E+02  0.10000000000E+00 0. -1.
</event>
<event>
 5    1  0.2313627E-009  0.3881302E+03  0.7957747E-01  0.3416504E+00
         13   -1    0    0    0    0  0.00000000000E+00  0.00000000000E+00  0.14999999963E+04  0.15000000000E+04  0.10566000000E+00 0.  1.
        994   -1    0    0    0    0 -0.00000000000E+00 -0.00000000000E+00  0.11368683772E-12  0.17120000000E+03  0.17120000000E+03 0.  0.
         13    1    1    2    0    0  0.12115263313E+03  0.18510346995E+03  0.11236774207E+04  0.11452476641E+04  0.10566000000E+00 0.  1.
        994    1    1    2    0    0 -0.13426274124E+03 -0.20449986096E+03  0.22771859661E+03  0.37551548045E+03  0.17120000000E+03 0.  0.
        998    1    1    2    0    0  0.13110108109E+02  0.19396391018E+02  0.14860397897E+03  0.15043685547E+03  0.10000000000E+00 0. -1.
</event>
<event>
 5    1  0.2313627E-009  0.3882151E+03  0.7957747E-01  0.3416150E+00
         13   -1    0    0    0    0  0.00000000000E+00  0.00000000000E+00  0.14999999963E+04  0.15000000000E+04  0.10566000000E+00 0.  1.
        994   -1    0    0    0    0 -0.00000000000E+00 -0.00000000000E+00  0.11368683772E-12  0.17120000000E+03  0.17120000000E+03 0.  0.
         13    1    1    2    0    0 -0.21293744325E+03  0.64803830565E+02  0.13132110694E+04  0.13319403947E+04  0.10566000000E+00 0.  1.
        994    1    1    2    0    0  0.21384630247E+03 -0.65124640691E+02  0.18412950724E+03  0.33642915352E+03  0.17120000000E+03 0.  0.
        998    1    1    2    0    0 -0.90885921944E+00  0.32081012606E+00  0.26594196803E+01  0.28304517755E+01  0.10000000000E+00 0.  1.
</event>
<event>
 5    1  0.2313627E-009  0.3882986E+03  0.7957747E-01  0.3415802E+00
         13   -1    0    0    0    0  0.00000000000E+00  0.00000000000E+00  0.14999999963E+04  0.15000000000E+04  0.10566000000E+00 0. -1.
        994   -1    0    0    0    0 -0.00000000000E+00 -0.00000000000E+00  0.11368683772E-12  0.17120000000E+03  0.17120000000E+03 0.  0.
         13    1    1    2    0    0 -0.23103474799E+03  0.13748896760E+03  0.11509126871E+04  0.11818969056E+04  0.10566000000E+00 0. -1.
        994    1    1    2    0    0  0.23825974119E+03 -0.14183311629E+03  0.31158482536E+03  0.45086459225E+03  0.17120000000E+03 0.  0.
        998    1    1    2    0    0 -0.72249932028E+01  0.43441486966E+01  0.37502483862E+02  0.38438502188E+02  0.10000000000E+00 0.  1.
</event>
<event>
 5    1  0.2313627E-009  0.3882888E+03  0.7957747E-01  0.3415842E+00
         13   -1    0    0    0    0  0.00000000000E+00  0.00000000000E+00  0.14999999963E+04  0.15000000000E+04  0.10566000000E+00 0. -1.
        994   -1    0    0    0    0 -0.00000000000E+00 -0.00000000000E+00  0.11368683772E-12  0.17120000000E+03  0.17120000000E+03 0.  0.
         13    1    1    2    0    0 -0.11632007342E+02  0.16137886013E+03  0.85160042398E+03  0.86683431714E+03  0.10566000000E+00 0. -1.
        994    1    1    2    0    0  0.15404488241E+02 -0.24047889519E+03  0.21940715106E+03  0.36812543410E+03  0.17120000000E+03 0.  0.
        998    1    1    2    0    0 -0.37724808987E+01  0.79100035064E+02  0.42899242124E+03  0.43624024876E+03  0.10000000000E+00 0.  1.
</event>
<event>
 5    1  0.2313627E-009  0.3881895E+03  0.7957747E-01  0.3416257E+00
         13   -1    0    0    0    0  0.00000000000E+00  0.00000000000E+00  0.14999999963E+04  0.15000000000E+04  0.10566000000E+00 0.  1.
        994   -1    0    0    0    0 -0.00000000000E+00 -0.00000000000E+00  0.11368683772E-12  0.17120000000E+03  0.17120000000E+03 0.  0.
         13    1    1    2    0    0  0.18503419307E+03  0.13330571637E+03  0.12917602237E+04  0.13117364649E+04  0.10566000000E+00 0.  1.
        994    1    1    2    0    0 -0.18591579974E+03 -0.13386816157E+03  0.19492580906E+03  0.34610819163E+03  0.17120000000E+03 0.  0.
        998    1    1    2    0    0  0.88160666969E+00  0.56244519382E+00  0.13313963531E+02  0.13355343494E+02  0.10000000000E+00 0.  1.
</event>
<event>
 5    1  0.2313627E-009  0.3853808E+03  0.7957747E-01  0.3428059E+00
         13   -1    0    0    0    0  0.00000000000E+00  0.00000000000E+00  0.14999999963E+04  0.15000000000E+04  0.10566000000E+00 0. -1.
        994   -1    0    0    0    0 -0.00000000000E+00 -0.00000000000E+00  0.11368683772E-12  0.17120000000E+03  0.17120000000E+03 0.  0.
         13    1    1    2    0    0  0.16100842225E+02  0.13257213200E+03  0.80438902842E+03  0.81539948952E+03  0.10566000000E+00 0. -1.
        994    1    1    2    0    0 -0.15701535991E+02 -0.17413857722E+03  0.10927836034E+03  0.26799623569E+03  0.17120000000E+03 0.  0.
        998    1    1    2    0    0 -0.39930623459E+00  0.41566445222E+02  0.58633260752E+03  0.58780427479E+03  0.10000000000E+00 0. -1.
</event>
<event>
 5    1  0.2313627E-009  0.3864985E+03  0.7957747E-01  0.3423342E+00
         13   -1    0    0    0    0  0.00000000000E+00  0.00000000000E+00  0.14999999963E+04  0.15000000000E+04  0.10566000000E+00 0. -1.
        994   -1    0    0    0    0 -0.00000000000E+00 -0.00000000000E+00  0.11368683772E-12  0.17120000000E+03  0.17120000000E+03 0.  0.
         13    1    1    2    0    0 -0.21637059882E+03  0.18375198367E+03  0.95343057022E+03  0.99479188323E+03  0.10566000000E+00 0. -1.
        994    1    1    2    0    0  0.24364572823E+03 -0.18845359942E+03  0.42681357942E+03  0.55349550278E+03  0.17120000000E+03 0.  0.
        998    1    1    2    0    0 -0.27275129417E+02  0.47016157531E+01  0.11975584664E+03  0.12291261399E+03  0.10000000000E+00 0. -1.
</event>
<event>
 5    1  0.2313627E-009  0.3866736E+03  0.7957747E-01  0.3422605E+00
         13   -1    0    0    0    0  0.00000000000E+00  0.00000000000E+00  0.14999999963E+04  0.15000000000E+04  0.10566000000E+00 0.  1.
        994   -1    0    0    0    0 -0.00000000000E+00 -0.00000000000E+00  0.11368683772E-12  0.17120000000E+03  0.17120000000E+03 0.  0.
         13    1    1    2    0    0 -0.11447116366E+03 -0.17035425806E+03  0.11279558328E+04  0.11464765992E+04  0.10566000000E+00 0.  1.
        994    1    1    2    0    0  0.14694875745E+03  0.18581871678E+03  0.21300545317E+03  0.36166738297E+03  0.17120000000E+03 0.  0.
        998    1    1    2    0    0 -0.32477593790E+02 -0.15464458723E+02  0.15903871028E+03  0.16305601783E+03  0.10000000000E+00 0. -1.
</event>
<event>
 5    1  0.2313627E-009  0.3872927E+03  0.7957747E-01  0.3420006E+00
         13   -1    0    0    0    0  0.00000000000E+00  0.00000000000E+00  0.14999999963E+04  0.15000000000E+04  0.10566000000E+00 0. -1.
        994   -1    0    0    0    0 -0.00000000000E+00 -0.00000000000E+00  0.11368683772E-12  0.17120000000E+03  0.17120000000E+03 0.  0.
         13    1    1    2    0    0  0.13387219963E+03  0.12195497921E+03  0.10589285461E+04  0.10743018475E+04  0.10566000000E+00 0. -1.
        994    1    1    2    0    0 -0.18040768121E+03 -0.15336243450E+03  0.21187524594E+03  0.36092593090E+03  0.17120000000E+03 0.  0.
        998    1    1    2    0    0  0.46535481581E+02  0.31407455291E+02  0.22919620427E+03  0.23597222155E+03  0.10000000000E+00 0.  1.
</event>
<event>
 5    1  0.2313627E-009  0.3698771E+03  0.7957747E-01  0.3496456E+00
         13   -1    0    0    0    0  0.00000000000E+00  0.00000000000E+00  0.14999999963E+04  0.15000000000E+04  0.10566000000E+00 0.  1.
        994   -1    0    0    0    0 -0.00000000000E+00 -0.00000000000E+00  0.11368683772E-12  0.17120000000E+03  0.17120000000E+03 0.  0.
         13    1    1    2    0    0  0.25292096733E+02 -0.33448552062E+02  0.11941990037E+03  0.12656863577E+03  0.10566000000E+00 0.  1.
        994    1    1    2    0    0  0.11510788092E+03  0.43591602239E+02  0.63724117958E+02  0.22027313782E+03  0.17120000000E+03 0.  0.
        998    1    1    2    0    0 -0.14039997766E+03 -0.10143050177E+02  0.13168559779E+04  0.13243582264E+04  0.10000000000E+00 0.  1.
</event>
<event>
 5    1  0.2313627E-009  0.3877394E+03  0.7957747E-01  0.3418136E+00
         13   -1    0    0    0    0  0.00000000000E+00  0.00000000000E+00  0.14999999963E+04  0.15000000000E+04  0.10566000000E+00 0.  1.
        994   -1    0    0    0    0 -0.00000000000E+00 -0.00000000000E+00  0.11368683772E-12  0.17120000000E+03  0.17120000000E+03 0.  0.
         13    1    1    2    0    0 -0.19373526028E+03  0.24172530227E+03  0.10661849288E+04  0.11102768963E+04  0.10566000000E+00 0.  1.
        994    1    1    2    0    0  0.19380232386E+03 -0.24265088023E+03  0.43306088565E+03  0.55972311109E+03  0.17120000000E+03 0.  0.
        998    1    1    2    0    0 -0.67063577881E-01  0.92557795351E+00  0.75418179581E+00  0.11999926052E+01  0.10000000000E+00 0.  1.
</event>
<event>
 5    1  0.2313627E-009  0.3883006E+03  0.7957747E-01  0.3415793E+00
         13   -1    0    0    0    0  0.00000000000E+00  0.00000000000E+00  0.14999999963E+04  0.15000000000E+04  0.10566000000E+00 0. -1.
        994   -1    0    0    0    0 -0.00000000000E+00 -0.00000000000E+00  0.11368683772E-12  0.17120000000E+03  0.17120000000E+03 0.  0.
         13    1    1    2    0    0 -0.26896133836E+03 -0.53201545469E+02  0.33485519466E+03  0.43278010413E+03  0.10566000000E+00 0. -1.
        994    1    1    2    0    0  0.31255876092E+03  0.62078433719E+02  0.11106158763E+04  0.11680427114E+04  0.17120000000E+03 0.  0.
        998    1    1    2    0    0 -0.43597422560E+02 -0.88768882497E+01  0.54528925362E+02  0.70377184513E+02  0.10000000000E+00 0. -1.
</event>
<event>
 5    1  0.2313627E-009  0.3813358E+03  0.7957747E-01  0.3445363E+00
         13   -1    0    0    0    0  0.00000000000E+00  0.00000000000E+00  0.14999999963E+04  0.15000000000E+04  0.10566000000E+00 0.  1.
        994   -1    0    0    0    0 -0.00000000000E+00 -0.00000000000E+00  0.11368683772E-12  0.17120000000E+03  0.17120000000E+03 0.  0.
         13    1    1    2    0    0  0.12574375782E+03 -0.94583116278E+02  0.69286881897E+03  0.71051014769E+03  0.10566000000E+00 0.  1.
        994    1    1    2    0    0 -0.14071832267E+03  0.19665693930E+03  0.23181185257E+03  0.37619379727E+03  0.17120000000E+03 0.  0.
        998    1    1    2    0    0  0.14974564846E+02 -0.10207382302E+03  0.57531932474E+03  0.58449605504E+03  0.10000000000E+00 0.  1.
</event>
<event>
 5    1  0.2313627E-009  0.3883006E+03  0.7957747E-01  0.3415794E+00
         13   -1    0    0    0    0  0.00000000000E+00  0.00000000000E+00  0.14999999963E+04  0.15000000000E+04  0.10566000000E+00 0. -1.
        994   -1    0    0    0    0 -0.00000000000E+00 -0.00000000000E+00  0.11368683772E-12  0.17120000000E+03  0.17120000000E+03 0.  0.
         13    1    1    2    0    0  0.94095157326E+02 -0.19429864086E+03  0.12955089822E+04  0.13133732883E+04  0.10566000000E+00 0. -1.
        994    1    1    2    0    0 -0.96007092238E+02  0.19824963721E+03  0.17789802173E+03  0.33087373203E+03  0.17120000000E+03 0.  0.
        998    1    1    2    0    0  0.19119349114E+01 -0.39509963534E+01  0.26592992386E+02  0.26952979638E+02  0.10000000000E+00 0.  0.
</event>
<event>
 5    1  0.2313627E-009  0.3882908E+03  0.7957747E-01  0.3415834E+00
         13   -1    0    0    0    0  0.00000000000E+00  0.00000000000E+00  0.14999999963E+04  0.15000000000E+04  0.10566000000E+00 0. -1.
        994   -1    0    0    0    0 -0.00000000000E+00 -0.00000000000E+00  0.11368683772E-12  0.17120000000E+03  0.17120000000E+03 0.  0.
         13    1    1    2    0    0 -0.15078410379E+03  0.55283962559E+02  0.90658317153E+03  0.92069822447E+03  0.10566000000E+00 0. -1.
        994    1    1    2    0    0  0.21598499637E+03 -0.77189347590E+02  0.19532077330E+03  0.34650737153E+03  0.17120000000E+03 0.  0.
        998    1    1    2    0    0 -0.65200892586E+02  0.21905385031E+02  0.39809605145E+03  0.40399440400E+03  0.10000000000E+00 0. -1.
</event>
<event>
 5    1  0.2313627E-009  0.3883009E+03  0.7957747E-01  0.3415792E+00
         13   -1    0    0    0    0  0.00000000000E+00  0.00000000000E+00  0.14999999963E+04  0.15000000000E+04  0.10566000000E+00 0.  1.
        994   -1    0    0    0    0 -0.00000000000E+00 -0.00000000000E+00  0.11368683772E-12  0.17120000000E+03  0.17120000000E+03 0.  0.
         13    1    1    2    0    0 -0.21691398713E+03 -0.42396919578E+02  0.10431032975E+04  0.10662615425E+04  0.10566000000E+00 0.  1.
        994    1    1    2    0    0  0.25631923258E+03  0.50131208700E+02  0.26707342535E+03  0.41091403189E+03  0.17120000000E+03 0.  0.
        998    1    1    2    0    0 -0.39405245450E+02 -0.77342891226E+01  0.18982327347E+03  0.19402442565E+03  0.10000000000E+00 0.  0.
</event>
<event>
 5    1  0.2313627E-009  0.3882681E+03  0.7957747E-01  0.3415929E+00
         13   -1    0    0    0    0  0.00000000000E+00  0.00000000000E+00  0.14999999963E+04  0.15000000000E+04  0.10566000000E+00 0.  1.
        994   -1    0    0    0    0 -0.00000000000E+00 -0.00000000000E+00  0.11368683772E-12  0.17120000000E+03  0.17120000000E+03 0.  0.
         13    1    1    2    0    0 -0.25643810292E+03 -0.16196060434E+02  0.12430196814E+04  0.12692993156E+04  0.10566000000E+00 0.  1.
        994    1    1    2    0    0  0.25652562218E+03  0.16164394536E+02  0.25668773497E+03  0.40157778297E+03  0.17120000000E+03 0.  0.
        998    1    1    2    0    0 -0.87519266774E-01  0.31665897798E-01  0.29257989057E+00  0.32290144550E+00  0.10000000000E+00 0.  0.
</event>
<event>
 5    1  0.2313627E-009  0.3874815E+03  0.7957747E-01  0.3419216E+00
         13   -1    0    0    0    0  0.00000000000E+00  0.00000000000E+00  0.14999999963E+04  0.15000000000E+04  0.10566000000E+00 0. -1.
        994   -1    0    0    0    0 -0.00000000000E+00 -0.00000000000E+00  0.11368683772E-12  0.17120000000E+03  0.17120000000E+03 0.  0.
         13    1    1    2    0    0 -0.23362406733E+03  0.60551467524E+02  0.11654953605E+04  0.11902210431E+04  0.10566000000E+00 0. -1.
        994    1    1    2    0    0  0.24706740601E+03 -0.73134190873E+02  0.25960880075E+03  0.40385279795E+03  0.17120000000E+03 0.  0.
        998    1    1    2    0    0 -0.13443338673E+02  0.12582723349E+02  0.74895835036E+02  0.77126158904E+02  0.10000000000E+00 0. -1.
</event>
<event>
 5    1  0.2313627E-009  0.3882836E+03  0.7957747E-01  0.3415865E+00
         13   -1    0    0    0    0  0.00000000000E+00  0.00000000000E+00  0.14999999963E+04  0.15000000000E+04  0.10566000000E+00 0. -1.
        994   -1    0    0    0    0 -0.00000000000E+00 -0.00000000000E+00  0.11368683772E-12  0.17120000000E+03  0.17120000000E+03 0.  0.
         13    1    1    2    0    0 -0.15858394219E+03 -0.79773540961E+02  0.94439943618E+03  0.96093859886E+03  0.10566000000E+00 0. -1.
        994    1    1    2    0    0  0.21270888581E+03  0.10888348067E+03  0.21507692961E+03  0.36423647279E+03  0.17120000000E+03 0.  0.
        998    1    1    2    0    0 -0.54124943616E+02 -0.29109939709E+02  0.34052363049E+03  0.34602492834E+03  0.10000000000E+00 0.  1.
</event>
<event>
 5    1  0.2313627E-009  0.3881258E+03  0.7957747E-01  0.3416522E+00
         13   -1    0    0    0    0  0.00000000000E+00  0.00000000000E+00  0.14999999963E+04  0.15000000000E+04  0.10566000000E+00 0. -1.
        994   -1    0    0    0    0 -0.00000000000E+00 -0.00000000000E+00  0.11368683772E-12  0.17120000000E+03  0.17120000000E+03 0.  0.
         13    1    1    2    0    0 -0.34609684221E+01 -0.20354544914E+03  0.47245893827E+03  0.51445134628E+03  0.10566000000E+00 0. -1.
        994    1    1    2    0    0  0.11115036223E+02  0.34694525875E+03  0.72448829255E+03  0.82139350049E+03  0.17120000000E+03 0.  0.
        998    1    1    2    0    0 -0.76540678004E+01 -0.14339980961E+03  0.30305276546E+03  0.33535515324E+03  0.10000000000E+00 0. -1.
</event>
<event>
 5    1  0.2313627E-009  0.3871125E+03  0.7957747E-01  0.3420762E+00
         13   -1    0    0    0    0  0.00000000000E+00  0.00000000000E+00  0.14999999963E+04  0.15000000000E+04  0.10566000000E+00 0.  1.
        994   -1    0    0    0    0 -0.00000000000E+00 -0.00000000000E+00  0.11368683772E-12  0.17120000000E+03  0.17120000000E+03 0.  0.
         13    1    1    2    0    0 -0.10793284496E+02  0.24381090004E+01  0.66724180651E+02  0.67635544009E+02  0.10566000000E+00 0.  1.
        994    1    1    2    0    0  0.47162554992E+02 -0.39418998416E+02  0.13023803017E+02  0.18236563129E+03  0.17120000000E+03 0.  0.
        998    1    1    2    0    0 -0.36369270496E+02  0.36980889416E+02  0.14202520126E+04  0.14211988247E+04  0.10000000000E+00 0.  1.
</event>
<event>
 5    1  0.2313627E-009  0.3882206E+03  0.7957747E-01  0.3416127E+00
         13   -1    0    0    0    0  0.00000000000E+00  0.00000000000E+00  0.14999999963E+04  0.15000000000E+04  0.10566000000E+00 0.  1.
        994   -1    0    0    0    0 -0.00000000000E+00 -0.00000000000E+00  0.11368683772E-12  0.17120000000E+03  0.17120000000E+03 0.  0.
         13    1    1    2    0    0 -0.65939288493E+02 -0.26478705959E+03  0.11957113133E+04  0.12264524991E+04  0.10566000000E+00 0.  1.
        994    1    1    2    0    0  0.65661708954E+02  0.26531556194E+03  0.30017185907E+03  0.44058641878E+03  0.17120000000E+03 0.  0.
        998    1    1    2    0    0  0.27757953893E+00 -0.52850235425E+00  0.41168239427E+01  0.41610821325E+01  0.10000000000E+00 0. -1.
</event>
<event>
 5    1  0.5852268E-009  0.3882845E+03  0.7957747E-01  0.3415860E+00
         13   -1    0    0    0    0  0.00000000000E+00  0.00000000000E+00  0.14999999963E+04  0.15000000000E+04  0.10566000000E+00 0. -1.
        994   -1    0    0    0    0 -0.00000000000E+00 -0.00000000000E+00  0.11368683772E-12  0.17120000000E+03  0.17120000000E+03 0.  0.
         13    1    1    2    0    0 -0.26784603264E+03  0.42512645240E+02  0.12040505325E+04  0.12342149400E+04  0.10566000000E+00 0. -1.
        994    1    1    2    0    0  0.26802331726E+03 -0.42563451897E+02  0.29453568538E+03  0.43555580124E+03  0.17120000000E+03 0.  0.
        998    1    1    2    0    0 -0.17728462841E+00  0.50806657068E-01  0.14137784460E+01  0.14292587765E+01  0.10000000000E+00 0.  1.
</event>
<event>
 5    1  0.2313627E-009  0.3883005E+03  0.7957747E-01  0.3415794E+00
         13   -1    0    0    0    0  0.00000000000E+00  0.00000000000E+00  0.14999999963E+04  0.15000000000E+04  0.10566000000E+00 0.  1.
        994   -1    0    0    0    0 -0.00000000000E+00 -0.00000000000E+00  0.11368683772E-12  0.17120000000E+03  0.17120000000E+03 0.  0.
         13    1    1    2    0    0 -0.72613305438E+02 -0.20572425811E+03  0.11143479295E+04  0.11355027440E+04  0.10566000000E+00 0.  1.
        994    1    1    2    0    0  0.82692203495E+02  0.23348402319E+03  0.23438395498E+03  0.38157314889E+03  0.17120000000E+03 0.  0.
        998    1    1    2    0    0 -0.10078898057E+02 -0.27759765081E+02  0.15126811184E+03  0.15412410715E+03  0.10000000000E+00 0.  1.
</event>
<event>
 5    1  0.2313627E-009  0.3882994E+03  0.7957747E-01  0.3415799E+00
         13   -1    0    0    0    0  0.00000000000E+00  0.00000000000E+00  0.14999999963E+04  0.15000000000E+04  0.10566000000E+00 0. -1.
        994   -1    0    0    0    0 -0.00000000000E+00 -0.00000000000E+00  0.11368683772E-12  0.17120000000E+03  0.17120000000E+03 0.  0.
         13    1    1    2    0    0  0.77658341185E+01  0.34305365479E+03  0.81948439590E+03  0.88842602648E+03  0.10566000000E+00 0. -1.
        994    1    1    2    0    0 -0.78455185149E+01 -0.34477883005E+03  0.67633539219E+03  0.77824995762E+03  0.17120000000E+03 0.  0.
        998    1    1    2    0    0  0.79684396322E-01  0.17251752659E+01  0.41802081945E+01  0.45240158986E+01  0.10000000000E+00 0.  0.
</event>
<event>
 5    1  0.2313627E-009  0.3879911E+03  0.7957747E-01  0.3417085E+00
         13   -1    0    0    0    0  0.00000000000E+00  0.00000000000E+00  0.14999999963E+04  0.15000000000E+04  0.10566000000E+00 0. -1.
        994   -1    0    0    0    0 -0.00000000000E+00 -0.00000000000E+00  0.11368683772E-12  0.17120000000E+03  0.17120000000E+03 0.  0.
         13    1    1    2    0    0  0.19221544324E+03  0.10813216436E+03  0.13069591803E+04  0.13254364005E+04  0.10566000000E+00 0. -1.
        994    1    1    2    0    0 -0.19281593054E+03 -0.11071351720E+03  0.18213884944E+03  0.33454366895E+03  0.17120000000E+03 0.  0.
        998    1    1    2    0    0  0.60048730111E+00  0.25813528388E+01  0.10901966506E+02  0.11219930534E+02  0.10000000000E+00 0.  1.
</event>
<event>
 5    1  0.2313627E-009  0.3882119E+03  0.7957747E-01  0.3416163E+00
         13   -1    0    0    0    0  0.00000000000E+00  0.00000000000E+00  0.14999999963E+04  0.15000000000E+04  0.10566000000E+00 0. -1.
        994   -1    0    0    0    0 -0.00000000000E+00 -0.00000000000E+00  0.11368683772E-12  0.17120000000E+03  0.17120000000E+03 0.  0.
         13    1    1    2    0    0 -0.23957590862E+03 -0.17508477027E+03  0.98781928709E+03  0.10314253477E+04  0.10566000000E+00 0. -1.
        994    1    1    2    0    0  0.25305566129E+03  0.18519922365E+03  0.44586006259E+03  0.57134626591E+03  0.17120000000E+03 0.  0.
        998    1    1    2    0    0 -0.13479752668E+02 -0.10114453381E+02  0.66320646598E+02  0.68428386393E+02  0.10000000000E+00 0.  1.
</event>
<event>
 5    1  0.2313627E-009  0.3881162E+03  0.7957747E-01  0.3416563E+00
         13   -1    0    0    0    0  0.00000000000E+00  0.00000000000E+00  0.14999999963E+04  0.15000000000E+04  0.10566000000E+00 0. -1.
        994   -1    0    0    0    0 -0.00000000000E+00 -0.00000000000E+00  0.11368683772E-12  0.17120000000E+03  0.17120000000E+03 0.  0.
         13    1    1    2    0    0 -0.16388305701E+03  0.16568550737E+03  0.12868986491E+04  0.13078293038E+04  0.10566000000E+00 0. -1.
        994    1    1    2    0    0  0.16389423357E+03 -0.16748384367E+03  0.20560594223E+03  0.35566191977E+03  0.17120000000E+03 0.  0.
        998    1    1    2    0    0 -0.11176561257E-01  0.17983363077E+01  0.74954049255E+01  0.77087763872E+01  0.10000000000E+00 0. -1.
</event>
<event>
 5    1  0.2313627E-009  0.3860189E+03  0.7957747E-01  0.3425362E+00
         13   -1    0    0    0    0  0.00000000000E+00  0.00000000000E+00  0.14999999963E+04  0.15000000000E+04  0.10566000000E+00 0.  1.
        994   -1    0    0    0    0 -0.00000000000E+00 -0.00000000000E+00  0.11368683772E-12  0.17120000000E+03  0.17120000000E+03 0.  0.
         13    1    1    2    0    0 -0.82159561168E+01 -0.20538761055E+03  0.10257693420E+04  0.10461617115E+04  0.10566000000E+00 0.  1.
        994    1    1    2    0    0  0.16685272394E+02  0.23043677167E+03  0.20173662568E+03  0.35126430247E+03  0.17120000000E+03 0.  0.
        998    1    1    2    0    0 -0.84693162769E+01 -0.25049161116E+02  0.27249402858E+03  0.27377398598E+03  0.10000000000E+00 0.  1.
</event>
<event>
 5    1  0.2313627E-009  0.3864876E+03  0.7957747E-01  0.3423388E+00
         13   -1    0    0    0    0  0.00000000000E+00  0.00000000000E+00  0.14999999963E+04  0.15000000000E+04  0.10566000000E+00 0.  1.
        994   -1    0    0    0    0 -0.00000000000E+00 -0.00000000000E+00  0.11368683772E-12  0.17120000000E+03  0.17120000000E+03 0.  0.
         13    1    1    2    0    0  0.19858294942E+03 -0.74690136176E+01  0.10541774838E+04  0.10727446819E+04  0.10566000000E+00 0.  1.
        994    1    1    2    0    0 -0.22515595060E+03 -0.43752739957E+01  0.18950885779E+03  0.34049580364E+03  0.17120000000E+03 0.  0.
        998    1    1    2    0    0  0.26573001176E+02  0.11844287613E+02  0.25631365464E+03  0.25795951445E+03  0.10000000000E+00 0.  1.
</event>
<event>
 5    1  0.2313627E-009  0.3882315E+03  0.7957747E-01  0.3416082E+00
         13   -1    0    0    0    0  0.00000000000E+00  0.00000000000E+00  0.14999999963E+04  0.15000000000E+04  0.10566000000E+00 0.  1.
        994   -1    0    0    0    0 -0.00000000000E+00 -0.00000000000E+00  0.11368683772E-12  0.17120000000E+03  0.17120000000E+03 0.  0.
         13    1    1    2    0    0  0.21967107366E+03  0.45605408867E+02  0.98562112383E+03  0.10108334407E+04  0.10566000000E+00 0.  1.
        994    1    1    2    0    0 -0.26577083856E+03 -0.52192016186E+02  0.29313884553E+03  0.43427867544E+03  0.17120000000E+03 0.  0.
        998    1    1    2    0    0  0.46099764903E+02  0.65866073195E+01  0.22124002692E+03  0.22608788386E+03  0.10000000000E+00 0.  1.
</event>
<event>
 5    1  0.2313627E-009  0.3883004E+03  0.7957747E-01  0.3415794E+00
         13   -1    0    0    0    0  0.00000000000E+00  0.00000000000E+00  0.14999999963E+04  0.15000000000E+04  0.10566000000E+00 0. -1.
        994   -1    0    0    0    0 -0.00000000000E+00 -0.00000000000E+00  0.11368683772E-12  0.17120000000E+03  0.17120000000E+03 0.  0.
         13    1    1    2    0    0  0.22301402769E+03 -0.38855231731E+02  0.12517249654E+04  0.12720300255E+04  0.10566000000E+00 0. -1.
        994    1    1    2    0    0 -0.23061709705E+03  0.40225443093E+02  0.20486927290E+03  0.35508194928E+03  0.17120000000E+03 0.  0.
        998    1    1    2    0    0  0.76030693586E+01 -0.13702113616E+01  0.43405757972E+02  0.44088025222E+02  0.10000000000E+00 0.  0.
</event>
<event>
 5    1  0.2313627E-009  0.3882999E+03  0.7957747E-01  0.3415796E+00
         13   -1    0    0    0    0  0.00000000000E+00  0.00000000000E+00  0.14999999963E+04  0.15000000000E+04  0.10566000000E+00 0. -1.
        994   -1    0    0    0    0 -0.00000000000E+00 -0.00000000000E+00  0.11368683772E-12  0.17120000000E+03  0.17120000000E+03 0.  0.
         13    1    1    2    0    0 -0.21112299593E+03 -0.52861519431E+02  0.97743314053E+03  0.10013704684E+04  0.10566000000E+00 0. -1.
        994    1    1    2    0    0  0.26127362849E+03  0.65039232015E+02  0.28855544887E+03  0.43019495315E+03  0.17120000000E+03 0.  0.
        998    1    1    2    0    0 -0.50150632562E+02 -0.12177712584E+02  0.23401140688E+03  0.23963457843E+03  0.10000000000E+00 0.  1.
</event>
<event>
 5    1  0.2313627E-009  0.3704201E+03  0.7957747E-01  0.3493963E+00
         13   -1    0    0    0    0  0.00000000000E+00  0.00000000000E+00  0.14999999963E+04  0.15000000000E+04  0.10566000000E+00 0.  1.
        994   -1    0    0    0    0 -0.00000000000E+00 -0.00000000000E+00  0.11368683772E-12  0.17120000000E+03  0.17120000000E+03 0.  0.
         13    1    1    2    0    0 -0.15979623975E+03  0.17020947353E+03  0.83776487241E+03  0.86968735516E+03  0.10566000000E+00 0.  1.
        994    1    1    2    0    0  0.25437584643E+03 -0.18141631911E+03  0.52409387768E+03  0.63372137782E+03  0.17120000000E+03 0.  0.
        998    1    1    2    0    0 -0.94579606683E+02  0.11206845584E+02  0.13814124619E+03  0.16779126702E+03  0.10000000000E+00 0.  1.
</event>
<event>
 5    1  0.2313627E-009  0.3882234E+03  0.7957747E-01  0.3416115E+00
         13   -1    0    0    0    0  0.00000000000E+00  0.00000000000E+00  0.14999999963E+04  0.15000000000E+04  0.10566000000E+00 0. -1.
        994   -1    0    0    0    0 -0.00000000000E+00 -0.00000000000E+00  0.11368683772E-12  0.17120000000E+03  0.17120000000E+03 0.  0.
         13    1    1    2    0    0 -0.16406940182E+03  0.19116496415E+03  0.11261473696E+04  0.11539803817E+04  0.10566000000E+00 0. -1.
        994    1    1    2    0    0  0.17402922021E+03 -0.20458574807E+03  0.28689992111E+03  0.42867528800E+03  0.17120000000E+03 0.  0.
        998    1    1    2    0    0 -0.99598183973E+01  0.13420783928E+02  0.86952705570E+02  0.88544330308E+02  0.10000000000E+00 0. -1.
</event>
<event>
 5    1  0.2313627E-009  0.3875833E+03  0.7957747E-01  0.3418789E+00
         13   -1    0    0    0    0  0.00000000000E+00  0.00000000000E+00  0.14999999963E+04  0.15000000000E+04  0.10566000000E+00 0. -1.
        994   -1    0    0    0    0 -0.00000000000E+00 -0.00000000000E+00  0.11368683772E-12  0.17120000000E+03  0.17120000000E+03 0.  0.
         13    1    1    2    0    0  0.32947390667E+02 -0.29437052884E+03  0.83548201520E+03  0.88643654465E+03  0.10566000000E+00 0. -1.
        994    1    1    2    0    0 -0.48377470398E+02  0.32939274906E+03  0.56140840494E+03  0.67478055686E+03  0.17120000000E+03 0.  0.
        998    1    1    2    0    0  0.15430079730E+02 -0.35022220223E+02  0.10310957613E+03  0.10998289849E+03  0.10000000000E+00 0.  1.
</event>
<event>
 5    1  0.2313627E-009  0.3882972E+03  0.7957747E-01  0.3415808E+00
         13   -1    0    0    0    0  0.00000000000E+00  0.00000000000E+00  0.14999999963E+04  0.15000000000E+04  0.10566000000E+00 0. -1.
        994   -1    0    0    0    0 -0.00000000000E+00 -0.00000000000E+00  0.11368683772E-12  0.17120000000E+03  0.17120000000E+03 0.  0.
         13    1    1    2    0    0 -0.15965567114E+03  0.21137341864E+03  0.95238271428E+03  0.98853502773E+03  0.10566000000E+00 0. -1.
        994    1    1    2    0    0  0.18419971470E+03 -0.24269112842E+03  0.40666254277E+03  0.53620181126E+03  0.17120000000E+03 0.  0.
        998    1    1    2    0    0 -0.24544043552E+02  0.31317709778E+02  0.14095473923E+03  0.14646316100E+03  0.10000000000E+00 0. -1.
</event>
<event>
 5    1  0.2313627E-009  0.3882746E+03  0.7957747E-01  0.3415902E+00
         13   -1    0    0    0    0  0.00000000000E+00  0.00000000000E+00  0.14999999963E+04  0.15000000000E+04  0.10566000000E+00 0.  1.
        994   -1    0    0    0    0 -0.00000000000E+00 -0.00000000000E+00  0.11368683772E-12  0.17120000000E+03  0.17120000000E+03 0.  0.
         13    1    1    2    0    0 -0.18230968830E+03  0.46527608532E+02  0.11285376886E+04  0.11441149271E+04  0.10566000000E+00 0.  1.
        994    1    1    2    0    0  0.21493911780E+03 -0.52463046248E+02  0.17974209617E+03  0.33251745325E+03  0.17120000000E+03 0.  0.
        998    1    1    2    0    0 -0.32629429494E+02  0.59354377168E+01  0.19172021153E+03  0.19456761960E+03  0.10000000000E+00 0.  1.
</event>
<event>
 5    1  0.2313627E-009  0.3882992E+03  0.7957747E-01  0.3415799E+00
         13   -1    0    0    0    0  0.00000000000E+00  0.00000000000E+00  0.14999999963E+04  0.15000000000E+04  0.10566000000E+00 0. -1.
        994   -1    0    0    0    0 -0.00000000000E+00 -0.00000000000E+00  0.11368683772E-12  0.17120000000E+03  0.17120000000E+03 0.  0.
         13    1    1    2    0    0 -0.11221125507E+02  0.30734115100E+03  0.10090551056E+04  0.10548823224E+04  0.10566000000E+00 0. -1.
        994    1    1    2    0    0  0.11313238397E+02 -0.31651182208E+03  0.46056198692E+03  0.58458062462E+03  0.17120000000E+03 0.  0.
        998    1    1    2    0    0 -0.92112890030E-01  0.91706710819E+01  0.30382903747E+02  0.31737052998E+02  0.10000000000E+00 0. -1.
</event>
<event>
 5    1  0.2313627E-009  0.3883009E+03  0.7957747E-01  0.3415792E+00
         13   -1    0    0    0    0  0.00000000000E+00  0.00000000000E+00  0.14999999963E+04  0.15000000000E+04  0.10566000000E+00 0. -1.
        994   -1    0    0    0    0 -0.00000000000E+00 -0.00000000000E+00  0.11368683772E-12  0.17120000000E+03  0.17120000000E+03 0.  0.
         13    1    1    2    0    0  0.11743268278E+03  0.16422903730E+03  0.12059369361E+04  0.12227205391E+04  0.10566000000E+00 0. -1.
        994    1    1    2    0    0 -0.12863685247E+03 -0.17984466260E+03  0.17945850742E+03  0.33227449250E+03  0.17120000000E+03 0.  0.
        998    1    1    2    0    0  0.11204169693E+02  0.15615625295E+02  0.11460455274E+03  0.11620496840E+03  0.10000000000E+00 0.  1.
</event>
<event>
 5    1  0.2313627E-009  0.3872687E+03  0.7957747E-01  0.3420107E+00
         13   -1    0    0    0    0  0.00000000000E+00  0.00000000000E+00  0.14999999963E+04  0.15000000000E+04  0.10566000000E+00 0.  1.
        994   -1    0    0    0    0 -0.00000000000E+00 -0.00000000000E+00  0.11368683772E-12  0.17120000000E+03  0.17120000000E+03 0.  0.
         13    1    1    2    0    0 -0.87187863041E+02  0.17395177245E+03  0.10706404518E+04  0.10881782624E+04  0.10566000000E+00 0.  1.
        994    1    1    2    0    0  0.12129495892E+03 -0.20271683304E+03  0.21074870114E+03  0.35990420460E+03  0.17120000000E+03 0.  0.
        998    1    1    2    0    0 -0.34107095880E+02  0.28765060587E+02  0.21861084333E+03  0.22311753298E+03  0.10000000000E+00 0. -1.
</event>
<event>
 5    1  0.2313627E-009  0.3882462E+03  0.7957747E-01  0.3416020E+00
         13   -1    0    0    0    0  0.00000000000E+00  0.00000000000E+00  0.14999999963E+04  0.15000000000E+04  0.10566000000E+00 0. -1.
        994   -1    0    0    0    0 -0.00000000000E+00 -0.00000000000E+00  0.11368683772E-12  0.17120000000E+03  0.17120000000E+03 0.  0.
         13    1    1    2    0    0 -0.64514486764E+02 -0.16730824573E+03  0.10109504354E+04  0.10267302285E+04  0.10566000000E+00 0. -1.
        994    1    1    2    0    0  0.85480472181E+02  0.21180934852E+03  0.19349100848E+03  0.34484535897E+03  0.17120000000E+03 0.  0.
        998    1    1    2    0    0 -0.20965985417E+02 -0.44501102784E+02  0.29555855240E+03  0.29962441254E+03  0.10000000000E+00 0.  1.
</event>
<event>
 5    1  0.2313627E-009  0.3876893E+03  0.7957747E-01  0.3418346E+00
         13   -1    0    0    0    0  0.00000000000E+00  0.00000000000E+00  0.14999999963E+04  0.15000000000E+04  0.10566000000E+00 0. -1.
        994   -1    0    0    0    0 -0.00000000000E+00 -0.00000000000E+00  0.11368683772E-12  0.17120000000E+03  0.17120000000E+03 0.  0.
         13    1    1    2    0    0 -0.41141433652E+02  0.19372060916E+03  0.10955069404E+04  0.11132635625E+04  0.10566000000E+00 0. -1.
        994    1    1    2    0    0  0.54626018602E+02 -0.23622116926E+03  0.22353691551E+03  0.37156780715E+03  0.17120000000E+03 0.  0.
        998    1    1    2    0    0 -0.13484584950E+02  0.42500560095E+02  0.18095614041E+03  0.18636863038E+03  0.10000000000E+00 0.  1.
</event>
<event>
 5    1  0.2313627E-009  0.3882729E+03  0.7957747E-01  0.3415909E+00
         13   -1    0    0    0    0  0.00000000000E+00  0.00000000000E+00  0.14999999963E+04  0.15000000000E+04  0.10566000000E+00 0.  1.
        994   -1    0    0    0    0 -0.00000000000E+00 -0.00000000000E+00  0.11368683772E-12  0.17120000000E+03  0.17120000000E+03 0.  0.
         13    1    1    2    0    0  0.61127505543E+02 -0.27388604995E+03  0.97167944142E+03  0.10113906705E+04  0.10566000000E+00 0.  1.
        994    1    1    2    0    0 -0.69019581116E+02  0.30131341798E+03  0.42546377811E+03  0.55306631150E+03  0.17120000000E+03 0.  0.
        998    1    1    2    0    0  0.78920755736E+01 -0.27427368030E+02  0.10285677675E+03  0.10674301802E+03  0.10000000000E+00 0. -1.
</event>
<event>
 5    1  0.2313627E-009  0.3882802E+03  0.7957747E-01  0.3415879E+00
         13   -1    0    0    0    0  0.00000000000E+00  0.00000000000E+00  0.14999999963E+04  0.15000000000E+04  0.10566000000E+00 0. -1.
        994   -1    0    0    0    0 -0.00000000000E+00 -0.00000000000E+00  0.11368683772E-12  0.17120000000E+03  0.17120000000E+03 0.  0.
         13    1    1    2    0    0 -0.22745815295E+03 -0.14082568119E+03  0.12111031224E+04  0.12402982980E+04  0.10566000000E+00 0. -1.
        994    1    1    2    0    0  0.22822710088E+03  0.14116168489E+03  0.28614074506E+03  0.42801892112E+03  0.17120000000E+03 0.  0.
        998    1    1    2    0    0 -0.76894792848E+00 -0.33600369516E+00  0.27561288414E+01  0.28827808779E+01  0.10000000000E+00 0.  1.
</event>
<event>
 5    1  0.2313627E-009  0.3883005E+03  0.7957747E-01  0.3415794E+00
         13   -1    0    0    0    0  0.00000000000E+00  0.00000000000E+00  0.14999999963E+04  0.15000000000E+04  0.10566000000E+00 0. -1.
        994   -1    0    0    0    0 -0.00000000000E+00 -0.00000000000E+00  0.11368683772E-12  0.17120000000E+03  0.17120000000E+03 0.  0.
         13    1    1    2    0    0 -0.24902651965E+03  0.15950844423E+03  0.89392439976E+03  0.94157208695E+03  0.10566000000E+00 0. -1.
        994    1    1    2    0    0  0.27471587410E+03 -0.17625231491E+03  0.51331275586E+03  0.63192809348E+03  0.17120000000E+03 0.  0.
        998    1    1    2    0    0 -0.25689354454E+02  0.16743870687E+02  0.92762840656E+02  0.97699819572E+02  0.10000000000E+00 0.  1.
</event>
<event>
 5    1  0.2313627E-009  0.3867005E+03  0.7957747E-01  0.3422492E+00
         13   -1    0    0    0    0  0.00000000000E+00  0.00000000000E+00  0.14999999963E+04  0.15000000000E+04  0.10566000000E+00 0.  1.
        994   -1    0    0    0    0 -0.00000000000E+00 -0.00000000000E+00  0.11368683772E-12  0.17120000000E+03  0.17120000000E+03 0.  0.
         13    1    1    2    0    0 -0.17684603960E+02 -0.45228847440E+02  0.26648135072E+03  0.27087029239E+03  0.10566000000E+00 0.  1.
        994    1    1    2    0    0  0.69079011735E+02  0.14129406782E+03  0.86344179080E+02  0.24799330782E+03  0.17120000000E+03 0.  0.
        998    1    1    2    0    0 -0.51394407775E+02 -0.96065220382E+02  0.11471744665E+04  0.11523363998E+04  0.10000000000E+00 0.  1.
</event>
<event>
 5    1  0.2313627E-009  0.3883003E+03  0.7957747E-01  0.3415795E+00
         13   -1    0    0    0    0  0.00000000000E+00  0.00000000000E+00  0.14999999963E+04  0.15000000000E+04  0.10566000000E+00 0.  1.
        994   -1    0    0    0    0 -0.00000000000E+00 -0.00000000000E+00  0.11368683772E-12  0.17120000000E+03  0.17120000000E+03 0.  0.
         13    1    1    2    0    0  0.14211601543E+03  0.18371737215E+03  0.22805885401E+03  0.32551480263E+03  0.10566000000E+00 0.  1.
        994    1    1    2    0    0 -0.18046626894E+03 -0.23403695396E+03  0.12094834668E+04  0.12567820282E+04  0.17120000000E+03 0.  0.
        998    1    1    2    0    0  0.38350253502E+02  0.50319581806E+02  0.62457675467E+02  0.88903169131E+02  0.10000000000E+00 0.  1.
</event>
<event>
 5    1  0.2313627E-009  0.3882993E+03  0.7957747E-01  0.3415799E+00
         13   -1    0    0    0    0  0.00000000000E+00  0.00000000000E+00  0.14999999963E+04  0.15000000000E+04  0.10566000000E+00 0. -1.
        994   -1    0    0    0    0 -0.00000000000E+00 -0.00000000000E+00  0.11368683772E-12  0.17120000000E+03  0.17120000000E+03 0.  0.
         13    1    1    2    0    0 -0.11234967994E+03 -0.18908025671E+03  0.12223307857E+04  0.12419606898E+04  0.10566000000E+00 0. -1.
        994    1    1    2    0    0  0.11948990286E+03  0.20067250577E+03  0.20375175395E+03  0.35407839344E+03  0.17120000000E+03 0.  0.
        998    1    1    2    0    0 -0.71402229260E+01 -0.11592249060E+02  0.73917456594E+02  0.75160916779E+02  0.10000000000E+00 0.  1.
</event>
<event>
 5    1  0.2313627E-009  0.3857513E+03  0.7957747E-01  0.3426492E+00
         13   -1    0    0    0    0  0.00000000000E+00  0.00000000000E+00  0.14999999963E+04  0.15000000000E+04  0.10566000000E+00 0. -1.
        994   -1    0    0    0    0 -0.00000000000E+00 -0.00000000000E+00  0.11368683772E-12  0.17120000000E+03  0.17120000000E+03 0.  0.
         13    1    1    2    0    0  0.12890621460E+02  0.83849526028E+01  0.60843179456E+02  0.62756507249E+02  0.10566000000E+00 0. -1.
        994    1    1    2    0    0 -0.48502597151E+02 -0.64392527595E+02  0.22876294280E+02  0.19060866817E+03  0.17120000000E+03 0.  0.
        998    1    1    2    0    0  0.35611975690E+02  0.56007574992E+02  0.14162805225E+04  0.14178348246E+04  0.10000000000E+00 0. -1.
</event>
<event>
 5    1  0.2313627E-009  0.3877105E+03  0.7957747E-01  0.3418257E+00
         13   -1    0    0    0    0  0.00000000000E+00  0.00000000000E+00  0.14999999963E+04  0.15000000000E+04  0.10566000000E+00 0. -1.
        994   -1    0    0    0    0 -0.00000000000E+00 -0.00000000000E+00  0.11368683772E-12  0.17120000000E+03  0.17120000000E+03 0.  0.
         13    1    1    2    0    0  0.45429884939E+01 -0.19993745101E+02  0.12371825338E+03  0.12540576530E+03  0.10566000000E+00 0. -1.
        994    1    1    2    0    0  0.53383770345E+00  0.14950227498E+03  0.76873061634E+02  0.23993774778E+03  0.17120000000E+03 0.  0.
        998    1    1    2    0    0 -0.50768261974E+01 -0.12950852987E+03  0.12994086813E+04  0.13058564869E+04  0.10000000000E+00 0. -1.
</event>
<event>
 5    1  0.2313627E-009  0.3836789E+03  0.7957747E-01  0.3435295E+00
         13   -1    0    0    0    0  0.00000000000E+00  0.00000000000E+00  0.14999999963E+04  0.15000000000E+04  0.10566000000E+00 0.  1.
        994   -1    0    0    0    0 -0.00000000000E+00 -0.00000000000E+00  0.11368683772E-12  0.17120000000E+03  0.17120000000E+03 0.  0.
         13    1    1    2    0    0 -0.14269307640E+02  0.78435106032E+01  0.64742331231E+02  0.66758628029E+02  0.10566000000E+00 0.  1.
        994    1    1    2    0    0  0.15843749191E+02  0.52526127400E+02  0.12293137890E+02  0.18019594803E+03  0.17120000000E+03 0.  0.
        998    1    1    2    0    0 -0.15744415503E+01 -0.60369638004E+02  0.14229645272E+04  0.14242454239E+04  0.10000000000E+00 0.  1.
</event>
<event>
 5    1  0.2313627E-009  0.3882995E+03  0.7957747E-01  0.3415798E+00
         13   -1    0    0    0    0  0.00000000000E+00  0.00000000000E+00  0.14999999963E+04  0.15000000000E+04  0.10566000000E+00 0.  1.
        994   -1    0    0    0    0 -0.00000000000E+00 -0.00000000000E+00  0.11368683772E-12  0.17120000000E+03  0.17120000000E+03 0.  0.
         13    1    1    2    0    0 -0.10550698099E+02  0.10297489732E+03  0.54849616595E+03  0.55817846782E+03  0.10566000000E+00 0.  1.
        994    1    1    2    0    0  0.22912794738E+02 -0.24025265651E+03  0.22019809839E+03  0.36884004346E+03  0.17120000000E+03 0.  0.
        998    1    1    2    0    0 -0.12362096639E+02  0.13727775919E+03  0.73130573193E+03  0.74418148872E+03  0.10000000000E+00 0.  1.
</event>
<event>
 5    1  0.2313627E-009  0.3882417E+03  0.7957747E-01  0.3416039E+00
         13   -1    0    0    0    0  0.00000000000E+00  0.00000000000E+00  0.14999999963E+04  0.15000000000E+04  0.10566000000E+00 0. -1.
        994   -1    0    0    0    0 -0.00000000000E+00 -0.00000000000E+00  0.11368683772E-12  0.17120000000E+03  0.17120000000E+03 0.  0.
         13    1    1    2    0    0 -0.13495384083E+03 -0.18634961246E+03  0.12960198057E+04  0.13162849484E+04  0.10566000000E+00 0. -1.
        994    1    1    2    0    0  0.13558445330E+03  0.18658547572E+03  0.19793990801E+03  0.34883653895E+03  0.17120000000E+03 0.  0.
        998    1    1    2    0    0 -0.63061246833E+00 -0.23586325497E+00  0.60402825223E+01  0.60785126889E+01  0.10000000000E+00 0. -1.
</event>
<event>
 5    1  0.2313627E-009  0.3882900E+03  0.7957747E-01  0.3415838E+00
         13   -1    0    0    0    0  0.00000000000E+00  0.00000000000E+00  0.14999999963E+04  0.15000000000E+04  0.10566000000E+00 0. -1.
        994   -1    0    0    0    0 -0.00000000000E+00 -0.00000000000E+00  0.11368683772E-12  0.17120000000E+03  0.17120000000E+03 0.  0.
         13    1    1    2    0    0 -0.20217604333E+03 -0.40209927416E+02  0.10744953825E+04  0.10940897261E+04  0.10566000000E+00 0. -1.
        994    1    1    2    0    0  0.24003441600E+03  0.49147583672E+02  0.22832409626E+03  0.37612941759E+03  0.17120000000E+03 0.  0.
        998    1    1    2    0    0 -0.37858372669E+02 -0.89376562560E+01  0.19718051756E+03  0.20098085626E+03  0.10000000000E+00 0. -1.
</event>
<event>
 5    1  0.2795317E-009  0.3882480E+03  0.7957747E-01  0.3416013E+00
         13   -1    0    0    0    0  0.00000000000E+00  0.00000000000E+00  0.14999999963E+04  0.15000000000E+04  0.10566000000E+00 0.  1.
        994   -1    0    0    0    0 -0.00000000000E+00 -0.00000000000E+00  0.11368683772E-12  0.17120000000E+03  0.17120000000E+03 0.  0.
         13    1    1    2    0    0 -0.30430304732E+03 -0.83388910490E+02  0.10427310058E+04  0.10894227906E+04  0.10566000000E+00 0.  1.
        994    1    1    2    0    0  0.30449032523E+03  0.83706715865E+02  0.45622212799E+03  0.58066276143E+03  0.17120000000E+03 0.  0.
        998    1    1    2    0    0 -0.18727790663E+00 -0.31780537504E+00  0.10468624370E+01  0.11144479498E+01  0.10000000000E+00 0. -1.
</event>
<event>
 5    1  0.2313627E-009  0.3882919E+03  0.7957747E-01  0.3415830E+00
         13   -1    0    0    0    0  0.00000000000E+00  0.00000000000E+00  0.14999999963E+04  0.15000000000E+04  0.10566000000E+00 0.  1.
        994   -1    0    0    0    0 -0.00000000000E+00 -0.00000000000E+00  0.11368683772E-12  0.17120000000E+03  0.17120000000E+03 0.  0.
         13    1    1    2    0    0 -0.24971202965E+03  0.94285531337E+02  0.12140952905E+04  0.12430901997E+04  0.10566000000E+00 0.  1.
        994    1    1    2    0    0  0.25018878949E+03 -0.94575846475E+02  0.28370048560E+03  0.42583380168E+03  0.17120000000E+03 0.  0.
        998    1    1    2    0    0 -0.47675984601E+00  0.29031513853E+00  0.22042202005E+01  0.22759985771E+01  0.10000000000E+00 0.  0.
</event>
<event>
 5    1  0.2313627E-009  0.3882994E+03  0.7957747E-01  0.3415799E+00
         13   -1    0    0    0    0  0.00000000000E+00  0.00000000000E+00  0.14999999963E+04  0.15000000000E+04  0.10566000000E+00 0.  1.
        994   -1    0    0    0    0 -0.00000000000E+00 -0.00000000000E+00  0.11368683772E-12  0.17120000000E+03  0.17120000000E+03 0.  0.
         13    1    1    2    0    0  0.28951520655E+03  0.16052502010E+03  0.86926741377E+03  0.93016836363E+03  0.10566000000E+00 0.  1.
        994    1    1    2    0    0 -0.29667574251E+03 -0.16440976585E+03  0.60875519388E+03  0.71759277684E+03  0.17120000000E+03 0.  0.
        998    1    1    2    0    0  0.71605359639E+01  0.38847457501E+01  0.21977388634E+02  0.23438859528E+02  0.10000000000E+00 0.  1.
</event>
<event>
 5    1  0.2313627E-009  0.3882616E+03  0.7957747E-01  0.3415956E+00
         13   -1    0    0    0    0  0.00000000000E+00  0.00000000000E+00  0.14999999963E+04  0.15000000000E+04  0.10566000000E+00 0. -1.
        994   -1    0    0    0    0 -0.00000000000E+00 -0.00000000000E+00  0.11368683772E-12  0.17120000000E+03  0.17120000000E+03 0.  0.
         13    1    1    2    0    0  0.27908550907E+03 -0.10134492284E+03  0.11145621826E+04  0.11534333032E+04  0.10566000000E+00 0. -1.
        994    1    1    2    0    0 -0.28000872104E+03  0.10150804860E+03  0.38008205209E+03  0.51232858022E+03  0.17120000000E+03 0.  0.
        998    1    1    2    0    0  0.92321196870E+00 -0.16312576274E+00  0.53557615476E+01  0.54381165957E+01  0.10000000000E+00 0. -1.
</event>
<event>
 5    1  0.2313627E-009  0.3882381E+03  0.7957747E-01  0.3416054E+00
         13   -1    0    0    0    0  0.00000000000E+00  0.00000000000E+00  0.14999999963E+04  0.15000000000E+04  0.10566000000E+00 0. -1.
        994   -1    0    0    0    0 -0.00000000000E+00 -0.00000000000E+00  0.11368683772E-12  0.17120000000E+03  0.17120000000E+03 0.  0.
         13    1    1    2    0    0  0.14890698859E+03  0.21994472379E+03  0.34262097593E+03  0.43351830075E+03  0.10566000000E+00 0. -1.
        994    1    1    2    0    0 -0.18427506491E+03 -0.26804271703E+03  0.10737862172E+04  0.11349583596E+04  0.17120000000E+03 0.  0.
        998    1    1    2    0    0  0.35368076329E+02  0.48097993244E+02  0.83592803142E+02  0.10272333968E+03  0.10000000000E+00 0.  1.
</event>
<event>
 5    1  0.2313627E-009  0.3819036E+03  0.7957747E-01  0.3442912E+00
         13   -1    0    0    0    0  0.00000000000E+00  0.00000000000E+00  0.14999999963E+04  0.15000000000E+04  0.10566000000E+00 0.  1.
        994   -1    0    0    0    0 -0.00000000000E+00 -0.00000000000E+00  0.11368683772E-12  0.17120000000E+03  0.17120000000E+03 0.  0.
         13    1    1    2    0    0 -0.15120823663E+02 -0.25215962822E+02  0.95658923518E+02  0.10007559594E+03  0.10566000000E+00 0.  1.
        994    1    1    2    0    0 -0.35332167356E+02  0.12171731817E+03  0.58515268753E+02  0.22090030392E+03  0.17120000000E+03 0.  0.
        998    1    1    2    0    0  0.50452991019E+02 -0.96501355349E+02  0.13458258040E+04  0.13502241001E+04  0.10000000000E+00 0.  1.
</event>
<event>
 5    1  0.2313627E-009  0.3883006E+03  0.7957747E-01  0.3415793E+00
         13   -1    0    0    0    0  0.00000000000E+00  0.00000000000E+00  0.14999999963E+04  0.15000000000E+04  0.10566000000E+00 0. -1.
        994   -1    0    0    0    0 -0.00000000000E+00 -0.00000000000E+00  0.11368683772E-12  0.17120000000E+03  0.17120000000E+03 0.  0.
         13    1    1    2    0    0  0.51129805543E+02 -0.20880889641E+03  0.12525540029E+04  0.12708685823E+04  0.10566000000E+00 0. -1.
        994    1    1    2    0    0 -0.53542830194E+02  0.21874590535E+03  0.18719044414E+03  0.33921425110E+03  0.17120000000E+03 0.  0.
        998    1    1    2    0    0  0.24130246507E+01 -0.99370089320E+01  0.60255549272E+02  0.61117166595E+02  0.10000000000E+00 0. -1.
</event>
<event>
 5    1  0.2313627E-009  0.3860989E+03  0.7957747E-01  0.3425025E+00
         13   -1    0    0    0    0  0.00000000000E+00  0.00000000000E+00  0.14999999963E+04  0.15000000000E+04  0.10566000000E+00 0.  1.
        994   -1    0    0    0    0 -0.00000000000E+00 -0.00000000000E+00  0.11368683772E-12  0.17120000000E+03  0.17120000000E+03 0.  0.
         13    1    1    2    0    0  0.14491406086E+00 -0.91772742957E+02  0.37669389523E+03  0.38771195393E+03  0.10566000000E+00 0.  1.
        994    1    1    2    0    0 -0.30865074468E+02  0.23045846680E+03  0.20464712354E+03  0.35391191406E+03  0.17120000000E+03 0.  0.
        998    1    1    2    0    0  0.30720160407E+02 -0.13868572384E+03  0.91865897751E+03  0.92957613201E+03  0.10000000000E+00 0.  1.
</event>
<event>
 5    1  0.2313627E-009  0.3788158E+03  0.7957747E-01  0.3456331E+00
         13   -1    0    0    0    0  0.00000000000E+00  0.00000000000E+00  0.14999999963E+04  0.15000000000E+04  0.10566000000E+00 0. -1.
        994   -1    0    0    0    0 -0.00000000000E+00 -0.00000000000E+00  0.11368683772E-12  0.17120000000E+03  0.17120000000E+03 0.  0.
         13    1    1    2    0    0  0.77650306102E+02  0.90183308715E+02  0.60701015870E+03  0.61856603781E+03  0.10566000000E+00 0. -1.
        994    1    1    2    0    0 -0.42591336773E+02 -0.18895674651E+03  0.14314051310E+03  0.29549504312E+03  0.17120000000E+03 0.  0.
        998    1    1    2    0    0 -0.35058969329E+02  0.98773437792E+02  0.74984932448E+03  0.75713891906E+03  0.10000000000E+00 0. -1.
</event>
<event>
 5    1  0.2313627E-009  0.3820701E+03  0.7957747E-01  0.3442194E+00
         13   -1    0    0    0    0  0.00000000000E+00  0.00000000000E+00  0.14999999963E+04  0.15000000000E+04  0.10566000000E+00 0.  1.
        994   -1    0    0    0    0 -0.00000000000E+00 -0.00000000000E+00  0.11368683772E-12  0.17120000000E+03  0.17120000000E+03 0.  0.
         13    1    1    2    0    0  0.90468071826E+02  0.49902291652E+02  0.42120806787E+03  0.43369454496E+03  0.10566000000E+00 0.  1.
        994    1    1    2    0    0 -0.16250426691E+03 -0.98302663052E+02  0.13389595166E+03  0.28863232009E+03  0.17120000000E+03 0.  0.
        998    1    1    2    0    0  0.72036195082E+02  0.48400371401E+02  0.94489597675E+03  0.94887313495E+03  0.10000000000E+00 0.  1.
</event>
<event>
 5    1  0.2313627E-009  0.3882812E+03  0.7957747E-01  0.3415874E+00
         13   -1    0    0    0    0  0.00000000000E+00  0.00000000000E+00  0.14999999963E+04  0.15000000000E+04  0.10566000000E+00 0. -1.
        994   -1    0    0    0    0 -0.00000000000E+00 -0.00000000000E+00  0.11368683772E-12  0.17120000000E+03  0.17120000000E+03 0.  0.
         13    1    1    2    0    0  0.86753215493E+02 -0.18936313814E+03  0.12403633513E+04  0.12577304055E+04  0.10566000000E+00 0. -1.
        994    1    1    2    0    0 -0.92436115761E+02  0.20034546427E+03  0.17860432101E+03  0.33149914636E+03  0.17120000000E+03 0.  0.
        998    1    1    2    0    0  0.56829002686E+01 -0.10982326134E+02  0.81032323976E+02  0.81970448161E+02  0.10000000000E+00 0.  1.
</event>
<event>
 5    1  0.2313627E-009  0.3881426E+03  0.7957747E-01  0.3416452E+00
         13   -1    0    0    0    0  0.00000000000E+00  0.00000000000E+00  0.14999999963E+04  0.15000000000E+04  0.10566000000E+00 0. -1.
        994   -1    0    0    0    0 -0.00000000000E+00 -0.00000000000E+00  0.11368683772E-12  0.17120000000E+03  0.17120000000E+03 0.  0.
         13    1    1    2    0    0  0.16159056781E+03 -0.43672200943E+02  0.91073324011E+03  0.92598802289E+03  0.10566000000E+00 0. -1.
        994    1    1    2    0    0 -0.22992528211E+03  0.52083222672E+02  0.20850777598E+03  0.35827814625E+03  0.17120000000E+03 0.  0.
        998    1    1    2    0    0  0.68334714302E+02 -0.84110217290E+01  0.38075898019E+03  0.38693383086E+03  0.10000000000E+00 0. -1.
</event>
<event>
 5    1  0.2313627E-009  0.3824127E+03  0.7957747E-01  0.3440720E+00
         13   -1    0    0    0    0  0.00000000000E+00  0.00000000000E+00  0.14999999963E+04  0.15000000000E+04  0.10566000000E+00 0. -1.
        994   -1    0    0    0    0 -0.00000000000E+00 -0.00000000000E+00  0.11368683772E-12  0.17120000000E+03  0.17120000000E+03 0.  0.
         13    1    1    2    0    0 -0.29731553447E+02 -0.11363632934E+02  0.15559457784E+03  0.15881681662E+03  0.10566000000E+00 0. -1.
        994    1    1    2    0    0  0.89687997652E+01  0.95335518355E+02  0.33950282296E+02  0.19907627206E+03  0.17120000000E+03 0.  0.
        998    1    1    2    0    0  0.20762753682E+02 -0.83971885421E+02  0.13104551361E+04  0.13133069113E+04  0.10000000000E+00 0. -1.
</event>
<event>
 5    1  0.2313627E-009  0.3883005E+03  0.7957747E-01  0.3415794E+00
         13   -1    0    0    0    0  0.00000000000E+00  0.00000000000E+00  0.14999999963E+04  0.15000000000E+04  0.10566000000E+00 0.  1.
        994   -1    0    0    0    0 -0.00000000000E+00 -0.00000000000E+00  0.11368683772E-12  0.17120000000E+03  0.17120000000E+03 0.  0.
         13    1    1    2    0    0 -0.19088742204E+03 -0.93936897336E+02  0.12650051456E+04  0.12827705088E+04  0.10566000000E+00 0.  1.
        994    1    1    2    0    0  0.19913319209E+03  0.98028183019E+02  0.18102694425E+03  0.33368210531E+03  0.17120000000E+03 0.  0.
        998    1    1    2    0    0 -0.82457700540E+01 -0.40912856831E+01  0.53967906400E+02  0.54747385906E+02  0.10000000000E+00 0.  1.
</event>
<event>
 5    1  0.2313627E-009  0.3882855E+03  0.7957747E-01  0.3415856E+00
         13   -1    0    0    0    0  0.00000000000E+00  0.00000000000E+00  0.14999999963E+04  0.15000000000E+04  0.10566000000E+00 0.  1.
        994   -1    0    0    0    0 -0.00000000000E+00 -0.00000000000E+00  0.11368683772E-12  0.17120000000E+03  0.17120000000E+03 0.  0.
         13    1    1    2    0    0  0.21492846916E+03 -0.11767153449E+03  0.12673221470E+04  0.12907928852E+04  0.10566000000E+00 0.  1.
        994    1    1    2    0    0 -0.21554303967E+03  0.11776929332E+03  0.22968882576E+03  0.37735236196E+03  0.17120000000E+03 0.  0.
        998    1    1    2    0    0  0.61457050617E+00 -0.97758833099E-01  0.29890234995E+01  0.30547528832E+01  0.10000000000E+00 0. -1.
</event>
<event>
 5    1  0.2313627E-009  0.3882913E+03  0.7957747E-01  0.3415832E+00
         13   -1    0    0    0    0  0.00000000000E+00  0.00000000000E+00  0.14999999963E+04  0.15000000000E+04  0.10566000000E+00 0. -1.
        994   -1    0    0    0    0 -0.00000000000E+00 -0.00000000000E+00  0.11368683772E-12  0.17120000000E+03  0.17120000000E+03 0.  0.
         13    1    1    2    0    0 -0.25402978947E+03 -0.53115043921E+02  0.12286808201E+04  0.12557901539E+04  0.10566000000E+00 0. -1.
        994    1    1    2    0    0  0.25531685855E+03  0.53325005857E+02  0.26619470066E+03  0.41012109574E+03  0.17120000000E+03 0.  0.
        998    1    1    2    0    0 -0.12870690821E+01 -0.20996193636E+00  0.51244754967E+01  0.52887503206E+01  0.10000000000E+00 0.  0.
</event>
<event>
 5    1  0.2313627E-009  0.3882888E+03  0.7957747E-01  0.3415843E+00
         13   -1    0    0    0    0  0.00000000000E+00  0.00000000000E+00  0.14999999963E+04  0.15000000000E+04  0.10566000000E+00 0. -1.
        994   -1    0    0    0    0 -0.00000000000E+00 -0.00000000000E+00  0.11368683772E-12  0.17120000000E+03  0.17120000000E+03 0.  0.
         13    1    1    2    0    0  0.17367326776E+03 -0.21779067898E+03  0.11673377435E+04  0.12001135789E+04  0.10566000000E+00 0. -1.
        994    1    1    2    0    0 -0.17543465071E+03  0.21965391268E+03  0.32324659516E+03  0.46132738842E+03  0.17120000000E+03 0.  0.
        998    1    1    2    0    0  0.17613829524E+01 -0.18632336933E+01  0.94156576091E+01  0.97590326320E+01  0.10000000000E+00 0.  1.
</event>
<event>
 5    1  0.2313627E-009  0.3853685E+03  0.7957747E-01  0.3428111E+00
         13   -1    0    0    0    0  0.00000000000E+00  0.00000000000E+00  0.14999999963E+04  0.15000000000E+04  0.10566000000E+00 0. -1.
        994   -1    0    0    0    0 -0.00000000000E+00 -0.00000000000E+00  0.11368683772E-12  0.17120000000E+03  0.17120000000E+03 0.  0.
         13    1    1    2    0    0  0.13255633747E+03  0.85384814299E+02  0.79666576958E+03  0.81211951627E+03  0.10566000000E+00 0. -1.
        994    1    1    2    0    0 -0.18915736272E+03 -0.98972807324E+02  0.16909836738E+03  0.32168279766E+03  0.17120000000E+03 0.  0.
        998    1    1    2    0    0  0.56601025255E+02  0.13587993025E+02  0.53423585932E+03  0.53739768607E+03  0.10000000000E+00 0. -1.
</event>
<event>
 5    1  0.2313627E-009  0.3882915E+03  0.7957747E-01  0.3415831E+00
         13   -1    0    0    0    0  0.00000000000E+00  0.00000000000E+00  0.14999999963E+04  0.15000000000E+04  0.10566000000E+00 0.  1.
        994   -1    0    0    0    0 -0.00000000000E+00 -0.00000000000E+00  0.11368683772E-12  0.17120000000E+03  0.17120000000E+03 0.  0.
         13    1    1    2    0    0  0.11304358330E+03  0.15919271300E+03  0.11311495936E+04  0.11478765552E+04  0.10566000000E+00 0.  1.
        994    1    1    2    0    0 -0.12961374577E+03 -0.18476058960E+03  0.18813912665E+03  0.34006171430E+03  0.17120000000E+03 0.  0.
        998    1    1    2    0    0  0.16570162471E+02  0.25567876594E+02  0.18071127600E+03  0.18326173052E+03  0.10000000000E+00 0.  1.
</event>
<event>
 5    1  0.2313627E-009  0.3882599E+03  0.7957747E-01  0.3415963E+00
         13   -1    0    0    0    0  0.00000000000E+00  0.00000000000E+00  0.14999999963E+04  0.15000000000E+04  0.10566000000E+00 0. -1.
        994   -1    0    0    0    0 -0.00000000000E+00 -0.00000000000E+00  0.11368683772E-12  0.17120000000E+03  0.17120000000E+03 0.  0.
         13    1    1    2    0    0  0.38729432960E+02 -0.26399961877E+03  0.12079943077E+04  0.12371119700E+04  0.10566000000E+00 0. -1.
        994    1    1    2    0    0 -0.38665467885E+02  0.26504912222E+03  0.28481357550E+03  0.42681877698E+03  0.17120000000E+03 0.  0.
        998    1    1    2    0    0 -0.63965075067E-01 -0.10495034546E+01  0.71921131096E+01  0.72692530574E+01  0.10000000000E+00 0. -1.
</event>
<event>
 5    1  0.2313627E-009  0.3881923E+03  0.7957747E-01  0.3416245E+00
         13   -1    0    0    0    0  0.00000000000E+00  0.00000000000E+00  0.14999999963E+04  0.15000000000E+04  0.10566000000E+00 0.  1.
        994   -1    0    0    0    0 -0.00000000000E+00 -0.00000000000E+00  0.11368683772E-12  0.17120000000E+03  0.17120000000E+03 0.  0.
         13    1    1    2    0    0 -0.17559314304E+03 -0.23231739176E+03  0.10068092144E+04  0.10480787794E+04  0.10566000000E+00 0.  1.
        994    1    1    2    0    0  0.18919031448E+03  0.24504393759E+03  0.42776475857E+03  0.55509605936E+03  0.17120000000E+03 0.  0.
        998    1    1    2    0    0 -0.13597171437E+02 -0.12726545833E+02  0.65426023290E+02  0.68025161252E+02  0.10000000000E+00 0. -1.
</event>
<event>
 5    1  0.2313627E-009  0.3883002E+03  0.7957747E-01  0.3415795E+00
         13   -1    0    0    0    0  0.00000000000E+00  0.00000000000E+00  0.14999999963E+04  0.15000000000E+04  0.10566000000E+00 0. -1.
        994   -1    0    0    0    0 -0.00000000000E+00 -0.00000000000E+00  0.11368683772E-12  0.17120000000E+03  0.17120000000E+03 0.  0.
         13    1    1    2    0    0 -0.15198810989E+03 -0.13892972749E+02  0.83992133169E+03  0.85367514596E+03  0.10566000000E+00 0. -1.
        994    1    1    2    0    0  0.23368618130E+03  0.20800813314E+02  0.20592279461E+03  0.35602744628E+03  0.17120000000E+03 0.  0.
        998    1    1    2    0    0 -0.81698071406E+02 -0.69078405652E+01  0.45415586998E+03  0.46149740777E+03  0.10000000000E+00 0. -1.
</event>
<event>
 5    1  0.2313627E-009  0.3883008E+03  0.7957747E-01  0.3415793E+00
         13   -1    0    0    0    0  0.00000000000E+00  0.00000000000E+00  0.14999999963E+04  0.15000000000E+04  0.10566000000E+00 0. -1.
        994   -1    0    0    0    0 -0.00000000000E+00 -0.00000000000E+00  0.11368683772E-12  0.17120000000E+03  0.17120000000E+03 0.  0.
         13    1    1    2    0    0  0.18184213749E+03 -0.12250276005E+03  0.12623725996E+04  0.12812720557E+04  0.10566000000E+00 0. -1.
        994    1    1    2    0    0 -0.18854349153E+03  0.12696621419E+03  0.19126488916E+03  0.34287135426E+03  0.17120000000E+03 0.  0.
        998    1    1    2    0    0  0.67013540376E+01 -0.44634541406E+01  0.46362507506E+02  0.47056590092E+02  0.10000000000E+00 0.  0.
</event>
<event>
 5    1  0.2313627E-009  0.3881125E+03  0.7957747E-01  0.3416578E+00
         13   -1    0    0    0    0  0.00000000000E+00  0.00000000000E+00  0.14999999963E+04  0.15000000000E+04  0.10566000000E+00 0.  1.
        994   -1    0    0    0    0 -0.00000000000E+00 -0.00000000000E+00  0.11368683772E-12  0.17120000000E+03  0.17120000000E+03 0.  0.
         13    1    1    2    0    0  0.14422286756E+03 -0.15974772878E+03  0.12976178196E+04  0.13153446656E+04  0.10566000000E+00 0.  1.
        994    1    1    2    0    0 -0.14804912569E+03  0.16082712606E+03  0.17504132633E+03  0.32822677225E+03  0.17120000000E+03 0.  0.
        998    1    1    2    0    0  0.38262581383E+01 -0.10793972837E+01  0.27340850299E+02  0.27628562122E+02  0.10000000000E+00 0.  1.
</event>
<event>
 5    1  0.2313627E-009  0.3819873E+03  0.7957747E-01  0.3442551E+00
         13   -1    0    0    0    0  0.00000000000E+00  0.00000000000E+00  0.14999999963E+04  0.15000000000E+04  0.10566000000E+00 0. -1.
        994   -1    0    0    0    0 -0.00000000000E+00 -0.00000000000E+00  0.11368683772E-12  0.17120000000E+03  0.17120000000E+03 0.  0.
         13    1    1    2    0    0  0.33730367422E+02  0.29513592477E+02  0.16312213929E+03  0.16916747122E+03  0.10566000000E+00 0. -1.
        994    1    1    2    0    0 -0.97903208091E+02 -0.74841360164E+02  0.55326422684E+02  0.21807503386E+03  0.17120000000E+03 0.  0.
        998    1    1    2    0    0  0.64172840669E+02  0.45327767687E+02  0.12815514343E+04  0.12839574949E+04  0.10000000000E+00 0. -1.
</event>
<event>
 5    1  0.2313627E-009  0.3882901E+03  0.7957747E-01  0.3415837E+00
         13   -1    0    0    0    0  0.00000000000E+00  0.00000000000E+00  0.14999999963E+04  0.15000000000E+04  0.10566000000E+00 0.  1.
        994   -1    0    0    0    0 -0.00000000000E+00 -0.00000000000E+00  0.11368683772E-12  0.17120000000E+03  0.17120000000E+03 0.  0.
         13    1    1    2    0    0  0.25620643624E+03 -0.86471920974E+02  0.11826912997E+04  0.12132097315E+04  0.10566000000E+00 0.  1.
        994    1    1    2    0    0 -0.25980948449E+03  0.87707033511E+02  0.30260523296E+03  0.44280115060E+03  0.17120000000E+03 0.  0.
        998    1    1    2    0    0  0.36030482551E+01 -0.12351125363E+01  0.14703463651E+02  0.15189117915E+02  0.10000000000E+00 0. -1.
</event>
<event>
 5    1  0.2313627E-009  0.3879754E+03  0.7957747E-01  0.3417150E+00
         13   -1    0    0    0    0  0.00000000000E+00  0.00000000000E+00  0.14999999963E+04  0.15000000000E+04  0.10566000000E+00 0. -1.
        994   -1    0    0    0    0 -0.00000000000E+00 -0.00000000000E+00  0.11368683772E-12  0.17120000000E+03  0.17120000000E+03 0.  0.
         13    1    1    2    0    0  0.27727526647E+03 -0.46836766652E+02  0.10849877717E+04  0.11208361753E+04  0.10566000000E+00 0. -1.
        994    1    1    2    0    0 -0.28738434799E+03  0.47176837242E+02  0.35709782115E+03  0.49157269179E+03  0.17120000000E+03 0.  0.
        998    1    1    2    0    0  0.10109081519E+02 -0.34007058962E+00  0.57914403454E+02  0.58791132874E+02  0.10000000000E+00 0.  1.
</event>
<event>
 5    1  0.2313627E-009  0.3882142E+03  0.7957747E-01  0.3416154E+00
         13   -1    0    0    0    0  0.00000000000E+00  0.00000000000E+00  0.14999999963E+04  0.15000000000E+04  0.10566000000E+00 0. -1.
        994   -1    0    0    0    0 -0.00000000000E+00 -0.00000000000E+00  0.11368683772E-12  0.17120000000E+03  0.17120000000E+03 0.  0.
         13    1    1    2    0    0  0.89046349942E+02  0.22524922027E+03  0.12238019043E+04  0.12475406109E+04  0.10566000000E+00 0. -1.
        994    1    1    2    0    0 -0.91757123399E+02 -0.23063184451E+03  0.23571197429E+03  0.38272704662E+03  0.17120000000E+03 0.  0.
        998    1    1    2    0    0  0.27107734574E+01  0.53826242306E+01  0.40486117719E+02  0.40932342521E+02  0.10000000000E+00 0. -1.
</event>
<event>
 5    1  0.2313627E-009  0.3882836E+03  0.7957747E-01  0.3415864E+00
         13   -1    0    0    0    0  0.00000000000E+00  0.00000000000E+00  0.14999999963E+04  0.15000000000E+04  0.10566000000E+00 0. -1.
        994   -1    0    0    0    0 -0.00000000000E+00 -0.00000000000E+00  0.11368683772E-12  0.17120000000E+03  0.17120000000E+03 0.  0.
         13    1    1    2    0    0 -0.21750464357E+03  0.57573361547E+02  0.10526735612E+04  0.10764499986E+04  0.10566000000E+00 0. -1.
        994    1    1    2    0    0  0.25401728163E+03 -0.69162669084E+02  0.27251667623E+03  0.41579205498E+03  0.17120000000E+03 0.  0.
        998    1    1    2    0    0 -0.36512638066E+02  0.11589307536E+02  0.17480975889E+03  0.17895794643E+03  0.10000000000E+00 0.  1.
</event>
<event>
 5    1  0.2313627E-009  0.3882450E+03  0.7957747E-01  0.3416025E+00
         13   -1    0    0    0    0  0.00000000000E+00  0.00000000000E+00  0.14999999963E+04  0.15000000000E+04  0.10566000000E+00 0. -1.
        994   -1    0    0    0    0 -0.00000000000E+00 -0.00000000000E+00  0.11368683772E-12  0.17120000000E+03  0.17120000000E+03 0.  0.
         13    1    1    2    0    0  0.81971196553E+02 -0.18416064463E+03  0.10683247236E+04  0.10871762260E+04  0.10566000000E+00 0. -1.
        994    1    1    2    0    0 -0.10176431144E+03  0.21871743208E+03  0.22003881769E+03  0.36867304142E+03  0.17120000000E+03 0.  0.
        998    1    1    2    0    0  0.19793114886E+02 -0.34556787454E+02  0.21163645496E+03  0.21535073259E+03  0.10000000000E+00 0. -1.
</event>
<event>
 5    1  0.2313627E-009  0.3882943E+03  0.7957747E-01  0.3415820E+00
         13   -1    0    0    0    0  0.00000000000E+00  0.00000000000E+00  0.14999999963E+04  0.15000000000E+04  0.10566000000E+00 0.  1.
        994   -1    0    0    0    0 -0.00000000000E+00 -0.00000000000E+00  0.11368683772E-12  0.17120000000E+03  0.17120000000E+03 0.  0.
         13    1    1    2    0    0 -0.11594070890E+03 -0.17102373109E+03  0.12445657376E+04  0.12616002738E+04  0.10566000000E+00 0.  1.
        994    1    1    2    0    0  0.12257480834E+03  0.18219265180E+03  0.17664092189E+03  0.32974262887E+03  0.17120000000E+03 0.  0.
        998    1    1    2    0    0 -0.66340994436E+01 -0.11168920711E+02  0.78793336808E+02  0.79857097309E+02  0.10000000000E+00 0. -1.
</event>
<event>
 5    1  0.2313627E-009  0.3883009E+03  0.7957747E-01  0.3415792E+00
         13   -1    0    0    0    0  0.00000000000E+00  0.00000000000E+00  0.14999999963E+04  0.15000000000E+04  0.10566000000E+00 0.  1.
        994   -1    0    0    0    0 -0.00000000000E+00 -0.00000000000E+00  0.11368683772E-12  0.17120000000E+03  0.17120000000E+03 0.  0.
         13    1    1    2    0    0  0.78433139344E+01  0.49519280607E+02  0.30106632460E+03  0.30521241734E+03  0.10566000000E+00 0.  1.
        994    1    1    2    0    0 -0.35123617868E+02 -0.21739598163E+03  0.17779021767E+03  0.33077708938E+03  0.17120000000E+03 0.  0.
        998    1    1    2    0    0  0.27280303934E+02  0.16787670102E+03  0.10211434540E+04  0.10352104933E+04  0.10000000000E+00 0.  1.
</event>
<event>
 5    1  0.2313627E-009  0.3876054E+03  0.7957747E-01  0.3418697E+00
         13   -1    0    0    0    0  0.00000000000E+00  0.00000000000E+00  0.14999999963E+04  0.15000000000E+04  0.10566000000E+00 0.  1.
        994   -1    0    0    0    0 -0.00000000000E+00 -0.00000000000E+00  0.11368683772E-12  0.17120000000E+03  0.17120000000E+03 0.  0.
         13    1    1    2    0    0 -0.15731928437E+03  0.28714454584E+02  0.90242377550E+03  0.91648380176E+03  0.10566000000E+00 0.  1.
        994    1    1    2    0    0  0.22915696068E+03 -0.20229903536E+02  0.19759420768E+03  0.34824570713E+03  0.17120000000E+03 0.  0.
        998    1    1    2    0    0 -0.71837676313E+02 -0.84845510486E+01  0.39998201309E+03  0.40647049111E+03  0.10000000000E+00 0.  1.
</event>
<event>
 5    1  0.2313627E-009  0.3845959E+03  0.7957747E-01  0.3431388E+00
         13   -1    0    0    0    0  0.00000000000E+00  0.00000000000E+00  0.14999999963E+04  0.15000000000E+04  0.10566000000E+00 0. -1.
        994   -1    0    0    0    0 -0.00000000000E+00 -0.00000000000E+00  0.11368683772E-12  0.17120000000E+03  0.17120000000E+03 0.  0.
         13    1    1    2    0    0  0.59641842198E+02  0.15880655723E+03  0.94188750642E+03  0.95704166987E+03  0.10566000000E+00 0. -1.
        994    1    1    2    0    0 -0.48929439786E+02 -0.19529103911E+03  0.14920531864E+03  0.30348698019E+03  0.17120000000E+03 0.  0.
        998    1    1    2    0    0 -0.10712402412E+02  0.36484481883E+02  0.40890717122E+03  0.41067134994E+03  0.10000000000E+00 0.  1.
</event>
<event>
 5    1  0.2313627E-009  0.3850954E+03  0.7957747E-01  0.3429268E+00
         13   -1    0    0    0    0  0.00000000000E+00  0.00000000000E+00  0.14999999963E+04  0.15000000000E+04  0.10566000000E+00 0. -1.
        994   -1    0    0    0    0 -0.00000000000E+00 -0.00000000000E+00  0.11368683772E-12  0.17120000000E+03  0.17120000000E+03 0.  0.
         13    1    1    2    0    0  0.17903259804E+01 -0.79232469500E+02  0.41517461483E+03  0.42267122146E+03  0.10566000000E+00 0. -1.
        994    1    1    2    0    0  0.76845326144E+02  0.26950287802E+03  0.32778516485E+03  0.46399305998E+03  0.17120000000E+03 0.  0.
        998    1    1    2    0    0 -0.78635652124E+02 -0.19027040852E+03  0.75704021661E+03  0.78453571857E+03  0.10000000000E+00 0. -1.
</event>
<event>
 5    1  0.2313627E-009  0.3882997E+03  0.7957747E-01  0.3415797E+00
         13   -1    0    0    0    0  0.00000000000E+00  0.00000000000E+00  0.14999999963E+04  0.15000000000E+04  0.10566000000E+00 0. -1.
        994   -1    0    0    0    0 -0.00000000000E+00 -0.00000000000E+00  0.11368683772E-12  0.17120000000E+03  0.17120000000E+03 0.  0.
         13    1    1    2    0    0  0.19957679404E+03  0.72485342379E+02  0.12600314112E+04  0.12777966152E+04  0.10566000000E+00 0. -1.
        994    1    1    2    0    0 -0.20861965099E+03 -0.75895481826E+02  0.18110704160E+03  0.33375362688E+03  0.17120000000E+03 0.  0.
        998    1    1    2    0    0  0.90428569476E+01  0.34101394466E+01  0.58861543481E+02  0.59649757869E+02  0.10000000000E+00 0. -1.
</event>
<event>
 5    1  0.2313627E-009  0.3881609E+03  0.7957747E-01  0.3416376E+00
         13   -1    0    0    0    0  0.00000000000E+00  0.00000000000E+00  0.14999999963E+04  0.15000000000E+04  0.10566000000E+00 0. -1.
        994   -1    0    0    0    0 -0.00000000000E+00 -0.00000000000E+00  0.11368683772E-12  0.17120000000E+03  0.17120000000E+03 0.  0.
         13    1    1    2    0    0 -0.13106407401E+03  0.39317732998E+02  0.53976177682E+03  0.55683611818E+03  0.10566000000E+00 0. -1.
        994    1    1    2    0    0  0.27250540739E+03 -0.74931307226E+02  0.32823496318E+03  0.46574835363E+03  0.17120000000E+03 0.  0.
        998    1    1    2    0    0 -0.14144133339E+03  0.35613574228E+02  0.63200325628E+03  0.64861552819E+03  0.10000000000E+00 0. -1.
</event>
<event>
 5    1  0.2313627E-009  0.3847366E+03  0.7957747E-01  0.3430790E+00
         13   -1    0    0    0    0  0.00000000000E+00  0.00000000000E+00  0.14999999963E+04  0.15000000000E+04  0.10566000000E+00 0.  1.
        994   -1    0    0    0    0 -0.00000000000E+00 -0.00000000000E+00  0.11368683772E-12  0.17120000000E+03  0.17120000000E+03 0.  0.
         13    1    1    2    0    0  0.41504515635E+02 -0.61178599592E+02  0.30638899278E+03  0.31518196638E+03  0.10566000000E+00 0.  1.
        994    1    1    2    0    0 -0.97975410399E+02  0.16665929800E+03  0.13637020862E+03  0.29202872538E+03  0.17120000000E+03 0.  0.
        998    1    1    2    0    0  0.56470894764E+02 -0.10548069840E+03  0.10572407949E+04  0.10639893082E+04  0.10000000000E+00 0.  1.
</event>
<event>
 5    1  0.2313627E-009  0.3882872E+03  0.7957747E-01  0.3415849E+00
         13   -1    0    0    0    0  0.00000000000E+00  0.00000000000E+00  0.14999999963E+04  0.15000000000E+04  0.10566000000E+00 0. -1.
        994   -1    0    0    0    0 -0.00000000000E+00 -0.00000000000E+00  0.11368683772E-12  0.17120000000E+03  0.17120000000E+03 0.  0.
         13    1    1    2    0    0  0.11771440135E+03  0.71342944405E+02  0.76148562004E+03  0.77382611528E+03  0.10566000000E+00 0. -1.
        994    1    1    2    0    0 -0.20283079441E+03 -0.11877596243E+03  0.20684869007E+03  0.35685274414E+03  0.17120000000E+03 0.  0.
        998    1    1    2    0    0  0.85116393062E+02  0.47433018025E+02  0.53166568617E+03  0.54052114058E+03  0.10000000000E+00 0. -1.
</event>
<event>
 5    1  0.2313627E-009  0.3882750E+03  0.7957747E-01  0.3415900E+00
         13   -1    0    0    0    0  0.00000000000E+00  0.00000000000E+00  0.14999999963E+04  0.15000000000E+04  0.10566000000E+00 0.  1.
        994   -1    0    0    0    0 -0.00000000000E+00 -0.00000000000E+00  0.11368683772E-12  0.17120000000E+03  0.17120000000E+03 0.  0.
         13    1    1    2    0    0 -0.48518770252E+02 -0.22599092343E+03  0.13003478629E+04  0.13207310643E+04  0.10566000000E+00 0.  1.
        994    1    1    2    0    0  0.48603284744E+02  0.22602949495E+03  0.19900049909E+03  0.34980315967E+03  0.17120000000E+03 0.  0.
        998    1    1    2    0    0 -0.84514492108E-01 -0.38571518277E-01  0.65163432935E+00  0.66577605889E+00  0.10000000000E+00 0.  1.
</event>
<event>
 5    1  0.2313627E-009  0.3882514E+03  0.7957747E-01  0.3415999E+00
         13   -1    0    0    0    0  0.00000000000E+00  0.00000000000E+00  0.14999999963E+04  0.15000000000E+04  0.10566000000E+00 0. -1.
        994   -1    0    0    0    0 -0.00000000000E+00 -0.00000000000E+00  0.11368683772E-12  0.17120000000E+03  0.17120000000E+03 0.  0.
         13    1    1    2    0    0  0.14834706522E+03 -0.28618435320E+02  0.90037085382E+03  0.91295868043E+03  0.10566000000E+00 0. -1.
        994    1    1    2    0    0 -0.21285183084E+03  0.42091676335E+02  0.17192888781E+03  0.32549438332E+03  0.17120000000E+03 0.  0.
        998    1    1    2    0    0  0.64504765622E+02 -0.13473241015E+02  0.42770025465E+03  0.43274693625E+03  0.10000000000E+00 0. -1.
</event>
<event>
 5    1  0.2313627E-009  0.3864206E+03  0.7957747E-01  0.3423669E+00
         13   -1    0    0    0    0  0.00000000000E+00  0.00000000000E+00  0.14999999963E+04  0.15000000000E+04  0.10566000000E+00 0. -1.
        994   -1    0    0    0    0 -0.00000000000E+00 -0.00000000000E+00  0.11368683772E-12  0.17120000000E+03  0.17120000000E+03 0.  0.
         13    1    1    2    0    0 -0.11119567860E+03 -0.88591229096E+02  0.54634611377E+03  0.56454138202E+03  0.10566000000E+00 0. -1.
        994    1    1    2    0    0  0.20698109413E+03  0.15808694871E+03  0.26856359506E+03  0.41142253375E+03  0.17120000000E+03 0.  0.
        998    1    1    2    0    0 -0.95785415534E+02 -0.69495719614E+02  0.68509028744E+03  0.69523608423E+03  0.10000000000E+00 0. -1.
</event>
<event>
 5    1  0.2313627E-009  0.3882936E+03  0.7957747E-01  0.3415822E+00
         13   -1    0    0    0    0  0.00000000000E+00  0.00000000000E+00  0.14999999963E+04  0.15000000000E+04  0.10566000000E+00 0.  1.
        994   -1    0    0    0    0 -0.00000000000E+00 -0.00000000000E+00  0.11368683772E-12  0.17120000000E+03  0.17120000000E+03 0.  0.
         13    1    1    2    0    0 -0.25922845196E+02 -0.24661310810E+03  0.12519362087E+04  0.12762579288E+04  0.10566000000E+00 0.  1.
        994    1    1    2    0    0  0.26349372362E+02  0.24829264928E+03  0.23899643304E+03  0.38571007780E+03  0.17120000000E+03 0.  0.
        998    1    1    2    0    0 -0.42652716627E+00 -0.16795411811E+01  0.90673545483E+01  0.92319934201E+01  0.10000000000E+00 0.  1.
</event>
<event>
 5    1  0.2313627E-009  0.3882946E+03  0.7957747E-01  0.3415818E+00
         13   -1    0    0    0    0  0.00000000000E+00  0.00000000000E+00  0.14999999963E+04  0.15000000000E+04  0.10566000000E+00 0. -1.
        994   -1    0    0    0    0 -0.00000000000E+00 -0.00000000000E+00  0.11368683772E-12  0.17120000000E+03  0.17120000000E+03 0.  0.
         13    1    1    2    0    0  0.10204418809E+03 -0.14398338400E+03  0.94724383739E+03  0.96354300881E+03  0.10566000000E+00 0. -1.
        994    1    1    2    0    0 -0.13760282704E+03  0.19410939634E+03  0.21288516615E+03  0.36227410855E+03  0.17120000000E+03 0.  0.
        998    1    1    2    0    0  0.35558638954E+02 -0.50126012341E+02  0.33987099274E+03  0.34538288265E+03  0.10000000000E+00 0. -1.
</event>
<event>
 5    1  0.2313627E-009  0.3882763E+03  0.7957747E-01  0.3415895E+00
         13   -1    0    0    0    0  0.00000000000E+00  0.00000000000E+00  0.14999999963E+04  0.15000000000E+04  0.10566000000E+00 0.  1.
        994   -1    0    0    0    0 -0.00000000000E+00 -0.00000000000E+00  0.11368683772E-12  0.17120000000E+03  0.17120000000E+03 0.  0.
         13    1    1    2    0    0 -0.17818908569E+03  0.13950611788E+03  0.13086444778E+04  0.13280676518E+04  0.10566000000E+00 0.  1.
        994    1    1    2    0    0  0.17847272244E+03 -0.13976320861E+03  0.19008370724E+03  0.34180041383E+03  0.17120000000E+03 0.  0.
        998    1    1    2    0    0 -0.28363675078E+00  0.25709073804E+00  0.12718112038E+01  0.13319343798E+01  0.10000000000E+00 0.  0.
</event>
<event>
 5    1  0.2313627E-009  0.3883009E+03  0.7957747E-01  0.3415792E+00
         13   -1    0    0    0    0  0.00000000000E+00  0.00000000000E+00  0.14999999963E+04  0.15000000000E+04  0.10566000000E+00 0. -1.
        994   -1    0    0    0    0 -0.00000000000E+00 -0.00000000000E+00  0.11368683772E-12  0.17120000000E+03  0.17120000000E+03 0.  0.
         13    1    1    2    0    0 -0.31287081334E+02  0.12124912976E+03  0.74621025811E+03  0.75664390131E+03  0.10566000000E+00 0. -1.
        994    1    1    2    0    0  0.55198539160E+02 -0.21443797652E+03  0.18004377610E+03  0.33279982844E+03  0.17120000000E+03 0.  0.
        998    1    1    2    0    0 -0.23911457826E+02  0.93188846755E+02  0.57374596208E+03  0.58175627025E+03  0.10000000000E+00 0. -1.
</event>
<event>
 5    1  0.2313627E-009  0.3882265E+03  0.7957747E-01  0.3416102E+00
         13   -1    0    0    0    0  0.00000000000E+00  0.00000000000E+00  0.14999999963E+04  0.15000000000E+04  0.10566000000E+00 0. -1.
        994   -1    0    0    0    0 -0.00000000000E+00 -0.00000000000E+00  0.11368683772E-12  0.17120000000E+03  0.17120000000E+03 0.  0.
         13    1    1    2    0    0 -0.19993564956E+03  0.10284191226E+02  0.12080044256E+04  0.12244814135E+04  0.10566000000E+00 0. -1.
        994    1    1    2    0    0  0.21665541729E+03 -0.12428224340E+02  0.17202684951E+03  0.32557135555E+03  0.17120000000E+03 0.  0.
        998    1    1    2    0    0 -0.16719767725E+02  0.21440331134E+01  0.11996872119E+03  0.12114723098E+03  0.10000000000E+00 0. -1.
</event>
<event>
 5    1  0.2313627E-009  0.3882918E+03  0.7957747E-01  0.3415830E+00
         13   -1    0    0    0    0  0.00000000000E+00  0.00000000000E+00  0.14999999963E+04  0.15000000000E+04  0.10566000000E+00 0.  1.
        994   -1    0    0    0    0 -0.00000000000E+00 -0.00000000000E+00  0.11368683772E-12  0.17120000000E+03  0.17120000000E+03 0.  0.
         13    1    1    2    0    0  0.41891877834E+02  0.22073945943E+03  0.12690947603E+04  0.12888298414E+04  0.10566000000E+00 0.  1.
        994    1    1    2    0    0 -0.43265885860E+02 -0.22687613393E+03  0.19851330197E+03  0.34937327900E+03  0.17120000000E+03 0.  0.
        998    1    1    2    0    0  0.13740080262E+01  0.61366744954E+01  0.32391934046E+02  0.32996879598E+02  0.10000000000E+00 0.  1.
</event>
<event>
 5    1  0.2313627E-009  0.3880335E+03  0.7957747E-01  0.3416908E+00
         13   -1    0    0    0    0  0.00000000000E+00  0.00000000000E+00  0.14999999963E+04  0.15000000000E+04  0.10566000000E+00 0. -1.
        994   -1    0    0    0    0 -0.00000000000E+00 -0.00000000000E+00  0.11368683772E-12  0.17120000000E+03  0.17120000000E+03 0.  0.
         13    1    1    2    0    0  0.47147626883E+02  0.12124371463E+03  0.68919747915E+03  0.70136731709E+03  0.10566000000E+00 0. -1.
        994    1    1    2    0    0 -0.95452141593E+02 -0.21100872725E+03  0.20012742378E+03  0.35070816937E+03  0.17120000000E+03 0.  0.
        998    1    1    2    0    0  0.48304514710E+02  0.89765012618E+02  0.61067509335E+03  0.61912451354E+03  0.10000000000E+00 0. -1.
</event>
<event>
 5    1  0.2313627E-009  0.3882654E+03  0.7957747E-01  0.3415940E+00
         13   -1    0    0    0    0  0.00000000000E+00  0.00000000000E+00  0.14999999963E+04  0.15000000000E+04  0.10566000000E+00 0.  1.
        994   -1    0    0    0    0 -0.00000000000E+00 -0.00000000000E+00  0.11368683772E-12  0.17120000000E+03  0.17120000000E+03 0.  0.
         13    1    1    2    0    0  0.18785201321E+02 -0.35167894754E+02  0.20994357115E+03  0.21369599631E+03  0.10566000000E+00 0.  1.
        994    1    1    2    0    0 -0.11897897816E+03  0.20081911634E+03  0.20352205359E+03  0.35385728908E+03  0.17120000000E+03 0.  0.
        998    1    1    2    0    0  0.10019377684E+03 -0.16565122159E+03  0.10865343715E+04  0.11036467146E+04  0.10000000000E+00 0.  1.
</event>
<event>
 5    1  0.2313627E-009  0.3883004E+03  0.7957747E-01  0.3415794E+00
         13   -1    0    0    0    0  0.00000000000E+00  0.00000000000E+00  0.14999999963E+04  0.15000000000E+04  0.10566000000E+00 0. -1.
        994   -1    0    0    0    0 -0.00000000000E+00 -0.00000000000E+00  0.11368683772E-12  0.17120000000E+03  0.17120000000E+03 0.  0.
         13    1    1    2    0    0  0.24264688411E+03 -0.23398386037E+03  0.71325949545E+03  0.78890118285E+03  0.10566000000E+00 0. -1.
        994    1    1    2    0    0 -0.25065353847E+03  0.24184975126E+03  0.76277923381E+03  0.85583882715E+03  0.17120000000E+03 0.  0.
        998    1    1    2    0    0  0.80066543591E+01 -0.78658908941E+01  0.23961267019E+02  0.26459989999E+02  0.10000000000E+00 0. -1.
</event>
<event>
 5    1  0.2313627E-009  0.3882814E+03  0.7957747E-01  0.3415874E+00
         13   -1    0    0    0    0  0.00000000000E+00  0.00000000000E+00  0.14999999963E+04  0.15000000000E+04  0.10566000000E+00 0.  1.
        994   -1    0    0    0    0 -0.00000000000E+00 -0.00000000000E+00  0.11368683772E-12  0.17120000000E+03  0.17120000000E+03 0.  0.
         13    1    1    2    0    0 -0.82543499490E+02  0.14559483028E+03  0.10090236028E+04  0.10228098191E+04  0.10566000000E+00 0.  1.
        994    1    1    2    0    0  0.10973663406E+03 -0.19276516478E+03  0.18078483190E+03  0.33345634355E+03  0.17120000000E+03 0.  0.
        998    1    1    2    0    0 -0.27193134574E+02  0.47170334494E+02  0.31019156162E+03  0.31493383738E+03  0.10000000000E+00 0.  1.
</event>
<event>
 5    1  0.2313627E-009  0.3882778E+03  0.7957747E-01  0.3415889E+00
         13   -1    0    0    0    0  0.00000000000E+00  0.00000000000E+00  0.14999999963E+04  0.15000000000E+04  0.10566000000E+00 0.  1.
        994   -1    0    0    0    0 -0.00000000000E+00 -0.00000000000E+00  0.11368683772E-12  0.17120000000E+03  0.17120000000E+03 0.  0.
         13    1    1    2    0    0  0.17597097945E+03 -0.20546010178E+03  0.12030336062E+04  0.12330731965E+04  0.10566000000E+00 0.  1.
        994    1    1    2    0    0 -0.17656276178E+03  0.20574824122E+03  0.29381627760E+03  0.43490710800E+03  0.17120000000E+03 0.  0.
        998    1    1    2    0    0  0.59178232117E+00 -0.28813944594E+00  0.31501124719E+01  0.32196955200E+01  0.10000000000E+00 0. -1.
</event>
<event>
 5    1  0.2313627E-009  0.3866058E+03  0.7957747E-01  0.3422890E+00
         13   -1    0    0    0    0  0.00000000000E+00  0.00000000000E+00  0.14999999963E+04  0.15000000000E+04  0.10566000000E+00 0.  1.
        994   -1    0    0    0    0 -0.00000000000E+00 -0.00000000000E+00  0.11368683772E-12  0.17120000000E+03  0.17120000000E+03 0.  0.
         13    1    1    2    0    0 -0.22984362040E+03 -0.10062474451E+03  0.98360214741E+03  0.10150993176E+04  0.10566000000E+00 0.  1.
        994    1    1    2    0    0  0.25518208699E+03  0.13308985119E+03  0.34885315318E+03  0.48356878362E+03  0.17120000000E+03 0.  0.
        998    1    1    2    0    0 -0.25338466597E+02 -0.32465106678E+02  0.16754469569E+03  0.17253189878E+03  0.10000000000E+00 0. -1.
</event>
<event>
 5    1  0.2313627E-009  0.3882607E+03  0.7957747E-01  0.3415960E+00
         13   -1    0    0    0    0  0.00000000000E+00  0.00000000000E+00  0.14999999963E+04  0.15000000000E+04  0.10566000000E+00 0.  1.
        994   -1    0    0    0    0 -0.00000000000E+00 -0.00000000000E+00  0.11368683772E-12  0.17120000000E+03  0.17120000000E+03 0.  0.
         13    1    1    2    0    0  0.17702687166E+03  0.19997641263E+03  0.12072977372E+04  0.12364857122E+04  0.10566000000E+00 0.  1.
        994    1    1    2    0    0 -0.17815500726E+03 -0.20054755833E+03  0.28589408936E+03  0.42778896677E+03  0.17120000000E+03 0.  0.
        998    1    1    2    0    0  0.11281355923E+01  0.57114569181E+00  0.68081696820E+01  0.69253210565E+01  0.10000000000E+00 0. -1.
</event>
<event>
 5    1  0.2313627E-009  0.3883009E+03  0.7957747E-01  0.3415792E+00
         13   -1    0    0    0    0  0.00000000000E+00  0.00000000000E+00  0.14999999963E+04  0.15000000000E+04  0.10566000000E+00 0. -1.
        994   -1    0    0    0    0 -0.00000000000E+00 -0.00000000000E+00  0.11368683772E-12  0.17120000000E+03  0.17120000000E+03 0.  0.
         13    1    1    2    0    0  0.19068821969E+03  0.50364985197E+02  0.95650240285E+03  0.97662453721E+03  0.10566000000E+00 0. -1.
        994    1    1    2    0    0 -0.24817165466E+03 -0.65625276248E+02  0.25580927661E+03  0.40080378374E+03  0.17120000000E+03 0.  0.
        998    1    1    2    0    0  0.57483434974E+02  0.15260291051E+02  0.28768831682E+03  0.29377167905E+03  0.10000000000E+00 0.  1.
</event>
<event>
 5    1  0.2313627E-009  0.3877359E+03  0.7957747E-01  0.3418151E+00
         13   -1    0    0    0    0  0.00000000000E+00  0.00000000000E+00  0.14999999963E+04  0.15000000000E+04  0.10566000000E+00 0. -1.
        994   -1    0    0    0    0 -0.00000000000E+00 -0.00000000000E+00  0.11368683772E-12  0.17120000000E+03  0.17120000000E+03 0.  0.
         13    1    1    2    0    0 -0.14070752113E+03 -0.17510857627E+03  0.12155230415E+04  0.12361059403E+04  0.10566000000E+00 0. -1.
        994    1    1    2    0    0  0.15125589450E+03  0.17918001062E+03  0.20644771370E+03  0.35624980045E+03  0.17120000000E+03 0.  0.
        998    1    1    2    0    0 -0.10548373373E+02 -0.40714343539E+01  0.78029241039E+02  0.78844259243E+02  0.10000000000E+00 0.  1.
</event>
<event>
 5    1  0.2313627E-009  0.3879461E+03  0.7957747E-01  0.3417273E+00
         13   -1    0    0    0    0  0.00000000000E+00  0.00000000000E+00  0.14999999963E+04  0.15000000000E+04  0.10566000000E+00 0. -1.
        994   -1    0    0    0    0 -0.00000000000E+00 -0.00000000000E+00  0.11368683772E-12  0.17120000000E+03  0.17120000000E+03 0.  0.
         13    1    1    2    0    0  0.14316341488E+03 -0.21213077527E+03  0.12387926810E+04  0.12649515986E+04  0.10566000000E+00 0. -1.
        994    1    1    2    0    0 -0.14254235950E+03  0.21367307002E+03  0.25679306341E+03  0.40153035068E+03  0.17120000000E+03 0.  0.
        998    1    1    2    0    0 -0.62105538198E+00 -0.15422947487E+01  0.44142518688E+01  0.47180507035E+01  0.10000000000E+00 0.  1.
</event>
<event>
 5    1  0.2313627E-009  0.3882993E+03  0.7957747E-01  0.3415799E+00
         13   -1    0    0    0    0  0.00000000000E+00  0.00000000000E+00  0.14999999963E+04  0.15000000000E+04  0.10566000000E+00 0. -1.
        994   -1    0    0    0    0 -0.00000000000E+00 -0.00000000000E+00  0.11368683772E-12  0.17120000000E+03  0.17120000000E+03 0.  0.
         13    1    1    2    0    0 -0.19409962444E+03 -0.18296580736E+03  0.11939789578E+04  0.12234119967E+04  0.10566000000E+00 0. -1.
        994    1    1    2    0    0  0.19647407187E+03  0.18522010944E+03  0.29068548825E+03  0.43210651805E+03  0.17120000000E+03 0.  0.
        998    1    1    2    0    0 -0.23744474303E+01 -0.22543020796E+01  0.15335550276E+02  0.15681485285E+02  0.10000000000E+00 0.  0.
</event>
<event>
 5    1  0.2313627E-009  0.3862089E+03  0.7957747E-01  0.3424561E+00
         13   -1    0    0    0    0  0.00000000000E+00  0.00000000000E+00  0.14999999963E+04  0.15000000000E+04  0.10566000000E+00 0.  1.
        994   -1    0    0    0    0 -0.00000000000E+00 -0.00000000000E+00  0.11368683772E-12  0.17120000000E+03  0.17120000000E+03 0.  0.
         13    1    1    2    0    0  0.39257375402E+02  0.27112832077E+03  0.10400198919E+04  0.10754966735E+04  0.10566000000E+00 0.  1.
        994    1    1    2    0    0 -0.46471046467E+02 -0.28258817184E+03  0.34507089099E+03  0.47999895087E+03  0.17120000000E+03 0.  0.
        998    1    1    2    0    0  0.72136710656E+01  0.11459851069E+02  0.11490921336E+03  0.11570437568E+03  0.10000000000E+00 0. -1.
</event>
<event>
 5    1  0.2313627E-009  0.3882377E+03  0.7957747E-01  0.3416056E+00
         13   -1    0    0    0    0  0.00000000000E+00  0.00000000000E+00  0.14999999963E+04  0.15000000000E+04  0.10566000000E+00 0. -1.
        994   -1    0    0    0    0 -0.00000000000E+00 -0.00000000000E+00  0.11368683772E-12  0.17120000000E+03  0.17120000000E+03 0.  0.
         13    1    1    2    0    0 -0.17517788933E+03 -0.29214938733E+03  0.60436726819E+03  0.69375670335E+03  0.10566000000E+00 0. -1.
        994    1    1    2    0    0  0.17694805581E+03  0.29726443709E+03  0.88503442466E+03  0.96554240344E+03  0.17120000000E+03 0.  0.
        998    1    1    2    0    0 -0.17701664862E+01 -0.51150497614E+01  0.10598303430E+02  0.11900893204E+02  0.10000000000E+00 0.  1.
</event>
<event>
 5    1  0.2313627E-009  0.3883009E+03  0.7957747E-01  0.3415792E+00
         13   -1    0    0    0    0  0.00000000000E+00  0.00000000000E+00  0.14999999963E+04  0.15000000000E+04  0.10566000000E+00 0. -1.
        994   -1    0    0    0    0 -0.00000000000E+00 -0.00000000000E+00  0.11368683772E-12  0.17120000000E+03  0.17120000000E+03 0.  0.
         13    1    1    2    0    0  0.20010831190E+03 -0.12340944991E+02  0.81204117996E+03  0.83642484691E+03  0.10566000000E+00 0. -1.
        994    1    1    2    0    0 -0.28576852282E+03  0.17678984602E+02  0.33975651143E+03  0.47615136479E+03  0.17120000000E+03 0.  0.
        998    1    1    2    0    0  0.85660210921E+02 -0.53380396111E+01  0.34820230490E+03  0.35862378830E+03  0.10000000000E+00 0. -1.
</event>
<event>
 5    1  0.2313627E-009  0.3882998E+03  0.7957747E-01  0.3415797E+00
         13   -1    0    0    0    0  0.00000000000E+00  0.00000000000E+00  0.14999999963E+04  0.15000000000E+04  0.10566000000E+00 0.  1.
        994   -1    0    0    0    0 -0.00000000000E+00 -0.00000000000E+00  0.11368683772E-12  0.17120000000E+03  0.17120000000E+03 0.  0.
         13    1    1    2    0    0  0.26985981426E+03 -0.10119301881E+02  0.11938769776E+04  0.12240379767E+04  0.10566000000E+00 0.  1.
        994    1    1    2    0    0 -0.27196903981E+03  0.10146011771E+02  0.29669833471E+03  0.43750364797E+03  0.17120000000E+03 0.  0.
        998    1    1    2    0    0  0.21092255503E+01 -0.26709890349E-01  0.94246839792E+01  0.96583753265E+01  0.10000000000E+00 0.  0.
</event>
<event>
 5    1  0.2313627E-009  0.3882810E+03  0.7957747E-01  0.3415875E+00
         13   -1    0    0    0    0  0.00000000000E+00  0.00000000000E+00  0.14999999963E+04  0.15000000000E+04  0.10566000000E+00 0.  1.
        994   -1    0    0    0    0 -0.00000000000E+00 -0.00000000000E+00  0.11368683772E-12  0.17120000000E+03  0.17120000000E+03 0.  0.
         13    1    1    2    0    0 -0.20548569574E+03 -0.93137454766E+02  0.12889921736E+04  0.13085869446E+04  0.10566000000E+00 0.  1.
        994    1    1    2    0    0  0.20842205848E+03  0.94845449561E+02  0.19458946450E+03  0.34584666177E+03  0.17120000000E+03 0.  0.
        998    1    1    2    0    0 -0.29363627387E+01 -0.17079947950E+01  0.16418358152E+02  0.16766393672E+02  0.10000000000E+00 0.  1.
</event>
<event>
 5    1  0.2313627E-009  0.3882880E+03  0.7957747E-01  0.3415846E+00
         13   -1    0    0    0    0  0.00000000000E+00  0.00000000000E+00  0.14999999963E+04  0.15000000000E+04  0.10566000000E+00 0. -1.
        994   -1    0    0    0    0 -0.00000000000E+00 -0.00000000000E+00  0.11368683772E-12  0.17120000000E+03  0.17120000000E+03 0.  0.
         13    1    1    2    0    0 -0.22141207564E+03 -0.10968593201E+03  0.12473628255E+04  0.12716007001E+04  0.10566000000E+00 0. -1.
        994    1    1    2    0    0  0.22345924669E+03  0.11092392589E+03  0.23851405498E+03  0.38527463800E+03  0.17120000000E+03 0.  0.
        998    1    1    2    0    0 -0.20471710471E+01 -0.12379938785E+01  0.14123115809E+02  0.14324661891E+02  0.10000000000E+00 0. -1.
</event>
<event>
 5    1  0.2313627E-009  0.3882540E+03  0.7957747E-01  0.3415988E+00
         13   -1    0    0    0    0  0.00000000000E+00  0.00000000000E+00  0.14999999963E+04  0.15000000000E+04  0.10566000000E+00 0.  1.
        994   -1    0    0    0    0 -0.00000000000E+00 -0.00000000000E+00  0.11368683772E-12  0.17120000000E+03  0.17120000000E+03 0.  0.
         13    1    1    2    0    0 -0.22313935622E+03 -0.63906848498E+02  0.12834288504E+04  0.13042487811E+04  0.10566000000E+00 0.  1.
        994    1    1    2    0    0  0.22517285432E+03  0.63703259663E+02  0.20475126433E+03  0.35495554631E+03  0.17120000000E+03 0.  0.
        998    1    1    2    0    0 -0.20334981011E+01  0.20358883488E+00  0.11819881510E+02  0.11995672631E+02  0.10000000000E+00 0.  1.
</event>
<event>
 5    1  0.2313627E-009  0.3862875E+03  0.7957747E-01  0.3424230E+00
         13   -1    0    0    0    0  0.00000000000E+00  0.00000000000E+00  0.14999999963E+04  0.15000000000E+04  0.10566000000E+00 0. -1.
        994   -1    0    0    0    0 -0.00000000000E+00 -0.00000000000E+00  0.11368683772E-12  0.17120000000E+03  0.17120000000E+03 0.  0.
         13    1    1    2    0    0  0.23521118321E+03  0.17225918120E+02  0.11248960780E+04  0.11493529616E+04  0.10566000000E+00 0. -1.
        994    1    1    2    0    0 -0.24866077446E+03 -0.31649389808E+02  0.24453100641E+03  0.38979317301E+03  0.17120000000E+03 0.  0.
        998    1    1    2    0    0  0.13449591246E+02  0.14423471688E+02  0.13057291190E+03  0.13205386538E+03  0.10000000000E+00 0. -1.
</event>
<event>
 5    1  0.2313627E-009  0.3882753E+03  0.7957747E-01  0.3415899E+00
         13   -1    0    0    0    0  0.00000000000E+00  0.00000000000E+00  0.14999999963E+04  0.15000000000E+04  0.10566000000E+00 0. -1.
        994   -1    0    0    0    0 -0.00000000000E+00 -0.00000000000E+00  0.11368683772E-12  0.17120000000E+03  0.17120000000E+03 0.  0.
         13    1    1    2    0    0  0.14185488867E+03  0.16992883738E+01  0.77216892728E+03  0.78509270819E+03  0.10566000000E+00 0. -1.
        994    1    1    2    0    0 -0.23869389176E+03 -0.71525016356E+01  0.21475468282E+03  0.36394360282E+03  0.17120000000E+03 0.  0.
        998    1    1    2    0    0  0.96839003088E+02  0.54532132617E+01  0.51307638617E+03  0.52216368899E+03  0.10000000000E+00 0. -1.
</event>
<event>
 5    1  0.2313627E-009  0.3882999E+03  0.7957747E-01  0.3415796E+00
         13   -1    0    0    0    0  0.00000000000E+00  0.00000000000E+00  0.14999999963E+04  0.15000000000E+04  0.10566000000E+00 0.  1.
        994   -1    0    0    0    0 -0.00000000000E+00 -0.00000000000E+00  0.11368683772E-12  0.17120000000E+03  0.17120000000E+03 0.  0.
         13    1    1    2    0    0 -0.11299251850E+03  0.27959799306E+02  0.51183588372E+03  0.52490479388E+03  0.10566000000E+00 0.  1.
        994    1    1    2    0    0  0.26588332560E+03 -0.64592016968E+02  0.30086205835E+03  0.44124085219E+03  0.17120000000E+03 0.  0.
        998    1    1    2    0    0 -0.15289080710E+03  0.36632217662E+02  0.68730205421E+03  0.70505435393E+03  0.10000000000E+00 0.  1.
</event>
<event>
 5    1  0.2313627E-009  0.3883009E+03  0.7957747E-01  0.3415792E+00
         13   -1    0    0    0    0  0.00000000000E+00  0.00000000000E+00  0.14999999963E+04  0.15000000000E+04  0.10566000000E+00 0. -1.
        994   -1    0    0    0    0 -0.00000000000E+00 -0.00000000000E+00  0.11368683772E-12  0.17120000000E+03  0.17120000000E+03 0.  0.
         13    1    1    2    0    0 -0.24950746590E+02  0.13291430541E+03  0.56202359479E+03  0.57806512142E+03  0.10566000000E+00 0. -1.
        994    1    1    2    0    0  0.52102563849E+02 -0.27765402821E+03  0.32754014241E+03  0.46518643728E+03  0.17120000000E+03 0.  0.
        998    1    1    2    0    0 -0.27151817259E+02  0.14473972280E+03  0.61043625907E+03  0.62794844130E+03  0.10000000000E+00 0. -1.
</event>
<event>
 5    1  0.2313627E-009  0.3862804E+03  0.7957747E-01  0.3424260E+00
         13   -1    0    0    0    0  0.00000000000E+00  0.00000000000E+00  0.14999999963E+04  0.15000000000E+04  0.10566000000E+00 0. -1.
        994   -1    0    0    0    0 -0.00000000000E+00 -0.00000000000E+00  0.11368683772E-12  0.17120000000E+03  0.17120000000E+03 0.  0.
         13    1    1    2    0    0 -0.27258614721E+03 -0.54562811203E+02  0.10328596572E+04  0.10696164690E+04  0.10566000000E+00 0. -1.
        994    1    1    2    0    0  0.29564216726E+03  0.43894164914E+02  0.38979910534E+03  0.52017667316E+03  0.17120000000E+03 0.  0.
        998    1    1    2    0    0 -0.23056020059E+02  0.10668646288E+02  0.77341233698E+02  0.81406857847E+02  0.10000000000E+00 0.  1.
</event>
<event>
 5    1  0.2313627E-009  0.3883005E+03  0.7957747E-01  0.3415794E+00
         13   -1    0    0    0    0  0.00000000000E+00  0.00000000000E+00  0.14999999963E+04  0.15000000000E+04  0.10566000000E+00 0.  1.
        994   -1    0    0    0    0 -0.00000000000E+00 -0.00000000000E+00  0.11368683772E-12  0.17120000000E+03  0.17120000000E+03 0.  0.
         13    1    1    2    0    0 -0.88390260707E+02 -0.16357618439E+03  0.11199088688E+04  0.11352382534E+04  0.10566000000E+00 0.  1.
        994    1    1    2    0    0  0.10424587441E+03  0.19351865113E+03  0.17704376630E+03  0.33010696123E+03  0.17120000000E+03 0.  0.
        998    1    1    2    0    0 -0.15855613701E+02 -0.29942466735E+02  0.20304736116E+03  0.20585478540E+03  0.10000000000E+00 0.  1.
</event>
<event>
 5    1  0.2313627E-009  0.3697065E+03  0.7957747E-01  0.3497241E+00
         13   -1    0    0    0    0  0.00000000000E+00  0.00000000000E+00  0.14999999963E+04  0.15000000000E+04  0.10566000000E+00 0.  1.
        994   -1    0    0    0    0 -0.00000000000E+00 -0.00000000000E+00  0.11368683772E-12  0.17120000000E+03  0.17120000000E+03 0.  0.
         13    1    1    2    0    0  0.54902386799E+02 -0.72139649444E+02  0.51988020781E+03  0.52772515833E+03  0.10566000000E+00 0.  1.
        994    1    1    2    0    0 -0.13143675663E+03 -0.34711576639E+02  0.78424112720E+02  0.23225050269E+03  0.17120000000E+03 0.  0.
        998    1    1    2    0    0  0.76534369827E+02  0.10685122608E+03  0.90169567575E+03  0.91122433898E+03  0.10000000000E+00 0.  1.
</event>
<event>
 5    1  0.2313627E-009  0.3882598E+03  0.7957747E-01  0.3415963E+00
         13   -1    0    0    0    0  0.00000000000E+00  0.00000000000E+00  0.14999999963E+04  0.15000000000E+04  0.10566000000E+00 0. -1.
        994   -1    0    0    0    0 -0.00000000000E+00 -0.00000000000E+00  0.11368683772E-12  0.17120000000E+03  0.17120000000E+03 0.  0.
         13    1    1    2    0    0  0.42505970250E+02  0.11172411029E+03  0.57838899702E+03  0.59061229022E+03  0.10566000000E+00 0. -1.
        994    1    1    2    0    0 -0.88181821042E+02 -0.23533600572E+03  0.24286791083E+03  0.38917005443E+03  0.17120000000E+03 0.  0.
        998    1    1    2    0    0  0.45675850792E+02  0.12361189543E+03  0.67874308843E+03  0.69141765535E+03  0.10000000000E+00 0. -1.
</event>
<event>
 5    1  0.2313627E-009  0.3811252E+03  0.7957747E-01  0.3446274E+00
         13   -1    0    0    0    0  0.00000000000E+00  0.00000000000E+00  0.14999999963E+04  0.15000000000E+04  0.10566000000E+00 0.  1.
        994   -1    0    0    0    0 -0.00000000000E+00 -0.00000000000E+00  0.11368683772E-12  0.17120000000E+03  0.17120000000E+03 0.  0.
         13    1    1    2    0    0  0.80530227090E+01 -0.53846723463E+02  0.13651437856E+03  0.14697111118E+03  0.10566000000E+00 0.  1.
        994    1    1    2    0    0  0.14996365697E+03  0.25895748952E+03  0.40736401373E+03  0.53366933533E+03  0.17120000000E+03 0.  0.
        998    1    1    2    0    0 -0.15801667968E+03 -0.20511076605E+03  0.95612160399E+03  0.99055955350E+03  0.10000000000E+00 0.  1.
</event>
<event>
 5    1  0.2313627E-009  0.3883006E+03  0.7957747E-01  0.3415793E+00
         13   -1    0    0    0    0  0.00000000000E+00  0.00000000000E+00  0.14999999963E+04  0.15000000000E+04  0.10566000000E+00 0. -1.
        994   -1    0    0    0    0 -0.00000000000E+00 -0.00000000000E+00  0.11368683772E-12  0.17120000000E+03  0.17120000000E+03 0.  0.
         13    1    1    2    0    0 -0.27122429864E+02 -0.11533585024E+03  0.70397993942E+03  0.71388076793E+03  0.10566000000E+00 0. -1.
        994    1    1    2    0    0  0.51230797398E+02  0.21565681002E+03  0.18047380376E+03  0.33318566619E+03  0.17120000000E+03 0.  0.
        998    1    1    2    0    0 -0.24108367534E+02 -0.10032095978E+03  0.61554625309E+03  0.62413356588E+03  0.10000000000E+00 0. -1.
</event>
<event>
 5    1  0.2313627E-009  0.3880911E+03  0.7957747E-01  0.3416667E+00
         13   -1    0    0    0    0  0.00000000000E+00  0.00000000000E+00  0.14999999963E+04  0.15000000000E+04  0.10566000000E+00 0.  1.
        994   -1    0    0    0    0 -0.00000000000E+00 -0.00000000000E+00  0.11368683772E-12  0.17120000000E+03  0.17120000000E+03 0.  0.
         13    1    1    2    0    0  0.18404631904E+03  0.19078517164E+03  0.11287350343E+04  0.11594459099E+04  0.10566000000E+00 0.  1.
        994    1    1    2    0    0 -0.19385917875E+03 -0.19707400726E+03  0.30953389691E+03  0.44893230989E+03  0.17120000000E+03 0.  0.
        998    1    1    2    0    0  0.98128597146E+01  0.62888356179E+01  0.61731065107E+02  0.62821780208E+02  0.10000000000E+00 0. -1.
</event>
<event>
 5    1  0.2313627E-009  0.3872906E+03  0.7957747E-01  0.3420015E+00
         13   -1    0    0    0    0  0.00000000000E+00  0.00000000000E+00  0.14999999963E+04  0.15000000000E+04  0.10566000000E+00 0.  1.
        994   -1    0    0    0    0 -0.00000000000E+00 -0.00000000000E+00  0.11368683772E-12  0.17120000000E+03  0.17120000000E+03 0.  0.
         13    1    1    2    0    0  0.15217902926E+03  0.18381464761E+03  0.12683503888E+04  0.12906041228E+04  0.10566000000E+00 0.  1.
        994    1    1    2    0    0 -0.15329720199E+03 -0.18796966279E+03  0.22435155741E+03  0.37212321559E+03  0.17120000000E+03 0.  0.
        998    1    1    2    0    0  0.11181727294E+01  0.41550151848E+01  0.72980500238E+01  0.84726616590E+01  0.10000000000E+00 0.  1.
</event>
<event>
 5    1  0.2313627E-009  0.3882746E+03  0.7957747E-01  0.3415902E+00
         13   -1    0    0    0    0  0.00000000000E+00  0.00000000000E+00  0.14999999963E+04  0.15000000000E+04  0.10566000000E+00 0.  1.
        994   -1    0    0    0    0 -0.00000000000E+00 -0.00000000000E+00  0.11368683772E-12  0.17120000000E+03  0.17120000000E+03 0.  0.
         13    1    1    2    0    0  0.10247864115E+03 -0.23927400693E+03  0.11360230693E+04  0.11654622891E+04  0.10566000000E+00 0.  1.
        994    1    1    2    0    0 -0.10927478562E+03  0.25148985898E+03  0.30260894806E+03  0.44279763254E+03  0.17120000000E+03 0.  0.
        998    1    1    2    0    0  0.67961444644E+01 -0.12215852051E+02  0.61367978965E+02  0.62940078354E+02  0.10000000000E+00 0.  1.
</event>
<event>
 5    1  0.2313627E-009  0.3874739E+03  0.7957747E-01  0.3419247E+00
         13   -1    0    0    0    0  0.00000000000E+00  0.00000000000E+00  0.14999999963E+04  0.15000000000E+04  0.10566000000E+00 0. -1.
        994   -1    0    0    0    0 -0.00000000000E+00 -0.00000000000E+00  0.11368683772E-12  0.17120000000E+03  0.17120000000E+03 0.  0.
         13    1    1    2    0    0  0.48443121274E+02 -0.20826347831E+03  0.12068295741E+04  0.12256255727E+04  0.10566000000E+00 0. -1.
        994    1    1    2    0    0 -0.42524830665E+02  0.22394393282E+03  0.19359404027E+03  0.34459735736E+03  0.17120000000E+03 0.  0.
        998    1    1    2    0    0 -0.59182906088E+01 -0.15680454514E+02  0.99576381962E+02  0.10097706998E+03  0.10000000000E+00 0. -1.
</event>
<event>
 5    1  0.2313627E-009  0.3882731E+03  0.7957747E-01  0.3415908E+00
         13   -1    0    0    0    0  0.00000000000E+00  0.00000000000E+00  0.14999999963E+04  0.15000000000E+04  0.10566000000E+00 0.  1.
        994   -1    0    0    0    0 -0.00000000000E+00 -0.00000000000E+00  0.11368683772E-12  0.17120000000E+03  0.17120000000E+03 0.  0.
         13    1    1    2    0    0 -0.21002840518E+02  0.31286070837E+03  0.97880368630E+03  0.10278032933E+04  0.10566000000E+00 0.  1.
        994    1    1    2    0    0  0.21440789342E+02 -0.32163864213E+03  0.49008597335E+03  0.61106859258E+03  0.17120000000E+03 0.  0.
        998    1    1    2    0    0 -0.43794882410E+00  0.87779337623E+01  0.31110336630E+02  0.32328114166E+02  0.10000000000E+00 0. -1.
</event>
<event>
 5    1  0.2313627E-009  0.3856315E+03  0.7957747E-01  0.3426998E+00
         13   -1    0    0    0    0  0.00000000000E+00  0.00000000000E+00  0.14999999963E+04  0.15000000000E+04  0.10566000000E+00 0.  1.
        994   -1    0    0    0    0 -0.00000000000E+00 -0.00000000000E+00  0.11368683772E-12  0.17120000000E+03  0.17120000000E+03 0.  0.
         13    1    1    2    0    0  0.18989285708E+02  0.73038948247E+00  0.95864510081E+02  0.97729943710E+02  0.10566000000E+00 0.  1.
        994    1    1    2    0    0 -0.56493449398E+02  0.22357973738E+02  0.13526890690E+02  0.18216422697E+03  0.17120000000E+03 0.  0.
        998    1    1    2    0    0  0.37504163690E+02 -0.23088363220E+02  0.13906085955E+04  0.13913058293E+04  0.10000000000E+00 0. -1.
</event>
<event>
 5    1  0.2313627E-009  0.3879069E+03  0.7957747E-01  0.3417437E+00
         13   -1    0    0    0    0  0.00000000000E+00  0.00000000000E+00  0.14999999963E+04  0.15000000000E+04  0.10566000000E+00 0. -1.
        994   -1    0    0    0    0 -0.00000000000E+00 -0.00000000000E+00  0.11368683772E-12  0.17120000000E+03  0.17120000000E+03 0.  0.
         13    1    1    2    0    0  0.24183149792E+03  0.13587685051E+03  0.96235611716E+03  0.10015359700E+04  0.10566000000E+00 0. -1.
        994    1    1    2    0    0 -0.27194455911E+03 -0.14399624964E+03  0.42064945921E+03  0.54858378637E+03  0.17120000000E+03 0.  0.
        998    1    1    2    0    0  0.30113061191E+02  0.81193991264E+01  0.11699441991E+03  0.12108024359E+03  0.10000000000E+00 0.  1.
</event>
<event>
 5    1  0.2313627E-009  0.3875164E+03  0.7957747E-01  0.3419070E+00
         13   -1    0    0    0    0  0.00000000000E+00  0.00000000000E+00  0.14999999963E+04  0.15000000000E+04  0.10566000000E+00 0. -1.
        994   -1    0    0    0    0 -0.00000000000E+00 -0.00000000000E+00  0.11368683772E-12  0.17120000000E+03  0.17120000000E+03 0.  0.
         13    1    1    2    0    0 -0.22866136153E+03  0.13501094915E+02  0.10022658134E+04  0.10281075185E+04  0.10566000000E+00 0. -1.
        994    1    1    2    0    0  0.26465015286E+03 -0.24968296818E+02  0.28073160172E+03  0.42282714135E+03  0.17120000000E+03 0.  0.
        998    1    1    2    0    0 -0.35988791331E+02  0.11467201903E+02  0.21700258117E+03  0.22026534011E+03  0.10000000000E+00 0.  1.
</event>
<event>
 5    1  0.2313627E-009  0.3883001E+03  0.7957747E-01  0.3415796E+00
         13   -1    0    0    0    0  0.00000000000E+00  0.00000000000E+00  0.14999999963E+04  0.15000000000E+04  0.10566000000E+00 0. -1.
        994   -1    0    0    0    0 -0.00000000000E+00 -0.00000000000E+00  0.11368683772E-12  0.17120000000E+03  0.17120000000E+03 0.  0.
         13    1    1    2    0    0 -0.22767552792E+03  0.36854336100E+02  0.12706439092E+04  0.12914063432E+04  0.10566000000E+00 0. -1.
        994    1    1    2    0    0  0.23188176528E+03 -0.37479376105E+02  0.20650386842E+03  0.35654893686E+03  0.17120000000E+03 0.  0.
        998    1    1    2    0    0 -0.42062373583E+01  0.62504000472E+00  0.22852218616E+02  0.23244719904E+02  0.10000000000E+00 0. -1.
</event>
<event>
 5    1  0.2313627E-009  0.3730175E+03  0.7957747E-01  0.3482137E+00
         13   -1    0    0    0    0  0.00000000000E+00  0.00000000000E+00  0.14999999963E+04  0.15000000000E+04  0.10566000000E+00 0. -1.
        994   -1    0    0    0    0 -0.00000000000E+00 -0.00000000000E+00  0.11368683772E-12  0.17120000000E+03  0.17120000000E+03 0.  0.
         13    1    1    2    0    0 -0.19309216335E+03 -0.91447305874E+02  0.86526288123E+03  0.89125027804E+03  0.10566000000E+00 0. -1.
        994    1    1    2    0    0  0.19570649042E+03  0.18494010302E+03  0.32116161660E+03  0.45272297940E+03  0.17120000000E+03 0.  0.
        998    1    1    2    0    0 -0.26143270665E+01 -0.93492797150E+02  0.31357549844E+03  0.32722674256E+03  0.10000000000E+00 0. -1.
</event>
<event>
 5    1  0.2313627E-009  0.3882805E+03  0.7957747E-01  0.3415877E+00
         13   -1    0    0    0    0  0.00000000000E+00  0.00000000000E+00  0.14999999963E+04  0.15000000000E+04  0.10566000000E+00 0.  1.
        994   -1    0    0    0    0 -0.00000000000E+00 -0.00000000000E+00  0.11368683772E-12  0.17120000000E+03  0.17120000000E+03 0.  0.
         13    1    1    2    0    0 -0.22045070327E+03 -0.19085857600E+02  0.13006754159E+04  0.13193632294E+04  0.10566000000E+00 0.  1.
        994    1    1    2    0    0  0.22259240260E+03  0.19668558366E+02  0.18388926947E+03  0.33624237287E+03  0.17120000000E+03 0.  0.
        998    1    1    2    0    0 -0.21416993295E+01 -0.58270076609E+00  0.15435310953E+02  0.15594397726E+02  0.10000000000E+00 0.  1.
</event>
<event>
 5    1  0.2313627E-009  0.3882587E+03  0.7957747E-01  0.3415968E+00
         13   -1    0    0    0    0  0.00000000000E+00  0.00000000000E+00  0.14999999963E+04  0.15000000000E+04  0.10566000000E+00 0. -1.
        994   -1    0    0    0    0 -0.00000000000E+00 -0.00000000000E+00  0.11368683772E-12  0.17120000000E+03  0.17120000000E+03 0.  0.
         13    1    1    2    0    0  0.23364435429E+03  0.10036583984E+03  0.12459567539E+04  0.12716411560E+04  0.10566000000E+00 0. -1.
        994    1    1    2    0    0 -0.23432761916E+03 -0.10072577278E+03  0.25185058740E+03  0.39723201379E+03  0.17120000000E+03 0.  0.
        998    1    1    2    0    0  0.68326486908E+00  0.35993294577E+00  0.21926550168E+01  0.23268301677E+01  0.10000000000E+00 0. -1.
</event>
<event>
 5    1  0.2313627E-009  0.3854421E+03  0.7957747E-01  0.3427799E+00
         13   -1    0    0    0    0  0.00000000000E+00  0.00000000000E+00  0.14999999963E+04  0.15000000000E+04  0.10566000000E+00 0.  1.
        994   -1    0    0    0    0 -0.00000000000E+00 -0.00000000000E+00  0.11368683772E-12  0.17120000000E+03  0.17120000000E+03 0.  0.
         13    1    1    2    0    0 -0.23607963519E+01 -0.21060356437E+03  0.85189053989E+03  0.87754027702E+03  0.10566000000E+00 0.  1.
        994    1    1    2    0    0  0.15533242845E+02  0.26120922461E+03  0.27353989798E+03  0.41545764699E+03  0.17120000000E+03 0.  0.
        998    1    1    2    0    0 -0.13172446494E+02 -0.50605660235E+02  0.37456955841E+03  0.37820207599E+03  0.10000000000E+00 0.  1.
</event>
<event>
 5    1  0.2313627E-009  0.3842581E+03  0.7957747E-01  0.3432825E+00
         13   -1    0    0    0    0  0.00000000000E+00  0.00000000000E+00  0.14999999963E+04  0.15000000000E+04  0.10566000000E+00 0.  1.
        994   -1    0    0    0    0 -0.00000000000E+00 -0.00000000000E+00  0.11368683772E-12  0.17120000000E+03  0.17120000000E+03 0.  0.
         13    1    1    2    0    0  0.81499633858E+02  0.56441905317E+02  0.43831296690E+03  0.44938418654E+03  0.10566000000E+00 0.  1.
        994    1    1    2    0    0 -0.17449241488E+03 -0.92515655534E+02  0.14339910839E+03  0.29812664030E+03  0.17120000000E+03 0.  0.
        998    1    1    2    0    0  0.92992781026E+02  0.36073750217E+02  0.91828792098E+03  0.92368917315E+03  0.10000000000E+00 0.  1.
</event>
<event>
 5    1  0.2313627E-009  0.3883009E+03  0.7957747E-01  0.3415792E+00
         13   -1    0    0    0    0  0.00000000000E+00  0.00000000000E+00  0.14999999963E+04  0.15000000000E+04  0.10566000000E+00 0.  1.
        994   -1    0    0    0    0 -0.00000000000E+00 -0.00000000000E+00  0.11368683772E-12  0.17120000000E+03  0.17120000000E+03 0.  0.
         13    1    1    2    0    0  0.10719796200E+03  0.14811109957E+03  0.10818962925E+04  0.10972364831E+04  0.10566000000E+00 0.  1.
        994    1    1    2    0    0 -0.13047270633E+03 -0.18040522532E+03  0.18231768294E+03  0.33484078296E+03  0.17120000000E+03 0.  0.
        998    1    1    2    0    0  0.23274744323E+02  0.32294125757E+02  0.23578602080E+03  0.23912273394E+03  0.10000000000E+00 0.  0.
</event>
<event>
 5    1  0.2313627E-009  0.3882686E+03  0.7957747E-01  0.3415927E+00
         13   -1    0    0    0    0  0.00000000000E+00  0.00000000000E+00  0.14999999963E+04  0.15000000000E+04  0.10566000000E+00 0.  1.
        994   -1    0    0    0    0 -0.00000000000E+00 -0.00000000000E+00  0.11368683772E-12  0.17120000000E+03  0.17120000000E+03 0.  0.
         13    1    1    2    0    0 -0.56096786220E+01 -0.20302429629E+03  0.11706669865E+04  0.11881546776E+04  0.10566000000E+00 0.  1.
        994    1    1    2    0    0  0.65790532655E+01  0.22521689530E+03  0.18744163297E+03  0.33942560251E+03  0.17120000000E+03 0.  0.
        998    1    1    2    0    0 -0.96937464343E+00 -0.22192599009E+02  0.14189137680E+03  0.14361971992E+03  0.10000000000E+00 0. -1.
</event>
<event>
 5    1  0.2313627E-009  0.3882526E+03  0.7957747E-01  0.3415994E+00
         13   -1    0    0    0    0  0.00000000000E+00  0.00000000000E+00  0.14999999963E+04  0.15000000000E+04  0.10566000000E+00 0.  1.
        994   -1    0    0    0    0 -0.00000000000E+00 -0.00000000000E+00  0.11368683772E-12  0.17120000000E+03  0.17120000000E+03 0.  0.
         13    1    1    2    0    0 -0.11619410022E+03 -0.20037894062E+03  0.11061009619E+04  0.11300938624E+04  0.10566000000E+00 0.  1.
        994    1    1    2    0    0  0.13268008246E+03  0.22380786839E+03  0.26461574090E+03  0.40868679520E+03  0.17120000000E+03 0.  0.
        998    1    1    2    0    0 -0.16485982242E+02 -0.23428927775E+02  0.12928329347E+03  0.13241934238E+03  0.10000000000E+00 0.  1.
</event>
<event>
 5    1  0.2313627E-009  0.3882848E+03  0.7957747E-01  0.3415860E+00
         13   -1    0    0    0    0  0.00000000000E+00  0.00000000000E+00  0.14999999963E+04  0.15000000000E+04  0.10566000000E+00 0. -1.
        994   -1    0    0    0    0 -0.00000000000E+00 -0.00000000000E+00  0.11368683772E-12  0.17120000000E+03  0.17120000000E+03 0.  0.
         13    1    1    2    0    0 -0.18231394042E+03 -0.10672951754E+03  0.12567485429E+04  0.12743808199E+04  0.10566000000E+00 0. -1.
        994    1    1    2    0    0  0.19190755436E+03  0.11108780816E+03  0.18064764009E+03  0.33333469728E+03  0.17120000000E+03 0.  0.
        998    1    1    2    0    0 -0.95936139355E+01 -0.43582906218E+01  0.62603813265E+02  0.63484482835E+02  0.10000000000E+00 0.  1.
</event>
<event>
 5    1  0.2313627E-009  0.3882858E+03  0.7957747E-01  0.3415855E+00
         13   -1    0    0    0    0  0.00000000000E+00  0.00000000000E+00  0.14999999963E+04  0.15000000000E+04  0.10566000000E+00 0. -1.
        994   -1    0    0    0    0 -0.00000000000E+00 -0.00000000000E+00  0.11368683772E-12  0.17120000000E+03  0.17120000000E+03 0.  0.
         13    1    1    2    0    0  0.18889920802E+03  0.16974168976E+03  0.12188720121E+04  0.12450478485E+04  0.10566000000E+00 0. -1.
        994    1    1    2    0    0 -0.19165815560E+03 -0.17286930600E+03  0.25931407696E+03  0.40394291190E+03  0.17120000000E+03 0.  0.
        998    1    1    2    0    0  0.27589475774E+01  0.31276162362E+01  0.21813907223E+02  0.22209239595E+02  0.10000000000E+00 0.  1.
</event>
<event>
 5    1  0.2313627E-009  0.3882910E+03  0.7957747E-01  0.3415833E+00
         13   -1    0    0    0    0  0.00000000000E+00  0.00000000000E+00  0.14999999963E+04  0.15000000000E+04  0.10566000000E+00 0. -1.
        994   -1    0    0    0    0 -0.00000000000E+00 -0.00000000000E+00  0.11368683772E-12  0.17120000000E+03  0.17120000000E+03 0.  0.
         13    1    1    2    0    0  0.16386527280E+03 -0.28143899082E+03  0.71360511110E+03  0.78440550670E+03  0.10566000000E+00 0. -1.
        994    1    1    2    0    0 -0.17541517854E+03  0.30019255797E+03  0.73610853016E+03  0.83189618636E+03  0.17120000000E+03 0.  0.
        998    1    1    2    0    0  0.11549905736E+02 -0.18753567145E+02  0.50286355020E+02  0.54898306935E+02  0.10000000000E+00 0. -1.
</event>
<event>
 5    1  0.2313627E-009  0.3882976E+03  0.7957747E-01  0.3415806E+00
         13   -1    0    0    0    0  0.00000000000E+00  0.00000000000E+00  0.14999999963E+04  0.15000000000E+04  0.10566000000E+00 0. -1.
        994   -1    0    0    0    0 -0.00000000000E+00 -0.00000000000E+00  0.11368683772E-12  0.17120000000E+03  0.17120000000E+03 0.  0.
         13    1    1    2    0    0  0.22952685006E+03 -0.33852628841E+02  0.12213946220E+04  0.12432350579E+04  0.10566000000E+00 0. -1.
        994    1    1    2    0    0 -0.24028962980E+03  0.35150110283E+02  0.22349523458E+03  0.37179859645E+03  0.17120000000E+03 0.  0.
        998    1    1    2    0    0  0.10762779745E+02 -0.12974814419E+01  0.55110139703E+02  0.56166345653E+02  0.10000000000E+00 0. -1.
</event>
<event>
 5    1  0.2313627E-009  0.3882971E+03  0.7957747E-01  0.3415808E+00
         13   -1    0    0    0    0  0.00000000000E+00  0.00000000000E+00  0.14999999963E+04  0.15000000000E+04  0.10566000000E+00 0.  1.
        994   -1    0    0    0    0 -0.00000000000E+00 -0.00000000000E+00  0.11368683772E-12  0.17120000000E+03  0.17120000000E+03 0.  0.
         13    1    1    2    0    0  0.24235006876E+03 -0.16115393665E+02  0.11907117240E+04  0.12152315346E+04  0.10566000000E+00 0.  1.
        994    1    1    2    0    0 -0.25441144732E+03  0.16471258502E+02  0.25150648243E+03  0.39694009320E+03  0.17120000000E+03 0.  0.
        998    1    1    2    0    0  0.12061378551E+02 -0.35586483747E+00  0.57781789805E+02  0.59028372207E+02  0.10000000000E+00 0. -1.
</event>
<event>
 5    1  0.2313627E-009  0.3860335E+03  0.7957747E-01  0.3425301E+00
         13   -1    0    0    0    0  0.00000000000E+00  0.00000000000E+00  0.14999999963E+04  0.15000000000E+04  0.10566000000E+00 0. -1.
        994   -1    0    0    0    0 -0.00000000000E+00 -0.00000000000E+00  0.11368683772E-12  0.17120000000E+03  0.17120000000E+03 0.  0.
         13    1    1    2    0    0  0.79964906998E+01  0.84531456948E+01  0.52634866096E+02  0.53905842250E+02  0.10566000000E+00 0. -1.
        994    1    1    2    0    0  0.24215035699E+02 -0.65947813776E+02  0.17465053489E+02  0.18587616896E+03  0.17120000000E+03 0.  0.
        998    1    1    2    0    0 -0.32211526399E+02  0.57494668081E+02  0.14299000767E+04  0.14314179888E+04  0.10000000000E+00 0. -1.
</event>
<event>
 5    1  0.2313627E-009  0.3883009E+03  0.7957747E-01  0.3415792E+00
         13   -1    0    0    0    0  0.00000000000E+00  0.00000000000E+00  0.14999999963E+04  0.15000000000E+04  0.10566000000E+00 0. -1.
        994   -1    0    0    0    0 -0.00000000000E+00 -0.00000000000E+00  0.11368683772E-12  0.17120000000E+03  0.17120000000E+03 0.  0.
         13    1    1    2    0    0  0.14218262835E+03  0.14172140447E+03  0.80514676386E+03  0.82979646830E+03  0.10566000000E+00 0. -1.
        994    1    1    2    0    0 -0.20403237349E+03 -0.20316728958E+03  0.34509507727E+03  0.48094304168E+03  0.17120000000E+03 0.  0.
        998    1    1    2    0    0  0.61849745137E+02  0.61445885111E+02  0.34975815515E+03  0.36046049001E+03  0.10000000000E+00 0.  0.
</event>
<event>
 5    1  0.2313627E-009  0.3882934E+03  0.7957747E-01  0.3415823E+00
         13   -1    0    0    0    0  0.00000000000E+00  0.00000000000E+00  0.14999999963E+04  0.15000000000E+04  0.10566000000E+00 0.  1.
        994   -1    0    0    0    0 -0.00000000000E+00 -0.00000000000E+00  0.11368683772E-12  0.17120000000E+03  0.17120000000E+03 0.  0.
         13    1    1    2    0    0 -0.87493792291E+02  0.10338554142E+03  0.76354072781E+03  0.77545998482E+03  0.10566000000E+00 0.  1.
        994    1    1    2    0    0  0.14859287511E+03 -0.17412019639E+03  0.19441034002E+03  0.34569134446E+03  0.17120000000E+03 0.  0.
        998    1    1    2    0    0 -0.61099082822E+02  0.70734654976E+02  0.54204892844E+03  0.55004867072E+03  0.10000000000E+00 0.  1.
</event>
<event>
 5    1  0.2313627E-009  0.3882992E+03  0.7957747E-01  0.3415799E+00
         13   -1    0    0    0    0  0.00000000000E+00  0.00000000000E+00  0.14999999963E+04  0.15000000000E+04  0.10566000000E+00 0.  1.
        994   -1    0    0    0    0 -0.00000000000E+00 -0.00000000000E+00  0.11368683772E-12  0.17120000000E+03  0.17120000000E+03 0.  0.
         13    1    1    2    0    0 -0.33719143856E+02 -0.23171331009E+03  0.12857006381E+04  0.13068489510E+04  0.10566000000E+00 0.  1.
        994    1    1    2    0    0  0.33955582661E+02  0.23293338725E+03  0.20755026218E+03  0.35748775619E+03  0.17120000000E+03 0.  0.
        998    1    1    2    0    0 -0.23643880517E+00 -0.12200771636E+01  0.67490960258E+01  0.68632928510E+01  0.10000000000E+00 0. -1.
</event>
<event>
 5    1  0.2313627E-009  0.3882928E+03  0.7957747E-01  0.3415826E+00
         13   -1    0    0    0    0  0.00000000000E+00  0.00000000000E+00  0.14999999963E+04  0.15000000000E+04  0.10566000000E+00 0. -1.
        994   -1    0    0    0    0 -0.00000000000E+00 -0.00000000000E+00  0.11368683772E-12  0.17120000000E+03  0.17120000000E+03 0.  0.
         13    1    1    2    0    0 -0.12292532160E+03  0.27002362327E+03  0.10879172380E+04  0.11276468063E+04  0.10566000000E+00 0. -1.
        994    1    1    2    0    0  0.12485749981E+03 -0.27470919109E+03  0.39496599557E+03  0.52570154326E+03  0.17120000000E+03 0.  0.
        998    1    1    2    0    0 -0.19321782178E+01  0.46855678216E+01  0.17116762677E+02  0.17851650429E+02  0.10000000000E+00 0.  1.
</event>
<event>
 5    1  0.2313627E-009  0.3882951E+03  0.7957747E-01  0.3415817E+00
         13   -1    0    0    0    0  0.00000000000E+00  0.00000000000E+00  0.14999999963E+04  0.15000000000E+04  0.10566000000E+00 0. -1.
        994   -1    0    0    0    0 -0.00000000000E+00 -0.00000000000E+00  0.11368683772E-12  0.17120000000E+03  0.17120000000E+03 0.  0.
         13    1    1    2    0    0  0.29464991118E+03 -0.60591279126E+02  0.10289839943E+04  0.10720531446E+04  0.10566000000E+00 0. -1.
        994    1    1    2    0    0 -0.30491992007E+03  0.62207246739E+02  0.43460959540E+03  0.56128498966E+03  0.17120000000E+03 0.  0.
        998    1    1    2    0    0  0.10270008888E+02 -0.16159676128E+01  0.36406406619E+02  0.37861865733E+02  0.10000000000E+00 0. -1.
</event>
<event>
 5    1  0.2313627E-009  0.3882811E+03  0.7957747E-01  0.3415875E+00
         13   -1    0    0    0    0  0.00000000000E+00  0.00000000000E+00  0.14999999963E+04  0.15000000000E+04  0.10566000000E+00 0. -1.
        994   -1    0    0    0    0 -0.00000000000E+00 -0.00000000000E+00  0.11368683772E-12  0.17120000000E+03  0.17120000000E+03 0.  0.
         13    1    1    2    0    0 -0.15757040384E+03 -0.17891409215E+03  0.12465653762E+04  0.12691587500E+04  0.10566000000E+00 0. -1.
        994    1    1    2    0    0  0.16046063566E+03  0.18340730376E+03  0.22538853995E+03  0.37349068075E+03  0.17120000000E+03 0.  0.
        998    1    1    2    0    0 -0.28902318242E+01 -0.44932116089E+01  0.28046080177E+02  0.28550569239E+02  0.10000000000E+00 0.  0.
</event>
<event>
 5    1  0.2313627E-009  0.3882985E+03  0.7957747E-01  0.3415802E+00
         13   -1    0    0    0    0  0.00000000000E+00  0.00000000000E+00  0.14999999963E+04  0.15000000000E+04  0.10566000000E+00 0. -1.
        994   -1    0    0    0    0 -0.00000000000E+00 -0.00000000000E+00  0.11368683772E-12  0.17120000000E+03  0.17120000000E+03 0.  0.
         13    1    1    2    0    0 -0.18806513187E+03  0.12064303001E+03  0.13070643839E+04  0.13260243396E+04  0.10566000000E+00 0. -1.
        994    1    1    2    0    0  0.18905244357E+03 -0.12136293998E+03  0.18614171717E+03  0.33827203327E+03  0.17120000000E+03 0.  0.
        998    1    1    2    0    0 -0.98731170275E+00  0.71990997580E+00  0.67938952262E+01  0.69036270986E+01  0.10000000000E+00 0.  1.
</event>
<event>
 5    1  0.2313627E-009  0.3881820E+03  0.7957747E-01  0.3416288E+00
         13   -1    0    0    0    0  0.00000000000E+00  0.00000000000E+00  0.14999999963E+04  0.15000000000E+04  0.10566000000E+00 0. -1.
        994   -1    0    0    0    0 -0.00000000000E+00 -0.00000000000E+00  0.11368683772E-12  0.17120000000E+03  0.17120000000E+03 0.  0.
         13    1    1    2    0    0 -0.19153258196E+03 -0.75350219878E+01  0.11186597994E+04  0.11349631115E+04  0.10566000000E+00 0. -1.
        994    1    1    2    0    0  0.22112462233E+03  0.11814806505E+02  0.18021264125E+03  0.33289897014E+03  0.17120000000E+03 0.  0.
        998    1    1    2    0    0 -0.29592040375E+02 -0.42797845173E+01  0.20112755561E+03  0.20333791834E+03  0.10000000000E+00 0. -1.
</event>
<event>
 5    1  0.2313627E-009  0.3882958E+03  0.7957747E-01  0.3415813E+00
         13   -1    0    0    0    0  0.00000000000E+00  0.00000000000E+00  0.14999999963E+04  0.15000000000E+04  0.10566000000E+00 0.  1.
        994   -1    0    0    0    0 -0.00000000000E+00 -0.00000000000E+00  0.11368683772E-12  0.17120000000E+03  0.17120000000E+03 0.  0.
         13    1    1    2    0    0 -0.15077632861E+03  0.16566688989E+03  0.12152368548E+04  0.12357101780E+04  0.10566000000E+00 0.  1.
        994    1    1    2    0    0  0.15955786327E+03 -0.17617229859E+03  0.21235990883E+03  0.36180320811E+03  0.17120000000E+03 0.  0.
        998    1    1    2    0    0 -0.87815346544E+01  0.10505408702E+02  0.72403232665E+02  0.73686613868E+02  0.10000000000E+00 0.  1.
</event>
<event>
 5    1  0.2313627E-009  0.3882953E+03  0.7957747E-01  0.3415816E+00
         13   -1    0    0    0    0  0.00000000000E+00  0.00000000000E+00  0.14999999963E+04  0.15000000000E+04  0.10566000000E+00 0. -1.
        994   -1    0    0    0    0 -0.00000000000E+00 -0.00000000000E+00  0.11368683772E-12  0.17120000000E+03  0.17120000000E+03 0.  0.
         13    1    1    2    0    0 -0.15480038690E+03 -0.80500748075E+00  0.91632992270E+03  0.92931391156E+03  0.10566000000E+00 0. -1.
        994    1    1    2    0    0  0.22215611909E+03 -0.66531573114E+00  0.18141443115E+03  0.33402757330E+03  0.17120000000E+03 0.  0.
        998    1    1    2    0    0 -0.67355732191E+02  0.14703232119E+01  0.40225564242E+03  0.40785851514E+03  0.10000000000E+00 0.  1.
</event>
<event>
 5    1  0.2313627E-009  0.3873341E+03  0.7957747E-01  0.3419833E+00
         13   -1    0    0    0    0  0.00000000000E+00  0.00000000000E+00  0.14999999963E+04  0.15000000000E+04  0.10566000000E+00 0. -1.
        994   -1    0    0    0    0 -0.00000000000E+00 -0.00000000000E+00  0.11368683772E-12  0.17120000000E+03  0.17120000000E+03 0.  0.
         13    1    1    2    0    0 -0.21986856374E+03 -0.14434218531E+03  0.11114742272E+04  0.11421697863E+04  0.10566000000E+00 0. -1.
        994    1    1    2    0    0  0.22921370454E+03  0.14842671093E+03  0.30127854794E+03  0.44118886468E+03  0.17120000000E+03 0.  0.
        998    1    1    2    0    0 -0.93451408080E+01 -0.40845256212E+01  0.87247221157E+02  0.87841349067E+02  0.10000000000E+00 0.  1.
</event>
<event>
 5    1  0.2313627E-009  0.3877644E+03  0.7957747E-01  0.3418032E+00
         13   -1    0    0    0    0  0.00000000000E+00  0.00000000000E+00  0.14999999963E+04  0.15000000000E+04  0.10566000000E+00 0.  1.
        994   -1    0    0    0    0 -0.00000000000E+00 -0.00000000000E+00  0.11368683772E-12  0.17120000000E+03  0.17120000000E+03 0.  0.
         13    1    1    2    0    0  0.18475929359E+03 -0.17889500215E+03  0.11775684588E+04  0.12053243981E+04  0.10566000000E+00 0.  1.
        994    1    1    2    0    0 -0.18668229281E+03  0.18573548399E+03  0.27366266008E+03  0.41659169457E+03  0.17120000000E+03 0.  0.
        998    1    1    2    0    0  0.19229992223E+01 -0.68404818445E+01  0.48768877378E+02  0.49283907298E+02  0.10000000000E+00 0. -1.
</event>
<event>
 5    1  0.2313627E-009  0.3883009E+03  0.7957747E-01  0.3415792E+00
         13   -1    0    0    0    0  0.00000000000E+00  0.00000000000E+00  0.14999999963E+04  0.15000000000E+04  0.10566000000E+00 0. -1.
        994   -1    0    0    0    0 -0.00000000000E+00 -0.00000000000E+00  0.11368683772E-12  0.17120000000E+03  0.17120000000E+03 0.  0.
         13    1    1    2    0    0  0.12859740277E+03 -0.10335304739E+03  0.85181336673E+03  0.86764345633E+03  0.10566000000E+00 0. -1.
        994    1    1    2    0    0 -0.19157413922E+03  0.15414701626E+03  0.23027809984E+03  0.37788807431E+03  0.17120000000E+03 0.  0.
        998    1    1    2    0    0  0.62976736449E+02 -0.50793968869E+02  0.41790852971E+03  0.42566846937E+03  0.10000000000E+00 0.  0.
</event>
<event>
 5    1  0.2313627E-009  0.3877719E+03  0.7957747E-01  0.3418001E+00
         13   -1    0    0    0    0  0.00000000000E+00  0.00000000000E+00  0.14999999963E+04  0.15000000000E+04  0.10566000000E+00 0.  1.
        994   -1    0    0    0    0 -0.00000000000E+00 -0.00000000000E+00  0.11368683772E-12  0.17120000000E+03  0.17120000000E+03 0.  0.
         13    1    1    2    0    0 -0.10627934517E+03  0.17993638953E+03  0.10356445784E+04  0.10565188628E+04  0.10566000000E+00 0.  1.
        994    1    1    2    0    0  0.13973622962E+03 -0.21157343350E+03  0.24901046004E+03  0.39446822539E+03  0.17120000000E+03 0.  0.
        998    1    1    2    0    0 -0.33456884451E+02  0.31637043972E+02  0.21534495779E+03  0.22021291178E+03  0.10000000000E+00 0. -1.
</event>
<event>
 5    1  0.2313627E-009  0.3881636E+03  0.7957747E-01  0.3416365E+00
         13   -1    0    0    0    0  0.00000000000E+00  0.00000000000E+00  0.14999999963E+04  0.15000000000E+04  0.10566000000E+00 0. -1.
        994   -1    0    0    0    0 -0.00000000000E+00 -0.00000000000E+00  0.11368683772E-12  0.17120000000E+03  0.17120000000E+03 0.  0.
         13    1    1    2    0    0  0.77399294578E+02  0.26924516450E+03  0.11235107717E+04  0.11579119460E+04  0.10566000000E+00 0. -1.
        994    1    1    2    0    0 -0.79094580596E+02 -0.27535403997E+03  0.34065549012E+03  0.47689768605E+03  0.17120000000E+03 0.  0.
        998    1    1    2    0    0  0.16952860181E+01  0.61088754776E+01  0.35833734428E+02  0.36390367920E+02  0.10000000000E+00 0.  1.
</event>
<event>
 5    1  0.2313627E-009  0.3882894E+03  0.7957747E-01  0.3415840E+00
         13   -1    0    0    0    0  0.00000000000E+00  0.00000000000E+00  0.14999999963E+04  0.15000000000E+04  0.10566000000E+00 0.  1.
        994   -1    0    0    0    0 -0.00000000000E+00 -0.00000000000E+00  0.11368683772E-12  0.17120000000E+03  0.17120000000E+03 0.  0.
         13    1    1    2    0    0 -0.67229560288E+01 -0.88729779827E+02  0.52559485608E+03  0.53307423110E+03  0.10566000000E+00 0.  1.
        994    1    1    2    0    0  0.16081465123E+02  0.22618871502E+03  0.19021119607E+03  0.34192058644E+03  0.17120000000E+03 0.  0.
        998    1    1    2    0    0 -0.93585090943E+01 -0.13745893519E+03  0.78419394413E+03  0.79620518245E+03  0.10000000000E+00 0.  1.
</event>
<event>
 5    1  0.2313627E-009  0.3882989E+03  0.7957747E-01  0.3415801E+00
         13   -1    0    0    0    0  0.00000000000E+00  0.00000000000E+00  0.14999999963E+04  0.15000000000E+04  0.10566000000E+00 0. -1.
        994   -1    0    0    0    0 -0.00000000000E+00 -0.00000000000E+00  0.11368683772E-12  0.17120000000E+03  0.17120000000E+03 0.  0.
         13    1    1    2    0    0  0.47079100701E+02 -0.17681797740E+03  0.80772849233E+03  0.82819464339E+03  0.10566000000E+00 0. -1.
        994    1    1    2    0    0 -0.70849072885E+02  0.26373132181E+03  0.29933110419E+03  0.43986628783E+03  0.17120000000E+03 0.  0.
        998    1    1    2    0    0  0.23769972184E+02 -0.86913344409E+02  0.39294039975E+03  0.40313906877E+03  0.10000000000E+00 0.  1.
</event>
<event>
 5    1  0.2313627E-009  0.3882989E+03  0.7957747E-01  0.3415801E+00
         13   -1    0    0    0    0  0.00000000000E+00  0.00000000000E+00  0.14999999963E+04  0.15000000000E+04  0.10566000000E+00 0. -1.
        994   -1    0    0    0    0 -0.00000000000E+00 -0.00000000000E+00  0.11368683772E-12  0.17120000000E+03  0.17120000000E+03 0.  0.
         13    1    1    2    0    0  0.35575571411E+02 -0.22806448742E+03  0.12792706332E+04  0.12999278425E+04  0.10566000000E+00 0. -1.
        994    1    1    2    0    0 -0.35865972867E+02  0.23098990958E+03  0.20417070086E+03  0.35445425858E+03  0.17120000000E+03 0.  0.
        998    1    1    2    0    0  0.29040145631E+00 -0.29254221587E+01  0.16558662262E+02  0.16817898910E+02  0.10000000000E+00 0. -1.
</event>
<event>
 5    1  0.2313627E-009  0.3882996E+03  0.7957747E-01  0.3415798E+00
         13   -1    0    0    0    0  0.00000000000E+00  0.00000000000E+00  0.14999999963E+04  0.15000000000E+04  0.10566000000E+00 0. -1.
        994   -1    0    0    0    0 -0.00000000000E+00 -0.00000000000E+00  0.11368683772E-12  0.17120000000E+03  0.17120000000E+03 0.  0.
         13    1    1    2    0    0 -0.24296475046E+03 -0.90041197233E+02  0.11467383675E+04  0.11756479838E+04  0.10566000000E+00 0. -1.
        994    1    1    2    0    0  0.25494084362E+03  0.94321876723E+02  0.29576912749E+03  0.43666951685E+03  0.17120000000E+03 0.  0.
        998    1    1    2    0    0 -0.11976093157E+02 -0.42806794905E+01  0.57492501310E+02  0.58882499362E+02  0.10000000000E+00 0.  0.
</event>
<event>
 5    1  0.2313627E-009  0.3883009E+03  0.7957747E-01  0.3415792E+00
         13   -1    0    0    0    0  0.00000000000E+00  0.00000000000E+00  0.14999999963E+04  0.15000000000E+04  0.10566000000E+00 0. -1.
        994   -1    0    0    0    0 -0.00000000000E+00 -0.00000000000E+00  0.11368683772E-12  0.17120000000E+03  0.17120000000E+03 0.  0.
         13    1    1    2    0    0 -0.10827945666E+03 -0.13864570729E+03  0.93994773620E+03  0.95626817934E+03  0.10566000000E+00 0. -1.
        994    1    1    2    0    0  0.14780127822E+03  0.18913574683E+03  0.21736698071E+03  0.36629959442E+03  0.17120000000E+03 0.  0.
        998    1    1    2    0    0 -0.39521821560E+02 -0.50490039537E+02  0.34268527937E+03  0.34863222623E+03  0.10000000000E+00 0.  0.
</event>
<event>
 5    1  0.2313627E-009  0.3882981E+03  0.7957747E-01  0.3415804E+00
         13   -1    0    0    0    0  0.00000000000E+00  0.00000000000E+00  0.14999999963E+04  0.15000000000E+04  0.10566000000E+00 0.  1.
        994   -1    0    0    0    0 -0.00000000000E+00 -0.00000000000E+00  0.11368683772E-12  0.17120000000E+03  0.17120000000E+03 0.  0.
         13    1    1    2    0    0  0.12735434785E+03  0.14186681612E+03  0.11353146497E+04  0.11512100974E+04  0.10566000000E+00 0.  1.
        994    1    1    2    0    0 -0.14864709004E+03 -0.16434911752E+03  0.18036791260E+03  0.33308949804E+03  0.17120000000E+03 0.  0.
        998    1    1    2    0    0  0.21292742193E+02  0.22482301401E+02  0.18431743403E+03  0.18690040458E+03  0.10000000000E+00 0. -1.
</event>
<event>
 5    1  0.2313627E-009  0.3881618E+03  0.7957747E-01  0.3416372E+00
         13   -1    0    0    0    0  0.00000000000E+00  0.00000000000E+00  0.14999999963E+04  0.15000000000E+04  0.10566000000E+00 0. -1.
        994   -1    0    0    0    0 -0.00000000000E+00 -0.00000000000E+00  0.11368683772E-12  0.17120000000E+03  0.17120000000E+03 0.  0.
         13    1    1    2    0    0  0.10416508038E+02  0.25257829254E+01  0.47360511322E+02  0.48558340333E+02  0.10566000000E+00 0. -1.
        994    1    1    2    0    0 -0.23357499332E+03 -0.15163851973E+02  0.20499362202E+03  0.35513243302E+03  0.17120000000E+03 0.  0.
        998    1    1    2    0    0  0.22315848528E+03  0.12638069047E+02  0.12476458629E+04  0.12675092267E+04  0.10000000000E+00 0. -1.
</event>
<event>
 5    1  0.2313627E-009  0.3872379E+03  0.7957747E-01  0.3420236E+00
         13   -1    0    0    0    0  0.00000000000E+00  0.00000000000E+00  0.14999999963E+04  0.15000000000E+04  0.10566000000E+00 0. -1.
        994   -1    0    0    0    0 -0.00000000000E+00 -0.00000000000E+00  0.11368683772E-12  0.17120000000E+03  0.17120000000E+03 0.  0.
         13    1    1    2    0    0 -0.29335050316E+02 -0.24937490783E+03  0.12282128793E+04  0.12536168784E+04  0.10566000000E+00 0. -1.
        994    1    1    2    0    0  0.34175311187E+02  0.25073848586E+03  0.24869535157E+03  0.39394994362E+03  0.17120000000E+03 0.  0.
        998    1    1    2    0    0 -0.48402608713E+01 -0.13635780368E+01  0.23091765434E+02  0.23633177976E+02  0.10000000000E+00 0. -1.
</event>
<event>
 5    1  0.2313627E-009  0.3882967E+03  0.7957747E-01  0.3415810E+00
         13   -1    0    0    0    0  0.00000000000E+00  0.00000000000E+00  0.14999999963E+04  0.15000000000E+04  0.10566000000E+00 0.  1.
        994   -1    0    0    0    0 -0.00000000000E+00 -0.00000000000E+00  0.11368683772E-12  0.17120000000E+03  0.17120000000E+03 0.  0.
         13    1    1    2    0    0  0.34622479143E+02 -0.21726981878E+03  0.13143273435E+04  0.13326144481E+04  0.10566000000E+00 0.  1.
        994    1    1    2    0    0 -0.34671686457E+02  0.21825436138E+03  0.17923446615E+03  0.33207156753E+03  0.17120000000E+03 0.  0.
        998    1    1    2    0    0  0.49207313892E-01 -0.98454260234E+00  0.64381866625E+01  0.65139844180E+01  0.10000000000E+00 0. -1.
</event>
<event>
 5    1  0.2313627E-009  0.3850770E+03  0.7957747E-01  0.3429346E+00
         13   -1    0    0    0    0  0.00000000000E+00  0.00000000000E+00  0.14999999963E+04  0.15000000000E+04  0.10566000000E+00 0.  1.
        994   -1    0    0    0    0 -0.00000000000E+00 -0.00000000000E+00  0.11368683772E-12  0.17120000000E+03  0.17120000000E+03 0.  0.
         13    1    1    2    0    0  0.14223644402E+02  0.26656061298E+02  0.16893828258E+03  0.17161879894E+03  0.10566000000E+00 0.  1.
        994    1    1    2    0    0 -0.77884979341E+02 -0.45404818907E+02  0.28786852471E+02  0.19561643710E+03  0.17120000000E+03 0.  0.
        998    1    1    2    0    0  0.63661334939E+02  0.18748757609E+02  0.13022748612E+04  0.13039647640E+04  0.10000000000E+00 0.  1.
</event>
<event>
 5    1  0.2313627E-009  0.3882998E+03  0.7957747E-01  0.3415797E+00
         13   -1    0    0    0    0  0.00000000000E+00  0.00000000000E+00  0.14999999963E+04  0.15000000000E+04  0.10566000000E+00 0. -1.
        994   -1    0    0    0    0 -0.00000000000E+00 -0.00000000000E+00  0.11368683772E-12  0.17120000000E+03  0.17120000000E+03 0.  0.
         13    1    1    2    0    0 -0.54501908970E+02  0.22711029401E+03  0.12746941698E+04  0.12959146505E+04  0.10566000000E+00 0. -1.
        994    1    1    2    0    0  0.55217963287E+02 -0.22995775653E+03  0.20984248561E+03  0.35954541024E+03  0.17120000000E+03 0.  0.
        998    1    1    2    0    0 -0.71605431720E+00  0.28474625200E+01  0.15463340909E+02  0.15739939283E+02  0.10000000000E+00 0.  0.
</event>
<event>
 5    1  0.2313627E-009  0.3882980E+03  0.7957747E-01  0.3415804E+00
         13   -1    0    0    0    0  0.00000000000E+00  0.00000000000E+00  0.14999999963E+04  0.15000000000E+04  0.10566000000E+00 0. -1.
        994   -1    0    0    0    0 -0.00000000000E+00 -0.00000000000E+00  0.11368683772E-12  0.17120000000E+03  0.17120000000E+03 0.  0.
         13    1    1    2    0    0 -0.13858217872E+03 -0.13736829073E+03  0.86733182739E+03  0.88901044849E+03  0.10566000000E+00 0. -1.
        994    1    1    2    0    0  0.19344873770E+03  0.18996158519E+03  0.29378158891E+03  0.43488490426E+03  0.17120000000E+03 0.  0.
        998    1    1    2    0    0 -0.54866558977E+02 -0.52593294467E+02  0.33888657998E+03  0.34730464726E+03  0.10000000000E+00 0.  1.
</event>
<event>
 5    1  0.2313627E-009  0.3882996E+03  0.7957747E-01  0.3415798E+00
         13   -1    0    0    0    0  0.00000000000E+00  0.00000000000E+00  0.14999999963E+04  0.15000000000E+04  0.10566000000E+00 0. -1.
        994   -1    0    0    0    0 -0.00000000000E+00 -0.00000000000E+00  0.11368683772E-12  0.17120000000E+03  0.17120000000E+03 0.  0.
         13    1    1    2    0    0  0.17611789672E+03 -0.20836182712E+03  0.11778035610E+04  0.12089885872E+04  0.10566000000E+00 0. -1.
        994    1    1    2    0    0 -0.17832981219E+03  0.21084403246E+03  0.30822364929E+03  0.44784817284E+03  0.17120000000E+03 0.  0.
        998    1    1    2    0    0  0.22119154723E+01 -0.24822053353E+01  0.13972786023E+02  0.14363239977E+02  0.10000000000E+00 0.  0.
</event>
<event>
 5    1  0.2313627E-009  0.3877064E+03  0.7957747E-01  0.3418275E+00
         13   -1    0    0    0    0  0.00000000000E+00  0.00000000000E+00  0.14999999963E+04  0.15000000000E+04  0.10566000000E+00 0.  1.
        994   -1    0    0    0    0 -0.00000000000E+00 -0.00000000000E+00  0.11368683772E-12  0.17120000000E+03  0.17120000000E+03 0.  0.
         13    1    1    2    0    0  0.13230303223E+03 -0.19907957998E+03  0.72668210993E+03  0.76498605971E+03  0.10566000000E+00 0.  1.
        994    1    1    2    0    0 -0.16717450458E+03  0.27317988598E+03  0.48134773343E+03  0.60297565917E+03  0.17120000000E+03 0.  0.
        998    1    1    2    0    0  0.34871472348E+02 -0.74100305997E+02  0.29197015293E+03  0.30323828111E+03  0.10000000000E+00 0. -1.
</event>
<event>
 5    1  0.2313627E-009  0.3882395E+03  0.7957747E-01  0.3416048E+00
         13   -1    0    0    0    0  0.00000000000E+00  0.00000000000E+00  0.14999999963E+04  0.15000000000E+04  0.10566000000E+00 0. -1.
        994   -1    0    0    0    0 -0.00000000000E+00 -0.00000000000E+00  0.11368683772E-12  0.17120000000E+03  0.17120000000E+03 0.  0.
         13    1    1    2    0    0  0.22781304250E+03  0.65605134636E+02  0.12274622435E+04  0.12501465460E+04  0.10566000000E+00 0. -1.
        994    1    1    2    0    0 -0.23675315331E+03 -0.66490539275E+02  0.23042308521E+03  0.37799111843E+03  0.17120000000E+03 0.  0.
        998    1    1    2    0    0  0.89401108085E+01  0.88540463811E+00  0.42114667560E+02  0.43062335588E+02  0.10000000000E+00 0. -1.
</event>
<event>
 5    1  0.2313627E-009  0.3882985E+03  0.7957747E-01  0.3415802E+00
         13   -1    0    0    0    0  0.00000000000E+00  0.00000000000E+00  0.14999999963E+04  0.15000000000E+04  0.10566000000E+00 0.  1.
        994   -1    0    0    0    0 -0.00000000000E+00 -0.00000000000E+00  0.11368683772E-12  0.17120000000E+03  0.17120000000E+03 0.  0.
         13    1    1    2    0    0 -0.19379819297E+03 -0.10294591370E+03  0.11740775563E+04  0.11944093604E+04  0.10566000000E+00 0.  1.
        994    1    1    2    0    0  0.21224700745E+03  0.11234868334E+03  0.21761055620E+03  0.36651713874E+03  0.17120000000E+03 0.  0.
        998    1    1    2    0    0 -0.18448814486E+02 -0.94027696408E+01  0.10831188377E+03  0.11027350089E+03  0.10000000000E+00 0.  1.
</event>
<event>
 5    1  0.2478243E-009  0.3882838E+03  0.7957747E-01  0.3415864E+00
         13   -1    0    0    0    0  0.00000000000E+00  0.00000000000E+00  0.14999999963E+04  0.15000000000E+04  0.10566000000E+00 0.  1.
        994   -1    0    0    0    0 -0.00000000000E+00 -0.00000000000E+00  0.11368683772E-12  0.17120000000E+03  0.17120000000E+03 0.  0.
         13    1    1    2    0    0 -0.51614087077E+02  0.21593115753E+03  0.13165581103E+04  0.13351462645E+04  0.10566000000E+00 0.  1.
        994    1    1    2    0    0  0.51531320525E+02 -0.21619544567E+03  0.18160680377E+03  0.33419518084E+03  0.17120000000E+03 0.  0.
        998    1    1    2    0    0  0.82766552312E-01  0.26428813988E+00  0.18350822606E+01  0.18585546605E+01  0.10000000000E+00 0.  1.
</event>
<event>
 5    1  0.2313627E-009  0.3882983E+03  0.7957747E-01  0.3415803E+00
         13   -1    0    0    0    0  0.00000000000E+00  0.00000000000E+00  0.14999999963E+04  0.15000000000E+04  0.10566000000E+00 0.  1.
        994   -1    0    0    0    0 -0.00000000000E+00 -0.00000000000E+00  0.11368683772E-12  0.17120000000E+03  0.17120000000E+03 0.  0.
         13    1    1    2    0    0  0.19780186122E+03  0.82790967471E+02  0.12016716876E+04  0.12206534220E+04  0.10566000000E+00 0.  1.
        994    1    1    2    0    0 -0.21426162527E+03 -0.89783595664E+02  0.20122396631E+03  0.35180912826E+03  0.17120000000E+03 0.  0.
        998    1    1    2    0    0  0.16459764047E+02  0.69926281927E+01  0.97104342370E+02  0.98737449777E+02  0.10000000000E+00 0.  1.
</event>
<event>
 5    1  0.2313627E-009  0.3881294E+03  0.7957747E-01  0.3416507E+00
         13   -1    0    0    0    0  0.00000000000E+00  0.00000000000E+00  0.14999999963E+04  0.15000000000E+04  0.10566000000E+00 0. -1.
        994   -1    0    0    0    0 -0.00000000000E+00 -0.00000000000E+00  0.11368683772E-12  0.17120000000E+03  0.17120000000E+03 0.  0.
         13    1    1    2    0    0 -0.25049096490E+03 -0.13366203627E+03  0.10951545793E+04  0.11313597249E+04  0.10566000000E+00 0. -1.
        994    1    1    2    0    0  0.26096023818E+03  0.13838647383E+03  0.37140473104E+03  0.50448188896E+03  0.17120000000E+03 0.  0.
        998    1    1    2    0    0 -0.10469273283E+02 -0.47244375536E+01  0.33440685927E+02  0.35358386113E+02  0.10000000000E+00 0.  1.
</event>
<event>
 5    1  0.2313627E-009  0.3883001E+03  0.7957747E-01  0.3415796E+00
         13   -1    0    0    0    0  0.00000000000E+00  0.00000000000E+00  0.14999999963E+04  0.15000000000E+04  0.10566000000E+00 0.  1.
        994   -1    0    0    0    0 -0.00000000000E+00 -0.00000000000E+00  0.11368683772E-12  0.17120000000E+03  0.17120000000E+03 0.  0.
         13    1    1    2    0    0 -0.59307070594E+02 -0.56626333335E+02  0.44795072509E+03  0.45539404204E+03  0.10566000000E+00 0.  1.
        994    1    1    2    0    0  0.17006334389E+03  0.16235405417E+03  0.20697323456E+03  0.35697022238E+03  0.17120000000E+03 0.  0.
        998    1    1    2    0    0 -0.11075627330E+03 -0.10572772084E+03  0.84507603663E+03  0.85883573558E+03  0.10000000000E+00 0.  1.
</event>
<event>
 5    1  0.2313627E-009  0.3883000E+03  0.7957747E-01  0.3415796E+00
         13   -1    0    0    0    0  0.00000000000E+00  0.00000000000E+00  0.14999999963E+04  0.15000000000E+04  0.10566000000E+00 0. -1.
        994   -1    0    0    0    0 -0.00000000000E+00 -0.00000000000E+00  0.11368683772E-12  0.17120000000E+03  0.17120000000E+03 0.  0.
         13    1    1    2    0    0  0.18073070009E+03 -0.18665171919E+03  0.88691820432E+03  0.92418957068E+03  0.10566000000E+00 0. -1.
        994    1    1    2    0    0 -0.21701773253E+03  0.22345154002E+03  0.43590520688E+03  0.56245006565E+03  0.17120000000E+03 0.  0.
        998    1    1    2    0    0  0.36287032437E+02 -0.36799820833E+02  0.17717658508E+03  0.18456036367E+03  0.10000000000E+00 0. -1.
</event>
<event>
 5    1  0.2313627E-009  0.3882843E+03  0.7957747E-01  0.3415861E+00
         13   -1    0    0    0    0  0.00000000000E+00  0.00000000000E+00  0.14999999963E+04  0.15000000000E+04  0.10566000000E+00 0. -1.
        994   -1    0    0    0    0 -0.00000000000E+00 -0.00000000000E+00  0.11368683772E-12  0.17120000000E+03  0.17120000000E+03 0.  0.
         13    1    1    2    0    0  0.27974883150E+03 -0.11619699178E+03  0.10927043945E+04  0.11339153648E+04  0.10566000000E+00 0. -1.
        994    1    1    2    0    0 -0.28079277352E+03  0.11634353806E+03  0.40371154181E+03  0.53354742010E+03  0.17120000000E+03 0.  0.
        998    1    1    2    0    0  0.10439420198E+01 -0.14654627870E+00  0.35840599792E+01  0.37372150978E+01  0.10000000000E+00 0.  1.
</event>
<event>
 5    1  0.2313627E-009  0.3857402E+03  0.7957747E-01  0.3426539E+00
         13   -1    0    0    0    0  0.00000000000E+00  0.00000000000E+00  0.14999999963E+04  0.15000000000E+04  0.10566000000E+00 0. -1.
        994   -1    0    0    0    0 -0.00000000000E+00 -0.00000000000E+00  0.11368683772E-12  0.17120000000E+03  0.17120000000E+03 0.  0.
         13    1    1    2    0    0  0.34321149816E+02 -0.23163713741E+03  0.12754974623E+04  0.12968143630E+04  0.10566000000E+00 0. -1.
        994    1    1    2    0    0 -0.29885424859E+02  0.23195458653E+03  0.20658799260E+03  0.35592710983E+03  0.17120000000E+03 0.  0.
        998    1    1    2    0    0 -0.44357249569E+01 -0.31744912235E+00  0.17914541419E+02  0.18458527137E+02  0.10000000000E+00 0.  1.
</event>
<event>
 5    1  0.2313627E-009  0.3882804E+03  0.7957747E-01  0.3415878E+00
         13   -1    0    0    0    0  0.00000000000E+00  0.00000000000E+00  0.14999999963E+04  0.15000000000E+04  0.10566000000E+00 0. -1.
        994   -1    0    0    0    0 -0.00000000000E+00 -0.00000000000E+00  0.11368683772E-12  0.17120000000E+03  0.17120000000E+03 0.  0.
         13    1    1    2    0    0 -0.96724999376E+02 -0.18340596571E+03  0.10509137649E+04  0.10711737610E+04  0.10566000000E+00 0. -1.
        994    1    1    2    0    0  0.11618636918E+03  0.21846569762E+03  0.23383158874E+03  0.38106847851E+03  0.17120000000E+03 0.  0.
        998    1    1    2    0    0 -0.19461369806E+02 -0.35059731913E+02  0.21525464266E+03  0.21895776054E+03  0.10000000000E+00 0. -1.
</event>
<event>
 5    1  0.2313627E-009  0.3882918E+03  0.7957747E-01  0.3415830E+00
         13   -1    0    0    0    0  0.00000000000E+00  0.00000000000E+00  0.14999999963E+04  0.15000000000E+04  0.10566000000E+00 0.  1.
        994   -1    0    0    0    0 -0.00000000000E+00 -0.00000000000E+00  0.11368683772E-12  0.17120000000E+03  0.17120000000E+03 0.  0.
         13    1    1    2    0    0  0.17158118522E+03  0.13965151918E+03  0.13168257552E+04  0.13352800195E+04  0.10566000000E+00 0.  1.
        994    1    1    2    0    0 -0.17181170421E+03 -0.13993300758E+03  0.18035005425E+03  0.33307069877E+03  0.17120000000E+03 0.  0.
        998    1    1    2    0    0  0.23051898895E+00  0.28148840573E+00  0.28241868568E+01  0.28492816865E+01  0.10000000000E+00 0.  1.
</event>
<event>
 5    1  0.2313627E-009  0.3823174E+03  0.7957747E-01  0.3441130E+00
         13   -1    0    0    0    0  0.00000000000E+00  0.00000000000E+00  0.14999999963E+04  0.15000000000E+04  0.10566000000E+00 0. -1.
        994   -1    0    0    0    0 -0.00000000000E+00 -0.00000000000E+00  0.11368683772E-12  0.17120000000E+03  0.17120000000E+03 0.  0.
         13    1    1    2    0    0 -0.39474499057E+02 -0.58782624508E+02  0.38152229351E+03  0.38803724645E+03  0.10566000000E+00 0. -1.
        994    1    1    2    0    0  0.22628368283E+03  0.88304837481E+02  0.23275691183E+03  0.37747485935E+03  0.17120000000E+03 0.  0.
        998    1    1    2    0    0 -0.18680918378E+03 -0.29522212973E+02  0.88572079094E+03  0.90568789420E+03  0.10000000000E+00 0. -1.
</event>
<event>
 5    1  0.2313627E-009  0.3882980E+03  0.7957747E-01  0.3415804E+00
         13   -1    0    0    0    0  0.00000000000E+00  0.00000000000E+00  0.14999999963E+04  0.15000000000E+04  0.10566000000E+00 0. -1.
        994   -1    0    0    0    0 -0.00000000000E+00 -0.00000000000E+00  0.11368683772E-12  0.17120000000E+03  0.17120000000E+03 0.  0.
         13    1    1    2    0    0  0.23801689249E+03  0.19142278400E+03  0.99022683223E+03  0.10362644034E+04  0.10566000000E+00 0. -1.
        994    1    1    2    0    0 -0.24805598052E+03 -0.19916017547E+03  0.46757106368E+03  0.59087112348E+03  0.17120000000E+03 0.  0.
        998    1    1    2    0    0  0.10039088036E+02  0.77373914681E+01  0.42202100371E+02  0.44064473117E+02  0.10000000000E+00 0.  1.
</event>
<event>
 5    1  0.2313627E-009  0.3882904E+03  0.7957747E-01  0.3415836E+00
         13   -1    0    0    0    0  0.00000000000E+00  0.00000000000E+00  0.14999999963E+04  0.15000000000E+04  0.10566000000E+00 0. -1.
        994   -1    0    0    0    0 -0.00000000000E+00 -0.00000000000E+00  0.11368683772E-12  0.17120000000E+03  0.17120000000E+03 0.  0.
         13    1    1    2    0    0  0.22609584329E+03 -0.10814868440E+03  0.12409238486E+04  0.12659808362E+04  0.10566000000E+00 0. -1.
        994    1    1    2    0    0 -0.22816095521E+03  0.10894044904E+03  0.24643010215E+03  0.39238078211E+03  0.17120000000E+03 0.  0.
        998    1    1    2    0    0  0.20651119228E+01 -0.79176463518E+00  0.12646045503E+02  0.12838381727E+02  0.10000000000E+00 0.  1.
</event>
<event>
 5    1  0.2313627E-009  0.3858085E+03  0.7957747E-01  0.3426251E+00
         13   -1    0    0    0    0  0.00000000000E+00  0.00000000000E+00  0.14999999963E+04  0.15000000000E+04  0.10566000000E+00 0. -1.
        994   -1    0    0    0    0 -0.00000000000E+00 -0.00000000000E+00  0.11368683772E-12  0.17120000000E+03  0.17120000000E+03 0.  0.
         13    1    1    2    0    0 -0.63556942630E+02  0.22578259113E+03  0.12037318813E+04  0.12263717694E+04  0.10566000000E+00 0. -1.
        994    1    1    2    0    0  0.79281489515E+02 -0.23680228986E+03  0.24306648306E+03  0.38826747771E+03  0.17120000000E+03 0.  0.
        998    1    1    2    0    0 -0.15724546885E+02  0.11019698734E+02  0.53201631888E+02  0.56560752917E+02  0.10000000000E+00 0. -1.
</event>
<event>
 5    1  0.2313627E-009  0.3882044E+03  0.7957747E-01  0.3416195E+00
         13   -1    0    0    0    0  0.00000000000E+00  0.00000000000E+00  0.14999999963E+04  0.15000000000E+04  0.10566000000E+00 0. -1.
        994   -1    0    0    0    0 -0.00000000000E+00 -0.00000000000E+00  0.11368683772E-12  0.17120000000E+03  0.17120000000E+03 0.  0.
         13    1    1    2    0    0 -0.26546461101E+03 -0.10303816814E+03  0.11500974064E+04  0.11848258856E+04  0.10566000000E+00 0. -1.
        994    1    1    2    0    0  0.26689857796E+03  0.10331488786E+03  0.33960316453E+03  0.47597118225E+03  0.17120000000E+03 0.  0.
        998    1    1    2    0    0 -0.14339669491E+01 -0.27671972578E+00  0.10299425333E+02  0.10402932145E+02  0.10000000000E+00 0. -1.
</event>
<event>
 5    1  0.2313627E-009  0.3882842E+03  0.7957747E-01  0.3415862E+00
         13   -1    0    0    0    0  0.00000000000E+00  0.00000000000E+00  0.14999999963E+04  0.15000000000E+04  0.10566000000E+00 0. -1.
        994   -1    0    0    0    0 -0.00000000000E+00 -0.00000000000E+00  0.11368683772E-12  0.17120000000E+03  0.17120000000E+03 0.  0.
         13    1    1    2    0    0 -0.24155500006E+03 -0.88067108124E+02  0.11428920494E+04  0.11714550274E+04  0.10566000000E+00 0. -1.
        994    1    1    2    0    0  0.25405093737E+03  0.93327203716E+02  0.29248510293E+03  0.43371513828E+03  0.17120000000E+03 0.  0.
        998    1    1    2    0    0 -0.12495937311E+02 -0.52600955919E+01  0.64622843990E+02  0.66029834319E+02  0.10000000000E+00 0. -1.
</event>
<event>
 5    1  0.2313627E-009  0.3882943E+03  0.7957747E-01  0.3415820E+00
         13   -1    0    0    0    0  0.00000000000E+00  0.00000000000E+00  0.14999999963E+04  0.15000000000E+04  0.10566000000E+00 0. -1.
        994   -1    0    0    0    0 -0.00000000000E+00 -0.00000000000E+00  0.11368683772E-12  0.17120000000E+03  0.17120000000E+03 0.  0.
         13    1    1    2    0    0 -0.22436118811E+03 -0.10819283609E+03  0.12131040520E+04  0.12384123242E+04  0.10566000000E+00 0. -1.
        994    1    1    2    0    0  0.23057914924E+03  0.11155001275E+03  0.25444783865E+03  0.39957889334E+03  0.17120000000E+03 0.  0.
        998    1    1    2    0    0 -0.62179611294E+01 -0.33571766604E+01  0.32448105586E+02  0.33208782451E+02  0.10000000000E+00 0. -1.
</event>
<event>
 5    1  0.2313627E-009  0.3882755E+03  0.7957747E-01  0.3415898E+00
         13   -1    0    0    0    0  0.00000000000E+00  0.00000000000E+00  0.14999999963E+04  0.15000000000E+04  0.10566000000E+00 0.  1.
        994   -1    0    0    0    0 -0.00000000000E+00 -0.00000000000E+00  0.11368683772E-12  0.17120000000E+03  0.17120000000E+03 0.  0.
         13    1    1    2    0    0 -0.16022126689E+03 -0.11502768030E+03  0.11432618022E+04  0.11601507579E+04  0.10566000000E+00 0.  1.
        994    1    1    2    0    0  0.18322259239E+03  0.12998060786E+03  0.18615265709E+03  0.33827167857E+03  0.17120000000E+03 0.  0.
        998    1    1    2    0    0 -0.23001325507E+02 -0.14952927551E+02  0.17058553701E+03  0.17277756352E+03  0.10000000000E+00 0. -1.
</event>
<event>
 5    1  0.2313627E-009  0.3883001E+03  0.7957747E-01  0.3415796E+00
         13   -1    0    0    0    0  0.00000000000E+00  0.00000000000E+00  0.14999999963E+04  0.15000000000E+04  0.10566000000E+00 0. -1.
        994   -1    0    0    0    0 -0.00000000000E+00 -0.00000000000E+00  0.11368683772E-12  0.17120000000E+03  0.17120000000E+03 0.  0.
         13    1    1    2    0    0 -0.11261334732E+03  0.20112228159E+03  0.12516573416E+04  0.12727050130E+04  0.10566000000E+00 0. -1.
        994    1    1    2    0    0  0.11576653350E+03 -0.20706595588E+03  0.21138842465E+03  0.36093310521E+03  0.17120000000E+03 0.  0.
        998    1    1    2    0    0 -0.31531861854E+01  0.59436742822E+01  0.36954230035E+02  0.37561881803E+02  0.10000000000E+00 0.  1.
</event>
<event>
 5    1  0.2313627E-009  0.3882314E+03  0.7957747E-01  0.3416082E+00
         13   -1    0    0    0    0  0.00000000000E+00  0.00000000000E+00  0.14999999963E+04  0.15000000000E+04  0.10566000000E+00 0. -1.
        994   -1    0    0    0    0 -0.00000000000E+00 -0.00000000000E+00  0.11368683772E-12  0.17120000000E+03  0.17120000000E+03 0.  0.
         13    1    1    2    0    0  0.13109071001E+03 -0.35544492526E+01  0.66743248137E+03  0.68019374939E+03  0.10566000000E+00 0. -1.
        994    1    1    2    0    0 -0.24844761378E+03 -0.28343124696E+01  0.23625950614E+03  0.38322610083E+03  0.17120000000E+03 0.  0.
        998    1    1    2    0    0  0.11735690377E+03  0.63887617223E+01  0.59630800877E+03  0.60778014978E+03  0.10000000000E+00 0. -1.
</event>
<event>
 5    1  0.2313627E-009  0.3881456E+03  0.7957747E-01  0.3416440E+00
         13   -1    0    0    0    0  0.00000000000E+00  0.00000000000E+00  0.14999999963E+04  0.15000000000E+04  0.10566000000E+00 0. -1.
        994   -1    0    0    0    0 -0.00000000000E+00 -0.00000000000E+00  0.11368683772E-12  0.17120000000E+03  0.17120000000E+03 0.  0.
         13    1    1    2    0    0  0.11068714431E+03  0.19028132832E+03  0.10124318079E+04  0.10360872573E+04  0.10566000000E+00 0. -1.
        994    1    1    2    0    0 -0.12977738271E+03 -0.22655137297E+03  0.26712890560E+03  0.41089534661E+03  0.17120000000E+03 0.  0.
        998    1    1    2    0    0  0.19090238400E+02  0.36270044641E+02  0.22043928276E+03  0.22421739613E+03  0.10000000000E+00 0.  1.
</event>
<event>
 5    1  0.2313627E-009  0.3871455E+03  0.7957747E-01  0.3420624E+00
         13   -1    0    0    0    0  0.00000000000E+00  0.00000000000E+00  0.14999999963E+04  0.15000000000E+04  0.10566000000E+00 0. -1.
        994   -1    0    0    0    0 -0.00000000000E+00 -0.00000000000E+00  0.11368683772E-12  0.17120000000E+03  0.17120000000E+03 0.  0.
         13    1    1    2    0    0 -0.11580416709E+03 -0.44094584708E+00  0.65338980181E+03  0.66357293783E+03  0.10566000000E+00 0. -1.
        994    1    1    2    0    0  0.20074035831E+03 -0.17111659486E+02  0.14668721825E+03  0.30235092251E+03  0.17120000000E+03 0.  0.
        998    1    1    2    0    0 -0.84936191225E+02  0.17552605333E+02  0.69992297621E+03  0.70527613965E+03  0.10000000000E+00 0.  1.
</event>
<event>
 5    1  0.2313627E-009  0.3882941E+03  0.7957747E-01  0.3415821E+00
         13   -1    0    0    0    0  0.00000000000E+00  0.00000000000E+00  0.14999999963E+04  0.15000000000E+04  0.10566000000E+00 0. -1.
        994   -1    0    0    0    0 -0.00000000000E+00 -0.00000000000E+00  0.11368683772E-12  0.17120000000E+03  0.17120000000E+03 0.  0.
         13    1    1    2    0    0  0.22363820449E+03  0.31767263261E+02  0.12842859323E+04  0.13039990693E+04  0.10566000000E+00 0. -1.
        994    1    1    2    0    0 -0.22686570331E+03 -0.32336830947E+02  0.19491042253E+03  0.34614047840E+03  0.17120000000E+03 0.  0.
        998    1    1    2    0    0  0.32274988204E+01  0.56956768651E+00  0.20803641415E+02  0.21060452325E+02  0.10000000000E+00 0.  1.
</event>
<event>
 5    1  0.2313627E-009  0.3882998E+03  0.7957747E-01  0.3415797E+00
         13   -1    0    0    0    0  0.00000000000E+00  0.00000000000E+00  0.14999999963E+04  0.15000000000E+04  0.10566000000E+00 0.  1.
        994   -1    0    0    0    0 -0.00000000000E+00 -0.00000000000E+00  0.11368683772E-12  0.17120000000E+03  0.17120000000E+03 0.  0.
         13    1    1    2    0    0  0.45499211666E+02 -0.25301565395E+03  0.12313884494E+04  0.12579366533E+04  0.10566000000E+00 0.  1.
        994    1    1    2    0    0 -0.45787484667E+02  0.25459472871E+03  0.26073658330E+03  0.40522583273E+03  0.17120000000E+03 0.  0.
        998    1    1    2    0    0  0.28827300069E+00 -0.15790747565E+01  0.78749636132E+01  0.80375139389E+01  0.10000000000E+00 0.  0.
</event>
<event>
 5    1  0.2313627E-009  0.3883002E+03  0.7957747E-01  0.3415795E+00
         13   -1    0    0    0    0  0.00000000000E+00  0.00000000000E+00  0.14999999963E+04  0.15000000000E+04  0.10566000000E+00 0.  1.
        994   -1    0    0    0    0 -0.00000000000E+00 -0.00000000000E+00  0.11368683772E-12  0.17120000000E+03  0.17120000000E+03 0.  0.
         13    1    1    2    0    0 -0.24372122418E+03 -0.89353765070E+02  0.12192913875E+04  0.12466176757E+04  0.10566000000E+00 0.  1.
        994    1    1    2    0    0  0.24601199732E+03  0.90197243887E+02  0.26926484021E+03  0.41288066049E+03  0.17120000000E+03 0.  0.
        998    1    1    2    0    0 -0.22907731393E+01 -0.84347881669E+00  0.11443768544E+02  0.11701663838E+02  0.10000000000E+00 0.  0.
</event>
<event>
 5    1  0.3465157E-009  0.3882732E+03  0.7957747E-01  0.3415908E+00
         13   -1    0    0    0    0  0.00000000000E+00  0.00000000000E+00  0.14999999963E+04  0.15000000000E+04  0.10566000000E+00 0.  1.
        994   -1    0    0    0    0 -0.00000000000E+00 -0.00000000000E+00  0.11368683772E-12  0.17120000000E+03  0.17120000000E+03 0.  0.
         13    1    1    2    0    0 -0.28082855024E+03 -0.63020277488E+02  0.11547468739E+04  0.11900741926E+04  0.10566000000E+00 0.  1.
        994    1    1    2    0    0  0.28089275990E+03  0.63035312395E+02  0.34497832727E+03  0.48082603866E+03  0.17120000000E+03 0.  0.
        998    1    1    2    0    0 -0.64209658749E-01 -0.15034906502E-01  0.27479510912E+00  0.29976871199E+00  0.10000000000E+00 0.  0.
</event>
<event>
 5    1  0.2313627E-009  0.3882801E+03  0.7957747E-01  0.3415879E+00
         13   -1    0    0    0    0  0.00000000000E+00  0.00000000000E+00  0.14999999963E+04  0.15000000000E+04  0.10566000000E+00 0.  1.
        994   -1    0    0    0    0 -0.00000000000E+00 -0.00000000000E+00  0.11368683772E-12  0.17120000000E+03  0.17120000000E+03 0.  0.
         13    1    1    2    0    0  0.25251243794E+03  0.53636060327E+02  0.11081226841E+04  0.11377940290E+04  0.10566000000E+00 0.  1.
        994    1    1    2    0    0 -0.27119255791E+03 -0.56079474472E+02  0.31058316380E+03  0.44995738972E+03  0.17120000000E+03 0.  0.
        998    1    1    2    0    0  0.18680119974E+02  0.24434141448E+01  0.81294148390E+02  0.83448581279E+02  0.10000000000E+00 0.  1.
</event>
<event>
 5    1  0.2313627E-009  0.3883004E+03  0.7957747E-01  0.3415794E+00
         13   -1    0    0    0    0  0.00000000000E+00  0.00000000000E+00  0.14999999963E+04  0.15000000000E+04  0.10566000000E+00 0.  1.
        994   -1    0    0    0    0 -0.00000000000E+00 -0.00000000000E+00  0.11368683772E-12  0.17120000000E+03  0.17120000000E+03 0.  0.
         13    1    1    2    0    0  0.83782062883E+02 -0.52466033821E+02  0.37253998226E+03  0.38543244325E+03  0.10566000000E+00 0.  1.
        994    1    1    2    0    0 -0.25127333729E+03  0.15828973464E+03  0.37675912245E+03  0.50936313812E+03  0.17120000000E+03 0.  0.
        998    1    1    2    0    0  0.16749127441E+03 -0.10582370082E+03  0.75070089157E+03  0.77640441863E+03  0.10000000000E+00 0.  1.
</event>
<event>
 5    1  0.2313627E-009  0.3882929E+03  0.7957747E-01  0.3415825E+00
         13   -1    0    0    0    0  0.00000000000E+00  0.00000000000E+00  0.14999999963E+04  0.15000000000E+04  0.10566000000E+00 0. -1.
        994   -1    0    0    0    0 -0.00000000000E+00 -0.00000000000E+00  0.11368683772E-12  0.17120000000E+03  0.17120000000E+03 0.  0.
         13    1    1    2    0    0 -0.67126678067E+02  0.24582935113E+03  0.12277285336E+04  0.12538960978E+04  0.10566000000E+00 0. -1.
        994    1    1    2    0    0  0.68232345806E+02 -0.24857146331E+03  0.25846367290E+03  0.40318275706E+03  0.17120000000E+03 0.  0.
        998    1    1    2    0    0 -0.11056677385E+01  0.27421121832E+01  0.13807789810E+02  0.14121145131E+02  0.10000000000E+00 0.  1.
</event>
<event>
 5    1  0.2313627E-009  0.3881766E+03  0.7957747E-01  0.3416311E+00
         13   -1    0    0    0    0  0.00000000000E+00  0.00000000000E+00  0.14999999963E+04  0.15000000000E+04  0.10566000000E+00 0. -1.
        994   -1    0    0    0    0 -0.00000000000E+00 -0.00000000000E+00  0.11368683772E-12  0.17120000000E+03  0.17120000000E+03 0.  0.
         13    1    1    2    0    0  0.31574385280E+03 -0.90321049508E+02  0.92292198896E+03  0.97961067850E+03  0.10566000000E+00 0. -1.
        994    1    1    2    0    0 -0.32010090475E+03  0.92028336383E+02  0.55851276588E+03  0.67244312293E+03  0.17120000000E+03 0.  0.
        998    1    1    2    0    0  0.43570519425E+01 -0.17072868746E+01  0.18565241435E+02  0.19146198569E+02  0.10000000000E+00 0.  1.
</event>
<event>
 5    1  0.2313627E-009  0.3882923E+03  0.7957747E-01  0.3415828E+00
         13   -1    0    0    0    0  0.00000000000E+00  0.00000000000E+00  0.14999999963E+04  0.15000000000E+04  0.10566000000E+00 0. -1.
        994   -1    0    0    0    0 -0.00000000000E+00 -0.00000000000E+00  0.11368683772E-12  0.17120000000E+03  0.17120000000E+03 0.  0.
         13    1    1    2    0    0  0.19520948322E+03 -0.13525526904E+03  0.12025544089E+04  0.12257805055E+04  0.10566000000E+00 0. -1.
        994    1    1    2    0    0 -0.20533159993E+03  0.14131224065E+03  0.23800446075E+03  0.38481915054E+03  0.17120000000E+03 0.  0.
        998    1    1    2    0    0  0.10122116718E+02 -0.60569716189E+01  0.59441126602E+02  0.60600343924E+02  0.10000000000E+00 0.  1.
</event>
<event>
 5    1  0.2313627E-009  0.3868808E+03  0.7957747E-01  0.3421734E+00
         13   -1    0    0    0    0  0.00000000000E+00  0.00000000000E+00  0.14999999963E+04  0.15000000000E+04  0.10566000000E+00 0. -1.
        994   -1    0    0    0    0 -0.00000000000E+00 -0.00000000000E+00  0.11368683772E-12  0.17120000000E+03  0.17120000000E+03 0.  0.
         13    1    1    2    0    0  0.41253544242E+02  0.13742187826E+01  0.14091023907E+03  0.14683136596E+03  0.10566000000E+00 0. -1.
        994    1    1    2    0    0 -0.24086210138E+03 -0.24733021058E+02  0.22402326047E+03  0.37164786484E+03  0.17120000000E+03 0.  0.
        998    1    1    2    0    0  0.19960855713E+03  0.23358802275E+02  0.11350664967E+04  0.11527207692E+04  0.10000000000E+00 0. -1.
</event>
<event>
 5    1  0.2313627E-009  0.3817106E+03  0.7957747E-01  0.3443744E+00
         13   -1    0    0    0    0  0.00000000000E+00  0.00000000000E+00  0.14999999963E+04  0.15000000000E+04  0.10566000000E+00 0.  1.
        994   -1    0    0    0    0 -0.00000000000E+00 -0.00000000000E+00  0.11368683772E-12  0.17120000000E+03  0.17120000000E+03 0.  0.
         13    1    1    2    0    0 -0.11220713820E+03  0.24114531713E+03  0.99601239960E+03  0.10309132927E+04  0.10566000000E+00 0.  1.
        994    1    1    2    0    0  0.92748852551E+02 -0.26716273668E+03  0.34425369150E+03  0.47728222430E+03  0.17120000000E+03 0.  0.
        998    1    1    2    0    0  0.19458285648E+02  0.26017419554E+02  0.15973390518E+03  0.16300448296E+03  0.10000000000E+00 0.  1.
</event>
<event>
 5    1  0.2313627E-009  0.3882586E+03  0.7957747E-01  0.3415968E+00
         13   -1    0    0    0    0  0.00000000000E+00  0.00000000000E+00  0.14999999963E+04  0.15000000000E+04  0.10566000000E+00 0. -1.
        994   -1    0    0    0    0 -0.00000000000E+00 -0.00000000000E+00  0.11368683772E-12  0.17120000000E+03  0.17120000000E+03 0.  0.
         13    1    1    2    0    0  0.16988190093E+03 -0.16709359840E+03  0.12354137380E+04  0.12581841066E+04  0.10566000000E+00 0. -1.
        994    1    1    2    0    0 -0.17366847251E+03  0.17199637226E+03  0.22705283833E+03  0.37497456155E+03  0.17120000000E+03 0.  0.
        998    1    1    2    0    0  0.37865715797E+01 -0.49027738619E+01  0.37533419948E+02  0.38041331849E+02  0.10000000000E+00 0.  1.
</event>
<event>
 5    1  0.2313627E-009  0.3883002E+03  0.7957747E-01  0.3415795E+00
         13   -1    0    0    0    0  0.00000000000E+00  0.00000000000E+00  0.14999999963E+04  0.15000000000E+04  0.10566000000E+00 0. -1.
        994   -1    0    0    0    0 -0.00000000000E+00 -0.00000000000E+00  0.11368683772E-12  0.17120000000E+03  0.17120000000E+03 0.  0.
         13    1    1    2    0    0 -0.78554542304E+02  0.15633840672E+03  0.99185840081E+03  0.10071720866E+04  0.10566000000E+00 0. -1.
        994    1    1    2    0    0  0.10345445338E+03 -0.20585249374E+03  0.19734462004E+03  0.34832802379E+03  0.17120000000E+03 0.  0.
        998    1    1    2    0    0 -0.24899911072E+02  0.49514087018E+02  0.31079697543E+03  0.31569988965E+03  0.10000000000E+00 0. -1.
</event>
<event>
 5    1  0.2313627E-009  0.3870793E+03  0.7957747E-01  0.3420901E+00
         13   -1    0    0    0    0  0.00000000000E+00  0.00000000000E+00  0.14999999963E+04  0.15000000000E+04  0.10566000000E+00 0.  1.
        994   -1    0    0    0    0 -0.00000000000E+00 -0.00000000000E+00  0.11368683772E-12  0.17120000000E+03  0.17120000000E+03 0.  0.
         13    1    1    2    0    0  0.18786398530E+03 -0.17890569438E+03  0.10545576034E+04  0.10859981006E+04  0.10566000000E+00 0.  1.
        994    1    1    2    0    0 -0.21006544034E+03  0.18518620231E+03  0.32262714580E+03  0.46023812744E+03  0.17120000000E+03 0.  0.
        998    1    1    2    0    0  0.22201455037E+02 -0.62805079305E+01  0.12281524711E+03  0.12496377199E+03  0.10000000000E+00 0. -1.
</event>
<event>
 5    1  0.2313627E-009  0.3879973E+03  0.7957747E-01  0.3417059E+00
         13   -1    0    0    0    0  0.00000000000E+00  0.00000000000E+00  0.14999999963E+04  0.15000000000E+04  0.10566000000E+00 0.  1.
        994   -1    0    0    0    0 -0.00000000000E+00 -0.00000000000E+00  0.11368683772E-12  0.17120000000E+03  0.17120000000E+03 0.  0.
         13    1    1    2    0    0 -0.12487397395E+03 -0.25118641332E+03  0.11006105623E+04  0.11357956439E+04  0.10566000000E+00 0.  1.
        994    1    1    2    0    0  0.12580831224E+03  0.26239266498E+03  0.35622333300E+03  0.49079745826E+03  0.17120000000E+03 0.  0.
        998    1    1    2    0    0 -0.93433829186E+00 -0.11206251655E+02  0.43166100969E+02  0.44606897864E+02  0.10000000000E+00 0.  1.
</event>
<event>
 5    1  0.2313627E-009  0.3712827E+03  0.7957747E-01  0.3490016E+00
         13   -1    0    0    0    0  0.00000000000E+00  0.00000000000E+00  0.14999999963E+04  0.15000000000E+04  0.10566000000E+00 0. -1.
        994   -1    0    0    0    0 -0.00000000000E+00 -0.00000000000E+00  0.11368683772E-12  0.17120000000E+03  0.17120000000E+03 0.  0.
         13    1    1    2    0    0 -0.59122135844E+02 -0.29976891937E+02  0.29624850474E+03  0.30357409100E+03  0.10566000000E+00 0. -1.
        994    1    1    2    0    0 -0.39628726851E+02  0.51476962152E+00  0.17154882821E+02  0.17656282447E+03  0.17120000000E+03 0.  0.
        998    1    1    2    0    0  0.98750862695E+02  0.29462122315E+02  0.11865966087E+04  0.11910630845E+04  0.10000000000E+00 0. -1.
</event>
<event>
 5    1  0.2313627E-009  0.3882834E+03  0.7957747E-01  0.3415865E+00
         13   -1    0    0    0    0  0.00000000000E+00  0.00000000000E+00  0.14999999963E+04  0.15000000000E+04  0.10566000000E+00 0.  1.
        994   -1    0    0    0    0 -0.00000000000E+00 -0.00000000000E+00  0.11368683772E-12  0.17120000000E+03  0.17120000000E+03 0.  0.
         13    1    1    2    0    0 -0.18348912506E+03  0.15769869434E+03  0.12323257568E+04  0.12558518700E+04  0.10566000000E+00 0.  1.
        994    1    1    2    0    0  0.18760554044E+03 -0.16225218530E+03  0.23519217096E+03  0.38229099874E+03  0.17120000000E+03 0.  0.
        998    1    1    2    0    0 -0.41164153797E+01  0.45534909612E+01  0.32482068471E+02  0.33057131268E+02  0.10000000000E+00 0. -1.
</event>
<event>
 5    1  0.2313627E-009  0.3882971E+03  0.7957747E-01  0.3415808E+00
         13   -1    0    0    0    0  0.00000000000E+00  0.00000000000E+00  0.14999999963E+04  0.15000000000E+04  0.10566000000E+00 0.  1.
        994   -1    0    0    0    0 -0.00000000000E+00 -0.00000000000E+00  0.11368683772E-12  0.17120000000E+03  0.17120000000E+03 0.  0.
         13    1    1    2    0    0 -0.24102274111E+03 -0.27490455480E+02  0.12701702006E+04  0.12931280047E+04  0.10566000000E+00 0.  1.
        994    1    1    2    0    0  0.24196903600E+03  0.27694541417E+02  0.22504675065E+03  0.37319094574E+03  0.17120000000E+03 0.  0.
        998    1    1    2    0    0 -0.94629488864E+00 -0.20408593761E+00  0.47830450512E+01  0.48810495847E+01  0.10000000000E+00 0.  0.
</event>
<event>
 5    1  0.2313627E-009  0.3882956E+03  0.7957747E-01  0.3415814E+00
         13   -1    0    0    0    0  0.00000000000E+00  0.00000000000E+00  0.14999999963E+04  0.15000000000E+04  0.10566000000E+00 0.  1.
        994   -1    0    0    0    0 -0.00000000000E+00 -0.00000000000E+00  0.11368683772E-12  0.17120000000E+03  0.17120000000E+03 0.  0.
         13    1    1    2    0    0  0.16440597747E+03 -0.16176195045E+03  0.10000064506E+04  0.10262597948E+04  0.10566000000E+00 0.  1.
        994    1    1    2    0    0 -0.19707759448E+03  0.19336966521E+03  0.30809693215E+03  0.44773269399E+03  0.17120000000E+03 0.  0.
        998    1    1    2    0    0  0.32671617006E+02 -0.31607714756E+02  0.19189661353E+03  0.19720751121E+03  0.10000000000E+00 0.  1.
</event>
<event>
 5    1  0.2313627E-009  0.3882997E+03  0.7957747E-01  0.3415797E+00
         13   -1    0    0    0    0  0.00000000000E+00  0.00000000000E+00  0.14999999963E+04  0.15000000000E+04  0.10566000000E+00 0. -1.
        994   -1    0    0    0    0 -0.00000000000E+00 -0.00000000000E+00  0.11368683772E-12  0.17120000000E+03  0.17120000000E+03 0.  0.
         13    1    1    2    0    0 -0.15023443051E+03 -0.88450675976E+02  0.51231053139E+03  0.54116171144E+03  0.10566000000E+00 0. -1.
        994    1    1    2    0    0  0.28336354067E+03  0.16709869232E+03  0.52940382919E+03  0.64637042284E+03  0.17120000000E+03 0.  0.
        998    1    1    2    0    0 -0.13312911016E+03 -0.78648016344E+02  0.45828563570E+03  0.48366786573E+03  0.10000000000E+00 0.  1.
</event>
<event>
 5    1  0.2313627E-009  0.3833093E+03  0.7957747E-01  0.3436874E+00
         13   -1    0    0    0    0  0.00000000000E+00  0.00000000000E+00  0.14999999963E+04  0.15000000000E+04  0.10566000000E+00 0.  1.
        994   -1    0    0    0    0 -0.00000000000E+00 -0.00000000000E+00  0.11368683772E-12  0.17120000000E+03  0.17120000000E+03 0.  0.
         13    1    1    2    0    0  0.13180223565E+02 -0.33036887752E+02  0.13405074733E+03  0.13868946704E+03  0.10566000000E+00 0.  1.
        994    1    1    2    0    0 -0.17579696149E+03  0.77837299634E+02  0.13619385854E+03  0.29124117839E+03  0.17120000000E+03 0.  0.
        998    1    1    2    0    0  0.16261673792E+03 -0.44800411882E+02  0.12297553904E+04  0.12412693546E+04  0.10000000000E+00 0.  1.
</event>
<event>
 5    1  0.2313627E-009  0.3882948E+03  0.7957747E-01  0.3415817E+00
         13   -1    0    0    0    0  0.00000000000E+00  0.00000000000E+00  0.14999999963E+04  0.15000000000E+04  0.10566000000E+00 0.  1.
        994   -1    0    0    0    0 -0.00000000000E+00 -0.00000000000E+00  0.11368683772E-12  0.17120000000E+03  0.17120000000E+03 0.  0.
         13    1    1    2    0    0  0.25371205554E+03 -0.27962101197E+01  0.82619923848E+03  0.86428167789E+03  0.10566000000E+00 0.  1.
        994    1    1    2    0    0 -0.31788787116E+03  0.20766459762E+01  0.46647445809E+03  0.58988547290E+03  0.17120000000E+03 0.  0.
        998    1    1    2    0    0  0.64175815618E+02  0.71956414351E+00  0.20732629971E+03  0.21703284921E+03  0.10000000000E+00 0.  1.
</event>
<event>
 5    1  0.2313627E-009  0.3871134E+03  0.7957747E-01  0.3420758E+00
         13   -1    0    0    0    0  0.00000000000E+00  0.00000000000E+00  0.14999999963E+04  0.15000000000E+04  0.10566000000E+00 0.  1.
        994   -1    0    0    0    0 -0.00000000000E+00 -0.00000000000E+00  0.11368683772E-12  0.17120000000E+03  0.17120000000E+03 0.  0.
         13    1    1    2    0    0 -0.21786573556E+03  0.12224560711E+03  0.11717866436E+04  0.11981207854E+04  0.10566000000E+00 0.  1.
        994    1    1    2    0    0  0.23190673624E+03 -0.13259019891E+03  0.28504912873E+03  0.42652472490E+03  0.17120000000E+03 0.  0.
        998    1    1    2    0    0 -0.14041000684E+02  0.10344591794E+02  0.43164223971E+02  0.46554489693E+02  0.10000000000E+00 0. -1.
</event>
<event>
 5    1  0.2313627E-009  0.3882882E+03  0.7957747E-01  0.3415845E+00
         13   -1    0    0    0    0  0.00000000000E+00  0.00000000000E+00  0.14999999963E+04  0.15000000000E+04  0.10566000000E+00 0. -1.
        994   -1    0    0    0    0 -0.00000000000E+00 -0.00000000000E+00  0.11368683772E-12  0.17120000000E+03  0.17120000000E+03 0.  0.
         13    1    1    2    0    0  0.26449646762E+02 -0.29324863608E+03  0.11202949159E+04  0.11583415110E+04  0.10566000000E+00 0. -1.
        994    1    1    2    0    0 -0.26866224228E+02  0.29492872688E+03  0.37376248684E+03  0.50666812067E+03  0.17120000000E+03 0.  0.
        998    1    1    2    0    0  0.41657746589E+00 -0.16800908006E+01  0.59425935685E+01  0.61903683416E+01  0.10000000000E+00 0. -1.
</event>
<event>
 5    1  0.2313627E-009  0.3868205E+03  0.7957747E-01  0.3421988E+00
         13   -1    0    0    0    0  0.00000000000E+00  0.00000000000E+00  0.14999999963E+04  0.15000000000E+04  0.10566000000E+00 0. -1.
        994   -1    0    0    0    0 -0.00000000000E+00 -0.00000000000E+00  0.11368683772E-12  0.17120000000E+03  0.17120000000E+03 0.  0.
         13    1    1    2    0    0 -0.20378277768E+03  0.97718839986E+01  0.11890554711E+04  0.12064310318E+04  0.10566000000E+00 0. -1.
        994    1    1    2    0    0  0.21792706307E+03  0.20251277614E+01  0.17540278463E+03  0.32798152816E+03  0.17120000000E+03 0.  0.
        998    1    1    2    0    0 -0.14144285395E+02 -0.11797011760E+02  0.13554174059E+03  0.13678743999E+03  0.10000000000E+00 0. -1.
</event>
<event>
 5    1  0.2313627E-009  0.3882902E+03  0.7957747E-01  0.3415837E+00
         13   -1    0    0    0    0  0.00000000000E+00  0.00000000000E+00  0.14999999963E+04  0.15000000000E+04  0.10566000000E+00 0.  1.
        994   -1    0    0    0    0 -0.00000000000E+00 -0.00000000000E+00  0.11368683772E-12  0.17120000000E+03  0.17120000000E+03 0.  0.
         13    1    1    2    0    0  0.56945811300E+02  0.18297084092E+03  0.87399984204E+03  0.89476079993E+03  0.10566000000E+00 0.  1.
        994    1    1    2    0    0 -0.81474250677E+02 -0.25530698819E+03  0.28513043118E+03  0.42711651166E+03  0.17120000000E+03 0.  0.
        998    1    1    2    0    0  0.24528439376E+02  0.72336147268E+02  0.34086972306E+03  0.34932268841E+03  0.10000000000E+00 0.  1.
</event>
<event>
 5    1  0.2313627E-009  0.3882611E+03  0.7957747E-01  0.3415958E+00
         13   -1    0    0    0    0  0.00000000000E+00  0.00000000000E+00  0.14999999963E+04  0.15000000000E+04  0.10566000000E+00 0.  1.
        994   -1    0    0    0    0 -0.00000000000E+00 -0.00000000000E+00  0.11368683772E-12  0.17120000000E+03  0.17120000000E+03 0.  0.
         13    1    1    2    0    0 -0.11898959410E+03 -0.19949906826E+03  0.12960891768E+04  0.13167405087E+04  0.10566000000E+00 0.  1.
        994    1    1    2    0    0  0.11929310516E+03  0.19955823155E+03  0.20164646074E+03  0.35217192938E+03  0.17120000000E+03 0.  0.
        998    1    1    2    0    0 -0.30351106363E+00 -0.59163285626E-01  0.22643587081E+01  0.22875619377E+01  0.10000000000E+00 0.  1.
</event>
<event>
 5    1  0.2313627E-009  0.3869418E+03  0.7957747E-01  0.3421478E+00
         13   -1    0    0    0    0  0.00000000000E+00  0.00000000000E+00  0.14999999963E+04  0.15000000000E+04  0.10566000000E+00 0. -1.
        994   -1    0    0    0    0 -0.00000000000E+00 -0.00000000000E+00  0.11368683772E-12  0.17120000000E+03  0.17120000000E+03 0.  0.
         13    1    1    2    0    0  0.11875996044E+03 -0.13204736694E+03  0.88956741387E+03  0.90712216945E+03  0.10566000000E+00 0. -1.
        994    1    1    2    0    0 -0.17874182828E+03  0.16127842699E+03  0.22089763511E+03  0.36886932292E+03  0.17120000000E+03 0.  0.
        998    1    1    2    0    0  0.59981867844E+02 -0.29231060055E+02  0.38953494729E+03  0.39520850763E+03  0.10000000000E+00 0.  1.
</event>
<event>
 5    1  0.2313627E-009  0.3868785E+03  0.7957747E-01  0.3421744E+00
         13   -1    0    0    0    0  0.00000000000E+00  0.00000000000E+00  0.14999999963E+04  0.15000000000E+04  0.10566000000E+00 0.  1.
        994   -1    0    0    0    0 -0.00000000000E+00 -0.00000000000E+00  0.11368683772E-12  0.17120000000E+03  0.17120000000E+03 0.  0.
         13    1    1    2    0    0 -0.19614120862E+02 -0.14528499237E+02  0.81891261305E+02  0.85451628829E+02  0.10566000000E+00 0.  1.
        994    1    1    2    0    0  0.18340460888E+03  0.11236249614E+03  0.17017102720E+03  0.32331130447E+03  0.17120000000E+03 0.  0.
        998    1    1    2    0    0 -0.16379048802E+03 -0.97833996903E+02  0.12479377078E+04  0.12624370667E+04  0.10000000000E+00 0.  1.
</event>
<event>
 5    1  0.2313627E-009  0.3883000E+03  0.7957747E-01  0.3415796E+00
         13   -1    0    0    0    0  0.00000000000E+00  0.00000000000E+00  0.14999999963E+04  0.15000000000E+04  0.10566000000E+00 0. -1.
        994   -1    0    0    0    0 -0.00000000000E+00 -0.00000000000E+00  0.11368683772E-12  0.17120000000E+03  0.17120000000E+03 0.  0.
         13    1    1    2    0    0 -0.59663176217E+02 -0.14326337826E+03  0.72330391621E+03  0.73976527123E+03  0.10566000000E+00 0. -1.
        994    1    1    2    0    0  0.10094110489E+03  0.24381614817E+03  0.27411408692E+03  0.41723302052E+03  0.17120000000E+03 0.  0.
        998    1    1    2    0    0 -0.41277928669E+02 -0.10055276991E+03  0.50258199315E+03  0.51420170825E+03  0.10000000000E+00 0. -1.
</event>
<event>
 5    1  0.2313627E-009  0.3882574E+03  0.7957747E-01  0.3415974E+00
         13   -1    0    0    0    0  0.00000000000E+00  0.00000000000E+00  0.14999999963E+04  0.15000000000E+04  0.10566000000E+00 0. -1.
        994   -1    0    0    0    0 -0.00000000000E+00 -0.00000000000E+00  0.11368683772E-12  0.17120000000E+03  0.17120000000E+03 0.  0.
         13    1    1    2    0    0  0.14601446170E+03 -0.19604593299E+03  0.12685417144E+04  0.12918793764E+04  0.10566000000E+00 0. -1.
        994    1    1    2    0    0 -0.14647053967E+03  0.19618036413E+03  0.22795432675E+03  0.37578314138E+03  0.17120000000E+03 0.  0.
        998    1    1    2    0    0  0.45607796506E+00 -0.13443113480E+00  0.35039551238E+01  0.35374822049E+01  0.10000000000E+00 0. -1.
</event>
<event>
 5    1  0.2313627E-009  0.3882808E+03  0.7957747E-01  0.3415876E+00
         13   -1    0    0    0    0  0.00000000000E+00  0.00000000000E+00  0.14999999963E+04  0.15000000000E+04  0.10566000000E+00 0.  1.
        994   -1    0    0    0    0 -0.00000000000E+00 -0.00000000000E+00  0.11368683772E-12  0.17120000000E+03  0.17120000000E+03 0.  0.
         13    1    1    2    0    0  0.93069434762E+02  0.19822617427E+03  0.13178044592E+04  0.13358757950E+04  0.10566000000E+00 0.  1.
        994    1    1    2    0    0 -0.93330723410E+02 -0.19874734868E+03  0.17662544625E+03  0.32972279388E+03  0.17120000000E+03 0.  0.
        998    1    1    2    0    0  0.26128864803E+00  0.52117441100E+00  0.55700908804E+01  0.56014111562E+01  0.10000000000E+00 0. -1.
</event>
<event>
 5    1  0.2313627E-009  0.3882741E+03  0.7957747E-01  0.3415904E+00
         13   -1    0    0    0    0  0.00000000000E+00  0.00000000000E+00  0.14999999963E+04  0.15000000000E+04  0.10566000000E+00 0.  1.
        994   -1    0    0    0    0 -0.00000000000E+00 -0.00000000000E+00  0.11368683772E-12  0.17120000000E+03  0.17120000000E+03 0.  0.
         13    1    1    2    0    0 -0.67591683690E+02 -0.25976918500E+03  0.12116620377E+04  0.12410372959E+04  0.10566000000E+00 0.  1.
        994    1    1    2    0    0  0.67800088207E+02  0.25993348014E+03  0.28690807268E+03  0.42870496641E+03  0.17120000000E+03 0.  0.
        998    1    1    2    0    0 -0.20840451637E+00 -0.16429513792E+00  0.14298859363E+01  0.14577376738E+01  0.10000000000E+00 0.  1.
</event>
<event>
 5    1  0.2313627E-009  0.3882974E+03  0.7957747E-01  0.3415807E+00
         13   -1    0    0    0    0  0.00000000000E+00  0.00000000000E+00  0.14999999963E+04  0.15000000000E+04  0.10566000000E+00 0.  1.
        994   -1    0    0    0    0 -0.00000000000E+00 -0.00000000000E+00  0.11368683772E-12  0.17120000000E+03  0.17120000000E+03 0.  0.
         13    1    1    2    0    0  0.14361844649E+03  0.19382168982E+03  0.12715235869E+04  0.12942045235E+04  0.10566000000E+00 0.  1.
        994    1    1    2    0    0 -0.14419530944E+03 -0.19480666817E+03  0.22244087898E+03  0.37085214017E+03  0.17120000000E+03 0.  0.
        998    1    1    2    0    0  0.57686294332E+00  0.98497835042E+00  0.60355304333E+01  0.61433362937E+01  0.10000000000E+00 0.  1.
</event>
<event>
 5    1  0.2313627E-009  0.3882881E+03  0.7957747E-01  0.3415846E+00
         13   -1    0    0    0    0  0.00000000000E+00  0.00000000000E+00  0.14999999963E+04  0.15000000000E+04  0.10566000000E+00 0.  1.
        994   -1    0    0    0    0 -0.00000000000E+00 -0.00000000000E+00  0.11368683772E-12  0.17120000000E+03  0.17120000000E+03 0.  0.
         13    1    1    2    0    0  0.24264907487E+03 -0.29175404165E+02  0.12625714097E+04  0.12860079135E+04  0.10566000000E+00 0.  1.
        994    1    1    2    0    0 -0.24383603543E+03  0.29482473049E+02  0.22967026380E+03  0.37733685013E+03  0.17120000000E+03 0.  0.
        998    1    1    2    0    0  0.11869605606E+01 -0.30706888471E+00  0.77583227526E+01  0.78552363813E+01  0.10000000000E+00 0.  0.
</event>
<event>
 5    1  0.2313627E-009  0.3473729E+03  0.7957747E-01  0.3606815E+00
         13   -1    0    0    0    0  0.00000000000E+00  0.00000000000E+00  0.14999999963E+04  0.15000000000E+04  0.10566000000E+00 0.  1.
        994   -1    0    0    0    0 -0.00000000000E+00 -0.00000000000E+00  0.11368683772E-12  0.17120000000E+03  0.17120000000E+03 0.  0.
         13    1    1    2    0    0 -0.10820355747E+03 -0.18589648069E+03  0.12291539506E+04  0.12478321028E+04  0.10566000000E+00 0.  1.
        994    1    1    2    0    0  0.10297480912E+03  0.19788010162E+03  0.28752848708E+03  0.40217212337E+03  0.17120000000E+03 0.  0.
        998    1    1    2    0    0  0.52287483556E+01 -0.11983620933E+02 -0.16682441356E+02  0.21195773862E+02  0.10000000000E+00 0.  1.
</event>
<event>
 5    1  0.2313627E-009  0.3881285E+03  0.7957747E-01  0.3416511E+00
         13   -1    0    0    0    0  0.00000000000E+00  0.00000000000E+00  0.14999999963E+04  0.15000000000E+04  0.10566000000E+00 0.  1.
        994   -1    0    0    0    0 -0.00000000000E+00 -0.00000000000E+00  0.11368683772E-12  0.17120000000E+03  0.17120000000E+03 0.  0.
         13    1    1    2    0    0  0.20030341846E+03 -0.14971869790E+03  0.11509859069E+04  0.11778394276E+04  0.10566000000E+00 0.  1.
        994    1    1    2    0    0 -0.21541881309E+03  0.15865649958E+03  0.28420588108E+03  0.42621540649E+03  0.17120000000E+03 0.  0.
        998    1    1    2    0    0  0.15115394630E+02 -0.89378016855E+01  0.64808208259E+02  0.67145165958E+02  0.10000000000E+00 0.  1.
</event>
<event>
 5    1  0.2313627E-009  0.3842639E+03  0.7957747E-01  0.3432800E+00
         13   -1    0    0    0    0  0.00000000000E+00  0.00000000000E+00  0.14999999963E+04  0.15000000000E+04  0.10566000000E+00 0.  1.
        994   -1    0    0    0    0 -0.00000000000E+00 -0.00000000000E+00  0.11368683772E-12  0.17120000000E+03  0.17120000000E+03 0.  0.
         13    1    1    2    0    0 -0.26082487424E+00 -0.13265561591E+02  0.58845098153E+02  0.60322465919E+02  0.10566000000E+00 0.  1.
        994    1    1    2    0    0 -0.10094225150E+03 -0.32899289686E+02  0.40082664919E+02  0.20539659546E+03  0.17120000000E+03 0.  0.
        998    1    1    2    0    0  0.10120307637E+03  0.46164851277E+02  0.14010722332E+04  0.14054809386E+04  0.10000000000E+00 0.  1.
</event>
<event>
 5    1  0.2313627E-009  0.3882963E+03  0.7957747E-01  0.3415811E+00
         13   -1    0    0    0    0  0.00000000000E+00  0.00000000000E+00  0.14999999963E+04  0.15000000000E+04  0.10566000000E+00 0.  1.
        994   -1    0    0    0    0 -0.00000000000E+00 -0.00000000000E+00  0.11368683772E-12  0.17120000000E+03  0.17120000000E+03 0.  0.
         13    1    1    2    0    0 -0.10603095332E+03 -0.19243562664E+03  0.10951738914E+04  0.11169959252E+04  0.10566000000E+00 0.  1.
        994    1    1    2    0    0  0.12243821113E+03  0.22070705679E+03  0.24536835506E+03  0.39143044098E+03  0.17120000000E+03 0.  0.
        998    1    1    2    0    0 -0.16407257804E+02 -0.28271430157E+02  0.15945774985E+03  0.16277363380E+03  0.10000000000E+00 0. -1.
</event>
<event>
 5    1  0.2313627E-009  0.3864422E+03  0.7957747E-01  0.3423578E+00
         13   -1    0    0    0    0  0.00000000000E+00  0.00000000000E+00  0.14999999963E+04  0.15000000000E+04  0.10566000000E+00 0. -1.
        994   -1    0    0    0    0 -0.00000000000E+00 -0.00000000000E+00  0.11368683772E-12  0.17120000000E+03  0.17120000000E+03 0.  0.
         13    1    1    2    0    0  0.11114643649E+03 -0.27777027759E+01  0.58644818489E+03  0.59689423745E+03  0.10566000000E+00 0. -1.
        994    1    1    2    0    0 -0.19694450173E+03  0.48315408121E+01  0.14032226877E+03  0.29632795964E+03  0.17120000000E+03 0.  0.
        998    1    1    2    0    0  0.85798065238E+02 -0.20538380362E+01  0.77322954262E+03  0.77797780291E+03  0.10000000000E+00 0.  1.
</event>
<event>
 5    1  0.2313627E-009  0.3875167E+03  0.7957747E-01  0.3419068E+00
         13   -1    0    0    0    0  0.00000000000E+00  0.00000000000E+00  0.14999999963E+04  0.15000000000E+04  0.10566000000E+00 0. -1.
        994   -1    0    0    0    0 -0.00000000000E+00 -0.00000000000E+00  0.11368683772E-12  0.17120000000E+03  0.17120000000E+03 0.  0.
         13    1    1    2    0    0 -0.41200425517E+02 -0.57457284484E+02  0.30606153196E+03  0.31412177116E+03  0.10566000000E+00 0. -1.
        994    1    1    2    0    0  0.11387002288E+03  0.21691999668E+03  0.22944954889E+03  0.37679862335E+03  0.17120000000E+03 0.  0.
        998    1    1    2    0    0 -0.72669597367E+02 -0.15946271220E+03  0.96448891543E+03  0.98027960550E+03  0.10000000000E+00 0. -1.
</event>
<event>
 5    1  0.2313627E-009  0.3863770E+03  0.7957747E-01  0.3423853E+00
         13   -1    0    0    0    0  0.00000000000E+00  0.00000000000E+00  0.14999999963E+04  0.15000000000E+04  0.10566000000E+00 0. -1.
        994   -1    0    0    0    0 -0.00000000000E+00 -0.00000000000E+00  0.11368683772E-12  0.17120000000E+03  0.17120000000E+03 0.  0.
         13    1    1    2    0    0 -0.14821181299E+03  0.17093141939E+03  0.79291219494E+03  0.82455688203E+03  0.10566000000E+00 0. -1.
        994    1    1    2    0    0  0.21436269098E+03 -0.20666652955E+03  0.38520416889E+03  0.51609505854E+03  0.17120000000E+03 0.  0.
        998    1    1    2    0    0 -0.66150877990E+02  0.35735110160E+02  0.32188363245E+03  0.33054805943E+03  0.10000000000E+00 0.  1.
</event>
<event>
 5    1  0.2313627E-009  0.3882999E+03  0.7957747E-01  0.3415796E+00
         13   -1    0    0    0    0  0.00000000000E+00  0.00000000000E+00  0.14999999963E+04  0.15000000000E+04  0.10566000000E+00 0. -1.
        994   -1    0    0    0    0 -0.00000000000E+00 -0.00000000000E+00  0.11368683772E-12  0.17120000000E+03  0.17120000000E+03 0.  0.
         13    1    1    2    0    0  0.15990669997E+03 -0.17581242000E+03  0.12505098337E+04  0.12728923816E+04  0.10566000000E+00 0. -1.
        994    1    1    2    0    0 -0.16317359326E+03  0.17948341596E+03  0.22288097493E+03  0.37124828232E+03  0.17120000000E+03 0.  0.
        998    1    1    2    0    0  0.32668932895E+01 -0.36709959663E+01  0.26609187649E+02  0.27059336106E+02  0.10000000000E+00 0.  0.
</event>
<event>
 5    1  0.2313627E-009  0.3883004E+03  0.7957747E-01  0.3415794E+00
         13   -1    0    0    0    0  0.00000000000E+00  0.00000000000E+00  0.14999999963E+04  0.15000000000E+04  0.10566000000E+00 0. -1.
        994   -1    0    0    0    0 -0.00000000000E+00 -0.00000000000E+00  0.11368683772E-12  0.17120000000E+03  0.17120000000E+03 0.  0.
         13    1    1    2    0    0  0.23158850032E+03  0.74544858347E+02  0.12160729472E+04  0.12401707921E+04  0.10566000000E+00 0. -1.
        994    1    1    2    0    0 -0.23925776574E+03 -0.77099738821E+02  0.24294151926E+03  0.38925399160E+03  0.17120000000E+03 0.  0.
        998    1    1    2    0    0  0.76692654264E+01  0.25548804744E+01  0.40985529774E+02  0.41775216304E+02  0.10000000000E+00 0.  1.
</event>
<event>
 5    1  0.2313627E-009  0.3867780E+03  0.7957747E-01  0.3422166E+00
         13   -1    0    0    0    0  0.00000000000E+00  0.00000000000E+00  0.14999999963E+04  0.15000000000E+04  0.10566000000E+00 0.  1.
        994   -1    0    0    0    0 -0.00000000000E+00 -0.00000000000E+00  0.11368683772E-12  0.17120000000E+03  0.17120000000E+03 0.  0.
         13    1    1    2    0    0  0.25835393071E+02  0.12699363418E+03  0.77390030024E+03  0.78467607109E+03  0.10566000000E+00 0.  1.
        994    1    1    2    0    0 -0.25933174015E+02 -0.18802544549E+03  0.12900418157E+03  0.28631733536E+03  0.17120000000E+03 0.  0.
        998    1    1    2    0    0  0.97780944511E-01  0.61031811310E+02  0.59709551446E+03  0.60020659355E+03  0.10000000000E+00 0.  1.
</event>
<event>
 5    1  0.2313627E-009  0.3882074E+03  0.7957747E-01  0.3416182E+00
         13   -1    0    0    0    0  0.00000000000E+00  0.00000000000E+00  0.14999999963E+04  0.15000000000E+04  0.10566000000E+00 0.  1.
        994   -1    0    0    0    0 -0.00000000000E+00 -0.00000000000E+00  0.11368683772E-12  0.17120000000E+03  0.17120000000E+03 0.  0.
         13    1    1    2    0    0  0.15937058799E+03 -0.24274303013E+03  0.97929353623E+03  0.10214396723E+04  0.10566000000E+00 0.  1.
        994    1    1    2    0    0 -0.17415635142E+03  0.25962244015E+03  0.44141248290E+03  0.56735232989E+03  0.17120000000E+03 0.  0.
        998    1    1    2    0    0  0.14785763428E+02 -0.16879410017E+02  0.79293977150E+02  0.82407997760E+02  0.10000000000E+00 0.  1.
</event>
<event>
 5    1  0.2313627E-009  0.3882701E+03  0.7957747E-01  0.3415920E+00
         13   -1    0    0    0    0  0.00000000000E+00  0.00000000000E+00  0.14999999963E+04  0.15000000000E+04  0.10566000000E+00 0.  1.
        994   -1    0    0    0    0 -0.00000000000E+00 -0.00000000000E+00  0.11368683772E-12  0.17120000000E+03  0.17120000000E+03 0.  0.
         13    1    1    2    0    0  0.21215827066E+03  0.69971896089E+02  0.13129486434E+04  0.13318188126E+04  0.10566000000E+00 0.  1.
        994    1    1    2    0    0 -0.21234618125E+03 -0.70258061952E+02  0.18429624868E+03  0.33660309452E+03  0.17120000000E+03 0.  0.
        998    1    1    2    0    0  0.18791058645E+00  0.28616586352E+00  0.27551041541E+01  0.27780929052E+01  0.10000000000E+00 0. -1.
</event>
<event>
 5    1  0.2313627E-009  0.3881083E+03  0.7957747E-01  0.3416596E+00
         13   -1    0    0    0    0  0.00000000000E+00  0.00000000000E+00  0.14999999963E+04  0.15000000000E+04  0.10566000000E+00 0.  1.
        994   -1    0    0    0    0 -0.00000000000E+00 -0.00000000000E+00  0.11368683772E-12  0.17120000000E+03  0.17120000000E+03 0.  0.
         13    1    1    2    0    0  0.13076038081E+03 -0.82992280813E+02  0.90360396427E+03  0.91678030699E+03  0.10566000000E+00 0.  1.
        994    1    1    2    0    0 -0.18044770113E+03  0.12112359006E+03  0.17274396370E+03  0.32616286408E+03  0.17120000000E+03 0.  0.
        998    1    1    2    0    0  0.49687320318E+02 -0.38131309245E+02  0.42365206830E+03  0.42825682893E+03  0.10000000000E+00 0.  1.
</event>
<event>
 5    1  0.2313627E-009  0.3881480E+03  0.7957747E-01  0.3416430E+00
         13   -1    0    0    0    0  0.00000000000E+00  0.00000000000E+00  0.14999999963E+04  0.15000000000E+04  0.10566000000E+00 0.  1.
        994   -1    0    0    0    0 -0.00000000000E+00 -0.00000000000E+00  0.11368683772E-12  0.17120000000E+03  0.17120000000E+03 0.  0.
         13    1    1    2    0    0 -0.14150583039E+03  0.19280487452E+03  0.12547988046E+04  0.12773870481E+04  0.10566000000E+00 0.  1.
        994    1    1    2    0    0  0.14325279876E+03 -0.19463928774E+03  0.22114090819E+03  0.36961947725E+03  0.17120000000E+03 0.  0.
        998    1    1    2    0    0 -0.17469683631E+01  0.18344132198E+01  0.24060283521E+02  0.24193474605E+02  0.10000000000E+00 0.  1.
</event>
<event>
 5    1  0.2313627E-009  0.3882861E+03  0.7957747E-01  0.3415854E+00
         13   -1    0    0    0    0  0.00000000000E+00  0.00000000000E+00  0.14999999963E+04  0.15000000000E+04  0.10566000000E+00 0. -1.
        994   -1    0    0    0    0 -0.00000000000E+00 -0.00000000000E+00  0.11368683772E-12  0.17120000000E+03  0.17120000000E+03 0.  0.
         13    1    1    2    0    0 -0.24037626281E+03 -0.38794834312E+02  0.11011113633E+04  0.11277109702E+04  0.10566000000E+00 0. -1.
        994    1    1    2    0    0  0.26553346182E+03  0.43815381830E+02  0.28824311913E+03  0.42990852836E+03  0.17120000000E+03 0.  0.
        998    1    1    2    0    0 -0.25157199010E+02 -0.50205475181E+01  0.11064551387E+03  0.11358050140E+03  0.10000000000E+00 0.  1.
</event>
<event>
 5    1  0.2313627E-009  0.3882873E+03  0.7957747E-01  0.3415849E+00
         13   -1    0    0    0    0  0.00000000000E+00  0.00000000000E+00  0.14999999963E+04  0.15000000000E+04  0.10566000000E+00 0.  1.
        994   -1    0    0    0    0 -0.00000000000E+00 -0.00000000000E+00  0.11368683772E-12  0.17120000000E+03  0.17120000000E+03 0.  0.
         13    1    1    2    0    0 -0.30727529425E+02  0.44870474477E+02  0.27240290310E+03  0.27777849687E+03  0.10566000000E+00 0.  1.
        994    1    1    2    0    0  0.13655076326E+03 -0.20387266457E+03  0.22914398551E+03  0.37686414051E+03  0.17120000000E+03 0.  0.
        998    1    1    2    0    0 -0.10582323384E+03  0.15900219010E+03  0.99845310767E+03  0.10165573626E+04  0.10000000000E+00 0.  1.
</event>
<event>
 5    1  0.2313627E-009  0.3882954E+03  0.7957747E-01  0.3415815E+00
         13   -1    0    0    0    0  0.00000000000E+00  0.00000000000E+00  0.14999999963E+04  0.15000000000E+04  0.10566000000E+00 0.  1.
        994   -1    0    0    0    0 -0.00000000000E+00 -0.00000000000E+00  0.11368683772E-12  0.17120000000E+03  0.17120000000E+03 0.  0.
         13    1    1    2    0    0  0.45980607371E+02  0.22738444680E+03  0.12229011928E+04  0.12447109067E+04  0.10566000000E+00 0.  1.
        994    1    1    2    0    0 -0.48221168534E+02 -0.23711955414E+03  0.22157966872E+03  0.37007830745E+03  0.17120000000E+03 0.  0.
        998    1    1    2    0    0  0.22405611635E+01  0.97351073462E+01  0.55519134779E+02  0.56410785812E+02  0.10000000000E+00 0.  1.
</event>
<event>
 5    1  0.2313627E-009  0.3843847E+03  0.7957747E-01  0.3432286E+00
         13   -1    0    0    0    0  0.00000000000E+00  0.00000000000E+00  0.14999999963E+04  0.15000000000E+04  0.10566000000E+00 0. -1.
        994   -1    0    0    0    0 -0.00000000000E+00 -0.00000000000E+00  0.11368683772E-12  0.17120000000E+03  0.17120000000E+03 0.  0.
         13    1    1    2    0    0 -0.21138052667E+02  0.10038374724E+03  0.53292172660E+03  0.54270552957E+03  0.10566000000E+00 0. -1.
        994    1    1    2    0    0  0.19004509217E+02 -0.17193549712E+03  0.10770385557E+03  0.26614384653E+03  0.17120000000E+03 0.  0.
        998    1    1    2    0    0  0.21335434494E+01  0.71551749876E+02  0.85937441410E+03  0.86235062390E+03  0.10000000000E+00 0. -1.
</event>
<event>
 5    1  0.2313627E-009  0.3874927E+03  0.7957747E-01  0.3419169E+00
         13   -1    0    0    0    0  0.00000000000E+00  0.00000000000E+00  0.14999999963E+04  0.15000000000E+04  0.10566000000E+00 0. -1.
        994   -1    0    0    0    0 -0.00000000000E+00 -0.00000000000E+00  0.11368683772E-12  0.17120000000E+03  0.17120000000E+03 0.  0.
         13    1    1    2    0    0  0.11321036137E+03 -0.17121366499E+03  0.11991159493E+04  0.12165565240E+04  0.10566000000E+00 0. -1.
        994    1    1    2    0    0 -0.11372888985E+03  0.18838741118E+03  0.17848516215E+03  0.33104451391E+03  0.17120000000E+03 0.  0.
        998    1    1    2    0    0  0.51852847991E+00 -0.17173746193E+02  0.12239888482E+03  0.12359896212E+03  0.10000000000E+00 0. -1.
</event>
<event>
 5    1  0.2313627E-009  0.3882957E+03  0.7957747E-01  0.3415814E+00
         13   -1    0    0    0    0  0.00000000000E+00  0.00000000000E+00  0.14999999963E+04  0.15000000000E+04  0.10566000000E+00 0. -1.
        994   -1    0    0    0    0 -0.00000000000E+00 -0.00000000000E+00  0.11368683772E-12  0.17120000000E+03  0.17120000000E+03 0.  0.
         13    1    1    2    0    0  0.42623715490E+02 -0.15555936359E+02  0.17849191693E+03  0.18416879174E+03  0.10566000000E+00 0. -1.
        994    1    1    2    0    0 -0.27673916008E+03  0.10061526636E+03  0.36763443010E+03  0.50117113718E+03  0.17120000000E+03 0.  0.
        998    1    1    2    0    0  0.23411544459E+03 -0.85059329996E+02  0.95387364925E+03  0.98586007108E+03  0.10000000000E+00 0. -1.
</event>
<event>
 5    1  0.2313627E-009  0.3882951E+03  0.7957747E-01  0.3415817E+00
         13   -1    0    0    0    0  0.00000000000E+00  0.00000000000E+00  0.14999999963E+04  0.15000000000E+04  0.10566000000E+00 0. -1.
        994   -1    0    0    0    0 -0.00000000000E+00 -0.00000000000E+00  0.11368683772E-12  0.17120000000E+03  0.17120000000E+03 0.  0.
         13    1    1    2    0    0  0.21404143258E+03 -0.80360705453E+02  0.81069224017E+03  0.84231436962E+03  0.10566000000E+00 0. -1.
        994    1    1    2    0    0 -0.28674873385E+03  0.10629379636E+03  0.41135352928E+03  0.54041130037E+03  0.17120000000E+03 0.  0.
        998    1    1    2    0    0  0.72707301270E+02 -0.25933090910E+02  0.27795422683E+03  0.28847433001E+03  0.10000000000E+00 0. -1.
</event>
<event>
 5    1  0.2313627E-009  0.3882952E+03  0.7957747E-01  0.3415816E+00
         13   -1    0    0    0    0  0.00000000000E+00  0.00000000000E+00  0.14999999963E+04  0.15000000000E+04  0.10566000000E+00 0. -1.
        994   -1    0    0    0    0 -0.00000000000E+00 -0.00000000000E+00  0.11368683772E-12  0.17120000000E+03  0.17120000000E+03 0.  0.
         13    1    1    2    0    0  0.18504397849E+03 -0.10200746669E+03  0.11607471920E+04  0.11798223816E+04  0.10566000000E+00 0. -1.
        994    1    1    2    0    0 -0.20556545896E+03  0.11443707189E+03  0.20730025451E+03  0.35726158044E+03  0.17120000000E+03 0.  0.
        998    1    1    2    0    0  0.20521480466E+02 -0.12429605201E+02  0.13195254975E+03  0.13411603793E+03  0.10000000000E+00 0.  1.
</event>
<event>
 5    1  0.2313627E-009  0.3882846E+03  0.7957747E-01  0.3415860E+00
         13   -1    0    0    0    0  0.00000000000E+00  0.00000000000E+00  0.14999999963E+04  0.15000000000E+04  0.10566000000E+00 0.  1.
        994   -1    0    0    0    0 -0.00000000000E+00 -0.00000000000E+00  0.11368683772E-12  0.17120000000E+03  0.17120000000E+03 0.  0.
         13    1    1    2    0    0 -0.23281726051E+03 -0.55832293596E+02  0.11638384860E+04  0.11882092217E+04  0.10566000000E+00 0.  1.
        994    1    1    2    0    0  0.24956593841E+03  0.58532930999E+02  0.25494008479E+03  0.40001643523E+03  0.17120000000E+03 0.  0.
        998    1    1    2    0    0 -0.16748677905E+02 -0.27006374029E+01  0.81221425494E+02  0.82974343102E+02  0.10000000000E+00 0. -1.
</event>
<event>
 5    1  0.2313627E-009  0.3882976E+03  0.7957747E-01  0.3415806E+00
         13   -1    0    0    0    0  0.00000000000E+00  0.00000000000E+00  0.14999999963E+04  0.15000000000E+04  0.10566000000E+00 0. -1.
        994   -1    0    0    0    0 -0.00000000000E+00 -0.00000000000E+00  0.11368683772E-12  0.17120000000E+03  0.17120000000E+03 0.  0.
         13    1    1    2    0    0  0.84005160457E+01 -0.61119784751E+02  0.33792165226E+03  0.34350727938E+03  0.10566000000E+00 0. -1.
        994    1    1    2    0    0 -0.35786424237E+02  0.23371935652E+03  0.20973840725E+03  0.35945103318E+03  0.17120000000E+03 0.  0.
        998    1    1    2    0    0  0.27385908191E+02 -0.17259957177E+03  0.95233993677E+03  0.96824168745E+03  0.10000000000E+00 0. -1.
</event>
<event>
 5    1  0.2313627E-009  0.3787146E+03  0.7957747E-01  0.3456775E+00
         13   -1    0    0    0    0  0.00000000000E+00  0.00000000000E+00  0.14999999963E+04  0.15000000000E+04  0.10566000000E+00 0.  1.
        994   -1    0    0    0    0 -0.00000000000E+00 -0.00000000000E+00  0.11368683772E-12  0.17120000000E+03  0.17120000000E+03 0.  0.
         13    1    1    2    0    0 -0.11865319657E+03 -0.84289348930E+02  0.76374329707E+03  0.77748769147E+03  0.10566000000E+00 0.  1.
        994    1    1    2    0    0  0.10777061885E+03  0.17195386668E+03  0.15844606095E+03  0.30918802174E+03  0.17120000000E+03 0.  0.
        998    1    1    2    0    0  0.10882577712E+02 -0.87664517753E+02  0.57781063825E+03  0.58452428679E+03  0.10000000000E+00 0. -1.
</event>
<event>
 5    1  0.2313627E-009  0.3873308E+03  0.7957747E-01  0.3419847E+00
         13   -1    0    0    0    0  0.00000000000E+00  0.00000000000E+00  0.14999999963E+04  0.15000000000E+04  0.10566000000E+00 0. -1.
        994   -1    0    0    0    0 -0.00000000000E+00 -0.00000000000E+00  0.11368683772E-12  0.17120000000E+03  0.17120000000E+03 0.  0.
         13    1    1    2    0    0  0.11149450551E+03 -0.12138253779E+03  0.97775029351E+03  0.99154444825E+03  0.10566000000E+00 0. -1.
        994    1    1    2    0    0 -0.15604236841E+03  0.14322284594E+03  0.16384075665E+03  0.31782894437E+03  0.17120000000E+03 0.  0.
        998    1    1    2    0    0  0.44547862900E+02 -0.21840308150E+02  0.35840894612E+03  0.36182660738E+03  0.10000000000E+00 0. -1.
</event>
<event>
 5    1  0.2313627E-009  0.3881022E+03  0.7957747E-01  0.3416621E+00
         13   -1    0    0    0    0  0.00000000000E+00  0.00000000000E+00  0.14999999963E+04  0.15000000000E+04  0.10566000000E+00 0. -1.
        994   -1    0    0    0    0 -0.00000000000E+00 -0.00000000000E+00  0.11368683772E-12  0.17120000000E+03  0.17120000000E+03 0.  0.
         13    1    1    2    0    0 -0.13040619618E+03  0.10490748410E+02  0.71372713010E+03  0.72561853560E+03  0.10566000000E+00 0. -1.
        994    1    1    2    0    0  0.22832300241E+03 -0.73870643528E+01  0.19374818041E+03  0.34501269478E+03  0.17120000000E+03 0.  0.
        998    1    1    2    0    0 -0.97916806222E+02 -0.31036840573E+01  0.59252468577E+03  0.60056876962E+03  0.10000000000E+00 0.  1.
</event>
<event>
 5    1  0.2313627E-009  0.3882985E+03  0.7957747E-01  0.3415802E+00
         13   -1    0    0    0    0  0.00000000000E+00  0.00000000000E+00  0.14999999963E+04  0.15000000000E+04  0.10566000000E+00 0. -1.
        994   -1    0    0    0    0 -0.00000000000E+00 -0.00000000000E+00  0.11368683772E-12  0.17120000000E+03  0.17120000000E+03 0.  0.
         13    1    1    2    0    0  0.19275673981E+02 -0.22529777994E+03  0.12634927956E+04  0.12835671767E+04  0.10566000000E+00 0. -1.
        994    1    1    2    0    0 -0.19941315450E+02  0.23134680768E+03  0.20100489123E+03  0.35161258194E+03  0.17120000000E+03 0.  0.
        998    1    1    2    0    0  0.66564146876E+00 -0.60490277400E+01  0.35502309420E+02  0.36020241383E+02  0.10000000000E+00 0.  0.
</event>
<event>
 5    1  0.2313627E-009  0.3881265E+03  0.7957747E-01  0.3416520E+00
         13   -1    0    0    0    0  0.00000000000E+00  0.00000000000E+00  0.14999999963E+04  0.15000000000E+04  0.10566000000E+00 0. -1.
        994   -1    0    0    0    0 -0.00000000000E+00 -0.00000000000E+00  0.11368683772E-12  0.17120000000E+03  0.17120000000E+03 0.  0.
         13    1    1    2    0    0  0.44167828618E+02 -0.68054846177E+01  0.19030036365E+03  0.19547723979E+03  0.10566000000E+00 0. -1.
        994    1    1    2    0    0 -0.28249379024E+03  0.72632459956E+02  0.35827131087E+03  0.49269258971E+03  0.17120000000E+03 0.  0.
        998    1    1    2    0    0  0.23832596163E+03 -0.65826975338E+02  0.95142832176E+03  0.98303017050E+03  0.10000000000E+00 0. -1.
</event>
<event>
 5    1  0.2313627E-009  0.3882492E+03  0.7957747E-01  0.3416008E+00
         13   -1    0    0    0    0  0.00000000000E+00  0.00000000000E+00  0.14999999963E+04  0.15000000000E+04  0.10566000000E+00 0.  1.
        994   -1    0    0    0    0 -0.00000000000E+00 -0.00000000000E+00  0.11368683772E-12  0.17120000000E+03  0.17120000000E+03 0.  0.
         13    1    1    2    0    0 -0.19165047775E+02 -0.21455416717E+03  0.12388661358E+04  0.12574538175E+04  0.10566000000E+00 0.  1.
        994    1    1    2    0    0  0.18182819020E+02  0.22648460274E+03  0.19114642889E+03  0.34274230475E+03  0.17120000000E+03 0.  0.
        998    1    1    2    0    0  0.98222875484E+00 -0.11930435573E+02  0.69987431621E+02  0.71003877720E+02  0.10000000000E+00 0. -1.
</event>
<event>
 5    1  0.2313627E-009  0.3882978E+03  0.7957747E-01  0.3415805E+00
         13   -1    0    0    0    0  0.00000000000E+00  0.00000000000E+00  0.14999999963E+04  0.15000000000E+04  0.10566000000E+00 0.  1.
        994   -1    0    0    0    0 -0.00000000000E+00 -0.00000000000E+00  0.11368683772E-12  0.17120000000E+03  0.17120000000E+03 0.  0.
         13    1    1    2    0    0  0.11557063157E+03 -0.13990903895E+03  0.55656289081E+03  0.58540018163E+03  0.10566000000E+00 0.  1.
        994    1    1    2    0    0 -0.20541665162E+03  0.25103967434E+03  0.50136439845E+03  0.62120255866E+03  0.17120000000E+03 0.  0.
        998    1    1    2    0    0  0.89846020044E+02 -0.11113063539E+03  0.44207270702E+03  0.46459725971E+03  0.10000000000E+00 0.  1.
</event>
<event>
 5    1  0.2313627E-009  0.3882984E+03  0.7957747E-01  0.3415802E+00
         13   -1    0    0    0    0  0.00000000000E+00  0.00000000000E+00  0.14999999963E+04  0.15000000000E+04  0.10566000000E+00 0.  1.
        994   -1    0    0    0    0 -0.00000000000E+00 -0.00000000000E+00  0.11368683772E-12  0.17120000000E+03  0.17120000000E+03 0.  0.
         13    1    1    2    0    0 -0.32080010279E+02  0.24976810779E+03  0.12504703383E+04  0.12755741111E+04  0.10566000000E+00 0.  1.
        994    1    1    2    0    0  0.32160758915E+02 -0.25049309276E+03  0.24573491846E+03  0.39176037840E+03  0.17120000000E+03 0.  0.
        998    1    1    2    0    0 -0.80748636048E-01  0.72498497169E+00  0.37947395174E+01  0.38655105169E+01  0.10000000000E+00 0.  0.
</event>
<event>
 5    1  0.2313627E-009  0.3883006E+03  0.7957747E-01  0.3415794E+00
         13   -1    0    0    0    0  0.00000000000E+00  0.00000000000E+00  0.14999999963E+04  0.15000000000E+04  0.10566000000E+00 0.  1.
        994   -1    0    0    0    0 -0.00000000000E+00 -0.00000000000E+00  0.11368683772E-12  0.17120000000E+03  0.17120000000E+03 0.  0.
         13    1    1    2    0    0 -0.11109487160E+03  0.19759832324E+03  0.11251823084E+04  0.11477902274E+04  0.10566000000E+00 0.  1.
        994    1    1    2    0    0  0.12378437018E+03 -0.22005975070E+03  0.24557923584E+03  0.39162158426E+03  0.17120000000E+03 0.  0.
        998    1    1    2    0    0 -0.12689498580E+02  0.22461427461E+02  0.12923845200E+03  0.13178818830E+03  0.10000000000E+00 0.  1.
</event>
<event>
 5    1  0.2313627E-009  0.3882637E+03  0.7957747E-01  0.3415947E+00
         13   -1    0    0    0    0  0.00000000000E+00  0.00000000000E+00  0.14999999963E+04  0.15000000000E+04  0.10566000000E+00 0. -1.
        994   -1    0    0    0    0 -0.00000000000E+00 -0.00000000000E+00  0.11368683772E-12  0.17120000000E+03  0.17120000000E+03 0.  0.
         13    1    1    2    0    0  0.23055956498E+03 -0.21780343607E+02  0.12817876611E+04  0.13025404852E+04  0.10566000000E+00 0. -1.
        994    1    1    2    0    0 -0.23246727595E+03  0.21683455979E+02  0.20364228302E+03  0.35396444183E+03  0.17120000000E+03 0.  0.
        998    1    1    2    0    0  0.19077109674E+01  0.96887627351E-01  0.14570052166E+02  0.14695072931E+02  0.10000000000E+00 0.  1.
</event>
<event>
 5    1  0.2313627E-009  0.3882822E+03  0.7957747E-01  0.3415870E+00
         13   -1    0    0    0    0  0.00000000000E+00  0.00000000000E+00  0.14999999963E+04  0.15000000000E+04  0.10566000000E+00 0.  1.
        994   -1    0    0    0    0 -0.00000000000E+00 -0.00000000000E+00  0.11368683772E-12  0.17120000000E+03  0.17120000000E+03 0.  0.
         13    1    1    2    0    0 -0.22677880377E+03 -0.16600058441E+03  0.11285694933E+04  0.11630365137E+04  0.10566000000E+00 0.  1.
        994    1    1    2    0    0  0.23195495218E+03  0.16951674033E+03  0.34302534936E+03  0.47907708711E+03  0.17120000000E+03 0.  0.
        998    1    1    2    0    0 -0.51761484130E+01 -0.35161559141E+01  0.28405153637E+02  0.29086399192E+02  0.10000000000E+00 0.  1.
</event>
<event>
 5    1  0.2313627E-009  0.3882992E+03  0.7957747E-01  0.3415799E+00
         13   -1    0    0    0    0  0.00000000000E+00  0.00000000000E+00  0.14999999963E+04  0.15000000000E+04  0.10566000000E+00 0.  1.
        994   -1    0    0    0    0 -0.00000000000E+00 -0.00000000000E+00  0.11368683772E-12  0.17120000000E+03  0.17120000000E+03 0.  0.
         13    1    1    2    0    0  0.14882315466E+03 -0.14976298377E+03  0.12745031823E+04  0.12918729255E+04  0.10566000000E+00 0.  1.
        994    1    1    2    0    0 -0.15485457925E+03  0.15546906520E+03  0.17634929447E+03  0.32948305664E+03  0.17120000000E+03 0.  0.
        998    1    1    2    0    0  0.60314245874E+01 -0.57060814312E+01  0.49147519487E+02  0.49844017891E+02  0.10000000000E+00 0.  1.
</event>
<event>
 5    1  0.2313627E-009  0.3878118E+03  0.7957747E-01  0.3417834E+00
         13   -1    0    0    0    0  0.00000000000E+00  0.00000000000E+00  0.14999999963E+04  0.15000000000E+04  0.10566000000E+00 0.  1.
        994   -1    0    0    0    0 -0.00000000000E+00 -0.00000000000E+00  0.11368683772E-12  0.17120000000E+03  0.17120000000E+03 0.  0.
         13    1    1    2    0    0 -0.14625701778E+03 -0.10415189527E+02  0.75096432160E+03  0.76514509402E+03  0.10566000000E+00 0.  1.
        994    1    1    2    0    0  0.23164011748E+03  0.28125593929E+02  0.20398473823E+03  0.35407260059E+03  0.17120000000E+03 0.  0.
        998    1    1    2    0    0 -0.85383099701E+02 -0.17710404401E+02  0.54505093645E+03  0.55198230539E+03  0.10000000000E+00 0.  1.
</event>
<event>
 5    1  0.2313627E-009  0.3882914E+03  0.7957747E-01  0.3415832E+00
         13   -1    0    0    0    0  0.00000000000E+00  0.00000000000E+00  0.14999999963E+04  0.15000000000E+04  0.10566000000E+00 0. -1.
        994   -1    0    0    0    0 -0.00000000000E+00 -0.00000000000E+00  0.11368683772E-12  0.17120000000E+03  0.17120000000E+03 0.  0.
         13    1    1    2    0    0  0.97811318036E+02 -0.20122449203E+03  0.11601000060E+04  0.11814780511E+04  0.10566000000E+00 0. -1.
        994    1    1    2    0    0 -0.10631511294E+03  0.22122207073E+03  0.22928404269E+03  0.37699167106E+03  0.17120000000E+03 0.  0.
        998    1    1    2    0    0  0.85037949076E+01 -0.19997578696E+02  0.11061594761E+03  0.11273027786E+03  0.10000000000E+00 0.  1.
</event>
<event>
 5    1  0.2313627E-009  0.3872308E+03  0.7957747E-01  0.3420266E+00
         13   -1    0    0    0    0  0.00000000000E+00  0.00000000000E+00  0.14999999963E+04  0.15000000000E+04  0.10566000000E+00 0.  1.
        994   -1    0    0    0    0 -0.00000000000E+00 -0.00000000000E+00  0.11368683772E-12  0.17120000000E+03  0.17120000000E+03 0.  0.
         13    1    1    2    0    0  0.22911364510E+03  0.14585019046E+03  0.99165659342E+03  0.10281771009E+04  0.10566000000E+00 0.  1.
        994    1    1    2    0    0 -0.24954970411E+03 -0.15621764948E+03  0.37034206802E+03  0.50313188745E+03  0.17120000000E+03 0.  0.
        998    1    1    2    0    0  0.20436059008E+02  0.10367459022E+02  0.13800133484E+03  0.13989101162E+03  0.10000000000E+00 0. -1.
</event>
<event>
 5    1  0.2313627E-009  0.3823118E+03  0.7957747E-01  0.3441154E+00
         13   -1    0    0    0    0  0.00000000000E+00  0.00000000000E+00  0.14999999963E+04  0.15000000000E+04  0.10566000000E+00 0. -1.
        994   -1    0    0    0    0 -0.00000000000E+00 -0.00000000000E+00  0.11368683772E-12  0.17120000000E+03  0.17120000000E+03 0.  0.
         13    1    1    2    0    0  0.49967298793E+01  0.14571291961E+02  0.31970640506E+02  0.35488348472E+02  0.10566000000E+00 0. -1.
        994    1    1    2    0    0 -0.18483709056E+03 -0.33330841554E+01  0.12613238876E+03  0.28177061414E+03  0.17120000000E+03 0.  0.
        998    1    1    2    0    0  0.17984036068E+03 -0.11238207806E+02  0.13418969670E+04  0.13539410374E+04  0.10000000000E+00 0. -1.
</event>
<event>
 5    1  0.2313627E-009  0.3883002E+03  0.7957747E-01  0.3415795E+00
         13   -1    0    0    0    0  0.00000000000E+00  0.00000000000E+00  0.14999999963E+04  0.15000000000E+04  0.10566000000E+00 0. -1.
        994   -1    0    0    0    0 -0.00000000000E+00 -0.00000000000E+00  0.11368683772E-12  0.17120000000E+03  0.17120000000E+03 0.  0.
         13    1    1    2    0    0 -0.91106438367E+02 -0.19423452226E+03  0.12731873897E+04  0.12911365432E+04  0.10566000000E+00 0. -1.
        994    1    1    2    0    0  0.94513615749E+02  0.20115487160E+03  0.18158703073E+03  0.33418467298E+03  0.17120000000E+03 0.  0.
        998    1    1    2    0    0 -0.34071773815E+01 -0.69203493409E+01  0.45225575858E+02  0.45878783816E+02  0.10000000000E+00 0.  0.
</event>
<event>
 5    1  0.2313627E-009  0.3882164E+03  0.7957747E-01  0.3416144E+00
         13   -1    0    0    0    0  0.00000000000E+00  0.00000000000E+00  0.14999999963E+04  0.15000000000E+04  0.10566000000E+00 0.  1.
        994   -1    0    0    0    0 -0.00000000000E+00 -0.00000000000E+00  0.11368683772E-12  0.17120000000E+03  0.17120000000E+03 0.  0.
         13    1    1    2    0    0 -0.29885000297E+02 -0.22335451442E+03  0.12980247482E+04  0.13174401733E+04  0.10566000000E+00 0.  1.
        994    1    1    2    0    0  0.29125218036E+02  0.22532532365E+03  0.19116273307E+03  0.34274248397E+03  0.17120000000E+03 0.  0.
        998    1    1    2    0    0  0.75978226083E+00 -0.19708092246E+01  0.10812515055E+02  0.11017342687E+02  0.10000000000E+00 0.  1.
</event>
<event>
 5    1  0.2313627E-009  0.3839449E+03  0.7957747E-01  0.3434159E+00
         13   -1    0    0    0    0  0.00000000000E+00  0.00000000000E+00  0.14999999963E+04  0.15000000000E+04  0.10566000000E+00 0.  1.
        994   -1    0    0    0    0 -0.00000000000E+00 -0.00000000000E+00  0.11368683772E-12  0.17120000000E+03  0.17120000000E+03 0.  0.
         13    1    1    2    0    0  0.26719654517E+02 -0.22707111716E+03  0.76853831654E+03  0.80182690610E+03  0.10566000000E+00 0.  1.
        994    1    1    2    0    0 -0.22351950034E+02  0.28500973471E+03  0.34904702409E+03  0.48256960491E+03  0.17120000000E+03 0.  0.
        998    1    1    2    0    0 -0.43677044827E+01 -0.57938617554E+02  0.38241465564E+03  0.38680348899E+03  0.10000000000E+00 0.  1.
</event>
<event>
 5    1  0.2313627E-009  0.3882686E+03  0.7957747E-01  0.3415927E+00
         13   -1    0    0    0    0  0.00000000000E+00  0.00000000000E+00  0.14999999963E+04  0.15000000000E+04  0.10566000000E+00 0. -1.
        994   -1    0    0    0    0 -0.00000000000E+00 -0.00000000000E+00  0.11368683772E-12  0.17120000000E+03  0.17120000000E+03 0.  0.
         13    1    1    2    0    0  0.44119984922E+00 -0.58390297934E+02  0.25906845211E+03  0.26556749725E+03  0.10566000000E+00 0. -1.
        994    1    1    2    0    0 -0.42844517241E+01  0.26318943617E+03  0.27243878051E+03  0.41571548559E+03  0.17120000000E+03 0.  0.
        998    1    1    2    0    0  0.38432518749E+01 -0.20479913823E+03  0.96849276366E+03  0.98991701716E+03  0.10000000000E+00 0. -1.
</event>
<event>
 5    1  0.2313627E-009  0.3882988E+03  0.7957747E-01  0.3415801E+00
         13   -1    0    0    0    0  0.00000000000E+00  0.00000000000E+00  0.14999999963E+04  0.15000000000E+04  0.10566000000E+00 0.  1.
        994   -1    0    0    0    0 -0.00000000000E+00 -0.00000000000E+00  0.11368683772E-12  0.17120000000E+03  0.17120000000E+03 0.  0.
         13    1    1    2    0    0  0.49769250034E+02 -0.26848779101E+03  0.11687392070E+04  0.12002141547E+04  0.10566000000E+00 0.  1.
        994    1    1    2    0    0 -0.50552157188E+02  0.27273389918E+03  0.31187956504E+03  0.45112925359E+03  0.17120000000E+03 0.  0.
        998    1    1    2    0    0  0.78290715346E+00 -0.42461081770E+01  0.19381224272E+02  0.19856591665E+02  0.10000000000E+00 0.  1.
</event>
<event>
 5    1  0.2313627E-009  0.3882736E+03  0.7957747E-01  0.3415906E+00
         13   -1    0    0    0    0  0.00000000000E+00  0.00000000000E+00  0.14999999963E+04  0.15000000000E+04  0.10566000000E+00 0.  1.
        994   -1    0    0    0    0 -0.00000000000E+00 -0.00000000000E+00  0.11368683772E-12  0.17120000000E+03  0.17120000000E+03 0.  0.
         13    1    1    2    0    0 -0.15920833109E+03  0.14159301173E+03  0.12728161938E+04  0.12905258417E+04  0.10566000000E+00 0.  1.
        994    1    1    2    0    0  0.16412429457E+03 -0.14691040404E+03  0.17792763054E+03  0.33088839900E+03  0.17120000000E+03 0.  0.
        998    1    1    2    0    0 -0.49159634762E+01  0.53173923087E+01  0.49256171925E+02  0.49785759315E+02  0.10000000000E+00 0.  1.
</event>
<event>
 5    1  0.2313627E-009  0.3863439E+03  0.7957747E-01  0.3423993E+00
         13   -1    0    0    0    0  0.00000000000E+00  0.00000000000E+00  0.14999999963E+04  0.15000000000E+04  0.10566000000E+00 0. -1.
        994   -1    0    0    0    0 -0.00000000000E+00 -0.00000000000E+00  0.11368683772E-12  0.17120000000E+03  0.17120000000E+03 0.  0.
         13    1    1    2    0    0 -0.10699838420E+03 -0.11505441784E+03  0.75312719669E+03  0.76934176985E+03  0.10566000000E+00 0. -1.
        994    1    1    2    0    0  0.18198897433E+03  0.15115023644E+03  0.21277666580E+03  0.36131666204E+03  0.17120000000E+03 0.  0.
        998    1    1    2    0    0 -0.74990590133E+02 -0.36095818606E+02  0.53409613378E+03  0.54054156811E+03  0.10000000000E+00 0. -1.
</event>
<event>
 5    1  0.2313627E-009  0.3882913E+03  0.7957747E-01  0.3415832E+00
         13   -1    0    0    0    0  0.00000000000E+00  0.00000000000E+00  0.14999999963E+04  0.15000000000E+04  0.10566000000E+00 0.  1.
        994   -1    0    0    0    0 -0.00000000000E+00 -0.00000000000E+00  0.11368683772E-12  0.17120000000E+03  0.17120000000E+03 0.  0.
         13    1    1    2    0    0 -0.17828944684E+03  0.18308381955E+03  0.90507846289E+03  0.94046469736E+03  0.10566000000E+00 0.  1.
        994    1    1    2    0    0  0.21457169259E+03 -0.22000720725E+03  0.41766668101E+03  0.54607607431E+03  0.17120000000E+03 0.  0.
        998    1    1    2    0    0 -0.36282245752E+02  0.36923387699E+02  0.17725485238E+03  0.18465922833E+03  0.10000000000E+00 0.  1.
</event>
<event>
 5    1  0.2313627E-009  0.3883010E+03  0.7957747E-01  0.3415792E+00
         13   -1    0    0    0    0  0.00000000000E+00  0.00000000000E+00  0.14999999963E+04  0.15000000000E+04  0.10566000000E+00 0.  1.
        994   -1    0    0    0    0 -0.00000000000E+00 -0.00000000000E+00  0.11368683772E-12  0.17120000000E+03  0.17120000000E+03 0.  0.
         13    1    1    2    0    0  0.13714610994E+03 -0.30006311695E+02  0.84200955911E+03  0.85363314310E+03  0.10566000000E+00 0.  1.
        994    1    1    2    0    0 -0.21530964832E+03  0.47070476929E+02  0.17812264176E+03  0.33107550493E+03  0.17120000000E+03 0.  0.
        998    1    1    2    0    0  0.78163538379E+02 -0.17064165234E+02  0.47986779541E+03  0.48649135197E+03  0.10000000000E+00 0.  0.
</event>
<event>
 5    1  0.2313627E-009  0.3878246E+03  0.7957747E-01  0.3417780E+00
         13   -1    0    0    0    0  0.00000000000E+00  0.00000000000E+00  0.14999999963E+04  0.15000000000E+04  0.10566000000E+00 0.  1.
        994   -1    0    0    0    0 -0.00000000000E+00 -0.00000000000E+00  0.11368683772E-12  0.17120000000E+03  0.17120000000E+03 0.  0.
         13    1    1    2    0    0  0.15622204481E+03  0.17683723237E+03  0.94070228319E+03  0.96984407550E+03  0.10566000000E+00 0.  1.
        994    1    1    2    0    0 -0.18281289028E+03 -0.22533677559E+03  0.35382174207E+03  0.48856573811E+03  0.17120000000E+03 0.  0.
        998    1    1    2    0    0  0.26590845474E+02  0.48499543227E+02  0.20547597102E+03  0.21279018639E+03  0.10000000000E+00 0.  1.
</event>
<event>
 5    1  0.2313627E-009  0.3870157E+03  0.7957747E-01  0.3421168E+00
         13   -1    0    0    0    0  0.00000000000E+00  0.00000000000E+00  0.14999999963E+04  0.15000000000E+04  0.10566000000E+00 0. -1.
        994   -1    0    0    0    0 -0.00000000000E+00 -0.00000000000E+00  0.11368683772E-12  0.17120000000E+03  0.17120000000E+03 0.  0.
         13    1    1    2    0    0 -0.37796186065E+01 -0.95865176086E+01  0.52220053698E+02  0.53227173595E+02  0.10566000000E+00 0. -1.
        994    1    1    2    0    0 -0.18923077370E+01  0.70628372838E+02  0.17115496031E+02  0.18599550554E+03  0.17120000000E+03 0.  0.
        998    1    1    2    0    0  0.56719263435E+01 -0.61041855229E+02  0.14306644465E+04  0.14319773209E+04  0.10000000000E+00 0. -1.
</event>
<event>
 5    1  0.2313627E-009  0.3883000E+03  0.7957747E-01  0.3415796E+00
         13   -1    0    0    0    0  0.00000000000E+00  0.00000000000E+00  0.14999999963E+04  0.15000000000E+04  0.10566000000E+00 0.  1.
        994   -1    0    0    0    0 -0.00000000000E+00 -0.00000000000E+00  0.11368683772E-12  0.17120000000E+03  0.17120000000E+03 0.  0.
         13    1    1    2    0    0 -0.19882925576E+03  0.40216734648E+02  0.11808747958E+04  0.11981718380E+04  0.10566000000E+00 0.  1.
        994    1    1    2    0    0  0.22095715729E+03 -0.45066093698E+02  0.18777307758E+03  0.33973693768E+03  0.17120000000E+03 0.  0.
        998    1    1    2    0    0 -0.22127901533E+02  0.48493590495E+01  0.13135212286E+03  0.13329122435E+03  0.10000000000E+00 0. -1.
</event>
<event>
 5    1  0.2313627E-009  0.3882673E+03  0.7957747E-01  0.3415932E+00
         13   -1    0    0    0    0  0.00000000000E+00  0.00000000000E+00  0.14999999963E+04  0.15000000000E+04  0.10566000000E+00 0. -1.
        994   -1    0    0    0    0 -0.00000000000E+00 -0.00000000000E+00  0.11368683772E-12  0.17120000000E+03  0.17120000000E+03 0.  0.
         13    1    1    2    0    0  0.20515984815E+03 -0.79284812457E+02  0.13106404294E+04  0.13289676411E+04  0.10566000000E+00 0. -1.
        994    1    1    2    0    0 -0.20641427625E+03  0.79344381520E+02  0.17954557601E+03  0.33233783742E+03  0.17120000000E+03 0.  0.
        998    1    1    2    0    0  0.12544280963E+01 -0.59569063442E-01  0.98139909133E+01  0.98945215129E+01  0.10000000000E+00 0. -1.
</event>
<event>
 5    1  0.3864028E-009  0.3882872E+03  0.7957747E-01  0.3415849E+00
         13   -1    0    0    0    0  0.00000000000E+00  0.00000000000E+00  0.14999999963E+04  0.15000000000E+04  0.10566000000E+00 0. -1.
        994   -1    0    0    0    0 -0.00000000000E+00 -0.00000000000E+00  0.11368683772E-12  0.17120000000E+03  0.17120000000E+03 0.  0.
         13    1    1    2    0    0 -0.29147346878E+03  0.70526556716E+02  0.11108775758E+04  0.11506432018E+04  0.10566000000E+00 0. -1.
        994    1    1    2    0    0  0.29161779011E+03 -0.70601236815E+02  0.38834556653E+03  0.51975685584E+03  0.17120000000E+03 0.  0.
        998    1    1    2    0    0 -0.14432133116E+00  0.74680098725E-01  0.77685393585E+00  0.79994237381E+00  0.10000000000E+00 0. -1.
</event>
<event>
 5    1  0.2313627E-009  0.3878501E+03  0.7957747E-01  0.3417674E+00
         13   -1    0    0    0    0  0.00000000000E+00  0.00000000000E+00  0.14999999963E+04  0.15000000000E+04  0.10566000000E+00 0.  1.
        994   -1    0    0    0    0 -0.00000000000E+00 -0.00000000000E+00  0.11368683772E-12  0.17120000000E+03  0.17120000000E+03 0.  0.
         13    1    1    2    0    0 -0.21004090901E+03 -0.73151191546E+02  0.86745841748E+03  0.89551794929E+03  0.10566000000E+00 0.  1.
        994    1    1    2    0    0  0.26671518068E+03  0.10315327531E+03  0.33970299865E+03  0.47590456302E+03  0.17120000000E+03 0.  0.
        998    1    1    2    0    0 -0.56674271669E+02 -0.30002083766E+02  0.29283858014E+03  0.29977748768E+03  0.10000000000E+00 0.  1.
</event>
<event>
 5    1  0.2313627E-009  0.3882304E+03  0.7957747E-01  0.3416086E+00
         13   -1    0    0    0    0  0.00000000000E+00  0.00000000000E+00  0.14999999963E+04  0.15000000000E+04  0.10566000000E+00 0. -1.
        994   -1    0    0    0    0 -0.00000000000E+00 -0.00000000000E+00  0.11368683772E-12  0.17120000000E+03  0.17120000000E+03 0.  0.
         13    1    1    2    0    0  0.26512377305E+02 -0.24108864104E+03  0.12706746054E+04  0.12936153226E+04  0.10566000000E+00 0. -1.
        994    1    1    2    0    0 -0.26407822512E+02  0.24150316840E+03  0.22380639181E+03  0.37204824211E+03  0.17120000000E+03 0.  0.
        998    1    1    2    0    0 -0.10455479302E+00 -0.41452736335E+00  0.55189991060E+01  0.55364352947E+01  0.10000000000E+00 0.  1.
</event>
<event>
 5    1  0.2313627E-009  0.3882060E+03  0.7957747E-01  0.3416188E+00
         13   -1    0    0    0    0  0.00000000000E+00  0.00000000000E+00  0.14999999963E+04  0.15000000000E+04  0.10566000000E+00 0.  1.
        994   -1    0    0    0    0 -0.00000000000E+00 -0.00000000000E+00  0.11368683772E-12  0.17120000000E+03  0.17120000000E+03 0.  0.
         13    1    1    2    0    0 -0.12866566853E+03  0.15526767568E+03  0.10677435323E+04  0.10866182252E+04  0.10566000000E+00 0.  1.
        994    1    1    2    0    0  0.14975630215E+03 -0.18890023766E+03  0.21972153364E+03  0.36837106587E+03  0.17120000000E+03 0.  0.
        998    1    1    2    0    0 -0.21090633626E+02  0.33632561978E+02  0.21253493035E+03  0.21621070897E+03  0.10000000000E+00 0.  1.
</event>
<event>
 5    1  0.2313627E-009  0.3872337E+03  0.7957747E-01  0.3420254E+00
         13   -1    0    0    0    0  0.00000000000E+00  0.00000000000E+00  0.14999999963E+04  0.15000000000E+04  0.10566000000E+00 0.  1.
        994   -1    0    0    0    0 -0.00000000000E+00 -0.00000000000E+00  0.11368683772E-12  0.17120000000E+03  0.17120000000E+03 0.  0.
         13    1    1    2    0    0 -0.12780478788E+03 -0.19641696881E+03  0.12757196860E+04  0.12970637679E+04  0.10566000000E+00 0.  1.
        994    1    1    2    0    0  0.12683741145E+03  0.20107713210E+03  0.21398326369E+03  0.36279197777E+03  0.17120000000E+03 0.  0.
        998    1    1    2    0    0  0.96737643022E+00 -0.46601632842E+01  0.10297046565E+02  0.11344254359E+02  0.10000000000E+00 0.  1.
</event>
<event>
 5    1  0.2313627E-009  0.3882997E+03  0.7957747E-01  0.3415797E+00
         13   -1    0    0    0    0  0.00000000000E+00  0.00000000000E+00  0.14999999963E+04  0.15000000000E+04  0.10566000000E+00 0. -1.
        994   -1    0    0    0    0 -0.00000000000E+00 -0.00000000000E+00  0.11368683772E-12  0.17120000000E+03  0.17120000000E+03 0.  0.
         13    1    1    2    0    0 -0.21525274971E+03 -0.95379688342E+02  0.12377700506E+04  0.12599625949E+04  0.10566000000E+00 0. -1.
        994    1    1    2    0    0  0.22215901859E+03  0.98401995096E+02  0.22377781313E+03  0.37205313039E+03  0.17120000000E+03 0.  0.
        998    1    1    2    0    0 -0.69062688775E+01 -0.30223067536E+01  0.38452132526E+02  0.39184274700E+02  0.10000000000E+00 0.  0.
</event>
<event>
 5    1  0.2313627E-009  0.3882948E+03  0.7957747E-01  0.3415818E+00
         13   -1    0    0    0    0  0.00000000000E+00  0.00000000000E+00  0.14999999963E+04  0.15000000000E+04  0.10566000000E+00 0. -1.
        994   -1    0    0    0    0 -0.00000000000E+00 -0.00000000000E+00  0.11368683772E-12  0.17120000000E+03  0.17120000000E+03 0.  0.
         13    1    1    2    0    0  0.20787860578E+03 -0.59263800676E+02  0.12259512577E+04  0.12448623259E+04  0.10566000000E+00 0. -1.
        994    1    1    2    0    0 -0.22126311319E+03  0.62295820753E+02  0.19631221328E+03  0.34739899197E+03  0.17120000000E+03 0.  0.
        998    1    1    2    0    0  0.13384507402E+02 -0.30320200769E+01  0.77736525257E+02  0.78938682173E+02  0.10000000000E+00 0. -1.
</event>
<event>
 5    1  0.2313627E-009  0.3883008E+03  0.7957747E-01  0.3415792E+00
         13   -1    0    0    0    0  0.00000000000E+00  0.00000000000E+00  0.14999999963E+04  0.15000000000E+04  0.10566000000E+00 0.  1.
        994   -1    0    0    0    0 -0.00000000000E+00 -0.00000000000E+00  0.11368683772E-12  0.17120000000E+03  0.17120000000E+03 0.  0.
         13    1    1    2    0    0  0.28837491330E+02 -0.47440511660E+02  0.30077083960E+03  0.30585178137E+03  0.10566000000E+00 0.  1.
        994    1    1    2    0    0 -0.12282872345E+03  0.20335915647E+03  0.21211461892E+03  0.36158525051E+03  0.17120000000E+03 0.  0.
        998    1    1    2    0    0  0.93991232119E+02 -0.15591864481E+03  0.98711453776E+03  0.10037629681E+04  0.10000000000E+00 0.  1.
</event>
<event>
 5    1  0.2313627E-009  0.3882998E+03  0.7957747E-01  0.3415797E+00
         13   -1    0    0    0    0  0.00000000000E+00  0.00000000000E+00  0.14999999963E+04  0.15000000000E+04  0.10566000000E+00 0.  1.
        994   -1    0    0    0    0 -0.00000000000E+00 -0.00000000000E+00  0.11368683772E-12  0.17120000000E+03  0.17120000000E+03 0.  0.
         13    1    1    2    0    0 -0.22027035349E+03 -0.16034889711E+03  0.11802301646E+04  0.12112696026E+04  0.10566000000E+00 0.  1.
        994    1    1    2    0    0  0.22272863487E+03  0.16224922054E+03  0.30649887036E+03  0.44630018137E+03  0.17120000000E+03 0.  0.
        998    1    1    2    0    0 -0.24582813769E+01 -0.19003234309E+01  0.13270961283E+02  0.13630216060E+02  0.10000000000E+00 0. -1.
</event>
<event>
 5    1  0.2313627E-009  0.3881928E+03  0.7957747E-01  0.3416243E+00
         13   -1    0    0    0    0  0.00000000000E+00  0.00000000000E+00  0.14999999963E+04  0.15000000000E+04  0.10566000000E+00 0. -1.
        994   -1    0    0    0    0 -0.00000000000E+00 -0.00000000000E+00  0.11368683772E-12  0.17120000000E+03  0.17120000000E+03 0.  0.
         13    1    1    2    0    0  0.28424159696E+02  0.21337535308E+03  0.12299556756E+04  0.12486504512E+04  0.10566000000E+00 0. -1.
        994    1    1    2    0    0 -0.33251362700E+02 -0.22677119533E+03  0.19511787964E+03  0.34628204560E+03  0.17120000000E+03 0.  0.
        998    1    1    2    0    0  0.48272030040E+01  0.13395842250E+02  0.74926441063E+02  0.76267503229E+02  0.10000000000E+00 0. -1.
</event>
<event>
 5    1  0.2313627E-009  0.3883009E+03  0.7957747E-01  0.3415792E+00
         13   -1    0    0    0    0  0.00000000000E+00  0.00000000000E+00  0.14999999963E+04  0.15000000000E+04  0.10566000000E+00 0.  1.
        994   -1    0    0    0    0 -0.00000000000E+00 -0.00000000000E+00  0.11368683772E-12  0.17120000000E+03  0.17120000000E+03 0.  0.
         13    1    1    2    0    0  0.23222147006E+03  0.23419918058E+02  0.10749864084E+04  0.11000323146E+04  0.10566000000E+00 0.  1.
        994    1    1    2    0    0 -0.26404965223E+03 -0.26596016716E+02  0.27808347015E+03  0.42079617788E+03  0.17120000000E+03 0.  0.
        998    1    1    2    0    0  0.31828182168E+02  0.31760986582E+01  0.14693011775E+03  0.15037150756E+03  0.10000000000E+00 0.  1.
</event>
<event>
 5    1  0.2313627E-009  0.3882985E+03  0.7957747E-01  0.3415802E+00
         13   -1    0    0    0    0  0.00000000000E+00  0.00000000000E+00  0.14999999963E+04  0.15000000000E+04  0.10566000000E+00 0.  1.
        994   -1    0    0    0    0 -0.00000000000E+00 -0.00000000000E+00  0.11368683772E-12  0.17120000000E+03  0.17120000000E+03 0.  0.
         13    1    1    2    0    0 -0.21220251692E+03  0.94940999796E+02  0.11827355584E+04  0.12053659668E+04  0.10566000000E+00 0.  1.
        994    1    1    2    0    0  0.22710009339E+03 -0.10155155194E+03  0.23686437593E+03  0.38379857048E+03  0.17120000000E+03 0.  0.
        998    1    1    2    0    0 -0.14897576470E+02  0.66105521420E+01  0.80400061936E+02  0.82035462720E+02  0.10000000000E+00 0. -1.
</event>
<event>
 5    1  0.2313627E-009  0.3883000E+03  0.7957747E-01  0.3415796E+00
         13   -1    0    0    0    0  0.00000000000E+00  0.00000000000E+00  0.14999999963E+04  0.15000000000E+04  0.10566000000E+00 0. -1.
        994   -1    0    0    0    0 -0.00000000000E+00 -0.00000000000E+00  0.11368683772E-12  0.17120000000E+03  0.17120000000E+03 0.  0.
         13    1    1    2    0    0  0.17789025167E+03  0.20915394112E+03  0.11754191614E+04  0.12070627692E+04  0.10566000000E+00 0. -1.
        994    1    1    2    0    0 -0.17975275320E+03 -0.21141855641E+03  0.31225102317E+03  0.45146317652E+03  0.17120000000E+03 0.  0.
        998    1    1    2    0    0  0.18625015288E+01  0.22646152903E+01  0.12329811707E+02  0.12674054248E+02  0.10000000000E+00 0.  0.
</event>
<event>
 5    1  0.2313627E-009  0.3840993E+03  0.7957747E-01  0.3433501E+00
         13   -1    0    0    0    0  0.00000000000E+00  0.00000000000E+00  0.14999999963E+04  0.15000000000E+04  0.10566000000E+00 0.  1.
        994   -1    0    0    0    0 -0.00000000000E+00 -0.00000000000E+00  0.11368683772E-12  0.17120000000E+03  0.17120000000E+03 0.  0.
         13    1    1    2    0    0 -0.73250613046E+02  0.14835472510E+02  0.43349280467E+03  0.43988835677E+03  0.10566000000E+00 0.  1.
        994    1    1    2    0    0  0.16752313233E+03  0.48224180889E+02  0.10974239103E+03  0.26784772517E+03  0.17120000000E+03 0.  0.
        998    1    1    2    0    0 -0.94272519285E+02 -0.63059653398E+02  0.95676480058E+03  0.96346391806E+03  0.10000000000E+00 0.  1.
</event>
<event>
 5    1  0.2313627E-009  0.3881913E+03  0.7957747E-01  0.3416249E+00
         13   -1    0    0    0    0  0.00000000000E+00  0.00000000000E+00  0.14999999963E+04  0.15000000000E+04  0.10566000000E+00 0. -1.
        994   -1    0    0    0    0 -0.00000000000E+00 -0.00000000000E+00  0.11368683772E-12  0.17120000000E+03  0.17120000000E+03 0.  0.
         13    1    1    2    0    0  0.22543379833E+03  0.79160437437E+02  0.10727900780E+04  0.10990747631E+04  0.10566000000E+00 0. -1.
        994    1    1    2    0    0 -0.25114582888E+03 -0.90499862016E+02  0.28249946758E+03  0.42471148039E+03  0.17120000000E+03 0.  0.
        998    1    1    2    0    0  0.25712030554E+02  0.11339424578E+02  0.14471045067E+03  0.14741375648E+03  0.10000000000E+00 0. -1.
</event>
<event>
 5    1  0.2313627E-009  0.3880569E+03  0.7957747E-01  0.3416810E+00
         13   -1    0    0    0    0  0.00000000000E+00  0.00000000000E+00  0.14999999963E+04  0.15000000000E+04  0.10566000000E+00 0. -1.
        994   -1    0    0    0    0 -0.00000000000E+00 -0.00000000000E+00  0.11368683772E-12  0.17120000000E+03  0.17120000000E+03 0.  0.
         13    1    1    2    0    0  0.17691580195E+03 -0.13924328722E+03  0.12592910959E+04  0.12792583670E+04  0.10566000000E+00 0. -1.
        994    1    1    2    0    0 -0.18326469210E+03  0.14045149101E+03  0.19868810967E+03  0.34942663554E+03  0.17120000000E+03 0.  0.
        998    1    1    2    0    0  0.63488901560E+01 -0.12082037860E+01  0.42020790691E+02  0.42514997506E+02  0.10000000000E+00 0. -1.
</event>
<event>
 5    1  0.2313627E-009  0.3880951E+03  0.7957747E-01  0.3416651E+00
         13   -1    0    0    0    0  0.00000000000E+00  0.00000000000E+00  0.14999999963E+04  0.15000000000E+04  0.10566000000E+00 0. -1.
        994   -1    0    0    0    0 -0.00000000000E+00 -0.00000000000E+00  0.11368683772E-12  0.17120000000E+03  0.17120000000E+03 0.  0.
         13    1    1    2    0    0 -0.76483697959E+02  0.59844224840E+02  0.44510038863E+03  0.45557156894E+03  0.10566000000E+00 0. -1.
        994    1    1    2    0    0  0.19228803194E+03 -0.16336345004E+03  0.24550554248E+03  0.39146483293E+03  0.17120000000E+03 0.  0.
        998    1    1    2    0    0 -0.11580433398E+03  0.10351922520E+03  0.80939406517E+03  0.82416359813E+03  0.10000000000E+00 0. -1.
</event>
<event>
 5    1  0.2313627E-009  0.3881664E+03  0.7957747E-01  0.3416353E+00
         13   -1    0    0    0    0  0.00000000000E+00  0.00000000000E+00  0.14999999963E+04  0.15000000000E+04  0.10566000000E+00 0.  1.
        994   -1    0    0    0    0 -0.00000000000E+00 -0.00000000000E+00  0.11368683772E-12  0.17120000000E+03  0.17120000000E+03 0.  0.
         13    1    1    2    0    0 -0.65959283100E+02  0.21392633640E+03  0.12748911984E+04  0.12943966484E+04  0.10566000000E+00 0.  1.
        994    1    1    2    0    0  0.65915701249E+02 -0.21797986585E+03  0.19226058134E+03  0.34370579384E+03  0.17120000000E+03 0.  0.
        998    1    1    2    0    0  0.43581850641E-01  0.40535294429E+01  0.32848216506E+02  0.33097557734E+02  0.10000000000E+00 0. -1.
</event>
<event>
 5    1  0.2313627E-009  0.3882913E+03  0.7957747E-01  0.3415832E+00
         13   -1    0    0    0    0  0.00000000000E+00  0.00000000000E+00  0.14999999963E+04  0.15000000000E+04  0.10566000000E+00 0.  1.
        994   -1    0    0    0    0 -0.00000000000E+00 -0.00000000000E+00  0.11368683772E-12  0.17120000000E+03  0.17120000000E+03 0.  0.
         13    1    1    2    0    0  0.16521752633E+03  0.15616738231E+03  0.13047446260E+04  0.13244031232E+04  0.10566000000E+00 0.  1.
        994    1    1    2    0    0 -0.16569496853E+03 -0.15654650107E+03  0.19253436137E+03  0.34400661316E+03  0.17120000000E+03 0.  0.
        998    1    1    2    0    0  0.47744219708E+00  0.37911876031E+00  0.27210088726E+01  0.27902636741E+01  0.10000000000E+00 0.  0.
</event>
<event>
 5    1  0.2313627E-009  0.3882900E+03  0.7957747E-01  0.3415838E+00
         13   -1    0    0    0    0  0.00000000000E+00  0.00000000000E+00  0.14999999963E+04  0.15000000000E+04  0.10566000000E+00 0. -1.
        994   -1    0    0    0    0 -0.00000000000E+00 -0.00000000000E+00  0.11368683772E-12  0.17120000000E+03  0.17120000000E+03 0.  0.
         13    1    1    2    0    0  0.15552699986E+03  0.25514348864E+03  0.51808275834E+03  0.59807742235E+03  0.10566000000E+00 0. -1.
        994    1    1    2    0    0 -0.17847369701E+03 -0.29513195514E+03  0.90396200004E+03  0.98255405398E+03  0.17120000000E+03 0.  0.
        998    1    1    2    0    0  0.22946697153E+02  0.39988466501E+02  0.77955237904E+02  0.90568523672E+02  0.10000000000E+00 0.  1.
</event>
<event>
 5    1  0.2313627E-009  0.3883009E+03  0.7957747E-01  0.3415792E+00
         13   -1    0    0    0    0  0.00000000000E+00  0.00000000000E+00  0.14999999963E+04  0.15000000000E+04  0.10566000000E+00 0. -1.
        994   -1    0    0    0    0 -0.00000000000E+00 -0.00000000000E+00  0.11368683772E-12  0.17120000000E+03  0.17120000000E+03 0.  0.
         13    1    1    2    0    0  0.35203344086E+02 -0.14728703849E+03  0.89452008457E+03  0.90724800358E+03  0.10566000000E+00 0. -1.
        994    1    1    2    0    0 -0.51761552501E+02  0.21683532057E+03  0.18285772870E+03  0.33532551872E+03  0.17120000000E+03 0.  0.
        998    1    1    2    0    0  0.16558208415E+02 -0.69548282078E+02  0.42262218302E+03  0.42862647770E+03  0.10000000000E+00 0.  0.
</event>
<event>
 5    1  0.2313627E-009  0.3870959E+03  0.7957747E-01  0.3420832E+00
         13   -1    0    0    0    0  0.00000000000E+00  0.00000000000E+00  0.14999999963E+04  0.15000000000E+04  0.10566000000E+00 0. -1.
        994   -1    0    0    0    0 -0.00000000000E+00 -0.00000000000E+00  0.11368683772E-12  0.17120000000E+03  0.17120000000E+03 0.  0.
         13    1    1    2    0    0  0.15358500676E+03 -0.23982507824E+03  0.86132865935E+03  0.90718878578E+03  0.10566000000E+00 0. -1.
        994    1    1    2    0    0 -0.16823869235E+03  0.27148635638E+03  0.47933354699E+03  0.60089865084E+03  0.17120000000E+03 0.  0.
        998    1    1    2    0    0  0.14653685588E+02 -0.31661278140E+02  0.15933778993E+03  0.16311256339E+03  0.10000000000E+00 0. -1.
</event>
<event>
 5    1  0.2313627E-009  0.3844744E+03  0.7957747E-01  0.3431904E+00
         13   -1    0    0    0    0  0.00000000000E+00  0.00000000000E+00  0.14999999963E+04  0.15000000000E+04  0.10566000000E+00 0. -1.
        994   -1    0    0    0    0 -0.00000000000E+00 -0.00000000000E+00  0.11368683772E-12  0.17120000000E+03  0.17120000000E+03 0.  0.
         13    1    1    2    0    0  0.85698450867E+01 -0.10016729473E+02  0.47887763351E+02  0.49669167065E+02  0.10566000000E+00 0. -1.
        994    1    1    2    0    0  0.72150985087E+02  0.66731814171E+02  0.34386196238E+02  0.20037652099E+03  0.17120000000E+03 0.  0.
        998    1    1    2    0    0 -0.80720830174E+02 -0.56715084699E+02  0.14177260367E+04  0.14211543119E+04  0.10000000000E+00 0. -1.
</event>
<event>
 5    1  0.2313627E-009  0.3855441E+03  0.7957747E-01  0.3427368E+00
         13   -1    0    0    0    0  0.00000000000E+00  0.00000000000E+00  0.14999999963E+04  0.15000000000E+04  0.10566000000E+00 0. -1.
        994   -1    0    0    0    0 -0.00000000000E+00 -0.00000000000E+00  0.11368683772E-12  0.17120000000E+03  0.17120000000E+03 0.  0.
         13    1    1    2    0    0 -0.15468393890E+03 -0.56293592475E+02  0.74443986366E+03  0.76242167551E+03  0.10566000000E+00 0. -1.
        994    1    1    2    0    0  0.23325718281E+03  0.53201282814E+02  0.21968648003E+03  0.36716601059E+03  0.17120000000E+03 0.  0.
        998    1    1    2    0    0 -0.78573243904E+02  0.30923096610E+01  0.53587365258E+03  0.54161231390E+03  0.10000000000E+00 0.  1.
</event>
<event>
 5    1  0.2313627E-009  0.3779026E+03  0.7957747E-01  0.3460342E+00
         13   -1    0    0    0    0  0.00000000000E+00  0.00000000000E+00  0.14999999963E+04  0.15000000000E+04  0.10566000000E+00 0. -1.
        994   -1    0    0    0    0 -0.00000000000E+00 -0.00000000000E+00  0.11368683772E-12  0.17120000000E+03  0.17120000000E+03 0.  0.
         13    1    1    2    0    0 -0.50036041011E+02  0.28093018008E+02  0.21136636563E+03  0.21901729325E+03  0.10566000000E+00 0. -1.
        994    1    1    2    0    0  0.42105552372E+02 -0.13803132120E+03  0.78847278304E+02  0.23738545968E+03  0.17120000000E+03 0.  0.
        998    1    1    2    0    0  0.79304886389E+01  0.10993830319E+03  0.12097863523E+04  0.12147972471E+04  0.10000000000E+00 0. -1.
</event>
<event>
 5    1  0.2313627E-009  0.3882801E+03  0.7957747E-01  0.3415879E+00
         13   -1    0    0    0    0  0.00000000000E+00  0.00000000000E+00  0.14999999963E+04  0.15000000000E+04  0.10566000000E+00 0.  1.
        994   -1    0    0    0    0 -0.00000000000E+00 -0.00000000000E+00  0.11368683772E-12  0.17120000000E+03  0.17120000000E+03 0.  0.
         13    1    1    2    0    0  0.22239573476E+03  0.18134213908E+02  0.13088823442E+04  0.13277656851E+04  0.10566000000E+00 0.  1.
        994    1    1    2    0    0 -0.22326547497E+03 -0.17902295346E+02  0.18488179635E+03  0.33713303474E+03  0.17120000000E+03 0.  0.
        998    1    1    2    0    0  0.86974020699E+00 -0.23191856201E+00  0.62358557821E+01  0.63012801542E+01  0.10000000000E+00 0. -1.
</event>
<event>
 5    1  0.2313627E-009  0.3882987E+03  0.7957747E-01  0.3415802E+00
         13   -1    0    0    0    0  0.00000000000E+00  0.00000000000E+00  0.14999999963E+04  0.15000000000E+04  0.10566000000E+00 0. -1.
        994   -1    0    0    0    0 -0.00000000000E+00 -0.00000000000E+00  0.11368683772E-12  0.17120000000E+03  0.17120000000E+03 0.  0.
         13    1    1    2    0    0  0.19185454055E+02 -0.53430879002E+02  0.33791528281E+03  0.34265097403E+03  0.10566000000E+00 0. -1.
        994    1    1    2    0    0 -0.77547962842E+02  0.20701558118E+03  0.17936694857E+03  0.33219132985E+03  0.17120000000E+03 0.  0.
        998    1    1    2    0    0  0.58362508786E+02 -0.15358470217E+03  0.98271776490E+03  0.99635769612E+03  0.10000000000E+00 0. -1.
</event>
<event>
 5    1  0.2313627E-009  0.3882931E+03  0.7957747E-01  0.3415825E+00
         13   -1    0    0    0    0  0.00000000000E+00  0.00000000000E+00  0.14999999963E+04  0.15000000000E+04  0.10566000000E+00 0.  1.
        994   -1    0    0    0    0 -0.00000000000E+00 -0.00000000000E+00  0.11368683772E-12  0.17120000000E+03  0.17120000000E+03 0.  0.
         13    1    1    2    0    0 -0.27220324197E+03  0.11797757731E+02  0.11988379346E+04  0.12294088809E+04  0.10566000000E+00 0.  1.
        994    1    1    2    0    0  0.27266315494E+03 -0.11727889335E+02  0.29886614516E+03  0.43944641559E+03  0.17120000000E+03 0.  0.
        998    1    1    2    0    0 -0.45991297294E+00 -0.69868395919E-01  0.22959165571E+01  0.23447034722E+01  0.10000000000E+00 0. -1.
</event>
<event>
 5    1  0.2313627E-009  0.3882462E+03  0.7957747E-01  0.3416020E+00
         13   -1    0    0    0    0  0.00000000000E+00  0.00000000000E+00  0.14999999963E+04  0.15000000000E+04  0.10566000000E+00 0. -1.
        994   -1    0    0    0    0 -0.00000000000E+00 -0.00000000000E+00  0.11368683772E-12  0.17120000000E+03  0.17120000000E+03 0.  0.
         13    1    1    2    0    0  0.16633876576E+03  0.13949014209E+03  0.13103880216E+04  0.13282480427E+04  0.10566000000E+00 0. -1.
        994    1    1    2    0    0 -0.16776142882E+03 -0.14020559503E+03  0.17495318294E+03  0.32820658448E+03  0.17120000000E+03 0.  0.
        998    1    1    2    0    0  0.14226630579E+01  0.71545294027E+00  0.14658791737E+02  0.14745372775E+02  0.10000000000E+00 0.  1.
</event>
<event>
 5    1  0.2313627E-009  0.3881096E+03  0.7957747E-01  0.3416590E+00
         13   -1    0    0    0    0  0.00000000000E+00  0.00000000000E+00  0.14999999963E+04  0.15000000000E+04  0.10566000000E+00 0.  1.
        994   -1    0    0    0    0 -0.00000000000E+00 -0.00000000000E+00  0.11368683772E-12  0.17120000000E+03  0.17120000000E+03 0.  0.
         13    1    1    2    0    0  0.27272009304E+03 -0.16378329014E+03  0.98910636694E+03  0.10390055975E+04  0.10566000000E+00 0.  1.
        994    1    1    2    0    0 -0.27689105887E+03  0.16505977080E+03  0.49086132049E+03  0.61169245735E+03  0.17120000000E+03 0.  0.
        998    1    1    2    0    0  0.41709658322E+01 -0.12764806573E+01  0.20032308846E+02  0.20501945189E+02  0.10000000000E+00 0.  1.
</event>
<event>
 5    1  0.2313627E-009  0.3882982E+03  0.7957747E-01  0.3415804E+00
         13   -1    0    0    0    0  0.00000000000E+00  0.00000000000E+00  0.14999999963E+04  0.15000000000E+04  0.10566000000E+00 0. -1.
        994   -1    0    0    0    0 -0.00000000000E+00 -0.00000000000E+00  0.11368683772E-12  0.17120000000E+03  0.17120000000E+03 0.  0.
         13    1    1    2    0    0  0.11038185913E+03 -0.24090152253E+03  0.12151422421E+04  0.12436994726E+04  0.10566000000E+00 0. -1.
        994    1    1    2    0    0 -0.11089954273E+03  0.24183712394E+03  0.27987036267E+03  0.42239881983E+03  0.17120000000E+03 0.  0.
        998    1    1    2    0    0  0.51768359742E+00 -0.93560140608E+00  0.49873914628E+01  0.51017075476E+01  0.10000000000E+00 0.  1.
</event>
<event>
 5    1  0.2313627E-009  0.3878856E+03  0.7957747E-01  0.3417526E+00
         13   -1    0    0    0    0  0.00000000000E+00  0.00000000000E+00  0.14999999963E+04  0.15000000000E+04  0.10566000000E+00 0. -1.
        994   -1    0    0    0    0 -0.00000000000E+00 -0.00000000000E+00  0.11368683772E-12  0.17120000000E+03  0.17120000000E+03 0.  0.
         13    1    1    2    0    0 -0.53774830371E+02  0.27325502489E+02  0.32362308992E+03  0.32919649294E+03  0.10566000000E+00 0. -1.
        994    1    1    2    0    0  0.17807741802E+03 -0.11344219683E+03  0.16204781897E+03  0.31646427044E+03  0.17120000000E+03 0.  0.
        998    1    1    2    0    0 -0.12430258764E+03  0.86116694346E+02  0.10143290874E+04  0.10255392366E+04  0.10000000000E+00 0. -1.
</event>
<event>
 5    1  0.2313627E-009  0.3864265E+03  0.7957747E-01  0.3423644E+00
         13   -1    0    0    0    0  0.00000000000E+00  0.00000000000E+00  0.14999999963E+04  0.15000000000E+04  0.10566000000E+00 0. -1.
        994   -1    0    0    0    0 -0.00000000000E+00 -0.00000000000E+00  0.11368683772E-12  0.17120000000E+03  0.17120000000E+03 0.  0.
         13    1    1    2    0    0 -0.31018002075E+02 -0.23950994059E+03  0.12086286465E+04  0.12325219448E+04  0.10566000000E+00 0. -1.
        994    1    1    2    0    0  0.39843455719E+02  0.25189771870E+03  0.25486949404E+03  0.39913388811E+03  0.17120000000E+03 0.  0.
        998    1    1    2    0    0 -0.88254536443E+01 -0.12387778107E+02  0.36501855725E+02  0.39544167077E+02  0.10000000000E+00 0.  1.
</event>
<event>
 5    1  0.2313627E-009  0.3858611E+03  0.7957747E-01  0.3426028E+00
         13   -1    0    0    0    0  0.00000000000E+00  0.00000000000E+00  0.14999999963E+04  0.15000000000E+04  0.10566000000E+00 0.  1.
        994   -1    0    0    0    0 -0.00000000000E+00 -0.00000000000E+00  0.11368683772E-12  0.17120000000E+03  0.17120000000E+03 0.  0.
         13    1    1    2    0    0  0.97197328316E+02  0.66959968907E+02  0.68709275973E+03  0.69715667515E+03  0.10566000000E+00 0.  1.
        994    1    1    2    0    0 -0.16314303763E+03 -0.83052037470E+02  0.12012558466E+03  0.27794403707E+03  0.17120000000E+03 0.  0.
        998    1    1    2    0    0  0.65945709312E+02  0.16092068563E+02  0.69278165190E+03  0.69609928778E+03  0.10000000000E+00 0.  1.
</event>
<event>
 5    1  0.2313627E-009  0.3872150E+03  0.7957747E-01  0.3420332E+00
         13   -1    0    0    0    0  0.00000000000E+00  0.00000000000E+00  0.14999999963E+04  0.15000000000E+04  0.10566000000E+00 0.  1.
        994   -1    0    0    0    0 -0.00000000000E+00 -0.00000000000E+00  0.11368683772E-12  0.17120000000E+03  0.17120000000E+03 0.  0.
         13    1    1    2    0    0  0.10746914614E+02  0.27550053842E+01  0.62142711895E+02  0.63125383437E+02  0.10566000000E+00 0.  1.
        994    1    1    2    0    0 -0.95360210884E+02  0.42727265094E+02  0.37033682597E+02  0.20396108121E+03  0.17120000000E+03 0.  0.
        998    1    1    2    0    0  0.84613296271E+02 -0.45482270478E+02  0.14008236018E+04  0.14041135354E+04  0.10000000000E+00 0.  1.
</event>
<event>
 5    1  0.2313627E-009  0.3883008E+03  0.7957747E-01  0.3415793E+00
         13   -1    0    0    0    0  0.00000000000E+00  0.00000000000E+00  0.14999999963E+04  0.15000000000E+04  0.10566000000E+00 0.  1.
        994   -1    0    0    0    0 -0.00000000000E+00 -0.00000000000E+00  0.11368683772E-12  0.17120000000E+03  0.17120000000E+03 0.  0.
         13    1    1    2    0    0 -0.49284363569E+02  0.18315273190E+03  0.10337240853E+04  0.10509801936E+04  0.10566000000E+00 0.  1.
        994    1    1    2    0    0  0.61340438177E+02 -0.22839580745E+03  0.20983092658E+03  0.35953546691E+03  0.17120000000E+03 0.  0.
        998    1    1    2    0    0 -0.12056074608E+02  0.45243075549E+02  0.25644498442E+03  0.26068433949E+03  0.10000000000E+00 0.  0.
</event>
<event>
 5    1  0.3661683E-009  0.3882792E+03  0.7957747E-01  0.3415883E+00
         13   -1    0    0    0    0  0.00000000000E+00  0.00000000000E+00  0.14999999963E+04  0.15000000000E+04  0.10566000000E+00 0.  1.
        994   -1    0    0    0    0 -0.00000000000E+00 -0.00000000000E+00  0.11368683772E-12  0.17120000000E+03  0.17120000000E+03 0.  0.
         13    1    1    2    0    0 -0.19613108120E+03 -0.18741338790E+03  0.12049224715E+04  0.12350827310E+04  0.10566000000E+00 0.  1.
        994    1    1    2    0    0  0.19615345810E+03  0.18749252620E+03  0.29445024192E+03  0.43547676341E+03  0.17120000000E+03 0.  0.
        998    1    1    2    0    0 -0.22376899733E-01 -0.79138297254E-01  0.62728288133E+00  0.64050558853E+00  0.10000000000E+00 0. -1.
</event>
<event>
 5    1  0.2313627E-009  0.3840024E+03  0.7957747E-01  0.3433914E+00
         13   -1    0    0    0    0  0.00000000000E+00  0.00000000000E+00  0.14999999963E+04  0.15000000000E+04  0.10566000000E+00 0. -1.
        994   -1    0    0    0    0 -0.00000000000E+00 -0.00000000000E+00  0.11368683772E-12  0.17120000000E+03  0.17120000000E+03 0.  0.
         13    1    1    2    0    0  0.14147478575E+03 -0.61073504740E+02  0.69451604461E+03  0.71140539453E+03  0.10566000000E+00 0. -1.
        994    1    1    2    0    0 -0.21802997303E+03  0.56924192473E+02  0.19302884495E+03  0.34255949529E+03  0.17120000000E+03 0.  0.
        998    1    1    2    0    0  0.76555187279E+02  0.41493122677E+01  0.61245510672E+03  0.61723511018E+03  0.10000000000E+00 0.  1.
</event>
<event>
 5    1  0.2313627E-009  0.3882967E+03  0.7957747E-01  0.3415810E+00
         13   -1    0    0    0    0  0.00000000000E+00  0.00000000000E+00  0.14999999963E+04  0.15000000000E+04  0.10566000000E+00 0.  1.
        994   -1    0    0    0    0 -0.00000000000E+00 -0.00000000000E+00  0.11368683772E-12  0.17120000000E+03  0.17120000000E+03 0.  0.
         13    1    1    2    0    0 -0.93659478081E+02 -0.19547987893E+03  0.12913935707E+04  0.13094586082E+04  0.10566000000E+00 0.  1.
        994    1    1    2    0    0  0.95533400726E+02  0.19956051956E+03  0.17971417629E+03  0.33250211546E+03  0.17120000000E+03 0.  0.
        998    1    1    2    0    0 -0.18739226453E+01 -0.40806406277E+01  0.28892249302E+02  0.29239276389E+02  0.10000000000E+00 0.  0.
</event>
<event>
 5    1  0.2313627E-009  0.3882958E+03  0.7957747E-01  0.3415814E+00
         13   -1    0    0    0    0  0.00000000000E+00  0.00000000000E+00  0.14999999963E+04  0.15000000000E+04  0.10566000000E+00 0. -1.
        994   -1    0    0    0    0 -0.00000000000E+00 -0.00000000000E+00  0.11368683772E-12  0.17120000000E+03  0.17120000000E+03 0.  0.
         13    1    1    2    0    0  0.10618625957E+03 -0.29036367084E+03  0.97928306233E+03  0.10269283862E+04  0.10566000000E+00 0. -1.
        994    1    1    2    0    0 -0.11046956977E+03  0.30168112394E+03  0.48408073995E+03  0.60568855791E+03  0.17120000000E+03 0.  0.
        998    1    1    2    0    0  0.42833101945E+01 -0.11317453103E+02  0.36636194000E+02  0.38583055889E+02  0.10000000000E+00 0. -1.
</event>
<event>
 5    1  0.2313627E-009  0.3882317E+03  0.7957747E-01  0.3416081E+00
         13   -1    0    0    0    0  0.00000000000E+00  0.00000000000E+00  0.14999999963E+04  0.15000000000E+04  0.10566000000E+00 0. -1.
        994   -1    0    0    0    0 -0.00000000000E+00 -0.00000000000E+00  0.11368683772E-12  0.17120000000E+03  0.17120000000E+03 0.  0.
         13    1    1    2    0    0  0.22290265683E+03 -0.11730591711E+02  0.12953013512E+04  0.13143929408E+04  0.10566000000E+00 0. -1.
        994    1    1    2    0    0 -0.22576341304E+03  0.10768293384E+02  0.18885194651E+03  0.34067517155E+03  0.17120000000E+03 0.  0.
        998    1    1    2    0    0  0.28607562045E+01  0.96229832627E+00  0.15846698567E+02  0.16131887664E+02  0.10000000000E+00 0.  1.
</event>
<event>
 5    1  0.2313627E-009  0.3882957E+03  0.7957747E-01  0.3415814E+00
         13   -1    0    0    0    0  0.00000000000E+00  0.00000000000E+00  0.14999999963E+04  0.15000000000E+04  0.10566000000E+00 0.  1.
        994   -1    0    0    0    0 -0.00000000000E+00 -0.00000000000E+00  0.11368683772E-12  0.17120000000E+03  0.17120000000E+03 0.  0.
         13    1    1    2    0    0  0.29901115135E+03 -0.15240833232E+01  0.11107164859E+04  0.11502613246E+04  0.10566000000E+00 0.  1.
        994    1    1    2    0    0 -0.29967958085E+03  0.14572686068E+01  0.38694467828E+03  0.51850322936E+03  0.17120000000E+03 0.  0.
        998    1    1    2    0    0  0.66842950774E+00  0.66814716449E-01  0.23388320653E+01  0.24354460871E+01  0.10000000000E+00 0.  0.
</event>
<event>
 5    1  0.2313627E-009  0.3882673E+03  0.7957747E-01  0.3415932E+00
         13   -1    0    0    0    0  0.00000000000E+00  0.00000000000E+00  0.14999999963E+04  0.15000000000E+04  0.10566000000E+00 0. -1.
        994   -1    0    0    0    0 -0.00000000000E+00 -0.00000000000E+00  0.11368683772E-12  0.17120000000E+03  0.17120000000E+03 0.  0.
         13    1    1    2    0    0  0.16659244592E+01 -0.22263844066E+03  0.12546731502E+04  0.12742744506E+04  0.10566000000E+00 0. -1.
        994    1    1    2    0    0 -0.30675062451E+01  0.23076080967E+03  0.19817780910E+03  0.34906137698E+03  0.17120000000E+03 0.  0.
        998    1    1    2    0    0  0.14015817859E+01 -0.81223690106E+01  0.47149037019E+02  0.47864172422E+02  0.10000000000E+00 0.  1.
</event>
<event>
 5    1  0.2313627E-009  0.3883009E+03  0.7957747E-01  0.3415792E+00
         13   -1    0    0    0    0  0.00000000000E+00  0.00000000000E+00  0.14999999963E+04  0.15000000000E+04  0.10566000000E+00 0. -1.
        994   -1    0    0    0    0 -0.00000000000E+00 -0.00000000000E+00  0.11368683772E-12  0.17120000000E+03  0.17120000000E+03 0.  0.
         13    1    1    2    0    0  0.88869571820E+02  0.16911354934E+03  0.11246583246E+04  0.11407688423E+04  0.10566000000E+00 0. -1.
        994    1    1    2    0    0 -0.10391747197E+03 -0.19780269517E+03  0.18382346963E+03  0.33619228900E+03  0.17120000000E+03 0.  0.
        998    1    1    2    0    0  0.15047900151E+02  0.28689145823E+02  0.19151820207E+03  0.19423886869E+03  0.10000000000E+00 0. -1.
</event>
<event>
 5    1  0.2313627E-009  0.3719141E+03  0.7957747E-01  0.3487140E+00
         13   -1    0    0    0    0  0.00000000000E+00  0.00000000000E+00  0.14999999963E+04  0.15000000000E+04  0.10566000000E+00 0. -1.
        994   -1    0    0    0    0 -0.00000000000E+00 -0.00000000000E+00  0.11368683772E-12  0.17120000000E+03  0.17120000000E+03 0.  0.
         13    1    1    2    0    0 -0.67830191020E+02  0.25985338660E+03  0.10624029161E+04  0.10958214657E+04  0.10566000000E+00 0. -1.
        994    1    1    2    0    0  0.81633258271E+02 -0.28647376685E+03  0.40451374666E+03  0.53072782025E+03  0.17120000000E+03 0.  0.
        998    1    1    2    0    0 -0.13803067251E+02  0.26620380249E+02  0.33083333490E+02  0.44650714048E+02  0.10000000000E+00 0.  1.
</event>
<event>
 5    1  0.2313627E-009  0.3882206E+03  0.7957747E-01  0.3416127E+00
         13   -1    0    0    0    0  0.00000000000E+00  0.00000000000E+00  0.14999999963E+04  0.15000000000E+04  0.10566000000E+00 0.  1.
        994   -1    0    0    0    0 -0.00000000000E+00 -0.00000000000E+00  0.11368683772E-12  0.17120000000E+03  0.17120000000E+03 0.  0.
         13    1    1    2    0    0 -0.87206553877E+02  0.20035666942E+03  0.10460636908E+04  0.10686426130E+04  0.10566000000E+00 0.  1.
        994    1    1    2    0    0  0.10428239785E+03 -0.24017680738E+03  0.26892559032E+03  0.41254106515E+03  0.17120000000E+03 0.  0.
        998    1    1    2    0    0 -0.17075843971E+02  0.39820137958E+02  0.18501071518E+03  0.19001632184E+03  0.10000000000E+00 0.  1.
</event>
<event>
 5    1  0.2313627E-009  0.2930334E+03  0.7957747E-01  0.3947045E+00
         13   -1    0    0    0    0  0.00000000000E+00  0.00000000000E+00  0.14999999963E+04  0.15000000000E+04  0.10566000000E+00 0. -1.
        994   -1    0    0    0    0 -0.00000000000E+00 -0.00000000000E+00  0.11368683772E-12  0.17120000000E+03  0.17120000000E+03 0.  0.
         13    1    1    2    0    0 -0.94616972812E+02  0.88138415565E+02  0.74600723931E+03  0.75713114063E+03  0.10566000000E+00 0. -1.
        994    1    1    2    0    0  0.16724369345E+03  0.21396085350E+02  0.12377297394E+03  0.27029138822E+03  0.17120000000E+03 0.  0.
        998    1    1    2    0    0 -0.72626720639E+02 -0.10953450091E+03  0.63021978303E+03  0.64377747115E+03  0.10000000000E+00 0. -1.
</event>
<event>
 5    1  0.2313627E-009  0.3882999E+03  0.7957747E-01  0.3415796E+00
         13   -1    0    0    0    0  0.00000000000E+00  0.00000000000E+00  0.14999999963E+04  0.15000000000E+04  0.10566000000E+00 0. -1.
        994   -1    0    0    0    0 -0.00000000000E+00 -0.00000000000E+00  0.11368683772E-12  0.17120000000E+03  0.17120000000E+03 0.  0.
         13    1    1    2    0    0  0.20897030654E+03  0.10175245736E+03  0.10752899200E+04  0.11001229817E+04  0.10566000000E+00 0. -1.
        994    1    1    2    0    0 -0.23757392340E+03 -0.11611387717E+03  0.27555267218E+03  0.41852421280E+03  0.17120000000E+03 0.  0.
        998    1    1    2    0    0  0.28603616865E+02  0.14361419813E+02  0.14915740409E+03  0.15255280552E+03  0.10000000000E+00 0. -1.
</event>
<event>
 5    1  0.2313627E-009  0.3882666E+03  0.7957747E-01  0.3415935E+00
         13   -1    0    0    0    0  0.00000000000E+00  0.00000000000E+00  0.14999999963E+04  0.15000000000E+04  0.10566000000E+00 0.  1.
        994   -1    0    0    0    0 -0.00000000000E+00 -0.00000000000E+00  0.11368683772E-12  0.17120000000E+03  0.17120000000E+03 0.  0.
         13    1    1    2    0    0 -0.16708145760E+03 -0.27994701721E+03  0.98355058904E+03  0.10361748493E+04  0.10566000000E+00 0.  1.
        994    1    1    2    0    0  0.16760570427E+03  0.28035179434E+03  0.51493287774E+03  0.63336727834E+03  0.17120000000E+03 0.  0.
        998    1    1    2    0    0 -0.52424666703E+00 -0.40477713676E+00  0.15165294941E+01  0.16578723729E+01  0.10000000000E+00 0. -1.
</event>
<event>
 5    1  0.2313627E-009  0.3882988E+03  0.7957747E-01  0.3415801E+00
         13   -1    0    0    0    0  0.00000000000E+00  0.00000000000E+00  0.14999999963E+04  0.15000000000E+04  0.10566000000E+00 0.  1.
        994   -1    0    0    0    0 -0.00000000000E+00 -0.00000000000E+00  0.11368683772E-12  0.17120000000E+03  0.17120000000E+03 0.  0.
         13    1    1    2    0    0  0.28605469162E+03 -0.86786754874E+02  0.10732190410E+04  0.11140728650E+04  0.10566000000E+00 0.  1.
        994    1    1    2    0    0 -0.29155311438E+03  0.88219038883E+02  0.40637143255E+03  0.53594122674E+03  0.17120000000E+03 0.  0.
        998    1    1    2    0    0  0.54984227619E+01 -0.14322840086E+01  0.20409522760E+02  0.21185908280E+02  0.10000000000E+00 0. -1.
</event>
<event>
 5    1  0.2313627E-009  0.3880474E+03  0.7957747E-01  0.3416850E+00
         13   -1    0    0    0    0  0.00000000000E+00  0.00000000000E+00  0.14999999963E+04  0.15000000000E+04  0.10566000000E+00 0.  1.
        994   -1    0    0    0    0 -0.00000000000E+00 -0.00000000000E+00  0.11368683772E-12  0.17120000000E+03  0.17120000000E+03 0.  0.
         13    1    1    2    0    0 -0.18730175809E+03 -0.10521634451E+03  0.12545730321E+04  0.12728338193E+04  0.10566000000E+00 0.  1.
        994    1    1    2    0    0  0.19248999411E+03  0.11150528771E+03  0.18228171796E+03  0.33469671603E+03  0.17120000000E+03 0.  0.
        998    1    1    2    0    0 -0.51882360208E+01 -0.62889432025E+01  0.63145246265E+02  0.63669464624E+02  0.10000000000E+00 0. -1.
</event>
<event>
 5    1  0.2313627E-009  0.3883006E+03  0.7957747E-01  0.3415794E+00
         13   -1    0    0    0    0  0.00000000000E+00  0.00000000000E+00  0.14999999963E+04  0.15000000000E+04  0.10566000000E+00 0.  1.
        994   -1    0    0    0    0 -0.00000000000E+00 -0.00000000000E+00  0.11368683772E-12  0.17120000000E+03  0.17120000000E+03 0.  0.
         13    1    1    2    0    0  0.22416761045E+03 -0.87220699789E+02  0.11818712777E+04  0.12061004504E+04  0.10566000000E+00 0.  1.
        994    1    1    2    0    0 -0.23713612850E+03  0.92325959629E+02  0.25036193253E+03  0.39591433862E+03  0.17120000000E+03 0.  0.
        998    1    1    2    0    0  0.12968518056E+02 -0.51052598403E+01  0.67766786008E+02  0.69185211024E+02  0.10000000000E+00 0.  1.
</event>
<event>
 5    1  0.2313627E-009  0.3883005E+03  0.7957747E-01  0.3415794E+00
         13   -1    0    0    0    0  0.00000000000E+00  0.00000000000E+00  0.14999999963E+04  0.15000000000E+04  0.10566000000E+00 0. -1.
        994   -1    0    0    0    0 -0.00000000000E+00 -0.00000000000E+00  0.11368683772E-12  0.17120000000E+03  0.17120000000E+03 0.  0.
         13    1    1    2    0    0  0.71668513240E+02 -0.15918652828E+03  0.83470580351E+03  0.85276639014E+03  0.10566000000E+00 0. -1.
        994    1    1    2    0    0 -0.10682072767E+03  0.23621590353E+03  0.26216297118E+03  0.40650643832E+03  0.17120000000E+03 0.  0.
        998    1    1    2    0    0  0.35152214433E+02 -0.77029375246E+02  0.40313122160E+03  0.41192717154E+03  0.10000000000E+00 0.  1.
</event>
<event>
 5    1  0.2313627E-009  0.3861216E+03  0.7957747E-01  0.3424929E+00
         13   -1    0    0    0    0  0.00000000000E+00  0.00000000000E+00  0.14999999963E+04  0.15000000000E+04  0.10566000000E+00 0.  1.
        994   -1    0    0    0    0 -0.00000000000E+00 -0.00000000000E+00  0.11368683772E-12  0.17120000000E+03  0.17120000000E+03 0.  0.
         13    1    1    2    0    0 -0.48818071020E+01 -0.18944353029E+02  0.11389905863E+03  0.11556698176E+03  0.10566000000E+00 0.  1.
        994    1    1    2    0    0 -0.45476087386E+02  0.80888389841E+02  0.29816512540E+02  0.19700119430E+03  0.17120000000E+03 0.  0.
        998    1    1    2    0    0  0.50357894488E+02 -0.61944036812E+02  0.13562844251E+04  0.13586318239E+04  0.10000000000E+00 0.  1.
</event>
<event>
 5    1  0.2313627E-009  0.3883003E+03  0.7957747E-01  0.3415795E+00
         13   -1    0    0    0    0  0.00000000000E+00  0.00000000000E+00  0.14999999963E+04  0.15000000000E+04  0.10566000000E+00 0.  1.
        994   -1    0    0    0    0 -0.00000000000E+00 -0.00000000000E+00  0.11368683772E-12  0.17120000000E+03  0.17120000000E+03 0.  0.
         13    1    1    2    0    0  0.15961070505E+03 -0.17139201339E+03  0.12283392276E+04  0.12504671401E+04  0.10566000000E+00 0.  1.
        994    1    1    2    0    0 -0.16578718949E+03  0.17785164213E+03  0.22413563686E+03  0.37237457287E+03  0.17120000000E+03 0.  0.
        998    1    1    2    0    0  0.61764844475E+01 -0.64596287395E+01  0.47525131856E+02  0.48358287000E+02  0.10000000000E+00 0.  0.
</event>
<event>
 5    1  0.2313627E-009  0.3785325E+03  0.7957747E-01  0.3457573E+00
         13   -1    0    0    0    0  0.00000000000E+00  0.00000000000E+00  0.14999999963E+04  0.15000000000E+04  0.10566000000E+00 0. -1.
        994   -1    0    0    0    0 -0.00000000000E+00 -0.00000000000E+00  0.11368683772E-12  0.17120000000E+03  0.17120000000E+03 0.  0.
         13    1    1    2    0    0 -0.25907617114E+02 -0.67759801347E+02  0.41023695699E+03  0.41660168909E+03  0.10566000000E+00 0. -1.
        994    1    1    2    0    0 -0.48908109476E+02  0.10903094938E+03  0.54447765200E+02  0.21576318089E+03  0.17120000000E+03 0.  0.
        998    1    1    2    0    0  0.74815726591E+02 -0.41271148030E+02  0.10353152741E+04  0.10388351300E+04  0.10000000000E+00 0. -1.
</event>
<event>
 5    1  0.2313627E-009  0.3882993E+03  0.7957747E-01  0.3415799E+00
         13   -1    0    0    0    0  0.00000000000E+00  0.00000000000E+00  0.14999999963E+04  0.15000000000E+04  0.10566000000E+00 0.  1.
        994   -1    0    0    0    0 -0.00000000000E+00 -0.00000000000E+00  0.11368683772E-12  0.17120000000E+03  0.17120000000E+03 0.  0.
         13    1    1    2    0    0  0.10760888487E+03 -0.19902749486E+03  0.12530699181E+04  0.12733325750E+04  0.10566000000E+00 0.  1.
        994    1    1    2    0    0 -0.11111856181E+03  0.20597509088E+03  0.20474234380E+03  0.35496751991E+03  0.17120000000E+03 0.  0.
        998    1    1    2    0    0  0.35096769424E+01 -0.69475960260E+01  0.42187734379E+02  0.42899905068E+02  0.10000000000E+00 0.  0.
</event>
<event>
 5    1  0.2313627E-009  0.3880110E+03  0.7957747E-01  0.3417002E+00
         13   -1    0    0    0    0  0.00000000000E+00  0.00000000000E+00  0.14999999963E+04  0.15000000000E+04  0.10566000000E+00 0.  1.
        994   -1    0    0    0    0 -0.00000000000E+00 -0.00000000000E+00  0.11368683772E-12  0.17120000000E+03  0.17120000000E+03 0.  0.
         13    1    1    2    0    0 -0.12200870401E+03 -0.16916745457E+03  0.12307966642E+04  0.12483445803E+04  0.10566000000E+00 0.  1.
        994    1    1    2    0    0  0.12658897061E+03  0.17866806338E+03  0.17584720205E+03  0.32890534022E+03  0.17120000000E+03 0.  0.
        998    1    1    2    0    0 -0.45802666037E+01 -0.95006088124E+01  0.93356130059E+02  0.93950079455E+02  0.10000000000E+00 0.  1.
</event>
<event>
 5    1  0.2313627E-009  0.3796064E+03  0.7957747E-01  0.3452874E+00
         13   -1    0    0    0    0  0.00000000000E+00  0.00000000000E+00  0.14999999963E+04  0.15000000000E+04  0.10566000000E+00 0. -1.
        994   -1    0    0    0    0 -0.00000000000E+00 -0.00000000000E+00  0.11368683772E-12  0.17120000000E+03  0.17120000000E+03 0.  0.
         13    1    1    2    0    0 -0.18289658227E+03 -0.71572545306E+02  0.53068328726E+03  0.56586089420E+03  0.10566000000E+00 0. -1.
        994    1    1    2    0    0  0.25582771401E+03  0.15656365418E+03  0.41537907417E+03  0.54019368039E+03  0.17120000000E+03 0.  0.
        998    1    1    2    0    0 -0.72931131739E+02 -0.84991108873E+02  0.55393763484E+03  0.56514542541E+03  0.10000000000E+00 0. -1.
</event>
<event>
 5    1  0.2313627E-009  0.3883007E+03  0.7957747E-01  0.3415793E+00
         13   -1    0    0    0    0  0.00000000000E+00  0.00000000000E+00  0.14999999963E+04  0.15000000000E+04  0.10566000000E+00 0. -1.
        994   -1    0    0    0    0 -0.00000000000E+00 -0.00000000000E+00  0.11368683772E-12  0.17120000000E+03  0.17120000000E+03 0.  0.
         13    1    1    2    0    0 -0.23703214493E+02 -0.52511839444E+02  0.27498422141E+03  0.28095492316E+03  0.10566000000E+00 0. -1.
        994    1    1    2    0    0  0.10687596820E+03  0.23713011185E+03  0.26433143206E+03  0.40845282286E+03  0.17120000000E+03 0.  0.
        998    1    1    2    0    0 -0.83172753711E+02 -0.18461827241E+03  0.96068434280E+03  0.98179225398E+03  0.10000000000E+00 0. -1.
</event>
<event>
 5    1  0.2313627E-009  0.3881885E+03  0.7957747E-01  0.3416261E+00
         13   -1    0    0    0    0  0.00000000000E+00  0.00000000000E+00  0.14999999963E+04  0.15000000000E+04  0.10566000000E+00 0. -1.
        994   -1    0    0    0    0 -0.00000000000E+00 -0.00000000000E+00  0.11368683772E-12  0.17120000000E+03  0.17120000000E+03 0.  0.
         13    1    1    2    0    0  0.15108510438E+03 -0.17436923262E+03  0.11895301129E+04  0.12116984933E+04  0.10566000000E+00 0. -1.
        994    1    1    2    0    0 -0.16372457508E+03  0.18640747914E+03  0.23548809975E+03  0.38251479696E+03  0.17120000000E+03 0.  0.
        998    1    1    2    0    0  0.12639470703E+02 -0.12038246523E+02  0.74981783666E+02  0.76986709767E+02  0.10000000000E+00 0.  1.
</event>
<event>
 5    1  0.2313627E-009  0.3880641E+03  0.7957747E-01  0.3416780E+00
         13   -1    0    0    0    0  0.00000000000E+00  0.00000000000E+00  0.14999999963E+04  0.15000000000E+04  0.10566000000E+00 0.  1.
        994   -1    0    0    0    0 -0.00000000000E+00 -0.00000000000E+00  0.11368683772E-12  0.17120000000E+03  0.17120000000E+03 0.  0.
         13    1    1    2    0    0 -0.16566817784E+03  0.69433791290E-01  0.79036926575E+03  0.80754537790E+03  0.10566000000E+00 0.  1.
        994    1    1    2    0    0  0.26711752573E+03  0.68772016487E+01  0.28342395509E+03  0.42548518984E+03  0.17120000000E+03 0.  0.
        998    1    1    2    0    0 -0.10144934790E+03 -0.69466354400E+01  0.42620677543E+03  0.43816943225E+03  0.10000000000E+00 0. -1.
</event>
<event>
 5    1  0.2313627E-009  0.3882988E+03  0.7957747E-01  0.3415801E+00
         13   -1    0    0    0    0  0.00000000000E+00  0.00000000000E+00  0.14999999963E+04  0.15000000000E+04  0.10566000000E+00 0.  1.
        994   -1    0    0    0    0 -0.00000000000E+00 -0.00000000000E+00  0.11368683772E-12  0.17120000000E+03  0.17120000000E+03 0.  0.
         13    1    1    2    0    0  0.18611292305E+03 -0.17465196809E+03  0.12343354640E+04  0.12604464998E+04  0.10566000000E+00 0.  1.
        994    1    1    2    0    0 -0.18744096995E+03  0.17583044924E+03  0.25655717946E+03  0.40147414665E+03  0.17120000000E+03 0.  0.
        998    1    1    2    0    0  0.13280468983E+01 -0.11784811496E+01  0.91073528356E+01  0.92793535365E+01  0.10000000000E+00 0.  1.
</event>
<event>
 5    1  0.2313627E-009  0.3882949E+03  0.7957747E-01  0.3415817E+00
         13   -1    0    0    0    0  0.00000000000E+00  0.00000000000E+00  0.14999999963E+04  0.15000000000E+04  0.10566000000E+00 0. -1.
        994   -1    0    0    0    0 -0.00000000000E+00 -0.00000000000E+00  0.11368683772E-12  0.17120000000E+03  0.17120000000E+03 0.  0.
         13    1    1    2    0    0  0.12940366500E+03  0.20712574841E+03  0.12637443787E+04  0.12871271305E+04  0.10566000000E+00 0. -1.
        994    1    1    2    0    0 -0.13020070047E+03 -0.20808452308E+03  0.22932129457E+03  0.37702664002E+03  0.17120000000E+03 0.  0.
        998    1    1    2    0    0  0.79703546929E+00  0.95877466189E+00  0.69343229841E+01  0.70462294626E+01  0.10000000000E+00 0. -1.
</event>
<event>
 5    1  0.2313627E-009  0.3883008E+03  0.7957747E-01  0.3415793E+00
         13   -1    0    0    0    0  0.00000000000E+00  0.00000000000E+00  0.14999999963E+04  0.15000000000E+04  0.10566000000E+00 0. -1.
        994   -1    0    0    0    0 -0.00000000000E+00 -0.00000000000E+00  0.11368683772E-12  0.17120000000E+03  0.17120000000E+03 0.  0.
         13    1    1    2    0    0  0.18707275266E+03 -0.67253996986E+02  0.48439696022E+03  0.52360265577E+03  0.10566000000E+00 0. -1.
        994    1    1    2    0    0 -0.32358760474E+03  0.11656447770E+03  0.66275032217E+03  0.76605720736E+03  0.17120000000E+03 0.  0.
        998    1    1    2    0    0  0.13651485208E+03 -0.49310480717E+02  0.35285271389E+03  0.38154013688E+03  0.10000000000E+00 0.  1.
</event>
<event>
 5    1  0.2313627E-009  0.3882059E+03  0.7957747E-01  0.3416189E+00
         13   -1    0    0    0    0  0.00000000000E+00  0.00000000000E+00  0.14999999963E+04  0.15000000000E+04  0.10566000000E+00 0.  1.
        994   -1    0    0    0    0 -0.00000000000E+00 -0.00000000000E+00  0.11368683772E-12  0.17120000000E+03  0.17120000000E+03 0.  0.
         13    1    1    2    0    0 -0.23348529145E+03  0.84229351503E+02  0.12506096942E+04  0.12750037582E+04  0.10566000000E+00 0.  1.
        994    1    1    2    0    0  0.23443618546E+03 -0.84891248285E+02  0.23831182379E+03  0.38505689767E+03  0.17120000000E+03 0.  0.
        998    1    1    2    0    0 -0.95089401504E+00  0.66189678197E+00  0.11078478245E+02  0.11139344101E+02  0.10000000000E+00 0.  1.
</event>
<event>
 5    1  0.2313627E-009  0.3863872E+03  0.7957747E-01  0.3423810E+00
         13   -1    0    0    0    0  0.00000000000E+00  0.00000000000E+00  0.14999999963E+04  0.15000000000E+04  0.10566000000E+00 0. -1.
        994   -1    0    0    0    0 -0.00000000000E+00 -0.00000000000E+00  0.11368683772E-12  0.17120000000E+03  0.17120000000E+03 0.  0.
         13    1    1    2    0    0  0.55448264183E+02  0.54327639967E+02  0.40532887682E+03  0.41269542282E+03  0.10566000000E+00 0. -1.
        994    1    1    2    0    0 -0.11252566844E+03 -0.14990836776E+03  0.12590990440E+03  0.28336776247E+03  0.17120000000E+03 0.  0.
        998    1    1    2    0    0  0.57077404257E+02  0.95580727791E+02  0.96876121506E+03  0.97513681471E+03  0.10000000000E+00 0.  1.
</event>
<event>
 5    1  0.2313627E-009  0.3882861E+03  0.7957747E-01  0.3415854E+00
         13   -1    0    0    0    0  0.00000000000E+00  0.00000000000E+00  0.14999999963E+04  0.15000000000E+04  0.10566000000E+00 0. -1.
        994   -1    0    0    0    0 -0.00000000000E+00 -0.00000000000E+00  0.11368683772E-12  0.17120000000E+03  0.17120000000E+03 0.  0.
         13    1    1    2    0    0  0.98521518875E+02  0.19670926155E+03  0.11352133729E+04  0.11563349154E+04  0.10566000000E+00 0. -1.
        994    1    1    2    0    0 -0.10863956447E+03 -0.22033821725E+03  0.22979380218E+03  0.37744683926E+03  0.17120000000E+03 0.  0.
        998    1    1    2    0    0  0.10118045592E+02  0.23628955702E+02  0.13499282115E+03  0.13741824535E+03  0.10000000000E+00 0.  1.
</event>
<event>
 5    1  0.2313627E-009  0.3880895E+03  0.7957747E-01  0.3416674E+00
         13   -1    0    0    0    0  0.00000000000E+00  0.00000000000E+00  0.14999999963E+04  0.15000000000E+04  0.10566000000E+00 0.  1.
        994   -1    0    0    0    0 -0.00000000000E+00 -0.00000000000E+00  0.11368683772E-12  0.17120000000E+03  0.17120000000E+03 0.  0.
         13    1    1    2    0    0  0.21553610339E+03  0.17035820497E+03  0.49580315039E+03  0.56683199007E+03  0.10566000000E+00 0.  1.
        994    1    1    2    0    0 -0.27723142564E+03 -0.20765117768E+03  0.87270578910E+03  0.95441139415E+03  0.17120000000E+03 0.  0.
        998    1    1    2    0    0  0.61695322250E+02  0.37292972707E+02  0.13149105679E+03  0.14995661578E+03  0.10000000000E+00 0.  1.
</event>
<event>
 5    1  0.2313627E-009  0.3883008E+03  0.7957747E-01  0.3415793E+00
         13   -1    0    0    0    0  0.00000000000E+00  0.00000000000E+00  0.14999999963E+04  0.15000000000E+04  0.10566000000E+00 0. -1.
        994   -1    0    0    0    0 -0.00000000000E+00 -0.00000000000E+00  0.11368683772E-12  0.17120000000E+03  0.17120000000E+03 0.  0.
         13    1    1    2    0    0 -0.18917929234E+03 -0.88211568712E+02  0.11600208482E+04  0.11786511209E+04  0.10566000000E+00 0. -1.
        994    1    1    2    0    0  0.21139649090E+03  0.98513867291E+02  0.20307569388E+03  0.35347225614E+03  0.17120000000E+03 0.  0.
        998    1    1    2    0    0 -0.22217198568E+02 -0.10302298579E+02  0.13690345423E+03  0.13907662294E+03  0.10000000000E+00 0.  1.
</event>
<event>
 5    1  0.2318036E-009  0.3882752E+03  0.7957747E-01  0.3415900E+00
         13   -1    0    0    0    0  0.00000000000E+00  0.00000000000E+00  0.14999999963E+04  0.15000000000E+04  0.10566000000E+00 0. -1.
        994   -1    0    0    0    0 -0.00000000000E+00 -0.00000000000E+00  0.11368683772E-12  0.17120000000E+03  0.17120000000E+03 0.  0.
         13    1    1    2    0    0 -0.20206876878E+03 -0.94637455534E+02  0.13159168072E+04  0.13347003746E+04  0.10566000000E+00 0. -1.
        994    1    1    2    0    0  0.20220065914E+03  0.94601499848E+02  0.18347341684E+03  0.33586676677E+03  0.17120000000E+03 0.  0.
        998    1    1    2    0    0 -0.13189035614E+00  0.35955686283E-01  0.60977223650E+00  0.63285863968E+00  0.10000000000E+00 0. -1.
</event>
<event>
 5    1  0.2313627E-009  0.3882999E+03  0.7957747E-01  0.3415797E+00
         13   -1    0    0    0    0  0.00000000000E+00  0.00000000000E+00  0.14999999963E+04  0.15000000000E+04  0.10566000000E+00 0.  1.
        994   -1    0    0    0    0 -0.00000000000E+00 -0.00000000000E+00  0.11368683772E-12  0.17120000000E+03  0.17120000000E+03 0.  0.
         13    1    1    2    0    0 -0.13710365812E+03  0.20974300578E+03  0.72860662286E+03  0.77049150779E+03  0.10566000000E+00 0.  1.
        994    1    1    2    0    0  0.18122448776E+03 -0.27615952731E+03  0.53831875918E+03  0.65437216167E+03  0.17120000000E+03 0.  0.
        998    1    1    2    0    0 -0.44120829634E+02  0.66416521524E+02  0.23307461424E+03  0.24633633053E+03  0.10000000000E+00 0. -1.
</event>
<event>
 5    1  0.2313627E-009  0.3882616E+03  0.7957747E-01  0.3415956E+00
         13   -1    0    0    0    0  0.00000000000E+00  0.00000000000E+00  0.14999999963E+04  0.15000000000E+04  0.10566000000E+00 0. -1.
        994   -1    0    0    0    0 -0.00000000000E+00 -0.00000000000E+00  0.11368683772E-12  0.17120000000E+03  0.17120000000E+03 0.  0.
         13    1    1    2    0    0 -0.49920904106E+02 -0.24668013942E+03  0.12485534541E+04  0.12736675103E+04  0.10566000000E+00 0. -1.
        994    1    1    2    0    0  0.50328493018E+02  0.24797081533E+03  0.24693615851E+03  0.39282233751E+03  0.17120000000E+03 0.  0.
        998    1    1    2    0    0 -0.40758891206E+00 -0.12906759067E+01  0.45103836988E+01  0.47101522403E+01  0.10000000000E+00 0. -1.
</event>
<event>
 5    1  0.2313627E-009  0.3881650E+03  0.7957747E-01  0.3416359E+00
         13   -1    0    0    0    0  0.00000000000E+00  0.00000000000E+00  0.14999999963E+04  0.15000000000E+04  0.10566000000E+00 0.  1.
        994   -1    0    0    0    0 -0.00000000000E+00 -0.00000000000E+00  0.11368683772E-12  0.17120000000E+03  0.17120000000E+03 0.  0.
         13    1    1    2    0    0  0.11999298022E+03 -0.24935093428E+03  0.11000175342E+04  0.11342895531E+04  0.10566000000E+00 0.  1.
        994    1    1    2    0    0 -0.12480620908E+03  0.25902339226E+03  0.34406293020E+03  0.47995671419E+03  0.17120000000E+03 0.  0.
        998    1    1    2    0    0  0.48132288534E+01 -0.96724579736E+01  0.55919531908E+02  0.56953732661E+02  0.10000000000E+00 0. -1.
</event>
<event>
 5    1  0.2313627E-009  0.3882966E+03  0.7957747E-01  0.3415810E+00
         13   -1    0    0    0    0  0.00000000000E+00  0.00000000000E+00  0.14999999963E+04  0.15000000000E+04  0.10566000000E+00 0.  1.
        994   -1    0    0    0    0 -0.00000000000E+00 -0.00000000000E+00  0.11368683772E-12  0.17120000000E+03  0.17120000000E+03 0.  0.
         13    1    1    2    0    0  0.11237223310E+02 -0.28490872959E+02  0.15929971176E+03  0.16221718269E+03  0.10566000000E+00 0.  1.
        994    1    1    2    0    0 -0.95876316318E+02  0.22804069362E+03  0.23365998480E+03  0.38092158573E+03  0.17120000000E+03 0.  0.
        998    1    1    2    0    0  0.84639093008E+02 -0.19954982066E+03  0.11070402997E+04  0.11280612316E+04  0.10000000000E+00 0.  1.
</event>
<event>
 5    1  0.2313627E-009  0.3882857E+03  0.7957747E-01  0.3415856E+00
         13   -1    0    0    0    0  0.00000000000E+00  0.00000000000E+00  0.14999999963E+04  0.15000000000E+04  0.10566000000E+00 0. -1.
        994   -1    0    0    0    0 -0.00000000000E+00 -0.00000000000E+00  0.11368683772E-12  0.17120000000E+03  0.17120000000E+03 0.  0.
         13    1    1    2    0    0  0.22098287088E+03 -0.14630301086E+02  0.11814456768E+04  0.12020238655E+04  0.10566000000E+00 0. -1.
        994    1    1    2    0    0 -0.23975508393E+03  0.17253333155E+02  0.21811947551E+03  0.36696828661E+03  0.17120000000E+03 0.  0.
        998    1    1    2    0    0  0.18772213053E+02 -0.26230320686E+01  0.10043484396E+03  0.10220784784E+03  0.10000000000E+00 0. -1.
</event>
<event>
 5    1  0.2313627E-009  0.3853202E+03  0.7957747E-01  0.3428315E+00
         13   -1    0    0    0    0  0.00000000000E+00  0.00000000000E+00  0.14999999963E+04  0.15000000000E+04  0.10566000000E+00 0. -1.
        994   -1    0    0    0    0 -0.00000000000E+00 -0.00000000000E+00  0.11368683772E-12  0.17120000000E+03  0.17120000000E+03 0.  0.
         13    1    1    2    0    0 -0.13055913196E+03 -0.64870642315E+02  0.82337962708E+03  0.83618652742E+03  0.10566000000E+00 0. -1.
        994    1    1    2    0    0  0.24273166965E+03  0.88132084699E+02  0.26484860409E+03  0.40760293288E+03  0.17120000000E+03 0.  0.
        998    1    1    2    0    0 -0.11217253769E+03 -0.23261442384E+02  0.41177176510E+03  0.42741053970E+03  0.10000000000E+00 0.  1.
</event>
<event>
 5    1  0.2313627E-009  0.3883000E+03  0.7957747E-01  0.3415796E+00
         13   -1    0    0    0    0  0.00000000000E+00  0.00000000000E+00  0.14999999963E+04  0.15000000000E+04  0.10566000000E+00 0.  1.
        994   -1    0    0    0    0 -0.00000000000E+00 -0.00000000000E+00  0.11368683772E-12  0.17120000000E+03  0.17120000000E+03 0.  0.
         13    1    1    2    0    0 -0.24215312325E+03 -0.75465880131E+02  0.10380954682E+04  0.10686325123E+04  0.10566000000E+00 0.  1.
        994    1    1    2    0    0  0.27195662349E+03  0.84318222405E+02  0.33461658546E+03  0.47153755625E+03  0.17120000000E+03 0.  0.
        998    1    1    2    0    0 -0.29803500238E+02 -0.88523422737E+01  0.12728794265E+03  0.13102993144E+03  0.10000000000E+00 0. -1.
</event>
<event>
 5    1  0.2313627E-009  0.3882088E+03  0.7957747E-01  0.3416176E+00
         13   -1    0    0    0    0  0.00000000000E+00  0.00000000000E+00  0.14999999963E+04  0.15000000000E+04  0.10566000000E+00 0. -1.
        994   -1    0    0    0    0 -0.00000000000E+00 -0.00000000000E+00  0.11368683772E-12  0.17120000000E+03  0.17120000000E+03 0.  0.
         13    1    1    2    0    0  0.23045270599E+03 -0.11915751137E+02  0.10159280053E+04  0.10418061998E+04  0.10566000000E+00 0. -1.
        994    1    1    2    0    0 -0.27156774581E+03  0.93657511024E+01  0.29566637971E+03  0.43653729044E+03  0.17120000000E+03 0.  0.
        998    1    1    2    0    0  0.41115039812E+02  0.25500000347E+01  0.18840561123E+03  0.19285650972E+03  0.10000000000E+00 0. -1.
</event>
<event>
 5    1  0.2313627E-009  0.3685194E+03  0.7957747E-01  0.3502723E+00
         13   -1    0    0    0    0  0.00000000000E+00  0.00000000000E+00  0.14999999963E+04  0.15000000000E+04  0.10566000000E+00 0.  1.
        994   -1    0    0    0    0 -0.00000000000E+00 -0.00000000000E+00  0.11368683772E-12  0.17120000000E+03  0.17120000000E+03 0.  0.
         13    1    1    2    0    0  0.44917629278E+02 -0.46852832946E+01  0.17496244706E+03  0.18069702362E+03  0.10566000000E+00 0.  1.
        994    1    1    2    0    0  0.78800577494E+02 -0.60259809936E+02  0.45071390494E+02  0.20293261430E+03  0.17120000000E+03 0.  0.
        998    1    1    2    0    0 -0.12371820677E+03  0.64945093231E+02  0.12799661587E+04  0.12875703621E+04  0.10000000000E+00 0.  1.
</event>
<event>
 5    1  0.2313627E-009  0.3882922E+03  0.7957747E-01  0.3415828E+00
         13   -1    0    0    0    0  0.00000000000E+00  0.00000000000E+00  0.14999999963E+04  0.15000000000E+04  0.10566000000E+00 0.  1.
        994   -1    0    0    0    0 -0.00000000000E+00 -0.00000000000E+00  0.11368683772E-12  0.17120000000E+03  0.17120000000E+03 0.  0.
         13    1    1    2    0    0  0.57867679146E+01 -0.26968263509E+03  0.11991756759E+04  0.12291397493E+04  0.10566000000E+00 0.  1.
        994    1    1    2    0    0 -0.60307726210E+01  0.27109521732E+03  0.29390277642E+03  0.43499111377E+03  0.17120000000E+03 0.  0.
        998    1    1    2    0    0  0.24400470646E+00 -0.14125822255E+01  0.69215439622E+01  0.70691369814E+01  0.10000000000E+00 0. -1.
</event>
<event>
 5    1  0.2313627E-009  0.3882903E+03  0.7957747E-01  0.3415836E+00
         13   -1    0    0    0    0  0.00000000000E+00  0.00000000000E+00  0.14999999963E+04  0.15000000000E+04  0.10566000000E+00 0. -1.
        994   -1    0    0    0    0 -0.00000000000E+00 -0.00000000000E+00  0.11368683772E-12  0.17120000000E+03  0.17120000000E+03 0.  0.
         13    1    1    2    0    0 -0.98833850277E+02 -0.22086399676E+03  0.12358377983E+04  0.12593030255E+04  0.10566000000E+00 0. -1.
        994    1    1    2    0    0  0.10137803323E+03  0.22568798701E+03  0.23375168598E+03  0.38100113360E+03  0.17120000000E+03 0.  0.
        998    1    1    2    0    0 -0.25441829545E+01 -0.48239902427E+01  0.30410511961E+02  0.30895840925E+02  0.10000000000E+00 0. -1.
</event>
<event>
 5    1  0.2313627E-009  0.3880959E+03  0.7957747E-01  0.3416647E+00
         13   -1    0    0    0    0  0.00000000000E+00  0.00000000000E+00  0.14999999963E+04  0.15000000000E+04  0.10566000000E+00 0. -1.
        994   -1    0    0    0    0 -0.00000000000E+00 -0.00000000000E+00  0.11368683772E-12  0.17120000000E+03  0.17120000000E+03 0.  0.
         13    1    1    2    0    0  0.47603072739E+02  0.27696903057E+03  0.10933442955E+04  0.11288842527E+04  0.10566000000E+00 0. -1.
        994    1    1    2    0    0 -0.52975725923E+02 -0.28821332895E+03  0.36311413837E+03  0.49702582227E+03  0.17120000000E+03 0.  0.
        998    1    1    2    0    0  0.53726531844E+01  0.11244298378E+02  0.43541562424E+02  0.45289925000E+02  0.10000000000E+00 0. -1.
</event>
<event>
 5    1  0.2313627E-009  0.3882384E+03  0.7957747E-01  0.3416053E+00
         13   -1    0    0    0    0  0.00000000000E+00  0.00000000000E+00  0.14999999963E+04  0.15000000000E+04  0.10566000000E+00 0. -1.
        994   -1    0    0    0    0 -0.00000000000E+00 -0.00000000000E+00  0.11368683772E-12  0.17120000000E+03  0.17120000000E+03 0.  0.
         13    1    1    2    0    0  0.17567099138E+02  0.23054681094E+03  0.12850360015E+04  0.13056714637E+04  0.10566000000E+00 0. -1.
        994    1    1    2    0    0 -0.18002997898E+02 -0.23194386878E+03  0.20197327653E+03  0.35245526047E+03  0.17120000000E+03 0.  0.
        998    1    1    2    0    0  0.43589875982E+00  0.13970578430E+01  0.12990718296E+02  0.13073275802E+02  0.10000000000E+00 0.  1.
</event>
<event>
 5    1  0.2313627E-009  0.3882607E+03  0.7957747E-01  0.3415960E+00
         13   -1    0    0    0    0  0.00000000000E+00  0.00000000000E+00  0.14999999963E+04  0.15000000000E+04  0.10566000000E+00 0.  1.
        994   -1    0    0    0    0 -0.00000000000E+00 -0.00000000000E+00  0.11368683772E-12  0.17120000000E+03  0.17120000000E+03 0.  0.
         13    1    1    2    0    0 -0.29067026086E+03 -0.23484116705E+02  0.11039838863E+04  0.11418498748E+04  0.10566000000E+00 0.  1.
        994    1    1    2    0    0  0.29530338341E+03  0.24216346938E+02  0.37436834032E+03  0.50719977715E+03  0.17120000000E+03 0.  0.
        998    1    1    2    0    0 -0.46331225469E+01 -0.73223023264E+00  0.21647769657E+02  0.22150348006E+02  0.10000000000E+00 0.  1.
</event>
<event>
 5    1  0.2313627E-009  0.3878148E+03  0.7957747E-01  0.3417821E+00
         13   -1    0    0    0    0  0.00000000000E+00  0.00000000000E+00  0.14999999963E+04  0.15000000000E+04  0.10566000000E+00 0. -1.
        994   -1    0    0    0    0 -0.00000000000E+00 -0.00000000000E+00  0.11368683772E-12  0.17120000000E+03  0.17120000000E+03 0.  0.
         13    1    1    2    0    0 -0.98387646183E+01 -0.24530547131E+03  0.11438668822E+04  0.11699158222E+04  0.10566000000E+00 0. -1.
        994    1    1    2    0    0  0.12844597503E+02  0.26713456444E+03  0.28454491825E+03  0.42638141342E+03  0.17120000000E+03 0.  0.
        998    1    1    2    0    0 -0.30058328845E+01 -0.21829093135E+02  0.71588195786E+02  0.74902764397E+02  0.10000000000E+00 0. -1.
</event>
<event>
 5    1  0.2313627E-009  0.3882834E+03  0.7957747E-01  0.3415865E+00
         13   -1    0    0    0    0  0.00000000000E+00  0.00000000000E+00  0.14999999963E+04  0.15000000000E+04  0.10566000000E+00 0. -1.
        994   -1    0    0    0    0 -0.00000000000E+00 -0.00000000000E+00  0.11368683772E-12  0.17120000000E+03  0.17120000000E+03 0.  0.
         13    1    1    2    0    0  0.23868079203E+03 -0.39525450956E+02  0.11938973808E+04  0.12181632685E+04  0.10566000000E+00 0. -1.
        994    1    1    2    0    0 -0.24981814601E+03  0.40558832428E+02  0.24705030271E+03  0.39293436734E+03  0.17120000000E+03 0.  0.
        998    1    1    2    0    0  0.11137353978E+02 -0.10333814717E+01  0.59052312773E+02  0.60102364136E+02  0.10000000000E+00 0.  1.
</event>
<event>
 5    1  0.2313627E-009  0.3882789E+03  0.7957747E-01  0.3415884E+00
         13   -1    0    0    0    0  0.00000000000E+00  0.00000000000E+00  0.14999999963E+04  0.15000000000E+04  0.10566000000E+00 0. -1.
        994   -1    0    0    0    0 -0.00000000000E+00 -0.00000000000E+00  0.11368683772E-12  0.17120000000E+03  0.17120000000E+03 0.  0.
         13    1    1    2    0    0  0.21174329484E+03 -0.12764754414E+03  0.93165979763E+03  0.96390824673E+03  0.10566000000E+00 0. -1.
        994    1    1    2    0    0 -0.25413126282E+03  0.15223248053E+03  0.37411359103E+03  0.50697913750E+03  0.17120000000E+03 0.  0.
        998    1    1    2    0    0  0.42387967978E+02 -0.24584936393E+02  0.19422660762E+03  0.20031261576E+03  0.10000000000E+00 0. -1.
</event>
<event>
 5    1  0.2313627E-009  0.3882988E+03  0.7957747E-01  0.3415801E+00
         13   -1    0    0    0    0  0.00000000000E+00  0.00000000000E+00  0.14999999963E+04  0.15000000000E+04  0.10566000000E+00 0. -1.
        994   -1    0    0    0    0 -0.00000000000E+00 -0.00000000000E+00  0.11368683772E-12  0.17120000000E+03  0.17120000000E+03 0.  0.
         13    1    1    2    0    0  0.17591520834E+03 -0.15973133623E+03  0.12671034829E+04  0.12891902528E+04  0.10566000000E+00 0. -1.
        994    1    1    2    0    0 -0.17794171067E+03  0.16173888566E+03  0.21829167235E+03  0.36712860655E+03  0.17120000000E+03 0.  0.
        998    1    1    2    0    0  0.20265023316E+01 -0.20075494289E+01  0.14604841006E+02  0.14881140656E+02  0.10000000000E+00 0.  0.
</event>
<event>
 5    1  0.2313627E-009  0.3878445E+03  0.7957747E-01  0.3417697E+00
         13   -1    0    0    0    0  0.00000000000E+00  0.00000000000E+00  0.14999999963E+04  0.15000000000E+04  0.10566000000E+00 0. -1.
        994   -1    0    0    0    0 -0.00000000000E+00 -0.00000000000E+00  0.11368683772E-12  0.17120000000E+03  0.17120000000E+03 0.  0.
         13    1    1    2    0    0 -0.13487211466E+03  0.21807633925E+03  0.12285260514E+04  0.12549996204E+04  0.10566000000E+00 0. -1.
        994    1    1    2    0    0  0.13751721040E+03 -0.21801310698E+03  0.25922298310E+03  0.40366656158E+03  0.17120000000E+03 0.  0.
        998    1    1    2    0    0 -0.26450957408E+01 -0.63232266091E-01  0.12250961768E+02  0.12533818016E+02  0.10000000000E+00 0.  1.
</event>
<event>
 5    1  0.2313627E-009  0.3882937E+03  0.7957747E-01  0.3415822E+00
         13   -1    0    0    0    0  0.00000000000E+00  0.00000000000E+00  0.14999999963E+04  0.15000000000E+04  0.10566000000E+00 0.  1.
        994   -1    0    0    0    0 -0.00000000000E+00 -0.00000000000E+00  0.11368683772E-12  0.17120000000E+03  0.17120000000E+03 0.  0.
         13    1    1    2    0    0 -0.17573947408E+03 -0.16323101766E+03  0.12788430244E+04  0.13011411223E+04  0.10566000000E+00 0.  1.
        994    1    1    2    0    0  0.17623101019E+03  0.16351973897E+03  0.21817936145E+03  0.36702554101E+03  0.17120000000E+03 0.  0.
        998    1    1    2    0    0 -0.49153611587E+00 -0.28872131867E+00  0.29776104114E+01  0.30333366966E+01  0.10000000000E+00 0. -1.
</event>
<event>
 5    1  0.2313627E-009  0.3882514E+03  0.7957747E-01  0.3415998E+00
         13   -1    0    0    0    0  0.00000000000E+00  0.00000000000E+00  0.14999999963E+04  0.15000000000E+04  0.10566000000E+00 0.  1.
        994   -1    0    0    0    0 -0.00000000000E+00 -0.00000000000E+00  0.11368683772E-12  0.17120000000E+03  0.17120000000E+03 0.  0.
         13    1    1    2    0    0  0.30673905396E+02 -0.24354480210E+03  0.12624629952E+04  0.12861056662E+04  0.10566000000E+00 0.  1.
        994    1    1    2    0    0 -0.30249906053E+02  0.24458725925E+03  0.23162304231E+03  0.37907342024E+03  0.17120000000E+03 0.  0.
        998    1    1    2    0    0 -0.42399934359E+00 -0.10424571496E+01  0.59139587701E+01  0.60209136090E+01  0.10000000000E+00 0.  1.
</event>
<event>
 5    1  0.2313627E-009  0.3882441E+03  0.7957747E-01  0.3416029E+00
         13   -1    0    0    0    0  0.00000000000E+00  0.00000000000E+00  0.14999999963E+04  0.15000000000E+04  0.10566000000E+00 0.  1.
        994   -1    0    0    0    0 -0.00000000000E+00 -0.00000000000E+00  0.11368683772E-12  0.17120000000E+03  0.17120000000E+03 0.  0.
         13    1    1    2    0    0  0.41049671878E+02 -0.27383849706E+02  0.29136401581E+03  0.29551303128E+03  0.10566000000E+00 0.  1.
        994    1    1    2    0    0 -0.19057036256E+03  0.10769478986E+03  0.17543119285E+03  0.32863471252E+03  0.17120000000E+03 0.  0.
        998    1    1    2    0    0  0.14952069068E+03 -0.80310940153E+02  0.10332047876E+04  0.10470522562E+04  0.10000000000E+00 0.  1.
</event>
<event>
 5    1  0.2313627E-009  0.3858362E+03  0.7957747E-01  0.3426134E+00
         13   -1    0    0    0    0  0.00000000000E+00  0.00000000000E+00  0.14999999963E+04  0.15000000000E+04  0.10566000000E+00 0.  1.
        994   -1    0    0    0    0 -0.00000000000E+00 -0.00000000000E+00  0.11368683772E-12  0.17120000000E+03  0.17120000000E+03 0.  0.
         13    1    1    2    0    0 -0.27044236844E+03  0.17066565382E+03  0.92779343549E+03  0.98135952135E+03  0.10566000000E+00 0.  1.
        994    1    1    2    0    0  0.27569428131E+03 -0.18245565235E+03  0.55570017664E+03  0.66888678275E+03  0.17120000000E+03 0.  0.
        998    1    1    2    0    0 -0.52519128652E+01  0.11789998535E+02  0.16506384152E+02  0.20953695902E+02  0.10000000000E+00 0.  1.
</event>
<event>
 5    1  0.2313627E-009  0.3882921E+03  0.7957747E-01  0.3415829E+00
         13   -1    0    0    0    0  0.00000000000E+00  0.00000000000E+00  0.14999999963E+04  0.15000000000E+04  0.10566000000E+00 0.  1.
        994   -1    0    0    0    0 -0.00000000000E+00 -0.00000000000E+00  0.11368683772E-12  0.17120000000E+03  0.17120000000E+03 0.  0.
         13    1    1    2    0    0 -0.18441273459E+03 -0.15363457889E+03  0.12506167742E+04  0.12734417802E+04  0.10566000000E+00 0.  1.
        994    1    1    2    0    0  0.18733562241E+03  0.15649205809E+03  0.22627651258E+03  0.37429253240E+03  0.17120000000E+03 0.  0.
        998    1    1    2    0    0 -0.29228878156E+01 -0.28574792031E+01  0.23106709474E+02  0.23465687361E+02  0.10000000000E+00 0. -1.
</event>
<event>
 5    1  0.2313627E-009  0.3882986E+03  0.7957747E-01  0.3415802E+00
         13   -1    0    0    0    0  0.00000000000E+00  0.00000000000E+00  0.14999999963E+04  0.15000000000E+04  0.10566000000E+00 0.  1.
        994   -1    0    0    0    0 -0.00000000000E+00 -0.00000000000E+00  0.11368683772E-12  0.17120000000E+03  0.17120000000E+03 0.  0.
         13    1    1    2    0    0 -0.15691678658E+03 -0.20332695411E+03  0.10555608807E+04  0.10863579116E+04  0.10566000000E+00 0.  1.
        994    1    1    2    0    0  0.17339451189E+03  0.22533223517E+03  0.33332549504E+03  0.47037814426E+03  0.17120000000E+03 0.  0.
        998    1    1    2    0    0 -0.16477725311E+02 -0.22005281065E+02  0.11111362058E+03  0.11446394412E+03  0.10000000000E+00 0. -1.
</event>
<event>
 5    1  0.2313627E-009  0.3881017E+03  0.7957747E-01  0.3416623E+00
         13   -1    0    0    0    0  0.00000000000E+00  0.00000000000E+00  0.14999999963E+04  0.15000000000E+04  0.10566000000E+00 0.  1.
        994   -1    0    0    0    0 -0.00000000000E+00 -0.00000000000E+00  0.11368683772E-12  0.17120000000E+03  0.17120000000E+03 0.  0.
         13    1    1    2    0    0 -0.18315141151E+03  0.12319702342E+03  0.10609790122E+04  0.10836966465E+04  0.10566000000E+00 0.  1.
        994    1    1    2    0    0  0.20903950490E+03 -0.14323149039E+03  0.24810094137E+03  0.39379727215E+03  0.17120000000E+03 0.  0.
        998    1    1    2    0    0 -0.25888093384E+02  0.20034466971E+02  0.19092004270E+03  0.19370608134E+03  0.10000000000E+00 0. -1.
</event>
<event>
 5    1  0.2313627E-009  0.3841050E+03  0.7957747E-01  0.3433477E+00
         13   -1    0    0    0    0  0.00000000000E+00  0.00000000000E+00  0.14999999963E+04  0.15000000000E+04  0.10566000000E+00 0.  1.
        994   -1    0    0    0    0 -0.00000000000E+00 -0.00000000000E+00  0.11368683772E-12  0.17120000000E+03  0.17120000000E+03 0.  0.
         13    1    1    2    0    0 -0.19226971447E+02  0.27019713334E+02  0.17668549026E+03  0.17977072891E+03  0.10566000000E+00 0.  1.
        994    1    1    2    0    0 -0.44145286812E+02 -0.15041427238E+03  0.87838170096E+02  0.24818993495E+03  0.17120000000E+03 0.  0.
        998    1    1    2    0    0  0.63372258259E+02  0.12339455904E+03  0.12354763359E+04  0.12432393361E+04  0.10000000000E+00 0.  1.
</event>
<event>
 5    1  0.2313627E-009  0.3882940E+03  0.7957747E-01  0.3415821E+00
         13   -1    0    0    0    0  0.00000000000E+00  0.00000000000E+00  0.14999999963E+04  0.15000000000E+04  0.10566000000E+00 0. -1.
        994   -1    0    0    0    0 -0.00000000000E+00 -0.00000000000E+00  0.11368683772E-12  0.17120000000E+03  0.17120000000E+03 0.  0.
         13    1    1    2    0    0 -0.23684384983E+03  0.20986937084E+03  0.10350943795E+04  0.10823865057E+04  0.10566000000E+00 0. -1.
        994    1    1    2    0    0  0.23743058888E+03 -0.21028271627E+03  0.46280796714E+03  0.58659420364E+03  0.17120000000E+03 0.  0.
        998    1    1    2    0    0 -0.58673904881E+00  0.41334543491E+00  0.20976496550E+01  0.22192907054E+01  0.10000000000E+00 0.  0.
</event>
<event>
 5    1  0.2313627E-009  0.3882954E+03  0.7957747E-01  0.3415815E+00
         13   -1    0    0    0    0  0.00000000000E+00  0.00000000000E+00  0.14999999963E+04  0.15000000000E+04  0.10566000000E+00 0. -1.
        994   -1    0    0    0    0 -0.00000000000E+00 -0.00000000000E+00  0.11368683772E-12  0.17120000000E+03  0.17120000000E+03 0.  0.
         13    1    1    2    0    0 -0.17422053311E+03 -0.16512242442E+03  0.11885933837E+04  0.12125891523E+04  0.10566000000E+00 0. -1.
        994    1    1    2    0    0  0.18398041933E+03  0.17351903180E+03  0.24657410116E+03  0.39251226281E+03  0.17120000000E+03 0.  0.
        998    1    1    2    0    0 -0.97598862211E+01 -0.83966073866E+01  0.64832511376E+02  0.66098584902E+02  0.10000000000E+00 0. -1.
</event>
<event>
 5    1  0.2313627E-009  0.3882999E+03  0.7957747E-01  0.3415796E+00
         13   -1    0    0    0    0  0.00000000000E+00  0.00000000000E+00  0.14999999963E+04  0.15000000000E+04  0.10566000000E+00 0.  1.
        994   -1    0    0    0    0 -0.00000000000E+00 -0.00000000000E+00  0.11368683772E-12  0.17120000000E+03  0.17120000000E+03 0.  0.
         13    1    1    2    0    0  0.19924615129E+03 -0.12534396131E+03  0.12337750247E+04  0.12560298405E+04  0.10566000000E+00 0.  1.
        994    1    1    2    0    0 -0.20592785986E+03  0.12977058108E+03  0.22472738165E+03  0.37290551517E+03  0.17120000000E+03 0.  0.
        998    1    1    2    0    0  0.66817085729E+01 -0.44266197667E+01  0.41497589894E+02  0.42264644314E+02  0.10000000000E+00 0.  1.
</event>
<event>
 5    1  0.2313627E-009  0.3882994E+03  0.7957747E-01  0.3415799E+00
         13   -1    0    0    0    0  0.00000000000E+00  0.00000000000E+00  0.14999999963E+04  0.15000000000E+04  0.10566000000E+00 0.  1.
        994   -1    0    0    0    0 -0.00000000000E+00 -0.00000000000E+00  0.11368683772E-12  0.17120000000E+03  0.17120000000E+03 0.  0.
         13    1    1    2    0    0 -0.21018229464E+03  0.18064059600E+03  0.89896265470E+03  0.94071328662E+03  0.10566000000E+00 0.  1.
        994    1    1    2    0    0  0.24167687659E+03 -0.20694156415E+03  0.46785198436E+03  0.59112388119E+03  0.17120000000E+03 0.  0.
        998    1    1    2    0    0 -0.31494581948E+02  0.26300968156E+02  0.13318535722E+03  0.13936283219E+03  0.10000000000E+00 0. -1.
</event>
<event>
 5    1  0.2313627E-009  0.3883009E+03  0.7957747E-01  0.3415792E+00
         13   -1    0    0    0    0  0.00000000000E+00  0.00000000000E+00  0.14999999963E+04  0.15000000000E+04  0.10566000000E+00 0. -1.
        994   -1    0    0    0    0 -0.00000000000E+00 -0.00000000000E+00  0.11368683772E-12  0.17120000000E+03  0.17120000000E+03 0.  0.
         13    1    1    2    0    0 -0.14848471926E+03  0.14170794525E+03  0.10684256741E+04  0.10879624469E+04  0.10566000000E+00 0. -1.
        994    1    1    2    0    0  0.17682815435E+03 -0.16892721404E+03  0.22726807368E+03  0.37518637652E+03  0.17120000000E+03 0.  0.
        998    1    1    2    0    0 -0.28343435083E+02  0.27219268786E+02  0.20430624848E+03  0.20805117658E+03  0.10000000000E+00 0.  0.
</event>
<event>
 5    1  0.2313627E-009  0.3882885E+03  0.7957747E-01  0.3415844E+00
         13   -1    0    0    0    0  0.00000000000E+00  0.00000000000E+00  0.14999999963E+04  0.15000000000E+04  0.10566000000E+00 0. -1.
        994   -1    0    0    0    0 -0.00000000000E+00 -0.00000000000E+00  0.11368683772E-12  0.17120000000E+03  0.17120000000E+03 0.  0.
         13    1    1    2    0    0  0.17563582244E+03 -0.96103639119E+02  0.10089570996E+04  0.10286293266E+04  0.10566000000E+00 0. -1.
        994    1    1    2    0    0 -0.22072647234E+03  0.12060099173E+03  0.24331841358E+03  0.38958704443E+03  0.17120000000E+03 0.  0.
        998    1    1    2    0    0  0.45090649897E+02 -0.24497352615E+02  0.24772448313E+03  0.25298362899E+03  0.10000000000E+00 0. -1.
</event>
<event>
 5    1  0.2313627E-009  0.3882462E+03  0.7957747E-01  0.3416020E+00
         13   -1    0    0    0    0  0.00000000000E+00  0.00000000000E+00  0.14999999963E+04  0.15000000000E+04  0.10566000000E+00 0.  1.
        994   -1    0    0    0    0 -0.00000000000E+00 -0.00000000000E+00  0.11368683772E-12  0.17120000000E+03  0.17120000000E+03 0.  0.
         13    1    1    2    0    0 -0.22939236882E+03  0.27011901280E+02  0.12475342974E+04  0.12687365117E+04  0.10566000000E+00 0.  1.
        994    1    1    2    0    0  0.23757863394E+03 -0.27077400964E+02  0.21547103854E+03  0.36457372560E+03  0.17120000000E+03 0.  0.
        998    1    1    2    0    0 -0.81862651111E+01  0.65499684470E-01  0.36994660343E+02  0.37889762741E+02  0.10000000000E+00 0.  1.
</event>
<event>
 5    1  0.2313627E-009  0.3878434E+03  0.7957747E-01  0.3417702E+00
         13   -1    0    0    0    0  0.00000000000E+00  0.00000000000E+00  0.14999999963E+04  0.15000000000E+04  0.10566000000E+00 0. -1.
        994   -1    0    0    0    0 -0.00000000000E+00 -0.00000000000E+00  0.11368683772E-12  0.17120000000E+03  0.17120000000E+03 0.  0.
         13    1    1    2    0    0  0.66684917005E+02 -0.19732174629E+03  0.12447146397E+04  0.12620211152E+04  0.10566000000E+00 0. -1.
        994    1    1    2    0    0 -0.76647571819E+02  0.20973585768E+03  0.18414125315E+03  0.33627581146E+03  0.17120000000E+03 0.  0.
        998    1    1    2    0    0  0.99626548135E+01 -0.12414111383E+02  0.71144103389E+02  0.72903073319E+02  0.10000000000E+00 0.  1.
</event>
<event>
 5    1  0.2313627E-009  0.3881490E+03  0.7957747E-01  0.3416426E+00
         13   -1    0    0    0    0  0.00000000000E+00  0.00000000000E+00  0.14999999963E+04  0.15000000000E+04  0.10566000000E+00 0. -1.
        994   -1    0    0    0    0 -0.00000000000E+00 -0.00000000000E+00  0.11368683772E-12  0.17120000000E+03  0.17120000000E+03 0.  0.
         13    1    1    2    0    0  0.46845419441E+02 -0.64543672360E+02  0.38725775542E+03  0.39538457135E+03  0.10566000000E+00 0. -1.
        994    1    1    2    0    0 -0.16482376931E+03  0.21381333990E+03  0.29084880862E+03  0.43218686783E+03  0.17120000000E+03 0.  0.
        998    1    1    2    0    0  0.11797834987E+03 -0.14926966753E+03  0.82189343224E+03  0.84362856082E+03  0.10000000000E+00 0. -1.
</event>
<event>
 5    1  0.2313627E-009  0.3883003E+03  0.7957747E-01  0.3415795E+00
         13   -1    0    0    0    0  0.00000000000E+00  0.00000000000E+00  0.14999999963E+04  0.15000000000E+04  0.10566000000E+00 0. -1.
        994   -1    0    0    0    0 -0.00000000000E+00 -0.00000000000E+00  0.11368683772E-12  0.17120000000E+03  0.17120000000E+03 0.  0.
         13    1    1    2    0    0 -0.24818108322E+03  0.20707239410E+03  0.97113335951E+03  0.10235100584E+04  0.10566000000E+00 0. -1.
        994    1    1    2    0    0  0.25115108501E+03 -0.20950325614E+03  0.51737845780E+03  0.63557721044E+03  0.17120000000E+03 0.  0.
        998    1    1    2    0    0 -0.29700017892E+01  0.24308620399E+01  0.11488178968E+02  0.12112731190E+02  0.10000000000E+00 0.  0.
</event>
<event>
 5    1  0.2313627E-009  0.3882975E+03  0.7957747E-01  0.3415806E+00
         13   -1    0    0    0    0  0.00000000000E+00  0.00000000000E+00  0.14999999963E+04  0.15000000000E+04  0.10566000000E+00 0. -1.
        994   -1    0    0    0    0 -0.00000000000E+00 -0.00000000000E+00  0.11368683772E-12  0.17120000000E+03  0.17120000000E+03 0.  0.
         13    1    1    2    0    0  0.38700158520E+02  0.21079798036E+03  0.10353560158E+04  0.10573058127E+04  0.10566000000E+00 0. -1.
        994    1    1    2    0    0 -0.46803575647E+02 -0.25235707075E+03  0.25571308222E+03  0.40071596708E+03  0.17120000000E+03 0.  0.
        998    1    1    2    0    0  0.81034171273E+01  0.41559090386E+02  0.20893089822E+03  0.21317822026E+03  0.10000000000E+00 0.  1.
</event>
<event>
 5    1  0.2313627E-009  0.3870111E+03  0.7957747E-01  0.3421187E+00
         13   -1    0    0    0    0  0.00000000000E+00  0.00000000000E+00  0.14999999963E+04  0.15000000000E+04  0.10566000000E+00 0. -1.
        994   -1    0    0    0    0 -0.00000000000E+00 -0.00000000000E+00  0.11368683772E-12  0.17120000000E+03  0.17120000000E+03 0.  0.
         13    1    1    2    0    0  0.36057283091E+01 -0.14151852182E+02  0.45490341446E+02  0.47777175782E+02  0.10566000000E+00 0. -1.
        994    1    1    2    0    0 -0.52983342150E+02  0.18926553035E+03  0.13901071419E+03  0.29540158122E+03  0.17120000000E+03 0.  0.
        998    1    1    2    0    0  0.49377613841E+02 -0.17511367817E+03  0.13154989406E+04  0.13280212430E+04  0.10000000000E+00 0. -1.
</event>
<event>
 5    1  0.2313627E-009  0.3880702E+03  0.7957747E-01  0.3416755E+00
         13   -1    0    0    0    0  0.00000000000E+00  0.00000000000E+00  0.14999999963E+04  0.15000000000E+04  0.10566000000E+00 0.  1.
        994   -1    0    0    0    0 -0.00000000000E+00 -0.00000000000E+00  0.11368683772E-12  0.17120000000E+03  0.17120000000E+03 0.  0.
         13    1    1    2    0    0  0.21006678857E+03  0.52689776707E+02  0.12688821396E+04  0.12872319774E+04  0.10566000000E+00 0.  1.
        994    1    1    2    0    0 -0.21533029749E+03 -0.52708297244E+02  0.18081374958E+03  0.33338919247E+03  0.17120000000E+03 0.  0.
        998    1    1    2    0    0  0.52635089179E+01  0.18520537503E-01  0.50304107054E+02  0.50578830113E+02  0.10000000000E+00 0.  1.
</event>
<event>
 5    1  0.2313627E-009  0.3882970E+03  0.7957747E-01  0.3415809E+00
         13   -1    0    0    0    0  0.00000000000E+00  0.00000000000E+00  0.14999999963E+04  0.15000000000E+04  0.10566000000E+00 0.  1.
        994   -1    0    0    0    0 -0.00000000000E+00 -0.00000000000E+00  0.11368683772E-12  0.17120000000E+03  0.17120000000E+03 0.  0.
         13    1    1    2    0    0  0.10560030939E+03  0.20990510590E+03  0.12647576099E+04  0.12863993944E+04  0.10566000000E+00 0.  1.
        994    1    1    2    0    0 -0.10730965038E+03 -0.21353808211E+03  0.21511663225E+03  0.36427802438E+03  0.17120000000E+03 0.  0.
        998    1    1    2    0    0  0.17093409940E+01  0.36329762039E+01  0.20125754094E+02  0.20522581236E+02  0.10000000000E+00 0. -1.
</event>
<event>
 5    1  0.2313627E-009  0.3829348E+03  0.7957747E-01  0.3438478E+00
         13   -1    0    0    0    0  0.00000000000E+00  0.00000000000E+00  0.14999999963E+04  0.15000000000E+04  0.10566000000E+00 0.  1.
        994   -1    0    0    0    0 -0.00000000000E+00 -0.00000000000E+00  0.11368683772E-12  0.17120000000E+03  0.17120000000E+03 0.  0.
         13    1    1    2    0    0  0.21241807245E+03  0.56870187881E+02  0.11960142040E+04  0.12160615293E+04  0.10566000000E+00 0.  1.
        994    1    1    2    0    0 -0.21335708405E+03 -0.81321053780E+02  0.20043948950E+03  0.34874028740E+03  0.17120000000E+03 0.  0.
        998    1    1    2    0    0  0.93901159782E+00  0.24450865899E+02  0.10354630279E+03  0.10639818329E+03  0.10000000000E+00 0. -1.
</event>
<event>
 5    1  0.2313627E-009  0.3882922E+03  0.7957747E-01  0.3415828E+00
         13   -1    0    0    0    0  0.00000000000E+00  0.00000000000E+00  0.14999999963E+04  0.15000000000E+04  0.10566000000E+00 0. -1.
        994   -1    0    0    0    0 -0.00000000000E+00 -0.00000000000E+00  0.11368683772E-12  0.17120000000E+03  0.17120000000E+03 0.  0.
         13    1    1    2    0    0  0.20917945117E+03  0.31256655186E+02  0.73196550163E+03  0.76190978995E+03  0.10566000000E+00 0. -1.
        994    1    1    2    0    0 -0.30721535502E+03 -0.43817723175E+02  0.43070457244E+03  0.55777875179E+03  0.17120000000E+03 0.  0.
        998    1    1    2    0    0  0.98035903844E+02  0.12561067989E+02  0.33732992220E+03  0.35151145826E+03  0.10000000000E+00 0. -1.
</event>
<event>
 5    1  0.2313627E-009  0.3881937E+03  0.7957747E-01  0.3416239E+00
         13   -1    0    0    0    0  0.00000000000E+00  0.00000000000E+00  0.14999999963E+04  0.15000000000E+04  0.10566000000E+00 0. -1.
        994   -1    0    0    0    0 -0.00000000000E+00 -0.00000000000E+00  0.11368683772E-12  0.17120000000E+03  0.17120000000E+03 0.  0.
         13    1    1    2    0    0  0.72140271851E+02 -0.16428012071E+03  0.86736398762E+03  0.88572708836E+03  0.10566000000E+00 0. -1.
        994    1    1    2    0    0 -0.97448742190E+02  0.24049416773E+03  0.26295920568E+03  0.40717402412E+03  0.17120000000E+03 0.  0.
        998    1    1    2    0    0  0.25308470339E+02 -0.76214047020E+02  0.36967680298E+03  0.37829888752E+03  0.10000000000E+00 0.  1.
</event>
<event>
 5    1  0.2313627E-009  0.3883003E+03  0.7957747E-01  0.3415795E+00
         13   -1    0    0    0    0  0.00000000000E+00  0.00000000000E+00  0.14999999963E+04  0.15000000000E+04  0.10566000000E+00 0.  1.
        994   -1    0    0    0    0 -0.00000000000E+00 -0.00000000000E+00  0.11368683772E-12  0.17120000000E+03  0.17120000000E+03 0.  0.
         13    1    1    2    0    0  0.21582839295E+03 -0.12075317786E+03  0.12280697826E+04  0.12527244818E+04  0.10566000000E+00 0.  1.
        994    1    1    2    0    0 -0.22035355274E+03  0.12340916394E+03  0.24575275194E+03  0.39177718800E+03  0.17120000000E+03 0.  0.
        998    1    1    2    0    0  0.45251597934E+01 -0.26559860842E+01  0.26177461716E+02  0.26698330194E+02  0.10000000000E+00 0.  0.
</event>
<event>
 5    1  0.2313627E-009  0.3882966E+03  0.7957747E-01  0.3415810E+00
         13   -1    0    0    0    0  0.00000000000E+00  0.00000000000E+00  0.14999999963E+04  0.15000000000E+04  0.10566000000E+00 0. -1.
        994   -1    0    0    0    0 -0.00000000000E+00 -0.00000000000E+00  0.11368683772E-12  0.17120000000E+03  0.17120000000E+03 0.  0.
         13    1    1    2    0    0 -0.37890641986E+02  0.21507826609E+03  0.10740665152E+04  0.10960443657E+04  0.10566000000E+00 0. -1.
        994    1    1    2    0    0  0.44978517500E+02 -0.25063758365E+03  0.25077178954E+03  0.39628045095E+03  0.17120000000E+03 0.  0.
        998    1    1    2    0    0 -0.70878755145E+01  0.35559317558E+02  0.17516169155E+03  0.17887518339E+03  0.10000000000E+00 0. -1.
</event>
<event>
 5    1  0.2313627E-009  0.3880593E+03  0.7957747E-01  0.3416800E+00
         13   -1    0    0    0    0  0.00000000000E+00  0.00000000000E+00  0.14999999963E+04  0.15000000000E+04  0.10566000000E+00 0. -1.
        994   -1    0    0    0    0 -0.00000000000E+00 -0.00000000000E+00  0.11368683772E-12  0.17120000000E+03  0.17120000000E+03 0.  0.
         13    1    1    2    0    0 -0.11252399292E+03  0.22805934692E+03  0.10570004932E+04  0.10871627148E+04  0.10566000000E+00 0. -1.
        994    1    1    2    0    0  0.12897793044E+03 -0.25436758098E+03  0.33670146428E+03  0.47330274544E+03  0.17120000000E+03 0.  0.
        998    1    1    2    0    0 -0.16453937518E+02  0.26308234065E+02  0.10629803876E+03  0.11073453971E+03  0.10000000000E+00 0. -1.
</event>
<event>
 5    1  0.2313627E-009  0.3833916E+03  0.7957747E-01  0.3436522E+00
         13   -1    0    0    0    0  0.00000000000E+00  0.00000000000E+00  0.14999999963E+04  0.15000000000E+04  0.10566000000E+00 0.  1.
        994   -1    0    0    0    0 -0.00000000000E+00 -0.00000000000E+00  0.11368683772E-12  0.17120000000E+03  0.17120000000E+03 0.  0.
         13    1    1    2    0    0  0.74327232014E+02  0.58996804051E+02  0.49733640013E+03  0.50630886459E+03  0.10566000000E+00 0.  1.
        994    1    1    2    0    0 -0.10358297216E+03 -0.12197789059E+03  0.92274420591E+02  0.25185719487E+03  0.17120000000E+03 0.  0.
        998    1    1    2    0    0  0.29255740143E+02  0.62981086541E+02  0.91038917556E+03  0.91303394054E+03  0.10000000000E+00 0.  1.
</event>
<event>
 5    1  0.2313627E-009  0.3882928E+03  0.7957747E-01  0.3415826E+00
         13   -1    0    0    0    0  0.00000000000E+00  0.00000000000E+00  0.14999999963E+04  0.15000000000E+04  0.10566000000E+00 0.  1.
        994   -1    0    0    0    0 -0.00000000000E+00 -0.00000000000E+00  0.11368683772E-12  0.17120000000E+03  0.17120000000E+03 0.  0.
         13    1    1    2    0    0  0.13717560349E+03  0.17495162088E+03  0.13083695046E+04  0.13271231998E+04  0.10566000000E+00 0.  1.
        994    1    1    2    0    0 -0.13777586468E+03 -0.17610956532E+03  0.18413899816E+03  0.33647195802E+03  0.17120000000E+03 0.  0.
        998    1    1    2    0    0  0.60026119333E+00  0.11579444378E+01  0.74914935363E+01  0.76048421565E+01  0.10000000000E+00 0.  0.
</event>
<event>
 5    1  0.2313627E-009  0.3882979E+03  0.7957747E-01  0.3415805E+00
         13   -1    0    0    0    0  0.00000000000E+00  0.00000000000E+00  0.14999999963E+04  0.15000000000E+04  0.10566000000E+00 0. -1.
        994   -1    0    0    0    0 -0.00000000000E+00 -0.00000000000E+00  0.11368683772E-12  0.17120000000E+03  0.17120000000E+03 0.  0.
         13    1    1    2    0    0 -0.20134539518E+03 -0.55147804187E+02  0.12591143544E+04  0.12763033406E+04  0.10566000000E+00 0. -1.
        994    1    1    2    0    0  0.21139343798E+03  0.58342704470E+02  0.17610170160E+03  0.32926024068E+03  0.17120000000E+03 0.  0.
        998    1    1    2    0    0 -0.10048042794E+02 -0.31949002830E+01  0.64783940256E+02  0.65636418754E+02  0.10000000000E+00 0.  0.
</event>
<event>
 5    1  0.2313627E-009  0.3882416E+03  0.7957747E-01  0.3416039E+00
         13   -1    0    0    0    0  0.00000000000E+00  0.00000000000E+00  0.14999999963E+04  0.15000000000E+04  0.10566000000E+00 0.  1.
        994   -1    0    0    0    0 -0.00000000000E+00 -0.00000000000E+00  0.11368683772E-12  0.17120000000E+03  0.17120000000E+03 0.  0.
         13    1    1    2    0    0  0.25192032665E+03 -0.77957758584E+02  0.11965555964E+04  0.12252699986E+04  0.10566000000E+00 0.  1.
        994    1    1    2    0    0 -0.25502827030E+03  0.79373375130E+02  0.28278447322E+03  0.42498947002E+03  0.17120000000E+03 0.  0.
        998    1    1    2    0    0  0.31079436500E+01 -0.14156165468E+01  0.20659926653E+02  0.20940531351E+02  0.10000000000E+00 0. -1.
</event>
<event>
 5    1  0.2313627E-009  0.3881989E+03  0.7957747E-01  0.3416217E+00
         13   -1    0    0    0    0  0.00000000000E+00  0.00000000000E+00  0.14999999963E+04  0.15000000000E+04  0.10566000000E+00 0.  1.
        994   -1    0    0    0    0 -0.00000000000E+00 -0.00000000000E+00  0.11368683772E-12  0.17120000000E+03  0.17120000000E+03 0.  0.
         13    1    1    2    0    0  0.62984822986E+02 -0.17415895038E+02  0.28279187777E+03  0.29024413625E+03  0.10566000000E+00 0.  1.
        994    1    1    2    0    0 -0.25113378803E+03  0.74840706514E+02  0.26950556431E+03  0.41305205488E+03  0.17120000000E+03 0.  0.
        998    1    1    2    0    0  0.18814896504E+03 -0.57424811476E+02  0.94770255419E+03  0.96790380888E+03  0.10000000000E+00 0.  1.
</event>
<event>
 5    1  0.2313627E-009  0.3882946E+03  0.7957747E-01  0.3415819E+00
         13   -1    0    0    0    0  0.00000000000E+00  0.00000000000E+00  0.14999999963E+04  0.15000000000E+04  0.10566000000E+00 0.  1.
        994   -1    0    0    0    0 -0.00000000000E+00 -0.00000000000E+00  0.11368683772E-12  0.17120000000E+03  0.17120000000E+03 0.  0.
         13    1    1    2    0    0 -0.14780931583E+03  0.16909159090E+03  0.11759780138E+04  0.11972317487E+04  0.10566000000E+00 0.  1.
        994    1    1    2    0    0  0.15967469644E+03 -0.18303402611E+03  0.22360330571E+03  0.37189426148E+03  0.17120000000E+03 0.  0.
        998    1    1    2    0    0 -0.11865380604E+02  0.13942435210E+02  0.10041867675E+03  0.10207398982E+03  0.10000000000E+00 0.  1.
</event>
<event>
 5    1  0.2313627E-009  0.3883009E+03  0.7957747E-01  0.3415792E+00
         13   -1    0    0    0    0  0.00000000000E+00  0.00000000000E+00  0.14999999963E+04  0.15000000000E+04  0.10566000000E+00 0. -1.
        994   -1    0    0    0    0 -0.00000000000E+00 -0.00000000000E+00  0.11368683772E-12  0.17120000000E+03  0.17120000000E+03 0.  0.
         13    1    1    2    0    0 -0.17091937231E+03  0.47059681397E+02  0.95484712538E+03  0.97116481065E+03  0.10566000000E+00 0. -1.
        994    1    1    2    0    0  0.23018072558E+03 -0.63206179181E+02  0.21450474586E+03  0.36373055070E+03  0.17120000000E+03 0.  0.
        998    1    1    2    0    0 -0.59261353271E+02  0.16146497784E+02  0.33064812504E+03  0.33630463864E+03  0.10000000000E+00 0.  0.
</event>
<event>
 5    1  0.2313627E-009  0.3883002E+03  0.7957747E-01  0.3415795E+00
         13   -1    0    0    0    0  0.00000000000E+00  0.00000000000E+00  0.14999999963E+04  0.15000000000E+04  0.10566000000E+00 0. -1.
        994   -1    0    0    0    0 -0.00000000000E+00 -0.00000000000E+00  0.11368683772E-12  0.17120000000E+03  0.17120000000E+03 0.  0.
         13    1    1    2    0    0 -0.22933907222E+03  0.22300024299E+03  0.96476453148E+03  0.10164133661E+04  0.10566000000E+00 0. -1.
        994    1    1    2    0    0  0.23417699230E+03 -0.22778029668E+03  0.51507445411E+03  0.63350916375E+03  0.17120000000E+03 0.  0.
        998    1    1    2    0    0 -0.48379200813E+01  0.47800536862E+01  0.20161010685E+02  0.21277470146E+02  0.10000000000E+00 0. -1.
</event>
<event>
 5    1  0.2313627E-009  0.3882947E+03  0.7957747E-01  0.3415818E+00
         13   -1    0    0    0    0  0.00000000000E+00  0.00000000000E+00  0.14999999963E+04  0.15000000000E+04  0.10566000000E+00 0. -1.
        994   -1    0    0    0    0 -0.00000000000E+00 -0.00000000000E+00  0.11368683772E-12  0.17120000000E+03  0.17120000000E+03 0.  0.
         13    1    1    2    0    0  0.70635211033E+02 -0.10188604055E+03  0.61544184629E+03  0.62780472731E+03  0.10566000000E+00 0. -1.
        994    1    1    2    0    0 -0.14414681090E+03  0.20520383299E+03  0.24153500473E+03  0.38798906515E+03  0.17120000000E+03 0.  0.
        998    1    1    2    0    0  0.73511599871E+02 -0.10331779244E+03  0.64302314526E+03  0.65540620754E+03  0.10000000000E+00 0. -1.
</event>
<event>
 5    1  0.2313627E-009  0.3827293E+03  0.7957747E-01  0.3439360E+00
         13   -1    0    0    0    0  0.00000000000E+00  0.00000000000E+00  0.14999999963E+04  0.15000000000E+04  0.10566000000E+00 0.  1.
        994   -1    0    0    0    0 -0.00000000000E+00 -0.00000000000E+00  0.11368683772E-12  0.17120000000E+03  0.17120000000E+03 0.  0.
         13    1    1    2    0    0 -0.22636567227E+03 -0.29563983817E+02  0.11849655132E+04  0.12067554538E+04  0.10566000000E+00 0.  1.
        994    1    1    2    0    0  0.23523852246E+03  0.78030582721E+01  0.21542033533E+03  0.36209585892E+03  0.17120000000E+03 0.  0.
        998    1    1    2    0    0 -0.88728501959E+01  0.21760925545E+02  0.99614147764E+02  0.10234868727E+03  0.10000000000E+00 0.  1.
</event>
<event>
 5    1  0.2313627E-009  0.3882989E+03  0.7957747E-01  0.3415800E+00
         13   -1    0    0    0    0  0.00000000000E+00  0.00000000000E+00  0.14999999963E+04  0.15000000000E+04  0.10566000000E+00 0. -1.
        994   -1    0    0    0    0 -0.00000000000E+00 -0.00000000000E+00  0.11368683772E-12  0.17120000000E+03  0.17120000000E+03 0.  0.
         13    1    1    2    0    0  0.23728067443E+03  0.17085157142E+03  0.11000674111E+04  0.11382621394E+04  0.10566000000E+00 0. -1.
        994    1    1    2    0    0 -0.24170821987E+03 -0.17380905535E+03  0.37949859538E+03  0.51182133129E+03  0.17120000000E+03 0.  0.
        998    1    1    2    0    0  0.44275454381E+01  0.29574839313E+01  0.20433989791E+02  0.21116529274E+02  0.10000000000E+00 0.  0.
</event>
<event>
 5    1  0.2313627E-009  0.3881627E+03  0.7957747E-01  0.3416369E+00
         13   -1    0    0    0    0  0.00000000000E+00  0.00000000000E+00  0.14999999963E+04  0.15000000000E+04  0.10566000000E+00 0. -1.
        994   -1    0    0    0    0 -0.00000000000E+00 -0.00000000000E+00  0.11368683772E-12  0.17120000000E+03  0.17120000000E+03 0.  0.
         13    1    1    2    0    0  0.22494929247E+03 -0.13822314692E+03  0.10831364648E+04  0.11148508577E+04  0.10566000000E+00 0. -1.
        994    1    1    2    0    0 -0.24137437714E+03  0.14617985795E+03  0.32687562382E+03  0.46452906718E+03  0.17120000000E+03 0.  0.
        998    1    1    2    0    0  0.16425084667E+02 -0.79567110279E+01  0.89987907693E+02  0.91820075079E+02  0.10000000000E+00 0.  1.
</event>
<event>
 5    1  0.2313627E-009  0.3882642E+03  0.7957747E-01  0.3415945E+00
         13   -1    0    0    0    0  0.00000000000E+00  0.00000000000E+00  0.14999999963E+04  0.15000000000E+04  0.10566000000E+00 0. -1.
        994   -1    0    0    0    0 -0.00000000000E+00 -0.00000000000E+00  0.11368683772E-12  0.17120000000E+03  0.17120000000E+03 0.  0.
         13    1    1    2    0    0  0.20783067933E+03 -0.67362429133E+02  0.12687585323E+04  0.12874313623E+04  0.10566000000E+00 0. -1.
        994    1    1    2    0    0 -0.21375561451E+03  0.69837788234E+02  0.18660682401E+03  0.33867436597E+03  0.17120000000E+03 0.  0.
        998    1    1    2    0    0  0.59249351771E+01 -0.24753591016E+01  0.44634639976E+02  0.45094271757E+02  0.10000000000E+00 0.  1.
</event>
<event>
 5    1  0.2313627E-009  0.3882606E+03  0.7957747E-01  0.3415960E+00
         13   -1    0    0    0    0  0.00000000000E+00  0.00000000000E+00  0.14999999963E+04  0.15000000000E+04  0.10566000000E+00 0. -1.
        994   -1    0    0    0    0 -0.00000000000E+00 -0.00000000000E+00  0.11368683772E-12  0.17120000000E+03  0.17120000000E+03 0.  0.
         13    1    1    2    0    0 -0.24833125533E+03 -0.81000970891E+02  0.12303223404E+04  0.12577450625E+04  0.10566000000E+00 0. -1.
        994    1    1    2    0    0  0.24844719227E+03  0.81120716403E+02  0.26760695289E+03  0.41137513198E+03  0.17120000000E+03 0.  0.
        998    1    1    2    0    0 -0.11593693709E+00 -0.11974551201E+00  0.20707029762E+01  0.20798055622E+01  0.10000000000E+00 0.  0.
</event>
<event>
 5    1  0.2313627E-009  0.3879774E+03  0.7957747E-01  0.3417142E+00
         13   -1    0    0    0    0  0.00000000000E+00  0.00000000000E+00  0.14999999963E+04  0.15000000000E+04  0.10566000000E+00 0. -1.
        994   -1    0    0    0    0 -0.00000000000E+00 -0.00000000000E+00  0.11368683772E-12  0.17120000000E+03  0.17120000000E+03 0.  0.
         13    1    1    2    0    0  0.12292837971E+02 -0.23956569929E+03  0.12677344163E+04  0.12902299793E+04  0.10566000000E+00 0. -1.
        994    1    1    2    0    0 -0.14157104332E+02  0.24063464673E+03  0.22003485441E+03  0.36855153502E+03  0.17120000000E+03 0.  0.
        998    1    1    2    0    0  0.18642663609E+01 -0.10689474442E+01  0.12230725616E+02  0.12418485689E+02  0.10000000000E+00 0. -1.
</event>
<event>
 5    1  0.2313627E-009  0.3882993E+03  0.7957747E-01  0.3415799E+00
         13   -1    0    0    0    0  0.00000000000E+00  0.00000000000E+00  0.14999999963E+04  0.15000000000E+04  0.10566000000E+00 0. -1.
        994   -1    0    0    0    0 -0.00000000000E+00 -0.00000000000E+00  0.11368683772E-12  0.17120000000E+03  0.17120000000E+03 0.  0.
         13    1    1    2    0    0  0.19951280472E+03  0.13432825131E+03  0.11971442106E+04  0.12210666282E+04  0.10566000000E+00 0. -1.
        994    1    1    2    0    0 -0.20895905127E+03 -0.14076867847E+03  0.24431221233E+03  0.39048380637E+03  0.17120000000E+03 0.  0.
        998    1    1    2    0    0  0.94462465562E+01  0.64404271615E+01  0.58543573322E+02  0.59649565408E+02  0.10000000000E+00 0. -1.
</event>
<event>
 5    1  0.2313627E-009  0.3877301E+03  0.7957747E-01  0.3418176E+00
         13   -1    0    0    0    0  0.00000000000E+00  0.00000000000E+00  0.14999999963E+04  0.15000000000E+04  0.10566000000E+00 0.  1.
        994   -1    0    0    0    0 -0.00000000000E+00 -0.00000000000E+00  0.11368683772E-12  0.17120000000E+03  0.17120000000E+03 0.  0.
         13    1    1    2    0    0 -0.84372271875E+02 -0.11311542392E+03  0.84846947442E+03  0.86012454887E+03  0.10566000000E+00 0.  1.
        994    1    1    2    0    0  0.11951999227E+03  0.16338156135E+03  0.14762103800E+03  0.30344682236E+03  0.17120000000E+03 0.  0.
        998    1    1    2    0    0 -0.35147720393E+02 -0.50266137424E+02  0.50390948386E+03  0.50762862877E+03  0.10000000000E+00 0.  1.
</event>
<event>
 5    1  0.2313627E-009  0.3882762E+03  0.7957747E-01  0.3415895E+00
         13   -1    0    0    0    0  0.00000000000E+00  0.00000000000E+00  0.14999999963E+04  0.15000000000E+04  0.10566000000E+00 0. -1.
        994   -1    0    0    0    0 -0.00000000000E+00 -0.00000000000E+00  0.11368683772E-12  0.17120000000E+03  0.17120000000E+03 0.  0.
         13    1    1    2    0    0 -0.26870139592E+03  0.41748744297E+02  0.11966923685E+04  0.12271984493E+04  0.10566000000E+00 0. -1.
        994    1    1    2    0    0  0.26969939135E+03 -0.41549131111E+02  0.29880285538E+03  0.43938215527E+03  0.17120000000E+03 0.  0.
        998    1    1    2    0    0 -0.99799543217E+00 -0.19961318605E+00  0.45047723568E+01  0.46193954467E+01  0.10000000000E+00 0.  1.
</event>
<event>
 5    1  0.2313627E-009  0.3882996E+03  0.7957747E-01  0.3415798E+00
         13   -1    0    0    0    0  0.00000000000E+00  0.00000000000E+00  0.14999999963E+04  0.15000000000E+04  0.10566000000E+00 0.  1.
        994   -1    0    0    0    0 -0.00000000000E+00 -0.00000000000E+00  0.11368683772E-12  0.17120000000E+03  0.17120000000E+03 0.  0.
         13    1    1    2    0    0 -0.20268353729E+03  0.10854205127E+03  0.11204568791E+04  0.11438031397E+04  0.10566000000E+00 0.  1.
        994    1    1    2    0    0  0.22512970967E+03 -0.12080243860E+03  0.25284075205E+03  0.39813879646E+03  0.17120000000E+03 0.  0.
        998    1    1    2    0    0 -0.22446172383E+02  0.12260387329E+02  0.12670236509E+03  0.12925806386E+03  0.10000000000E+00 0. -1.
</event>
<event>
 5    1  0.2313627E-009  0.3882435E+03  0.7957747E-01  0.3416031E+00
         13   -1    0    0    0    0  0.00000000000E+00  0.00000000000E+00  0.14999999963E+04  0.15000000000E+04  0.10566000000E+00 0.  1.
        994   -1    0    0    0    0 -0.00000000000E+00 -0.00000000000E+00  0.11368683772E-12  0.17120000000E+03  0.17120000000E+03 0.  0.
         13    1    1    2    0    0  0.12767088295E+03  0.26084763747E+03  0.11421449894E+04  0.11784890888E+04  0.10566000000E+00 0.  1.
        994    1    1    2    0    0 -0.12758418531E+03 -0.26131963007E+03  0.35493055633E+03  0.48974566177E+03  0.17120000000E+03 0.  0.
        998    1    1    2    0    0 -0.86697633336E-01  0.47199259965E+00  0.29244505374E+01  0.29652494734E+01  0.10000000000E+00 0.  1.
</event>
<event>
 5    1  0.2313627E-009  0.3880821E+03  0.7957747E-01  0.3416705E+00
         13   -1    0    0    0    0  0.00000000000E+00  0.00000000000E+00  0.14999999963E+04  0.15000000000E+04  0.10566000000E+00 0.  1.
        994   -1    0    0    0    0 -0.00000000000E+00 -0.00000000000E+00  0.11368683772E-12  0.17120000000E+03  0.17120000000E+03 0.  0.
         13    1    1    2    0    0 -0.17025907545E+03  0.91483378624E+02  0.10734098657E+04  0.10906723212E+04  0.10566000000E+00 0.  1.
        994    1    1    2    0    0  0.19934849425E+03 -0.10922057069E+03  0.19154842779E+03  0.34302943811E+03  0.17120000000E+03 0.  0.
        998    1    1    2    0    0 -0.29089418798E+02  0.17737192070E+02  0.23504170279E+03  0.23749824067E+03  0.10000000000E+00 0.  1.
</event>
<event>
 5    1  0.2313627E-009  0.3881821E+03  0.7957747E-01  0.3416288E+00
         13   -1    0    0    0    0  0.00000000000E+00  0.00000000000E+00  0.14999999963E+04  0.15000000000E+04  0.10566000000E+00 0.  1.
        994   -1    0    0    0    0 -0.00000000000E+00 -0.00000000000E+00  0.11368683772E-12  0.17120000000E+03  0.17120000000E+03 0.  0.
         13    1    1    2    0    0 -0.31858510420E+02  0.26350492722E+03  0.11740699406E+04  0.12036984872E+04  0.10566000000E+00 0.  1.
        994    1    1    2    0    0  0.32698856936E+02 -0.26869003859E+03  0.29274749231E+03  0.43390561915E+03  0.17120000000E+03 0.  0.
        998    1    1    2    0    0 -0.84034651587E+00  0.51851113692E+01  0.33182563337E+02  0.33595893675E+02  0.10000000000E+00 0. -1.
</event>
<event>
 5    1  0.2313627E-009  0.3853848E+03  0.7957747E-01  0.3428042E+00
         13   -1    0    0    0    0  0.00000000000E+00  0.00000000000E+00  0.14999999963E+04  0.15000000000E+04  0.10566000000E+00 0. -1.
        994   -1    0    0    0    0 -0.00000000000E+00 -0.00000000000E+00  0.11368683772E-12  0.17120000000E+03  0.17120000000E+03 0.  0.
         13    1    1    2    0    0  0.20757370884E+01  0.22381273247E+02  0.89649783512E+02  0.92424698671E+02  0.10566000000E+00 0. -1.
        994    1    1    2    0    0 -0.58287265038E+02 -0.10490795116E+03  0.50269082628E+02  0.21503372794E+03  0.17120000000E+03 0.  0.
        998    1    1    2    0    0  0.56211527950E+02  0.82526677911E+02  0.13600811301E+04  0.13637415734E+04  0.10000000000E+00 0. -1.
</event>
<event>
 5    1  0.2313627E-009  0.3882977E+03  0.7957747E-01  0.3415805E+00
         13   -1    0    0    0    0  0.00000000000E+00  0.00000000000E+00  0.14999999963E+04  0.15000000000E+04  0.10566000000E+00 0.  1.
        994   -1    0    0    0    0 -0.00000000000E+00 -0.00000000000E+00  0.11368683772E-12  0.17120000000E+03  0.17120000000E+03 0.  0.
         13    1    1    2    0    0 -0.11693477043E+03  0.22903312827E+03  0.11416800933E+04  0.11702834533E+04  0.10566000000E+00 0.  1.
        994    1    1    2    0    0  0.12297402459E+03 -0.24196303047E+03  0.29461615324E+03  0.43563383316E+03  0.17120000000E+03 0.  0.
        998    1    1    2    0    0 -0.60392541623E+01  0.12929902202E+02  0.63703749718E+02  0.65282713562E+02  0.10000000000E+00 0. -1.
</event>
<event>
 5    1  0.2313627E-009  0.3883004E+03  0.7957747E-01  0.3415794E+00
         13   -1    0    0    0    0  0.00000000000E+00  0.00000000000E+00  0.14999999963E+04  0.15000000000E+04  0.10566000000E+00 0. -1.
        994   -1    0    0    0    0 -0.00000000000E+00 -0.00000000000E+00  0.11368683772E-12  0.17120000000E+03  0.17120000000E+03 0.  0.
         13    1    1    2    0    0 -0.70119873479E+01  0.20597776739E+03  0.61345243985E+03  0.64714752240E+03  0.10566000000E+00 0. -1.
        994    1    1    2    0    0  0.11797118573E+02 -0.32774596551E+03  0.52297415245E+03  0.64059971437E+03  0.17120000000E+03 0.  0.
        998    1    1    2    0    0 -0.47851312251E+01  0.12176819812E+03  0.36357340398E+03  0.38345276324E+03  0.10000000000E+00 0.  1.
</event>
<event>
 5    1  0.2313627E-009  0.3882272E+03  0.7957747E-01  0.3416099E+00
         13   -1    0    0    0    0  0.00000000000E+00  0.00000000000E+00  0.14999999963E+04  0.15000000000E+04  0.10566000000E+00 0. -1.
        994   -1    0    0    0    0 -0.00000000000E+00 -0.00000000000E+00  0.11368683772E-12  0.17120000000E+03  0.17120000000E+03 0.  0.
         13    1    1    2    0    0  0.22014922333E+03 -0.17767456722E+03  0.11452444958E+04  0.11796689784E+04  0.10566000000E+00 0. -1.
        994    1    1    2    0    0 -0.22202853903E+03  0.18063045024E+03  0.33963533870E+03  0.47601012068E+03  0.17120000000E+03 0.  0.
        998    1    1    2    0    0  0.18793156924E+01 -0.29558830152E+01  0.15120161785E+02  0.15520900884E+02  0.10000000000E+00 0.  1.
</event>
<event>
 5    1  0.2313627E-009  0.3882975E+03  0.7957747E-01  0.3415807E+00
         13   -1    0    0    0    0  0.00000000000E+00  0.00000000000E+00  0.14999999963E+04  0.15000000000E+04  0.10566000000E+00 0.  1.
        994   -1    0    0    0    0 -0.00000000000E+00 -0.00000000000E+00  0.11368683772E-12  0.17120000000E+03  0.17120000000E+03 0.  0.
         13    1    1    2    0    0 -0.13894582397E+03  0.11443303483E+03  0.10755972339E+04  0.10905550340E+04  0.10566000000E+00 0.  1.
        994    1    1    2    0    0  0.16971553799E+03 -0.14042846340E+03  0.17791543960E+03  0.33088798832E+03  0.17120000000E+03 0.  0.
        998    1    1    2    0    0 -0.30769714016E+02  0.25995428567E+02  0.24648732274E+03  0.24975697764E+03  0.10000000000E+00 0.  1.
</event>
<event>
 5    1  0.2313627E-009  0.3883007E+03  0.7957747E-01  0.3415793E+00
         13   -1    0    0    0    0  0.00000000000E+00  0.00000000000E+00  0.14999999963E+04  0.15000000000E+04  0.10566000000E+00 0.  1.
        994   -1    0    0    0    0 -0.00000000000E+00 -0.00000000000E+00  0.11368683772E-12  0.17120000000E+03  0.17120000000E+03 0.  0.
         13    1    1    2    0    0 -0.25350007620E+02 -0.24542692463E+03  0.12221306365E+04  0.12467879940E+04  0.10566000000E+00 0.  1.
        994    1    1    2    0    0  0.26013293741E+02  0.25165945646E+03  0.24680917420E+03  0.39272558096E+03  0.17120000000E+03 0.  0.
        998    1    1    2    0    0 -0.66328612099E+00 -0.62325318228E+01  0.31060185596E+02  0.31686425022E+02  0.10000000000E+00 0.  0.
</event>
<event>
 5    1  0.2313627E-009  0.3883006E+03  0.7957747E-01  0.3415794E+00
         13   -1    0    0    0    0  0.00000000000E+00  0.00000000000E+00  0.14999999963E+04  0.15000000000E+04  0.10566000000E+00 0.  1.
        994   -1    0    0    0    0 -0.00000000000E+00 -0.00000000000E+00  0.11368683772E-12  0.17120000000E+03  0.17120000000E+03 0.  0.
         13    1    1    2    0    0 -0.16403479398E+03 -0.19979813868E+03  0.12069316042E+04  0.12343057231E+04  0.10566000000E+00 0.  1.
        994    1    1    2    0    0  0.16690187597E+03  0.20329684340E+03  0.27187836905E+03  0.41522660114E+03  0.17120000000E+03 0.  0.
        998    1    1    2    0    0 -0.28670819951E+01 -0.34987047225E+01  0.21190023079E+02  0.21667675740E+02  0.10000000000E+00 0.  0.
</event>
<event>
 5    1  0.2313627E-009  0.3882991E+03  0.7957747E-01  0.3415800E+00
         13   -1    0    0    0    0  0.00000000000E+00  0.00000000000E+00  0.14999999963E+04  0.15000000000E+04  0.10566000000E+00 0.  1.
        994   -1    0    0    0    0 -0.00000000000E+00 -0.00000000000E+00  0.11368683772E-12  0.17120000000E+03  0.17120000000E+03 0.  0.
         13    1    1    2    0    0  0.22548469347E+03  0.41308823977E+02  0.12944629202E+04  0.13146041339E+04  0.10566000000E+00 0.  1.
        994    1    1    2    0    0 -0.22677928678E+03 -0.41597199073E+02  0.19769782649E+03  0.34864457902E+03  0.17120000000E+03 0.  0.
        998    1    1    2    0    0  0.12945933148E+01  0.28837509606E+00  0.78392495712E+01  0.79512870584E+01  0.10000000000E+00 0.  0.
</event>
<event>
 5    1  0.2313627E-009  0.3883002E+03  0.7957747E-01  0.3415795E+00
         13   -1    0    0    0    0  0.00000000000E+00  0.00000000000E+00  0.14999999963E+04  0.15000000000E+04  0.10566000000E+00 0.  1.
        994   -1    0    0    0    0 -0.00000000000E+00 -0.00000000000E+00  0.11368683772E-12  0.17120000000E+03  0.17120000000E+03 0.  0.
         13    1    1    2    0    0 -0.21767280366E+03  0.45171911906E+02  0.12820170464E+04  0.13011493648E+04  0.10566000000E+00 0.  1.
        994    1    1    2    0    0  0.22221834823E+03 -0.46074984031E+02  0.19055710100E+03  0.34223580640E+03  0.17120000000E+03 0.  0.
        998    1    1    2    0    0 -0.45455445703E+01  0.90307212427E+00  0.27425848889E+02  0.27814828814E+02  0.10000000000E+00 0.  0.
</event>
<event>
 5    1  0.2313627E-009  0.3881589E+03  0.7957747E-01  0.3416384E+00
         13   -1    0    0    0    0  0.00000000000E+00  0.00000000000E+00  0.14999999963E+04  0.15000000000E+04  0.10566000000E+00 0. -1.
        994   -1    0    0    0    0 -0.00000000000E+00 -0.00000000000E+00  0.11368683772E-12  0.17120000000E+03  0.17120000000E+03 0.  0.
         13    1    1    2    0    0  0.10121781007E+03 -0.28435973855E+03  0.10409111548E+04  0.10837903623E+04  0.10566000000E+00 0. -1.
        994    1    1    2    0    0 -0.10305926550E+03  0.29131290509E+03  0.42536872245E+03  0.55293074695E+03  0.17120000000E+03 0.  0.
        998    1    1    2    0    0  0.18414554279E+01 -0.69531665381E+01  0.33720118989E+02  0.34478890754E+02  0.10000000000E+00 0. -1.
</event>
<event>
 5    1  0.2313627E-009  0.3883006E+03  0.7957747E-01  0.3415793E+00
         13   -1    0    0    0    0  0.00000000000E+00  0.00000000000E+00  0.14999999963E+04  0.15000000000E+04  0.10566000000E+00 0.  1.
        994   -1    0    0    0    0 -0.00000000000E+00 -0.00000000000E+00  0.11368683772E-12  0.17120000000E+03  0.17120000000E+03 0.  0.
         13    1    1    2    0    0 -0.47190121397E+02 -0.81472095432E+02  0.41495698271E+03  0.42550431086E+03  0.10566000000E+00 0.  1.
        994    1    1    2    0    0  0.13608967609E+03  0.23661439263E+03  0.29897660457E+03  0.43954888330E+03  0.17120000000E+03 0.  0.
        998    1    1    2    0    0 -0.88899554688E+02 -0.15514229720E+03  0.78606640900E+03  0.80614680584E+03  0.10000000000E+00 0. -1.
</event>
<event>
 5    1  0.2313627E-009  0.3882981E+03  0.7957747E-01  0.3415804E+00
         13   -1    0    0    0    0  0.00000000000E+00  0.00000000000E+00  0.14999999963E+04  0.15000000000E+04  0.10566000000E+00 0. -1.
        994   -1    0    0    0    0 -0.00000000000E+00 -0.00000000000E+00  0.11368683772E-12  0.17120000000E+03  0.17120000000E+03 0.  0.
         13    1    1    2    0    0  0.22755533182E+03 -0.20408288573E+02  0.12255080439E+04  0.12466225989E+04  0.10566000000E+00 0. -1.
        994    1    1    2    0    0 -0.23846450957E+03  0.20948727822E+02  0.21596632482E+03  0.36504118258E+03  0.17120000000E+03 0.  0.
        998    1    1    2    0    0  0.10909177752E+02 -0.54043924904E+00  0.58525627547E+02  0.59536218502E+02  0.10000000000E+00 0.  1.
</event>
<event>
 5    1  0.2313627E-009  0.3882981E+03  0.7957747E-01  0.3415804E+00
         13   -1    0    0    0    0  0.00000000000E+00  0.00000000000E+00  0.14999999963E+04  0.15000000000E+04  0.10566000000E+00 0.  1.
        994   -1    0    0    0    0 -0.00000000000E+00 -0.00000000000E+00  0.11368683772E-12  0.17120000000E+03  0.17120000000E+03 0.  0.
         13    1    1    2    0    0  0.22190991805E+03 -0.12885473198E+03  0.12027401903E+04  0.12298095504E+04  0.10566000000E+00 0.  1.
        994    1    1    2    0    0 -0.22692381859E+03  0.13199724685E+03  0.27055462085E+03  0.41403736001E+03  0.17120000000E+03 0.  0.
        998    1    1    2    0    0  0.50139005425E+01 -0.31425148700E+01  0.26705185083E+02  0.27353089563E+02  0.10000000000E+00 0.  1.
</event>
<event>
 5    1  0.2313627E-009  0.3881008E+03  0.7957747E-01  0.3416627E+00
         13   -1    0    0    0    0  0.00000000000E+00  0.00000000000E+00  0.14999999963E+04  0.15000000000E+04  0.10566000000E+00 0.  1.
        994   -1    0    0    0    0 -0.00000000000E+00 -0.00000000000E+00  0.11368683772E-12  0.17120000000E+03  0.17120000000E+03 0.  0.
         13    1    1    2    0    0 -0.17009705988E+03 -0.21902273214E+03  0.10989912314E+04  0.11334397668E+04  0.10566000000E+00 0.  1.
        994    1    1    2    0    0  0.18029326086E+03  0.22628410626E+03  0.35026310438E+03  0.48549339742E+03  0.17120000000E+03 0.  0.
        998    1    1    2    0    0 -0.10196200972E+02 -0.72613741176E+01  0.50745660493E+02  0.52266835825E+02  0.10000000000E+00 0. -1.
</event>
<event>
 5    1  0.2313627E-009  0.3882779E+03  0.7957747E-01  0.3415888E+00
         13   -1    0    0    0    0  0.00000000000E+00  0.00000000000E+00  0.14999999963E+04  0.15000000000E+04  0.10566000000E+00 0.  1.
        994   -1    0    0    0    0 -0.00000000000E+00 -0.00000000000E+00  0.11368683772E-12  0.17120000000E+03  0.17120000000E+03 0.  0.
         13    1    1    2    0    0 -0.24013541782E+03  0.88489627746E+02  0.11201556038E+04  0.11490187209E+04  0.10566000000E+00 0.  1.
        994    1    1    2    0    0  0.25744583767E+03 -0.95653471914E+02  0.30386817609E+03  0.44392933499E+03  0.17120000000E+03 0.  0.
        998    1    1    2    0    0 -0.17310419850E+02  0.71638441676E+01  0.75976216415E+02  0.78251944125E+02  0.10000000000E+00 0. -1.
</event>
<event>
 5    1  0.2313627E-009  0.3882050E+03  0.7957747E-01  0.3416192E+00
         13   -1    0    0    0    0  0.00000000000E+00  0.00000000000E+00  0.14999999963E+04  0.15000000000E+04  0.10566000000E+00 0. -1.
        994   -1    0    0    0    0 -0.00000000000E+00 -0.00000000000E+00  0.11368683772E-12  0.17120000000E+03  0.17120000000E+03 0.  0.
         13    1    1    2    0    0  0.70419686267E+02 -0.26004832339E+03  0.11576467731E+04  0.11885832429E+04  0.10566000000E+00 0. -1.
        994    1    1    2    0    0 -0.70473611602E+02  0.26776993934E+03  0.31061934571E+03  0.44995676267E+03  0.17120000000E+03 0.  0.
        998    1    1    2    0    0  0.53925334586E-01 -0.77216159508E+01  0.31733877451E+02  0.32659994472E+02  0.10000000000E+00 0.  1.
</event>
<event>
 5    1  0.2313627E-009  0.3852468E+03  0.7957747E-01  0.3428626E+00
         13   -1    0    0    0    0  0.00000000000E+00  0.00000000000E+00  0.14999999963E+04  0.15000000000E+04  0.10566000000E+00 0. -1.
        994   -1    0    0    0    0 -0.00000000000E+00 -0.00000000000E+00  0.11368683772E-12  0.17120000000E+03  0.17120000000E+03 0.  0.
         13    1    1    2    0    0 -0.14351915903E+03 -0.17891278687E+03  0.66930978619E+03  0.70751900001E+03  0.10566000000E+00 0. -1.
        994    1    1    2    0    0  0.23510466082E+03  0.23848046421E+03  0.59507078159E+03  0.70396435169E+03  0.17120000000E+03 0.  0.
        998    1    1    2    0    0 -0.91585501787E+02 -0.59567677338E+02  0.23561942849E+03  0.25971664830E+03  0.10000000000E+00 0.  1.
</event>
<event>
 5    1  0.2313627E-009  0.3831795E+03  0.7957747E-01  0.3437430E+00
         13   -1    0    0    0    0  0.00000000000E+00  0.00000000000E+00  0.14999999963E+04  0.15000000000E+04  0.10566000000E+00 0.  1.
        994   -1    0    0    0    0 -0.00000000000E+00 -0.00000000000E+00  0.11368683772E-12  0.17120000000E+03  0.17120000000E+03 0.  0.
         13    1    1    2    0    0  0.80506276063E+02  0.19484620677E+03  0.11334563020E+04  0.11528961377E+04  0.10566000000E+00 0.  1.
        994    1    1    2    0    0 -0.11965223357E+03 -0.21112121549E+03  0.23087879989E+03  0.37616922371E+03  0.17120000000E+03 0.  0.
        998    1    1    2    0    0  0.39145957506E+02  0.16275008716E+02  0.13566489442E+03  0.14213463855E+03  0.10000000000E+00 0.  1.
</event>
<event>
 5    1  0.4435416E-009  0.3882842E+03  0.7957747E-01  0.3415862E+00
         13   -1    0    0    0    0  0.00000000000E+00  0.00000000000E+00  0.14999999963E+04  0.15000000000E+04  0.10566000000E+00 0.  1.
        994   -1    0    0    0    0 -0.00000000000E+00 -0.00000000000E+00  0.11368683772E-12  0.17120000000E+03  0.17120000000E+03 0.  0.
         13    1    1    2    0    0 -0.66072612164E+02 -0.25754598156E+03  0.12186671333E+04  0.12473352058E+04  0.10566000000E+00 0.  1.
        994    1    1    2    0    0  0.66044972378E+02  0.25774895280E+03  0.27995982627E+03  0.42247296407E+03  0.17120000000E+03 0.  0.
        998    1    1    2    0    0  0.27639785720E-01 -0.20297123610E+00  0.13730366951E+01  0.13918301070E+01  0.10000000000E+00 0.  1.
</event>
<event>
 5    1  0.2313627E-009  0.3881995E+03  0.7957747E-01  0.3416215E+00
         13   -1    0    0    0    0  0.00000000000E+00  0.00000000000E+00  0.14999999963E+04  0.15000000000E+04  0.10566000000E+00 0.  1.
        994   -1    0    0    0    0 -0.00000000000E+00 -0.00000000000E+00  0.11368683772E-12  0.17120000000E+03  0.17120000000E+03 0.  0.
         13    1    1    2    0    0 -0.12379345103E+03 -0.16835825472E+03  0.11694330530E+04  0.11879574896E+04  0.10566000000E+00 0.  1.
        994    1    1    2    0    0  0.13448550483E+03  0.18570862745E+03  0.19529587357E+03  0.34644474820E+03  0.17120000000E+03 0.  0.
        998    1    1    2    0    0 -0.10692053800E+02 -0.17350372730E+02  0.13527106971E+03  0.13679776222E+03  0.10000000000E+00 0. -1.
</event>
<event>
 5    1  0.2313628E-009  0.3882934E+03  0.7957747E-01  0.3415823E+00
         13   -1    0    0    0    0  0.00000000000E+00  0.00000000000E+00  0.14999999963E+04  0.15000000000E+04  0.10566000000E+00 0.  1.
        994   -1    0    0    0    0 -0.00000000000E+00 -0.00000000000E+00  0.11368683772E-12  0.17120000000E+03  0.17120000000E+03 0.  0.
         13    1    1    2    0    0  0.66650204639E+01 -0.26079455147E+03  0.12318587701E+04  0.12591799956E+04  0.10566000000E+00 0.  1.
        994    1    1    2    0    0 -0.66876442256E+01  0.26105231772E+03  0.26699022957E+03  0.41083604985E+03  0.17120000000E+03 0.  0.
        998    1    1    2    0    0  0.22623761752E-01 -0.25776625241E+00  0.11509966158E+01  0.11839545959E+01  0.10000000000E+00 0.  0.
</event>
<event>
 5    1  0.2313627E-009  0.3882478E+03  0.7957747E-01  0.3416014E+00
         13   -1    0    0    0    0  0.00000000000E+00  0.00000000000E+00  0.14999999963E+04  0.15000000000E+04  0.10566000000E+00 0. -1.
        994   -1    0    0    0    0 -0.00000000000E+00 -0.00000000000E+00  0.11368683772E-12  0.17120000000E+03  0.17120000000E+03 0.  0.
         13    1    1    2    0    0 -0.15049914112E+03 -0.13172353914E+03  0.97201686937E+03  0.99237991099E+03  0.10566000000E+00 0. -1.
        994    1    1    2    0    0  0.18921942242E+03  0.17168879107E+03  0.25294887745E+03  0.39821301511E+03  0.17120000000E+03 0.  0.
        998    1    1    2    0    0 -0.38720281296E+02 -0.39965251935E+02  0.27503424946E+03  0.28060707389E+03  0.10000000000E+00 0.  1.
</event>
<event>
 5    1  0.2313627E-009  0.3883008E+03  0.7957747E-01  0.3415792E+00
         13   -1    0    0    0    0  0.00000000000E+00  0.00000000000E+00  0.14999999963E+04  0.15000000000E+04  0.10566000000E+00 0. -1.
        994   -1    0    0    0    0 -0.00000000000E+00 -0.00000000000E+00  0.11368683772E-12  0.17120000000E+03  0.17120000000E+03 0.  0.
         13    1    1    2    0    0  0.12498581309E+03  0.63569344155E+02  0.76028470702E+03  0.77310760046E+03  0.10566000000E+00 0. -1.
        994    1    1    2    0    0 -0.21198036642E+03 -0.10773219051E+03  0.21255977942E+03  0.36198480693E+03  0.17120000000E+03 0.  0.
        998    1    1    2    0    0  0.86994553324E+02  0.44162846357E+02  0.52715550984E+03  0.53610759262E+03  0.10000000000E+00 0. -1.
</event>
<event>
 5    1  0.2313627E-009  0.3853477E+03  0.7957747E-01  0.3428199E+00
         13   -1    0    0    0    0  0.00000000000E+00  0.00000000000E+00  0.14999999963E+04  0.15000000000E+04  0.10566000000E+00 0. -1.
        994   -1    0    0    0    0 -0.00000000000E+00 -0.00000000000E+00  0.11368683772E-12  0.17120000000E+03  0.17120000000E+03 0.  0.
         13    1    1    2    0    0 -0.17933955301E+01  0.11306546879E+02  0.24017898371E+02  0.26606857689E+02  0.10566000000E+00 0. -1.
        994    1    1    2    0    0 -0.27569236806E+02 -0.15957111962E+03  0.92942874091E+02  0.25331960619E+03  0.17120000000E+03 0.  0.
        998    1    1    2    0    0  0.29362632336E+02  0.14826457274E+03  0.13830392238E+04  0.13912735361E+04  0.10000000000E+00 0. -1.
</event>
<event>
 5    1  0.2313627E-009  0.3883004E+03  0.7957747E-01  0.3415794E+00
         13   -1    0    0    0    0  0.00000000000E+00  0.00000000000E+00  0.14999999963E+04  0.15000000000E+04  0.10566000000E+00 0. -1.
        994   -1    0    0    0    0 -0.00000000000E+00 -0.00000000000E+00  0.11368683772E-12  0.17120000000E+03  0.17120000000E+03 0.  0.
         13    1    1    2    0    0 -0.21775682169E+03 -0.13974334133E+03  0.74303016754E+03  0.78679099885E+03  0.10566000000E+00 0. -1.
        994    1    1    2    0    0  0.27938620143E+03  0.17893860445E+03  0.54840423520E+03  0.66342468970E+03  0.17120000000E+03 0.  0.
        998    1    1    2    0    0 -0.61629379742E+02 -0.39195263119E+02  0.20856559354E+03  0.22098431145E+03  0.10000000000E+00 0. -1.
</event>
<event>
 5    1  0.2313627E-009  0.3881738E+03  0.7957747E-01  0.3416322E+00
         13   -1    0    0    0    0  0.00000000000E+00  0.00000000000E+00  0.14999999963E+04  0.15000000000E+04  0.10566000000E+00 0. -1.
        994   -1    0    0    0    0 -0.00000000000E+00 -0.00000000000E+00  0.11368683772E-12  0.17120000000E+03  0.17120000000E+03 0.  0.
         13    1    1    2    0    0  0.18649871614E+03  0.20453779403E+03  0.11855101755E+04  0.12173955263E+04  0.10566000000E+00 0. -1.
        994    1    1    2    0    0 -0.18725671713E+03 -0.20444681452E+03  0.31173977220E+03  0.45094867075E+03  0.17120000000E+03 0.  0.
        998    1    1    2    0    0  0.75800098988E+00 -0.90979510670E-01  0.27500486266E+01  0.28558029029E+01  0.10000000000E+00 0.  1.
</event>
<event>
 5    1  0.2313627E-009  0.3871093E+03  0.7957747E-01  0.3420775E+00
         13   -1    0    0    0    0  0.00000000000E+00  0.00000000000E+00  0.14999999963E+04  0.15000000000E+04  0.10566000000E+00 0. -1.
        994   -1    0    0    0    0 -0.00000000000E+00 -0.00000000000E+00  0.11368683772E-12  0.17120000000E+03  0.17120000000E+03 0.  0.
         13    1    1    2    0    0  0.81726258914E+02 -0.14968794171E+03  0.10307421410E+04  0.10447559685E+04  0.10566000000E+00 0. -1.
        994    1    1    2    0    0 -0.83761590538E+02  0.19051382226E+03  0.15773742433E+03  0.31225319143E+03  0.17120000000E+03 0.  0.
        998    1    1    2    0    0  0.20353316244E+01 -0.40825880544E+02  0.31152043096E+03  0.31419084010E+03  0.10000000000E+00 0.  1.
</event>
<event>
 5    1  0.2313627E-009  0.3882690E+03  0.7957747E-01  0.3415925E+00
         13   -1    0    0    0    0  0.00000000000E+00  0.00000000000E+00  0.14999999963E+04  0.15000000000E+04  0.10566000000E+00 0.  1.
        994   -1    0    0    0    0 -0.00000000000E+00 -0.00000000000E+00  0.11368683772E-12  0.17120000000E+03  0.17120000000E+03 0.  0.
         13    1    1    2    0    0 -0.26835653676E+03 -0.68626118193E+02  0.11168666340E+04  0.11507023352E+04  0.10566000000E+00 0.  1.
        994    1    1    2    0    0  0.27814297002E+03  0.69885043605E+02  0.34138410348E+03  0.47759813358E+03  0.17120000000E+03 0.  0.
        998    1    1    2    0    0 -0.97864332546E+01 -0.12589254121E+01  0.41749258791E+02  0.42899531217E+02  0.10000000000E+00 0.  1.
</event>
<event>
 5    1  0.2313627E-009  0.3881047E+03  0.7957747E-01  0.3416610E+00
         13   -1    0    0    0    0  0.00000000000E+00  0.00000000000E+00  0.14999999963E+04  0.15000000000E+04  0.10566000000E+00 0. -1.
        994   -1    0    0    0    0 -0.00000000000E+00 -0.00000000000E+00  0.11368683772E-12  0.17120000000E+03  0.17120000000E+03 0.  0.
         13    1    1    2    0    0 -0.31372462425E+03  0.13405406733E+03  0.86906966747E+03  0.93363575923E+03  0.10566000000E+00 0. -1.
        994    1    1    2    0    0  0.31375366929E+03 -0.13377427621E+03  0.63073904828E+03  0.73720967776E+03  0.17120000000E+03 0.  0.
        998    1    1    2    0    0 -0.29045034908E-01 -0.27979112271E+00  0.19128053274E+00  0.35456301077E+00  0.10000000000E+00 0.  1.
</event>
<event>
 5    1  0.2313627E-009  0.3883008E+03  0.7957747E-01  0.3415793E+00
         13   -1    0    0    0    0  0.00000000000E+00  0.00000000000E+00  0.14999999963E+04  0.15000000000E+04  0.10566000000E+00 0.  1.
        994   -1    0    0    0    0 -0.00000000000E+00 -0.00000000000E+00  0.11368683772E-12  0.17120000000E+03  0.17120000000E+03 0.  0.
         13    1    1    2    0    0  0.13587795313E+03 -0.11818519181E+03  0.88502845432E+03  0.90316440022E+03  0.10566000000E+00 0.  1.
        994    1    1    2    0    0 -0.19192939266E+03  0.16667637142E+03  0.24969656656E+03  0.39531723958E+03  0.17120000000E+03 0.  0.
        998    1    1    2    0    0  0.56051439530E+02 -0.48491179613E+02  0.36527497540E+03  0.37271836020E+03  0.10000000000E+00 0. -1.
</event>
<event>
 5    1  0.2313627E-009  0.3883004E+03  0.7957747E-01  0.3415794E+00
         13   -1    0    0    0    0  0.00000000000E+00  0.00000000000E+00  0.14999999963E+04  0.15000000000E+04  0.10566000000E+00 0.  1.
        994   -1    0    0    0    0 -0.00000000000E+00 -0.00000000000E+00  0.11368683772E-12  0.17120000000E+03  0.17120000000E+03 0.  0.
         13    1    1    2    0    0  0.11318713459E+03 -0.16356595547E+03  0.74913796775E+03  0.77509538453E+03  0.10566000000E+00 0.  1.
        994    1    1    2    0    0 -0.16916413623E+03  0.24444823917E+03  0.37786422025E+03  0.51035502894E+03  0.17120000000E+03 0.  0.
        998    1    1    2    0    0  0.55977001638E+02 -0.80882283703E+02  0.37299780828E+03  0.38574958653E+03  0.10000000000E+00 0. -1.
</event>
<event>
 5    1  0.2313627E-009  0.3880090E+03  0.7957747E-01  0.3417010E+00
         13   -1    0    0    0    0  0.00000000000E+00  0.00000000000E+00  0.14999999963E+04  0.15000000000E+04  0.10566000000E+00 0.  1.
        994   -1    0    0    0    0 -0.00000000000E+00 -0.00000000000E+00  0.11368683772E-12  0.17120000000E+03  0.17120000000E+03 0.  0.
         13    1    1    2    0    0 -0.60735906870E+02  0.16302260394E+03  0.10086702920E+04  0.10235628896E+04  0.10566000000E+00 0.  1.
        994    1    1    2    0    0  0.85805466956E+02 -0.20369198783E+03  0.17965649546E+03  0.33232348762E+03  0.17120000000E+03 0.  0.
        998    1    1    2    0    0 -0.25069560085E+02  0.40669383894E+02  0.31167320884E+03  0.31531362282E+03  0.10000000000E+00 0.  1.
</event>
<event>
 5    1  0.2313627E-009  0.3883003E+03  0.7957747E-01  0.3415795E+00
         13   -1    0    0    0    0  0.00000000000E+00  0.00000000000E+00  0.14999999963E+04  0.15000000000E+04  0.10566000000E+00 0.  1.
        994   -1    0    0    0    0 -0.00000000000E+00 -0.00000000000E+00  0.11368683772E-12  0.17120000000E+03  0.17120000000E+03 0.  0.
         13    1    1    2    0    0  0.19872549391E+03  0.13382757764E+03  0.12473904562E+04  0.12701907746E+04  0.10566000000E+00 0.  1.
        994    1    1    2    0    0 -0.20272565144E+03 -0.13664485712E+03  0.22710871116E+03  0.37504308208E+03  0.17120000000E+03 0.  0.
        998    1    1    2    0    0  0.40001575340E+01  0.28172794778E+01  0.25500828893E+02  0.25966143306E+02  0.10000000000E+00 0.  0.
</event>
<event>
 5    1  0.2313627E-009  0.3881163E+03  0.7957747E-01  0.3416562E+00
         13   -1    0    0    0    0  0.00000000000E+00  0.00000000000E+00  0.14999999963E+04  0.15000000000E+04  0.10566000000E+00 0. -1.
        994   -1    0    0    0    0 -0.00000000000E+00 -0.00000000000E+00  0.11368683772E-12  0.17120000000E+03  0.17120000000E+03 0.  0.
         13    1    1    2    0    0 -0.24589309097E+03  0.38016942527E+02  0.12083421474E+04  0.12336934207E+04  0.10566000000E+00 0. -1.
        994    1    1    2    0    0  0.25124135218E+03 -0.39149188274E+02  0.25017887238E+03  0.39566878089E+03  0.17120000000E+03 0.  0.
        998    1    1    2    0    0 -0.53482612096E+01  0.11322457471E+01  0.41478976536E+02  0.41837798375E+02  0.10000000000E+00 0. -1.
</event>
<event>
 5    1  0.2313627E-009  0.3839396E+03  0.7957747E-01  0.3434182E+00
         13   -1    0    0    0    0  0.00000000000E+00  0.00000000000E+00  0.14999999963E+04  0.15000000000E+04  0.10566000000E+00 0. -1.
        994   -1    0    0    0    0 -0.00000000000E+00 -0.00000000000E+00  0.11368683772E-12  0.17120000000E+03  0.17120000000E+03 0.  0.
         13    1    1    2    0    0 -0.15170969657E+03 -0.12178041891E+03  0.70038716347E+03  0.72690335834E+03  0.10566000000E+00 0. -1.
        994    1    1    2    0    0  0.20952332707E+03  0.16460091333E+03  0.28933755292E+03  0.42897452697E+03  0.17120000000E+03 0.  0.
        998    1    1    2    0    0 -0.57813630505E+02 -0.42820494428E+02  0.51027527989E+03  0.51532211469E+03  0.10000000000E+00 0. -1.
</event>
<event>
 5    1  0.2313627E-009  0.3883009E+03  0.7957747E-01  0.3415792E+00
         13   -1    0    0    0    0  0.00000000000E+00  0.00000000000E+00  0.14999999963E+04  0.15000000000E+04  0.10566000000E+00 0. -1.
        994   -1    0    0    0    0 -0.00000000000E+00 -0.00000000000E+00  0.11368683772E-12  0.17120000000E+03  0.17120000000E+03 0.  0.
         13    1    1    2    0    0  0.14984420801E+03  0.67658835082E+02  0.70170948768E+03  0.72071299482E+03  0.10566000000E+00 0. -1.
        994    1    1    2    0    0 -0.25324379859E+03 -0.11450019846E+03  0.31350849372E+03  0.45259223657E+03  0.17120000000E+03 0.  0.
        998    1    1    2    0    0  0.10339959058E+03  0.46841363381E+02  0.48478201488E+03  0.49789476860E+03  0.10000000000E+00 0.  0.
</event>
<event>
 5    1  0.2313627E-009  0.3881181E+03  0.7957747E-01  0.3416555E+00
         13   -1    0    0    0    0  0.00000000000E+00  0.00000000000E+00  0.14999999963E+04  0.15000000000E+04  0.10566000000E+00 0.  1.
        994   -1    0    0    0    0 -0.00000000000E+00 -0.00000000000E+00  0.11368683772E-12  0.17120000000E+03  0.17120000000E+03 0.  0.
         13    1    1    2    0    0 -0.22179760397E+02 -0.23247005020E+03  0.12686348594E+04  0.12899491012E+04  0.10566000000E+00 0.  1.
        994    1    1    2    0    0  0.22476537214E+02  0.23448783895E+03  0.20815057270E+03  0.35794670310E+03  0.17120000000E+03 0.  0.
        998    1    1    2    0    0 -0.29677681654E+00 -0.20177887563E+01  0.23214564142E+02  0.23304195679E+02  0.10000000000E+00 0.  1.
</event>
<event>
 5    1  0.2313627E-009  0.3882996E+03  0.7957747E-01  0.3415798E+00
         13   -1    0    0    0    0  0.00000000000E+00  0.00000000000E+00  0.14999999963E+04  0.15000000000E+04  0.10566000000E+00 0. -1.
        994   -1    0    0    0    0 -0.00000000000E+00 -0.00000000000E+00  0.11368683772E-12  0.17120000000E+03  0.17120000000E+03 0.  0.
         13    1    1    2    0    0 -0.17278131213E+03 -0.30002918636E+03  0.72882796247E+03  0.80688357558E+03  0.10566000000E+00 0. -1.
        994    1    1    2    0    0  0.17383356613E+03  0.30189352848E+03  0.76677297311E+03  0.85942308762E+03  0.17120000000E+03 0.  0.
        998    1    1    2    0    0 -0.10522540030E+01 -0.18643421181E+01  0.43990606952E+01  0.48933367982E+01  0.10000000000E+00 0.  0.
</event>
<event>
 5    1  0.2313627E-009  0.3881578E+03  0.7957747E-01  0.3416389E+00
         13   -1    0    0    0    0  0.00000000000E+00  0.00000000000E+00  0.14999999963E+04  0.15000000000E+04  0.10566000000E+00 0.  1.
        994   -1    0    0    0    0 -0.00000000000E+00 -0.00000000000E+00  0.11368683772E-12  0.17120000000E+03  0.17120000000E+03 0.  0.
         13    1    1    2    0    0  0.21064013685E+03  0.12344501973E+03  0.12637820450E+04  0.12871491788E+04  0.10566000000E+00 0.  1.
        994    1    1    2    0    0 -0.21111363757E+03 -0.12495395354E+03  0.22921427516E+03  0.37687011345E+03  0.17120000000E+03 0.  0.
        998    1    1    2    0    0  0.47350071997E+00  0.15089338074E+01  0.70036761270E+01  0.71807077269E+01  0.10000000000E+00 0. -1.
</event>
<event>
 5    1  0.2313627E-009  0.3881092E+03  0.7957747E-01  0.3416592E+00
         13   -1    0    0    0    0  0.00000000000E+00  0.00000000000E+00  0.14999999963E+04  0.15000000000E+04  0.10566000000E+00 0. -1.
        994   -1    0    0    0    0 -0.00000000000E+00 -0.00000000000E+00  0.11368683772E-12  0.17120000000E+03  0.17120000000E+03 0.  0.
         13    1    1    2    0    0  0.21700567372E+02  0.22458907453E+03  0.12831666444E+04  0.13028537199E+04  0.10566000000E+00 0. -1.
        994    1    1    2    0    0 -0.19987518966E+02 -0.22778707293E+03  0.19417253977E+03  0.34539668022E+03  0.17120000000E+03 0.  0.
        998    1    1    2    0    0 -0.17130484060E+01  0.31979983922E+01  0.22660812117E+02  0.22949599873E+02  0.10000000000E+00 0.  1.
</event>
<event>
 5    1  0.2313627E-009  0.3764821E+03  0.7957747E-01  0.3466621E+00
         13   -1    0    0    0    0  0.00000000000E+00  0.00000000000E+00  0.14999999963E+04  0.15000000000E+04  0.10566000000E+00 0. -1.
        994   -1    0    0    0    0 -0.00000000000E+00 -0.00000000000E+00  0.11368683772E-12  0.17120000000E+03  0.17120000000E+03 0.  0.
         13    1    1    2    0    0 -0.12685894202E+03  0.20362319932E+02  0.74045531335E+03  0.75151972527E+03  0.10566000000E+00 0. -1.
        994    1    1    2    0    0  0.16888044573E+03 -0.13775821621E+03  0.18847645653E+03  0.33515779232E+03  0.17120000000E+03 0.  0.
        998    1    1    2    0    0 -0.42021503712E+02  0.11739589628E+03  0.57106822641E+03  0.58452248241E+03  0.10000000000E+00 0. -1.
</event>
<event>
 5    1  0.2313627E-009  0.3883008E+03  0.7957747E-01  0.3415792E+00
         13   -1    0    0    0    0  0.00000000000E+00  0.00000000000E+00  0.14999999963E+04  0.15000000000E+04  0.10566000000E+00 0.  1.
        994   -1    0    0    0    0 -0.00000000000E+00 -0.00000000000E+00  0.11368683772E-12  0.17120000000E+03  0.17120000000E+03 0.  0.
         13    1    1    2    0    0  0.19114841093E+03  0.65560794414E+02  0.12212297532E+04  0.12378360368E+04  0.10566000000E+00 0.  1.
        994    1    1    2    0    0 -0.20733761212E+03 -0.71062051401E+02  0.17587897273E+03  0.32906162583E+03  0.17120000000E+03 0.  0.
        998    1    1    2    0    0  0.16189201187E+02  0.55012569876E+01  0.10289127035E+03  0.10430233736E+03  0.10000000000E+00 0. -1.
</event>
<event>
 5    1  0.2313627E-009  0.3874371E+03  0.7957747E-01  0.3419401E+00
         13   -1    0    0    0    0  0.00000000000E+00  0.00000000000E+00  0.14999999963E+04  0.15000000000E+04  0.10566000000E+00 0. -1.
        994   -1    0    0    0    0 -0.00000000000E+00 -0.00000000000E+00  0.11368683772E-12  0.17120000000E+03  0.17120000000E+03 0.  0.
         13    1    1    2    0    0  0.49996150064E+02 -0.14518078949E+03  0.45754325670E+03  0.48262088597E+03  0.10566000000E+00 0. -1.
        994    1    1    2    0    0 -0.10268367459E+03  0.29487997229E+03  0.44251874347E+03  0.56800564558E+03  0.17120000000E+03 0.  0.
        998    1    1    2    0    0  0.52687524528E+02 -0.14969918280E+03  0.59993799611E+03  0.62057346845E+03  0.10000000000E+00 0. -1.
</event>
<event>
 5    1  0.2313627E-009  0.3878859E+03  0.7957747E-01  0.3417524E+00
         13   -1    0    0    0    0  0.00000000000E+00  0.00000000000E+00  0.14999999963E+04  0.15000000000E+04  0.10566000000E+00 0.  1.
        994   -1    0    0    0    0 -0.00000000000E+00 -0.00000000000E+00  0.11368683772E-12  0.17120000000E+03  0.17120000000E+03 0.  0.
         13    1    1    2    0    0 -0.18064285051E+03  0.19884278666E+03  0.11550875510E+04  0.11859163356E+04  0.10566000000E+00 0.  1.
        994    1    1    2    0    0  0.18800556187E+03 -0.20607966327E+03  0.31751103304E+03  0.45600177084E+03  0.17120000000E+03 0.  0.
        998    1    1    2    0    0 -0.73627113593E+01  0.72368766064E+01  0.27401412209E+02  0.29281893597E+02  0.10000000000E+00 0. -1.
</event>
<event>
 5    1  0.2313627E-009  0.3882486E+03  0.7957747E-01  0.3416010E+00
         13   -1    0    0    0    0  0.00000000000E+00  0.00000000000E+00  0.14999999963E+04  0.15000000000E+04  0.10566000000E+00 0. -1.
        994   -1    0    0    0    0 -0.00000000000E+00 -0.00000000000E+00  0.11368683772E-12  0.17120000000E+03  0.17120000000E+03 0.  0.
         13    1    1    2    0    0 -0.22506498938E+03 -0.70503588467E+02  0.12901905911E+04  0.13115703481E+04  0.10566000000E+00 0. -1.
        994    1    1    2    0    0  0.22531185246E+03  0.70373295246E+02  0.20897682770E+03  0.35874585162E+03  0.17120000000E+03 0.  0.
        998    1    1    2    0    0 -0.24686308132E+00  0.13029322031E+00  0.83257750897E+00  0.88380032395E+00  0.10000000000E+00 0.  0.
</event>
<event>
 5    1  0.2313627E-009  0.3882814E+03  0.7957747E-01  0.3415873E+00
         13   -1    0    0    0    0  0.00000000000E+00  0.00000000000E+00  0.14999999963E+04  0.15000000000E+04  0.10566000000E+00 0.  1.
        994   -1    0    0    0    0 -0.00000000000E+00 -0.00000000000E+00  0.11368683772E-12  0.17120000000E+03  0.17120000000E+03 0.  0.
         13    1    1    2    0    0 -0.30877464129E+02 -0.24707770594E+03  0.12121299532E+04  0.12374408451E+04  0.10566000000E+00 0.  1.
        994    1    1    2    0    0  0.32624863490E+02  0.25394658345E+03  0.25419654520E+03  0.39934768380E+03  0.17120000000E+03 0.  0.
        998    1    1    2    0    0 -0.17473993608E+01 -0.68688775082E+01  0.33673497860E+02  0.34411471065E+02  0.10000000000E+00 0.  1.
</event>
<event>
 5    1  0.2313627E-009  0.3876398E+03  0.7957747E-01  0.3418553E+00
         13   -1    0    0    0    0  0.00000000000E+00  0.00000000000E+00  0.14999999963E+04  0.15000000000E+04  0.10566000000E+00 0.  1.
        994   -1    0    0    0    0 -0.00000000000E+00 -0.00000000000E+00  0.11368683772E-12  0.17120000000E+03  0.17120000000E+03 0.  0.
         13    1    1    2    0    0  0.48261660118E+02  0.81948949304E+02  0.54392882536E+03  0.55218058310E+03  0.10566000000E+00 0.  1.
        994    1    1    2    0    0 -0.12147193017E+03 -0.16494600504E+03  0.15167616063E+03  0.30704675881E+03  0.17120000000E+03 0.  0.
        998    1    1    2    0    0  0.73210270047E+02  0.82997055731E+02  0.80439501029E+03  0.81197265809E+03  0.10000000000E+00 0.  1.
</event>
<event>
 5    1  0.2313627E-009  0.3880037E+03  0.7957747E-01  0.3417032E+00
         13   -1    0    0    0    0  0.00000000000E+00  0.00000000000E+00  0.14999999963E+04  0.15000000000E+04  0.10566000000E+00 0. -1.
        994   -1    0    0    0    0 -0.00000000000E+00 -0.00000000000E+00  0.11368683772E-12  0.17120000000E+03  0.17120000000E+03 0.  0.
         13    1    1    2    0    0  0.51299913934E+02  0.44178183679E+02  0.39819313066E+03  0.40390738239E+03  0.10566000000E+00 0. -1.
        994    1    1    2    0    0 -0.16070413181E+03 -0.12067089896E+03  0.14496519893E+03  0.30118371924E+03  0.17120000000E+03 0.  0.
        998    1    1    2    0    0  0.10940421788E+03  0.76492715279E+02  0.95684166669E+03  0.96610889836E+03  0.10000000000E+00 0. -1.
</event>
<event>
 5    1  0.2313627E-009  0.3882627E+03  0.7957747E-01  0.3415952E+00
         13   -1    0    0    0    0  0.00000000000E+00  0.00000000000E+00  0.14999999963E+04  0.15000000000E+04  0.10566000000E+00 0.  1.
        994   -1    0    0    0    0 -0.00000000000E+00 -0.00000000000E+00  0.11368683772E-12  0.17120000000E+03  0.17120000000E+03 0.  0.
         13    1    1    2    0    0  0.26385079342E+03  0.78315166727E+02  0.11785665484E+04  0.12102766737E+04  0.10566000000E+00 0.  1.
        994    1    1    2    0    0 -0.26578131583E+03 -0.79576061196E+02  0.31213301185E+03  0.45134079635E+03  0.17120000000E+03 0.  0.
        998    1    1    2    0    0  0.19305224044E+01  0.12608944685E+01  0.93004359875E+01  0.95825299985E+01  0.10000000000E+00 0.  1.
</event>
<event>
 5    1  0.2313627E-009  0.3881284E+03  0.7957747E-01  0.3416512E+00
         13   -1    0    0    0    0  0.00000000000E+00  0.00000000000E+00  0.14999999963E+04  0.15000000000E+04  0.10566000000E+00 0.  1.
        994   -1    0    0    0    0 -0.00000000000E+00 -0.00000000000E+00  0.11368683772E-12  0.17120000000E+03  0.17120000000E+03 0.  0.
         13    1    1    2    0    0  0.24991545110E+03 -0.23200733390E+03  0.58771234760E+03  0.67947843996E+03  0.10566000000E+00 0.  1.
        994    1    1    2    0    0 -0.25228803627E+03  0.23507220528E+03  0.90185220634E+03  0.98058912752E+03  0.17120000000E+03 0.  0.
        998    1    1    2    0    0  0.23725851691E+01 -0.30648713871E+01  0.10435442338E+02  0.11132432519E+02  0.10000000000E+00 0.  1.
</event>
<event>
 5    1  0.2313627E-009  0.3883009E+03  0.7957747E-01  0.3415792E+00
         13   -1    0    0    0    0  0.00000000000E+00  0.00000000000E+00  0.14999999963E+04  0.15000000000E+04  0.10566000000E+00 0.  1.
        994   -1    0    0    0    0 -0.00000000000E+00 -0.00000000000E+00  0.11368683772E-12  0.17120000000E+03  0.17120000000E+03 0.  0.
         13    1    1    2    0    0 -0.88477074628E+02 -0.25512562511E+03  0.99002925645E+03  0.10261945318E+04  0.10566000000E+00 0.  1.
        994    1    1    2    0    0  0.98855342848E+02  0.28494610627E+03  0.39437064104E+03  0.52517073872E+03  0.17120000000E+03 0.  0.
        998    1    1    2    0    0 -0.10378268220E+02 -0.29820481167E+02  0.11560009878E+03  0.11983472947E+03  0.10000000000E+00 0.  0.
</event>
<event>
 5    1  0.2313627E-009  0.3881600E+03  0.7957747E-01  0.3416380E+00
         13   -1    0    0    0    0  0.00000000000E+00  0.00000000000E+00  0.14999999963E+04  0.15000000000E+04  0.10566000000E+00 0.  1.
        994   -1    0    0    0    0 -0.00000000000E+00 -0.00000000000E+00  0.11368683772E-12  0.17120000000E+03  0.17120000000E+03 0.  0.
         13    1    1    2    0    0  0.14758992690E+02  0.13627230447E+03  0.66648538202E+03  0.68043423227E+03  0.10566000000E+00 0.  1.
        994    1    1    2    0    0 -0.40663946836E+02 -0.25177695582E+03  0.25196824533E+03  0.39729413374E+03  0.17120000000E+03 0.  0.
        998    1    1    2    0    0  0.25904954146E+02  0.11550465135E+03  0.58154636893E+03  0.59347163399E+03  0.10000000000E+00 0.  1.
</event>
<event>
 5    1  0.2313627E-009  0.3882941E+03  0.7957747E-01  0.3415820E+00
         13   -1    0    0    0    0  0.00000000000E+00  0.00000000000E+00  0.14999999963E+04  0.15000000000E+04  0.10566000000E+00 0. -1.
        994   -1    0    0    0    0 -0.00000000000E+00 -0.00000000000E+00  0.11368683772E-12  0.17120000000E+03  0.17120000000E+03 0.  0.
         13    1    1    2    0    0 -0.85132860423E+02  0.20727177286E+03  0.11524456261E+04  0.11740273098E+04  0.10566000000E+00 0. -1.
        994    1    1    2    0    0  0.92716166902E+02 -0.22823121166E+03  0.23131713162E+03  0.37881767245E+03  0.17120000000E+03 0.  0.
        998    1    1    2    0    0 -0.75833064790E+01  0.20959438795E+02  0.11623723853E+03  0.11835501777E+03  0.10000000000E+00 0.  1.
</event>
<event>
 5    1  0.2313627E-009  0.3882949E+03  0.7957747E-01  0.3415817E+00
         13   -1    0    0    0    0  0.00000000000E+00  0.00000000000E+00  0.14999999963E+04  0.15000000000E+04  0.10566000000E+00 0.  1.
        994   -1    0    0    0    0 -0.00000000000E+00 -0.00000000000E+00  0.11368683772E-12  0.17120000000E+03  0.17120000000E+03 0.  0.
         13    1    1    2    0    0  0.25650119406E+03  0.59025790912E+01  0.12362852743E+04  0.12626278128E+04  0.10566000000E+00 0.  1.
        994    1    1    2    0    0 -0.25758840306E+03 -0.60930899594E+01  0.25819687547E+03  0.40294413712E+03  0.17120000000E+03 0.  0.
        998    1    1    2    0    0  0.10872090054E+01  0.19051086824E+00  0.55178465115E+01  0.56280501008E+01  0.10000000000E+00 0. -1.
</event>
<event>
 5    1  0.2313627E-009  0.3882715E+03  0.7957747E-01  0.3415915E+00
         13   -1    0    0    0    0  0.00000000000E+00  0.00000000000E+00  0.14999999963E+04  0.15000000000E+04  0.10566000000E+00 0. -1.
        994   -1    0    0    0    0 -0.00000000000E+00 -0.00000000000E+00  0.11368683772E-12  0.17120000000E+03  0.17120000000E+03 0.  0.
         13    1    1    2    0    0 -0.43216641913E+02 -0.22080803696E+03  0.12721210443E+04  0.12918652522E+04  0.10566000000E+00 0. -1.
        994    1    1    2    0    0  0.43488417616E+02  0.22665112258E+03  0.19818104501E+03  0.34906609752E+03  0.17120000000E+03 0.  0.
        998    1    1    2    0    0 -0.27177570303E+00 -0.58430856243E+01  0.29697906964E+02  0.30268650278E+02  0.10000000000E+00 0.  1.
</event>
<event>
 5    1  0.2313627E-009  0.3883009E+03  0.7957747E-01  0.3415792E+00
         13   -1    0    0    0    0  0.00000000000E+00  0.00000000000E+00  0.14999999963E+04  0.15000000000E+04  0.10566000000E+00 0.  1.
        994   -1    0    0    0    0 -0.00000000000E+00 -0.00000000000E+00  0.11368683772E-12  0.17120000000E+03  0.17120000000E+03 0.  0.
         13    1    1    2    0    0 -0.16675784486E+03 -0.79361035320E+02  0.10586607819E+04  0.10746483215E+04  0.10566000000E+00 0.  1.
        994    1    1    2    0    0  0.20585308407E+03  0.97915276567E+02  0.19252729136E+03  0.34400449347E+03  0.17120000000E+03 0.  0.
        998    1    1    2    0    0 -0.39095239215E+02 -0.18554241247E+02  0.24881192304E+03  0.25254718498E+03  0.10000000000E+00 0.  1.
</event>
<event>
 5    1  0.2313627E-009  0.3883008E+03  0.7957747E-01  0.3415793E+00
         13   -1    0    0    0    0  0.00000000000E+00  0.00000000000E+00  0.14999999963E+04  0.15000000000E+04  0.10566000000E+00 0.  1.
        994   -1    0    0    0    0 -0.00000000000E+00 -0.00000000000E+00  0.11368683772E-12  0.17120000000E+03  0.17120000000E+03 0.  0.
         13    1    1    2    0    0 -0.32045431838E+02  0.23667956366E+03  0.11939675160E+04  0.12176216842E+04  0.10566000000E+00 0.  1.
        994    1    1    2    0    0  0.33756794182E+02 -0.24912050753E+03  0.24299673253E+03  0.38930373803E+03  0.17120000000E+03 0.  0.
        998    1    1    2    0    0 -0.17113623439E+01  0.12440943864E+02  0.63035747792E+02  0.64274577750E+02  0.10000000000E+00 0.  1.
</event>
<event>
 5    1  0.2313627E-009  0.2779267E+03  0.7957747E-01  0.4067402E+00
         13   -1    0    0    0    0  0.00000000000E+00  0.00000000000E+00  0.14999999963E+04  0.15000000000E+04  0.10566000000E+00 0.  1.
        994   -1    0    0    0    0 -0.00000000000E+00 -0.00000000000E+00  0.11368683772E-12  0.17120000000E+03  0.17120000000E+03 0.  0.
         13    1    1    2    0    0 -0.63019093829E+02 -0.98993466527E+02  0.67869155302E+03  0.68876218530E+03  0.10566000000E+00 0.  1.
        994    1    1    2    0    0  0.11812021316E+01  0.19175428704E+02  0.18455138123E+02  0.17326027943E+03  0.17120000000E+03 0.  0.
        998    1    1    2    0    0  0.61837891698E+02  0.79818037823E+02  0.80285330514E+03  0.80917753527E+03  0.10000000000E+00 0.  1.
</event>
<event>
 5    1  0.2313627E-009  0.3738559E+03  0.7957747E-01  0.3478355E+00
         13   -1    0    0    0    0  0.00000000000E+00  0.00000000000E+00  0.14999999963E+04  0.15000000000E+04  0.10566000000E+00 0.  1.
        994   -1    0    0    0    0 -0.00000000000E+00 -0.00000000000E+00  0.11368683772E-12  0.17120000000E+03  0.17120000000E+03 0.  0.
         13    1    1    2    0    0  0.50314184136E+02 -0.16156216521E+02  0.25246121674E+03  0.25793258340E+03  0.10566000000E+00 0.  1.
        994    1    1    2    0    0 -0.66867209886E+02 -0.13786023841E+03  0.92154029891E+02  0.24754489354E+03  0.17120000000E+03 0.  0.
        998    1    1    2    0    0  0.16553025750E+02  0.15401645493E+03  0.11553847496E+04  0.11657225231E+04  0.10000000000E+00 0.  1.
</event>
<event>
 5    1  0.2313627E-009  0.3881572E+03  0.7957747E-01  0.3416391E+00
         13   -1    0    0    0    0  0.00000000000E+00  0.00000000000E+00  0.14999999963E+04  0.15000000000E+04  0.10566000000E+00 0. -1.
        994   -1    0    0    0    0 -0.00000000000E+00 -0.00000000000E+00  0.11368683772E-12  0.17120000000E+03  0.17120000000E+03 0.  0.
         13    1    1    2    0    0  0.20887477960E+03 -0.84936082671E+02  0.13023231010E+04  0.13216990135E+04  0.10566000000E+00 0. -1.
        994    1    1    2    0    0 -0.20995204971E+03  0.84346466638E+02  0.18941468038E+03  0.34114740326E+03  0.17120000000E+03 0.  0.
        998    1    1    2    0    0  0.10772701118E+01  0.58961603321E+00  0.82622149270E+01  0.83535832707E+01  0.10000000000E+00 0.  1.
</event>
<event>
 5    1  0.2313627E-009  0.3882037E+03  0.7957747E-01  0.3416198E+00
         13   -1    0    0    0    0  0.00000000000E+00  0.00000000000E+00  0.14999999963E+04  0.15000000000E+04  0.10566000000E+00 0. -1.
        994   -1    0    0    0    0 -0.00000000000E+00 -0.00000000000E+00  0.11368683772E-12  0.17120000000E+03  0.17120000000E+03 0.  0.
         13    1    1    2    0    0  0.91426623582E+02  0.22963387317E+03  0.12510382909E+04  0.12752205141E+04  0.10566000000E+00 0. -1.
        994    1    1    2    0    0 -0.92694970168E+02 -0.23074840868E+03  0.23678121899E+03  0.38368212269E+03  0.17120000000E+03 0.  0.
        998    1    1    2    0    0  0.12683465860E+01  0.11145355110E+01  0.12180486401E+02  0.12297363190E+02  0.10000000000E+00 0. -1.
</event>
<event>
 5    1  0.2313627E-009  0.3882982E+03  0.7957747E-01  0.3415804E+00
         13   -1    0    0    0    0  0.00000000000E+00  0.00000000000E+00  0.14999999963E+04  0.15000000000E+04  0.10566000000E+00 0.  1.
        994   -1    0    0    0    0 -0.00000000000E+00 -0.00000000000E+00  0.11368683772E-12  0.17120000000E+03  0.17120000000E+03 0.  0.
         13    1    1    2    0    0 -0.70188452382E+02 -0.76140576952E+02  0.57701928373E+03  0.58623806706E+03  0.10566000000E+00 0.  1.
        994    1    1    2    0    0  0.15964357706E+03  0.16987424073E+03  0.20285978519E+03  0.35327731573E+03  0.17120000000E+03 0.  0.
        998    1    1    2    0    0 -0.89455124678E+02 -0.93733663773E+02  0.72012092735E+03  0.73168461721E+03  0.10000000000E+00 0.  1.
</event>
<event>
 5    1  0.2313627E-009  0.3865156E+03  0.7957747E-01  0.3423270E+00
         13   -1    0    0    0    0  0.00000000000E+00  0.00000000000E+00  0.14999999963E+04  0.15000000000E+04  0.10566000000E+00 0. -1.
        994   -1    0    0    0    0 -0.00000000000E+00 -0.00000000000E+00  0.11368683772E-12  0.17120000000E+03  0.17120000000E+03 0.  0.
         13    1    1    2    0    0  0.51748544645E+02 -0.31447563358E+02  0.27842163392E+03  0.28493065562E+03  0.10566000000E+00 0. -1.
        994    1    1    2    0    0 -0.16643931740E+03  0.99677821238E+02  0.13559752665E+03  0.29211957082E+03  0.17120000000E+03 0.  0.
        998    1    1    2    0    0  0.11469077276E+03 -0.68230257880E+02  0.10859808357E+04  0.10941497736E+04  0.10000000000E+00 0. -1.
</event>
<event>
 5    1  0.2313627E-009  0.3835107E+03  0.7957747E-01  0.3436013E+00
         13   -1    0    0    0    0  0.00000000000E+00  0.00000000000E+00  0.14999999963E+04  0.15000000000E+04  0.10566000000E+00 0.  1.
        994   -1    0    0    0    0 -0.00000000000E+00 -0.00000000000E+00  0.11368683772E-12  0.17120000000E+03  0.17120000000E+03 0.  0.
         13    1    1    2    0    0  0.27490295596E+01  0.91549066200E+02  0.36352206786E+03  0.37488277324E+03  0.10566000000E+00 0.  1.
        994    1    1    2    0    0  0.69750910923E+02 -0.21716324754E+03  0.19917125051E+03  0.34785585044E+03  0.17120000000E+03 0.  0.
        998    1    1    2    0    0 -0.72499940482E+02  0.12561418134E+03  0.93730667791E+03  0.94846137632E+03  0.10000000000E+00 0.  1.
</event>
<event>
 5    1  0.2313627E-009  0.3882965E+03  0.7957747E-01  0.3415811E+00
         13   -1    0    0    0    0  0.00000000000E+00  0.00000000000E+00  0.14999999963E+04  0.15000000000E+04  0.10566000000E+00 0.  1.
        994   -1    0    0    0    0 -0.00000000000E+00 -0.00000000000E+00  0.11368683772E-12  0.17120000000E+03  0.17120000000E+03 0.  0.
         13    1    1    2    0    0 -0.78151987618E+02 -0.16466312236E+03  0.84274039004E+03  0.86222563938E+03  0.10566000000E+00 0.  1.
        994    1    1    2    0    0  0.11201675412E+03  0.24000206188E+03  0.27668392125E+03  0.41953804975E+03  0.17120000000E+03 0.  0.
        998    1    1    2    0    0 -0.33864766504E+02 -0.75338939524E+02  0.38057568498E+03  0.38943631086E+03  0.10000000000E+00 0. -1.
</event>
<event>
 5    1  0.2313627E-009  0.3847718E+03  0.7957747E-01  0.3430641E+00
         13   -1    0    0    0    0  0.00000000000E+00  0.00000000000E+00  0.14999999963E+04  0.15000000000E+04  0.10566000000E+00 0.  1.
        994   -1    0    0    0    0 -0.00000000000E+00 -0.00000000000E+00  0.11368683772E-12  0.17120000000E+03  0.17120000000E+03 0.  0.
         13    1    1    2    0    0  0.10464099392E+03 -0.87107675836E+02  0.69482864627E+03  0.70804261428E+03  0.10566000000E+00 0.  1.
        994    1    1    2    0    0 -0.14436992716E+03  0.13262596745E+03  0.14055348128E+03  0.29579899291E+03  0.17120000000E+03 0.  0.
        998    1    1    2    0    0  0.39728933245E+02 -0.45518291609E+02  0.66461786873E+03  0.66735839280E+03  0.10000000000E+00 0. -1.
</event>
<event>
 5    1  0.2313627E-009  0.3882997E+03  0.7957747E-01  0.3415797E+00
         13   -1    0    0    0    0  0.00000000000E+00  0.00000000000E+00  0.14999999963E+04  0.15000000000E+04  0.10566000000E+00 0. -1.
        994   -1    0    0    0    0 -0.00000000000E+00 -0.00000000000E+00  0.11368683772E-12  0.17120000000E+03  0.17120000000E+03 0.  0.
         13    1    1    2    0    0 -0.10200936882E+03 -0.30935459941E+03  0.84198365866E+03  0.90279713786E+03  0.10566000000E+00 0. -1.
        994    1    1    2    0    0  0.10641495998E+03  0.32332278380E+03  0.62067372531E+03  0.72829051863E+03  0.17120000000E+03 0.  0.
        998    1    1    2    0    0 -0.44055911661E+01 -0.13968184386E+02  0.37342612305E+02  0.40112343516E+02  0.10000000000E+00 0.  1.
</event>
<event>
 5    1  0.2313627E-009  0.3736851E+03  0.7957747E-01  0.3479125E+00
         13   -1    0    0    0    0  0.00000000000E+00  0.00000000000E+00  0.14999999963E+04  0.15000000000E+04  0.10566000000E+00 0. -1.
        994   -1    0    0    0    0 -0.00000000000E+00 -0.00000000000E+00  0.11368683772E-12  0.17120000000E+03  0.17120000000E+03 0.  0.
         13    1    1    2    0    0 -0.57946778536E+02  0.17242996377E+03  0.95261982437E+03  0.96983218265E+03  0.10566000000E+00 0. -1.
        994    1    1    2    0    0  0.10311983172E+03 -0.15257774539E+03  0.13374438461E+03  0.28479934778E+03  0.17120000000E+03 0.  0.
        998    1    1    2    0    0 -0.45173053184E+02 -0.19852218386E+02  0.41363578730E+03  0.41656846957E+03  0.10000000000E+00 0. -1.
</event>
<event>
 5    1  0.2313627E-009  0.3785643E+03  0.7957747E-01  0.3457434E+00
         13   -1    0    0    0    0  0.00000000000E+00  0.00000000000E+00  0.14999999963E+04  0.15000000000E+04  0.10566000000E+00 0. -1.
        994   -1    0    0    0    0 -0.00000000000E+00 -0.00000000000E+00  0.11368683772E-12  0.17120000000E+03  0.17120000000E+03 0.  0.
         13    1    1    2    0    0  0.30863930485E+02  0.79683503340E+02  0.35202620951E+03  0.36224923224E+03  0.10566000000E+00 0. -1.
        994    1    1    2    0    0 -0.17042352757E+03 -0.10910104955E+03  0.15762955144E+03  0.30838893179E+03  0.17120000000E+03 0.  0.
        998    1    1    2    0    0  0.13955959708E+03  0.29417546212E+02  0.99034423533E+03  0.10005618360E+04  0.10000000000E+00 0. -1.
</event>
<event>
 5    1  0.2313627E-009  0.3882765E+03  0.7957747E-01  0.3415894E+00
         13   -1    0    0    0    0  0.00000000000E+00  0.00000000000E+00  0.14999999963E+04  0.15000000000E+04  0.10566000000E+00 0. -1.
        994   -1    0    0    0    0 -0.00000000000E+00 -0.00000000000E+00  0.11368683772E-12  0.17120000000E+03  0.17120000000E+03 0.  0.
         13    1    1    2    0    0  0.25684404589E+03  0.19867891980E+02  0.12241076278E+04  0.12509208979E+04  0.10566000000E+00 0. -1.
        994    1    1    2    0    0 -0.25963755083E+03 -0.19848179592E+02  0.26511992028E+03  0.40914987494E+03  0.17120000000E+03 0.  0.
        998    1    1    2    0    0  0.27935049407E+01 -0.19712388368E-01  0.10772448173E+02  0.11129227201E+02  0.10000000000E+00 0. -1.
</event>
<event>
 5    1  0.2313627E-009  0.3879520E+03  0.7957747E-01  0.3417248E+00
         13   -1    0    0    0    0  0.00000000000E+00  0.00000000000E+00  0.14999999963E+04  0.15000000000E+04  0.10566000000E+00 0. -1.
        994   -1    0    0    0    0 -0.00000000000E+00 -0.00000000000E+00  0.11368683772E-12  0.17120000000E+03  0.17120000000E+03 0.  0.
         13    1    1    2    0    0 -0.26624247084E+03 -0.63370251223E+02  0.93104398990E+03  0.97043483259E+03  0.10566000000E+00 0. -1.
        994    1    1    2    0    0  0.30332657988E+03  0.79695459094E+02  0.44700904846E+03  0.57226297248E+03  0.17120000000E+03 0.  0.
        998    1    1    2    0    0 -0.37084109041E+02 -0.16325207871E+02  0.12194695792E+03  0.12850219493E+03  0.10000000000E+00 0.  1.
</event>
<event>
 5    1  0.2313627E-009  0.3882984E+03  0.7957747E-01  0.3415802E+00
         13   -1    0    0    0    0  0.00000000000E+00  0.00000000000E+00  0.14999999963E+04  0.15000000000E+04  0.10566000000E+00 0.  1.
        994   -1    0    0    0    0 -0.00000000000E+00 -0.00000000000E+00  0.11368683772E-12  0.17120000000E+03  0.17120000000E+03 0.  0.
         13    1    1    2    0    0 -0.10911053436E+03 -0.17531481801E+03  0.11122611036E+04  0.11312670630E+04  0.10566000000E+00 0.  1.
        994    1    1    2    0    0  0.12573558223E+03  0.20221958819E+03  0.21327706746E+03  0.36262755823E+03  0.17120000000E+03 0.  0.
        998    1    1    2    0    0 -0.16625047869E+02 -0.26904770179E+02  0.17446182519E+03  0.17730537872E+03  0.10000000000E+00 0. -1.
</event>
<event>
 5    1  0.2313627E-009  0.3882408E+03  0.7957747E-01  0.3416043E+00
         13   -1    0    0    0    0  0.00000000000E+00  0.00000000000E+00  0.14999999963E+04  0.15000000000E+04  0.10566000000E+00 0.  1.
        994   -1    0    0    0    0 -0.00000000000E+00 -0.00000000000E+00  0.11368683772E-12  0.17120000000E+03  0.17120000000E+03 0.  0.
         13    1    1    2    0    0 -0.52021139494E+02 -0.17012312092E+03  0.70977957891E+03  0.73173433501E+03  0.10566000000E+00 0.  1.
        994    1    1    2    0    0  0.78033841047E+02  0.27532042408E+03  0.33941226849E+03  0.47581587223E+03  0.17120000000E+03 0.  0.
        998    1    1    2    0    0 -0.26012701552E+02 -0.10519730316E+03  0.45080814888E+03  0.46364979277E+03  0.10000000000E+00 0.  1.
</event>
<event>
 5    1  0.2313627E-009  0.3694552E+03  0.7957747E-01  0.3498398E+00
         13   -1    0    0    0    0  0.00000000000E+00  0.00000000000E+00  0.14999999963E+04  0.15000000000E+04  0.10566000000E+00 0.  1.
        994   -1    0    0    0    0 -0.00000000000E+00 -0.00000000000E+00  0.11368683772E-12  0.17120000000E+03  0.17120000000E+03 0.  0.
         13    1    1    2    0    0 -0.18079052767E+03 -0.14810584220E+03  0.46154672207E+03  0.51734509103E+03  0.10566000000E+00 0.  1.
        994    1    1    2    0    0  0.17097487584E+03  0.27239122369E+03  0.64098795339E+03  0.73729531621E+03  0.17120000000E+03 0.  0.
        998    1    1    2    0    0  0.98156518280E+01 -0.12428538149E+03  0.39746532082E+03  0.41655959276E+03  0.10000000000E+00 0.  1.
</event>
<event>
 5    1  0.2313627E-009  0.3883009E+03  0.7957747E-01  0.3415792E+00
         13   -1    0    0    0    0  0.00000000000E+00  0.00000000000E+00  0.14999999963E+04  0.15000000000E+04  0.10566000000E+00 0.  1.
        994   -1    0    0    0    0 -0.00000000000E+00 -0.00000000000E+00  0.11368683772E-12  0.17120000000E+03  0.17120000000E+03 0.  0.
         13    1    1    2    0    0 -0.17164257423E+03  0.64408987863E+02  0.98434124210E+03  0.10012678878E+04  0.10566000000E+00 0.  1.
        994    1    1    2    0    0  0.22392905592E+03 -0.84216612413E+02  0.21566019022E+03  0.36476762129E+03  0.17120000000E+03 0.  0.
        998    1    1    2    0    0 -0.52286481692E+02  0.19807624550E+02  0.29999856396E+03  0.30516449095E+03  0.10000000000E+00 0. -1.
</event>
<event>
 5    1  0.2313627E-009  0.3882557E+03  0.7957747E-01  0.3415981E+00
         13   -1    0    0    0    0  0.00000000000E+00  0.00000000000E+00  0.14999999963E+04  0.15000000000E+04  0.10566000000E+00 0.  1.
        994   -1    0    0    0    0 -0.00000000000E+00 -0.00000000000E+00  0.11368683772E-12  0.17120000000E+03  0.17120000000E+03 0.  0.
         13    1    1    2    0    0  0.70119606457E+02 -0.19352557849E+03  0.11035783003E+04  0.11226103441E+04  0.10566000000E+00 0.  1.
        994    1    1    2    0    0 -0.81004419533E+02  0.22275921899E+03  0.21103002016E+03  0.36059186768E+03  0.17120000000E+03 0.  0.
        998    1    1    2    0    0  0.10884813077E+02 -0.29233640503E+02  0.18539167585E+03  0.18799778819E+03  0.10000000000E+00 0.  1.
</event>
<event>
 5    1  0.2313627E-009  0.3882765E+03  0.7957747E-01  0.3415894E+00
         13   -1    0    0    0    0  0.00000000000E+00  0.00000000000E+00  0.14999999963E+04  0.15000000000E+04  0.10566000000E+00 0.  1.
        994   -1    0    0    0    0 -0.00000000000E+00 -0.00000000000E+00  0.11368683772E-12  0.17120000000E+03  0.17120000000E+03 0.  0.
         13    1    1    2    0    0  0.20336236794E+03 -0.11309147597E+03  0.12577970656E+04  0.12791401033E+04  0.10566000000E+00 0.  1.
        994    1    1    2    0    0 -0.20732058994E+03  0.11580183623E+03  0.21192706925E+03  0.36140616343E+03  0.17120000000E+03 0.  0.
        998    1    1    2    0    0  0.39582220027E+01 -0.27103602580E+01  0.30275861480E+02  0.30653733256E+02  0.10000000000E+00 0. -1.
</event>
<event>
 5    1  0.2313627E-009  0.3882981E+03  0.7957747E-01  0.3415804E+00
         13   -1    0    0    0    0  0.00000000000E+00  0.00000000000E+00  0.14999999963E+04  0.15000000000E+04  0.10566000000E+00 0. -1.
        994   -1    0    0    0    0 -0.00000000000E+00 -0.00000000000E+00  0.11368683772E-12  0.17120000000E+03  0.17120000000E+03 0.  0.
         13    1    1    2    0    0 -0.51441053393E+02  0.18967094574E+03  0.10349556560E+04  0.10534488458E+04  0.10566000000E+00 0. -1.
        994    1    1    2    0    0  0.63124434945E+02 -0.23479062989E+03  0.22411506569E+03  0.37235512195E+03  0.17120000000E+03 0.  0.
        998    1    1    2    0    0 -0.11683381551E+02  0.45119684142E+02  0.24092927462E+03  0.24539603230E+03  0.10000000000E+00 0. -1.
</event>
<event>
 5    1  0.2313627E-009  0.3883000E+03  0.7957747E-01  0.3415796E+00
         13   -1    0    0    0    0  0.00000000000E+00  0.00000000000E+00  0.14999999963E+04  0.15000000000E+04  0.10566000000E+00 0. -1.
        994   -1    0    0    0    0 -0.00000000000E+00 -0.00000000000E+00  0.11368683772E-12  0.17120000000E+03  0.17120000000E+03 0.  0.
         13    1    1    2    0    0 -0.66691427099E+02 -0.22343307938E+03  0.12615063451E+04  0.12828750357E+04  0.10566000000E+00 0. -1.
        994    1    1    2    0    0  0.67923409438E+02  0.22795120837E+03  0.21270984256E+03  0.36211912414E+03  0.17120000000E+03 0.  0.
        998    1    1    2    0    0 -0.12319823382E+01 -0.45181289904E+01  0.25783808667E+02  0.26205840178E+02  0.10000000000E+00 0.  1.
</event>
<event>
 5    1  0.2313627E-009  0.3860095E+03  0.7957747E-01  0.3425402E+00
         13   -1    0    0    0    0  0.00000000000E+00  0.00000000000E+00  0.14999999963E+04  0.15000000000E+04  0.10566000000E+00 0. -1.
        994   -1    0    0    0    0 -0.00000000000E+00 -0.00000000000E+00  0.11368683772E-12  0.17120000000E+03  0.17120000000E+03 0.  0.
         13    1    1    2    0    0  0.21934497110E+02 -0.23691494337E+02  0.19354905140E+03  0.19622348363E+03  0.10566000000E+00 0. -1.
        994    1    1    2    0    0 -0.80223947581E+02  0.56763613245E+02  0.33453649479E+02  0.20021632355E+03  0.17120000000E+03 0.  0.
        998    1    1    2    0    0  0.58289450471E+02 -0.33072118908E+02  0.12729972954E+04  0.12747601928E+04  0.10000000000E+00 0. -1.
</event>
<event>
 5    1  0.2313627E-009  0.3880725E+03  0.7957747E-01  0.3416745E+00
         13   -1    0    0    0    0  0.00000000000E+00  0.00000000000E+00  0.14999999963E+04  0.15000000000E+04  0.10566000000E+00 0.  1.
        994   -1    0    0    0    0 -0.00000000000E+00 -0.00000000000E+00  0.11368683772E-12  0.17120000000E+03  0.17120000000E+03 0.  0.
         13    1    1    2    0    0 -0.20058062019E+03  0.16126955062E+03  0.12233133006E+04  0.12500943547E+04  0.10566000000E+00 0.  1.
        994    1    1    2    0    0  0.20371993252E+03 -0.16142190771E+03  0.26427198266E+03  0.40829886604E+03  0.17120000000E+03 0.  0.
        998    1    1    2    0    0 -0.31393123360E+01  0.15235708792E+00  0.12414713006E+02  0.12806779207E+02  0.10000000000E+00 0. -1.
</event>
<event>
 5    1  0.2313627E-009  0.3879834E+03  0.7957747E-01  0.3417117E+00
         13   -1    0    0    0    0  0.00000000000E+00  0.00000000000E+00  0.14999999963E+04  0.15000000000E+04  0.10566000000E+00 0.  1.
        994   -1    0    0    0    0 -0.00000000000E+00 -0.00000000000E+00  0.11368683772E-12  0.17120000000E+03  0.17120000000E+03 0.  0.
         13    1    1    2    0    0  0.17990209093E+03 -0.17107762741E+03  0.96261979755E+03  0.99411729827E+03  0.10566000000E+00 0.  1.
        994    1    1    2    0    0 -0.21930225944E+03  0.19909428086E+03  0.37477396993E+03  0.50744160473E+03  0.17120000000E+03 0.  0.
        998    1    1    2    0    0  0.39400168519E+02 -0.28016653443E+02  0.16260622879E+03  0.16964109700E+03  0.10000000000E+00 0.  1.
</event>
<event>
 5    1  0.2313627E-009  0.3883008E+03  0.7957747E-01  0.3415793E+00
         13   -1    0    0    0    0  0.00000000000E+00  0.00000000000E+00  0.14999999963E+04  0.15000000000E+04  0.10566000000E+00 0. -1.
        994   -1    0    0    0    0 -0.00000000000E+00 -0.00000000000E+00  0.11368683772E-12  0.17120000000E+03  0.17120000000E+03 0.  0.
         13    1    1    2    0    0  0.26189010916E+03  0.77437554592E+02  0.11326655932E+04  0.11651241828E+04  0.10566000000E+00 0. -1.
        994    1    1    2    0    0 -0.27100560014E+03 -0.80157429690E+02  0.32788950518E+03  0.46549996397E+03  0.17120000000E+03 0.  0.
        998    1    1    2    0    0  0.91154909811E+01  0.27198750980E+01  0.39444897909E+02  0.40575853256E+02  0.10000000000E+00 0.  0.
</event>
<event>
 5    1  0.2313627E-009  0.3882923E+03  0.7957747E-01  0.3415828E+00
         13   -1    0    0    0    0  0.00000000000E+00  0.00000000000E+00  0.14999999963E+04  0.15000000000E+04  0.10566000000E+00 0.  1.
        994   -1    0    0    0    0 -0.00000000000E+00 -0.00000000000E+00  0.11368683772E-12  0.17120000000E+03  0.17120000000E+03 0.  0.
         13    1    1    2    0    0 -0.23791961038E+03  0.83085065444E+02  0.12527752365E+04  0.12778711490E+04  0.10566000000E+00 0.  1.
        994    1    1    2    0    0  0.23831480179E+03 -0.83262701230E+02  0.24548772552E+03  0.39153580366E+03  0.17120000000E+03 0.  0.
        998    1    1    2    0    0 -0.39519140950E+00  0.17763578618E+00  0.17370342338E+01  0.17930473089E+01  0.10000000000E+00 0.  0.
</event>
<event>
 5    1  0.2313627E-009  0.3801216E+03  0.7957747E-01  0.3450629E+00
         13   -1    0    0    0    0  0.00000000000E+00  0.00000000000E+00  0.14999999963E+04  0.15000000000E+04  0.10566000000E+00 0. -1.
        994   -1    0    0    0    0 -0.00000000000E+00 -0.00000000000E+00  0.11368683772E-12  0.17120000000E+03  0.17120000000E+03 0.  0.
         13    1    1    2    0    0  0.10165408002E+01 -0.30439006696E+02  0.80238694948E+02  0.85824389394E+02  0.10566000000E+00 0. -1.
        994    1    1    2    0    0  0.84427692328E+02  0.96702592903E+02  0.61262166885E+02  0.22258014241E+03  0.17120000000E+03 0.  0.
        998    1    1    2    0    0 -0.85444233128E+02 -0.66263586208E+02  0.13584991344E+04  0.13627954682E+04  0.10000000000E+00 0. -1.
</event>
<event>
 5    1  0.2313627E-009  0.3882999E+03  0.7957747E-01  0.3415796E+00
         13   -1    0    0    0    0  0.00000000000E+00  0.00000000000E+00  0.14999999963E+04  0.15000000000E+04  0.10566000000E+00 0. -1.
        994   -1    0    0    0    0 -0.00000000000E+00 -0.00000000000E+00  0.11368683772E-12  0.17120000000E+03  0.17120000000E+03 0.  0.
         13    1    1    2    0    0  0.14797821938E+03 -0.12130105014E+03  0.57942426362E+03  0.61019995625E+03  0.10566000000E+00 0. -1.
        994    1    1    2    0    0 -0.25171134384E+03  0.20763137602E+03  0.51271973740E+03  0.63139556385E+03  0.17120000000E+03 0.  0.
        998    1    1    2    0    0  0.10373312446E+03 -0.86330325881E+02  0.40785599526E+03  0.42960447990E+03  0.10000000000E+00 0.  1.
</event>
<event>
 5    1  0.2313627E-009  0.3883009E+03  0.7957747E-01  0.3415792E+00
         13   -1    0    0    0    0  0.00000000000E+00  0.00000000000E+00  0.14999999963E+04  0.15000000000E+04  0.10566000000E+00 0. -1.
        994   -1    0    0    0    0 -0.00000000000E+00 -0.00000000000E+00  0.11368683772E-12  0.17120000000E+03  0.17120000000E+03 0.  0.
         13    1    1    2    0    0 -0.32798902349E+02 -0.16769356716E+03  0.65363350671E+03  0.67559875127E+03  0.10566000000E+00 0. -1.
        994    1    1    2    0    0  0.56826789636E+02  0.28968796182E+03  0.37030780482E+03  0.50357294363E+03  0.17120000000E+03 0.  0.
        998    1    1    2    0    0 -0.24027887287E+02 -0.12199439466E+03  0.47605868474E+03  0.49202830510E+03  0.10000000000E+00 0. -1.
</event>
<event>
 5    1  0.2313627E-009  0.3820837E+03  0.7957747E-01  0.3442136E+00
         13   -1    0    0    0    0  0.00000000000E+00  0.00000000000E+00  0.14999999963E+04  0.15000000000E+04  0.10566000000E+00 0. -1.
        994   -1    0    0    0    0 -0.00000000000E+00 -0.00000000000E+00  0.11368683772E-12  0.17120000000E+03  0.17120000000E+03 0.  0.
         13    1    1    2    0    0 -0.10496680280E+03 -0.20470596735E+02  0.55061309494E+03  0.56090272464E+03  0.10566000000E+00 0. -1.
        994    1    1    2    0    0  0.24868511527E+03 -0.60217384248E+02  0.26457650814E+03  0.40593175360E+03  0.17120000000E+03 0.  0.
        998    1    1    2    0    0 -0.14371831247E+03  0.80687980983E+02  0.68481039320E+03  0.70436552176E+03  0.10000000000E+00 0. -1.
</event>
<event>
 5    1  0.2313627E-009  0.3854932E+03  0.7957747E-01  0.3427583E+00
         13   -1    0    0    0    0  0.00000000000E+00  0.00000000000E+00  0.14999999963E+04  0.15000000000E+04  0.10566000000E+00 0. -1.
        994   -1    0    0    0    0 -0.00000000000E+00 -0.00000000000E+00  0.11368683772E-12  0.17120000000E+03  0.17120000000E+03 0.  0.
         13    1    1    2    0    0 -0.19615076878E+02 -0.24959980673E+02  0.18762398516E+03  0.19029062732E+03  0.10566000000E+00 0. -1.
        994    1    1    2    0    0 -0.49746440960E+01  0.13145250950E+03  0.60427929695E+02  0.22419965215E+03  0.17120000000E+03 0.  0.
        998    1    1    2    0    0  0.24589720974E+02 -0.10649252883E+03  0.12519480814E+04  0.12567097205E+04  0.10000000000E+00 0. -1.
</event>
<event>
 5    1  0.2313627E-009  0.3799752E+03  0.7957747E-01  0.3451267E+00
         13   -1    0    0    0    0  0.00000000000E+00  0.00000000000E+00  0.14999999963E+04  0.15000000000E+04  0.10566000000E+00 0.  1.
        994   -1    0    0    0    0 -0.00000000000E+00 -0.00000000000E+00  0.11368683772E-12  0.17120000000E+03  0.17120000000E+03 0.  0.
         13    1    1    2    0    0 -0.43113630570E+02 -0.42796110320E+02  0.21963717375E+03  0.22788328472E+03  0.10566000000E+00 0.  1.
        994    1    1    2    0    0  0.12451320743E+02  0.21756712914E+03  0.18391255484E+03  0.33260150165E+03  0.17120000000E+03 0.  0.
        998    1    1    2    0    0  0.30662309827E+02 -0.17477101882E+03  0.10964502677E+04  0.11107152136E+04  0.10000000000E+00 0.  1.
</event>
<event>
 5    1  0.2313627E-009  0.3883009E+03  0.7957747E-01  0.3415792E+00
         13   -1    0    0    0    0  0.00000000000E+00  0.00000000000E+00  0.14999999963E+04  0.15000000000E+04  0.10566000000E+00 0.  1.
        994   -1    0    0    0    0 -0.00000000000E+00 -0.00000000000E+00  0.11368683772E-12  0.17120000000E+03  0.17120000000E+03 0.  0.
         13    1    1    2    0    0  0.13145667948E+03 -0.37985151583E+01  0.46058202681E+03  0.47898966782E+03  0.10566000000E+00 0.  1.
        994    1    1    2    0    0 -0.30804944338E+03  0.90027670017E+01  0.42131830012E+03  0.54935786096E+03  0.17120000000E+03 0.  0.
        998    1    1    2    0    0  0.17659276390E+03 -0.52042518434E+01  0.61809966935E+03  0.64285247122E+03  0.10000000000E+00 0.  1.
</event>
<event>
 5    1  0.2313627E-009  0.3880656E+03  0.7957747E-01  0.3416774E+00
         13   -1    0    0    0    0  0.00000000000E+00  0.00000000000E+00  0.14999999963E+04  0.15000000000E+04  0.10566000000E+00 0. -1.
        994   -1    0    0    0    0 -0.00000000000E+00 -0.00000000000E+00  0.11368683772E-12  0.17120000000E+03  0.17120000000E+03 0.  0.
         13    1    1    2    0    0  0.11677134913E+03  0.18969728315E+03  0.12811243739E+04  0.13003462153E+04  0.10566000000E+00 0. -1.
        994    1    1    2    0    0 -0.11892726555E+03 -0.19145453321E+03  0.18784027178E+03  0.33969389232E+03  0.17120000000E+03 0.  0.
        998    1    1    2    0    0  0.21559164178E+01  0.17572500575E+01  0.31035350607E+02  0.31159892341E+02  0.10000000000E+00 0. -1.
</event>
<event>
 5    1  0.2313627E-009  0.3882475E+03  0.7957747E-01  0.3416015E+00
         13   -1    0    0    0    0  0.00000000000E+00  0.00000000000E+00  0.14999999963E+04  0.15000000000E+04  0.10566000000E+00 0.  1.
        994   -1    0    0    0    0 -0.00000000000E+00 -0.00000000000E+00  0.11368683772E-12  0.17120000000E+03  0.17120000000E+03 0.  0.
         13    1    1    2    0    0 -0.12337594607E+03 -0.19060141980E+03  0.13025966033E+04  0.13222361542E+04  0.10566000000E+00 0.  1.
        994    1    1    2    0    0  0.12332264788E+03  0.19137475542E+03  0.19203739735E+03  0.34354122674E+03  0.17120000000E+03 0.  0.
        998    1    1    2    0    0  0.53298192306E-01 -0.77333562151E+00  0.53659956451E+01  0.54226191037E+01  0.10000000000E+00 0.  1.
</event>
<event>
 5    1  0.2313627E-009  0.3866977E+03  0.7957747E-01  0.3422504E+00
         13   -1    0    0    0    0  0.00000000000E+00  0.00000000000E+00  0.14999999963E+04  0.15000000000E+04  0.10566000000E+00 0.  1.
        994   -1    0    0    0    0 -0.00000000000E+00 -0.00000000000E+00  0.11368683772E-12  0.17120000000E+03  0.17120000000E+03 0.  0.
         13    1    1    2    0    0 -0.27242974409E+01 -0.83539937540E+02  0.41312390960E+03  0.42149462489E+03  0.10566000000E+00 0.  1.
        994    1    1    2    0    0  0.29506095169E+02  0.20170245155E+03  0.15105643973E+03  0.30607511594E+03  0.17120000000E+03 0.  0.
        998    1    1    2    0    0 -0.26781797728E+02 -0.11816251401E+03  0.93581964695E+03  0.94363025917E+03  0.10000000000E+00 0.  1.
</event>
<event>
 5    1  0.2313627E-009  0.3882251E+03  0.7957747E-01  0.3416108E+00
         13   -1    0    0    0    0  0.00000000000E+00  0.00000000000E+00  0.14999999963E+04  0.15000000000E+04  0.10566000000E+00 0. -1.
        994   -1    0    0    0    0 -0.00000000000E+00 -0.00000000000E+00  0.11368683772E-12  0.17120000000E+03  0.17120000000E+03 0.  0.
         13    1    1    2    0    0  0.88431358102E+01  0.24231242475E+03  0.12182218583E+04  0.12421183597E+04  0.10566000000E+00 0. -1.
        994    1    1    2    0    0 -0.11054955337E+02 -0.25016970329E+03  0.24080428747E+03  0.38730251399E+03  0.17120000000E+03 0.  0.
        998    1    1    2    0    0  0.22118195271E+01  0.78572785403E+01  0.40973850527E+02  0.41779126351E+02  0.10000000000E+00 0.  1.
</event>
<event>
 5    1  0.2313627E-009  0.3821560E+03  0.7957747E-01  0.3441824E+00
         13   -1    0    0    0    0  0.00000000000E+00  0.00000000000E+00  0.14999999963E+04  0.15000000000E+04  0.10566000000E+00 0.  1.
        994   -1    0    0    0    0 -0.00000000000E+00 -0.00000000000E+00  0.11368683772E-12  0.17120000000E+03  0.17120000000E+03 0.  0.
         13    1    1    2    0    0 -0.49952010716E+02  0.54037818545E+02  0.43623226757E+03  0.44239562797E+03  0.10566000000E+00 0.  1.
        994    1    1    2    0    0  0.12633526104E+03 -0.38564284622E+02  0.63304520818E+02  0.22531024075E+03  0.17120000000E+03 0.  0.
        998    1    1    2    0    0 -0.76383250327E+02 -0.15473533923E+02  0.10004632079E+04  0.10034941313E+04  0.10000000000E+00 0.  1.
</event>
<event>
 5    1  0.2313627E-009  0.3826082E+03  0.7957747E-01  0.3439880E+00
         13   -1    0    0    0    0  0.00000000000E+00  0.00000000000E+00  0.14999999963E+04  0.15000000000E+04  0.10566000000E+00 0.  1.
        994   -1    0    0    0    0 -0.00000000000E+00 -0.00000000000E+00  0.11368683772E-12  0.17120000000E+03  0.17120000000E+03 0.  0.
         13    1    1    2    0    0 -0.10692765096E+02  0.13345136968E+02  0.76435885529E+02  0.78325498191E+02  0.10566000000E+00 0.  1.
        994    1    1    2    0    0  0.44112654940E+02  0.10192384683E+03  0.44839828031E+02  0.20893646656E+03  0.17120000000E+03 0.  0.
        998    1    1    2    0    0 -0.33419889845E+02 -0.11526898380E+03  0.13787242827E+04  0.13839380353E+04  0.10000000000E+00 0.  1.
</event>
<event>
 5    1  0.2313627E-009  0.3972359E+03  0.7957747E-01  0.3379380E+00
         13   -1    0    0    0    0  0.00000000000E+00  0.00000000000E+00  0.14999999963E+04  0.15000000000E+04  0.10566000000E+00 0.  1.
        994   -1    0    0    0    0 -0.00000000000E+00 -0.00000000000E+00  0.11368683772E-12  0.17120000000E+03  0.17120000000E+03 0.  0.
         13    1    1    2    0    0 -0.75987181188E+02  0.37878111159E+01  0.33210483703E+03  0.34070813486E+03  0.10566000000E+00 0.  1.
        994    1    1    2    0    0 -0.13927489325E+03 -0.15006663401E+03  0.21505490794E+03  0.34274705537E+03  0.17120000000E+03 0.  0.
        998    1    1    2    0    0  0.21526207444E+03  0.14627882290E+03  0.95284025131E+03  0.98774480977E+03  0.10000000000E+00 0.  1.
</event>
<event>
 5    1  0.2313627E-009  0.3882553E+03  0.7957747E-01  0.3415982E+00
         13   -1    0    0    0    0  0.00000000000E+00  0.00000000000E+00  0.14999999963E+04  0.15000000000E+04  0.10566000000E+00 0. -1.
        994   -1    0    0    0    0 -0.00000000000E+00 -0.00000000000E+00  0.11368683772E-12  0.17120000000E+03  0.17120000000E+03 0.  0.
         13    1    1    2    0    0 -0.23915719770E+03  0.12644253281E+02  0.12778635340E+04  0.13001120202E+04  0.10566000000E+00 0. -1.
        994    1    1    2    0    0  0.23960998812E+03 -0.12508090694E+02  0.21721707724E+03  0.36614491309E+03  0.17120000000E+03 0.  0.
        998    1    1    2    0    0 -0.45279041369E+00 -0.13616258677E+00  0.49193850789E+01  0.49430667569E+01  0.10000000000E+00 0.  1.
</event>
<event>
 5    1  0.2313627E-009  0.3861183E+03  0.7957747E-01  0.3424943E+00
         13   -1    0    0    0    0  0.00000000000E+00  0.00000000000E+00  0.14999999963E+04  0.15000000000E+04  0.10566000000E+00 0.  1.
        994   -1    0    0    0    0 -0.00000000000E+00 -0.00000000000E+00  0.11368683772E-12  0.17120000000E+03  0.17120000000E+03 0.  0.
         13    1    1    2    0    0  0.13449775341E+03 -0.16257014148E+03  0.12611354124E+04  0.12786638480E+04  0.10566000000E+00 0.  1.
        994    1    1    2    0    0 -0.15081343206E+03  0.16818768834E+03  0.19135849422E+03  0.34199313313E+03  0.17120000000E+03 0.  0.
        998    1    1    2    0    0  0.16315678654E+02 -0.56175468561E+01  0.47506089618E+02  0.50543018839E+02  0.10000000000E+00 0. -1.
</event>
<event>
 5    1  0.2313627E-009  0.3835109E+03  0.7957747E-01  0.3436012E+00
         13   -1    0    0    0    0  0.00000000000E+00  0.00000000000E+00  0.14999999963E+04  0.15000000000E+04  0.10566000000E+00 0.  1.
        994   -1    0    0    0    0 -0.00000000000E+00 -0.00000000000E+00  0.11368683772E-12  0.17120000000E+03  0.17120000000E+03 0.  0.
         13    1    1    2    0    0  0.55299866264E+02 -0.10698254516E+02  0.97124879102E+02  0.11227547000E+03  0.10566000000E+00 0.  1.
        994    1    1    2    0    0  0.12779715584E+02 -0.70221294705E+02  0.37218621302E+02  0.18917985393E+03  0.17120000000E+03 0.  0.
        998    1    1    2    0    0 -0.68079581848E+02  0.80919549221E+02  0.13656564959E+04  0.13697446761E+04  0.10000000000E+00 0.  1.
</event>
<event>
 5    1  0.2313627E-009  0.3882863E+03  0.7957747E-01  0.3415853E+00
         13   -1    0    0    0    0  0.00000000000E+00  0.00000000000E+00  0.14999999963E+04  0.15000000000E+04  0.10566000000E+00 0. -1.
        994   -1    0    0    0    0 -0.00000000000E+00 -0.00000000000E+00  0.11368683772E-12  0.17120000000E+03  0.17120000000E+03 0.  0.
         13    1    1    2    0    0  0.14840182515E+03  0.25620763029E+03  0.96059331258E+03  0.10051890244E+04  0.10566000000E+00 0. -1.
        994    1    1    2    0    0 -0.15951789960E+03 -0.27468653796E+03  0.46525501110E+03  0.58878716000E+03  0.17120000000E+03 0.  0.
        998    1    1    2    0    0  0.11116074442E+02  0.18478907672E+02  0.74151672600E+02  0.77223815557E+02  0.10000000000E+00 0. -1.
</event>
<event>
 5    1  0.2313627E-009  0.3882920E+03  0.7957747E-01  0.3415829E+00
         13   -1    0    0    0    0  0.00000000000E+00  0.00000000000E+00  0.14999999963E+04  0.15000000000E+04  0.10566000000E+00 0.  1.
        994   -1    0    0    0    0 -0.00000000000E+00 -0.00000000000E+00  0.11368683772E-12  0.17120000000E+03  0.17120000000E+03 0.  0.
         13    1    1    2    0    0 -0.25620926513E+02  0.19162672246E+03  0.83400571679E+03  0.85612077387E+03  0.10566000000E+00 0.  1.
        994    1    1    2    0    0  0.38937437927E+02 -0.27334604846E+03  0.30811931659E+03  0.44775120272E+03  0.17120000000E+03 0.  0.
        998    1    1    2    0    0 -0.13316511414E+02  0.81719326000E+02  0.35787496290E+03  0.36732802342E+03  0.10000000000E+00 0.  1.
</event>
<event>
 5    1  0.2313627E-009  0.3882985E+03  0.7957747E-01  0.3415802E+00
         13   -1    0    0    0    0  0.00000000000E+00  0.00000000000E+00  0.14999999963E+04  0.15000000000E+04  0.10566000000E+00 0. -1.
        994   -1    0    0    0    0 -0.00000000000E+00 -0.00000000000E+00  0.11368683772E-12  0.17120000000E+03  0.17120000000E+03 0.  0.
         13    1    1    2    0    0  0.12055972749E+03  0.16651325385E+03  0.12279467763E+04  0.12450359867E+04  0.10566000000E+00 0. -1.
        994    1    1    2    0    0 -0.13012155907E+03 -0.17905188800E+03  0.17988108083E+03  0.33265273481E+03  0.17120000000E+03 0.  0.
        998    1    1    2    0    0  0.95618315805E+01  0.12538634156E+02  0.92172139160E+02  0.93511278501E+02  0.10000000000E+00 0.  1.
</event>
<event>
 5    1  0.2313627E-009  0.3850212E+03  0.7957747E-01  0.3429582E+00
         13   -1    0    0    0    0  0.00000000000E+00  0.00000000000E+00  0.14999999963E+04  0.15000000000E+04  0.10566000000E+00 0.  1.
        994   -1    0    0    0    0 -0.00000000000E+00 -0.00000000000E+00  0.11368683772E-12  0.17120000000E+03  0.17120000000E+03 0.  0.
         13    1    1    2    0    0  0.25998463102E+03  0.18789998850E+03  0.63685779923E+03  0.71308224046E+03  0.10566000000E+00 0.  1.
        994    1    1    2    0    0 -0.27287934429E+03 -0.21067035036E+03  0.76268855533E+03  0.85431165595E+03  0.17120000000E+03 0.  0.
        998    1    1    2    0    0  0.12894713267E+02  0.22770361862E+02  0.10045364172E+03  0.10380610359E+03  0.10000000000E+00 0.  1.
</event>
<event>
 5    1  0.2313627E-009  0.3882560E+03  0.7957747E-01  0.3415980E+00
         13   -1    0    0    0    0  0.00000000000E+00  0.00000000000E+00  0.14999999963E+04  0.15000000000E+04  0.10566000000E+00 0.  1.
        994   -1    0    0    0    0 -0.00000000000E+00 -0.00000000000E+00  0.11368683772E-12  0.17120000000E+03  0.17120000000E+03 0.  0.
         13    1    1    2    0    0  0.14673640739E+03  0.41212008247E+02  0.85765156753E+03  0.87108910298E+03  0.10566000000E+00 0.  1.
        994    1    1    2    0    0 -0.22412123004E+03 -0.56865615421E+02  0.19908002074E+03  0.34986614388E+03  0.17120000000E+03 0.  0.
        998    1    1    2    0    0  0.77384822650E+02  0.15653607173E+02  0.44326840801E+03  0.45024475315E+03  0.10000000000E+00 0. -1.
</event>
<event>
 5    1  0.2313627E-009  0.3882525E+03  0.7957747E-01  0.3415994E+00
         13   -1    0    0    0    0  0.00000000000E+00  0.00000000000E+00  0.14999999963E+04  0.15000000000E+04  0.10566000000E+00 0. -1.
        994   -1    0    0    0    0 -0.00000000000E+00 -0.00000000000E+00  0.11368683772E-12  0.17120000000E+03  0.17120000000E+03 0.  0.
         13    1    1    2    0    0 -0.59444212021E+02 -0.23491267172E+03  0.12428300480E+04  0.12662322524E+04  0.10566000000E+00 0. -1.
        994    1    1    2    0    0  0.61704593224E+02  0.23956754485E+03  0.23375263466E+03  0.38098530100E+03  0.17120000000E+03 0.  0.
        998    1    1    2    0    0 -0.22603812028E+01 -0.46548731305E+01  0.23417313620E+02  0.23982446585E+02  0.10000000000E+00 0.  1.
</event>
<event>
 5    1  0.2313627E-009  0.3879900E+03  0.7957747E-01  0.3417089E+00
         13   -1    0    0    0    0  0.00000000000E+00  0.00000000000E+00  0.14999999963E+04  0.15000000000E+04  0.10566000000E+00 0.  1.
        994   -1    0    0    0    0 -0.00000000000E+00 -0.00000000000E+00  0.11368683772E-12  0.17120000000E+03  0.17120000000E+03 0.  0.
         13    1    1    2    0    0  0.12323749723E+03 -0.24682119253E+03  0.11536620282E+04  0.11861889682E+04  0.10566000000E+00 0.  1.
        994    1    1    2    0    0 -0.12467345610E+03  0.24984865348E+03  0.31811603720E+03  0.45659070668E+03  0.17120000000E+03 0.  0.
        998    1    1    2    0    0  0.14359588705E+01 -0.30274609440E+01  0.28221930840E+02  0.28420325086E+02  0.10000000000E+00 0. -1.
</event>
<event>
 5    1  0.2313627E-009  0.3882973E+03  0.7957747E-01  0.3415807E+00
         13   -1    0    0    0    0  0.00000000000E+00  0.00000000000E+00  0.14999999963E+04  0.15000000000E+04  0.10566000000E+00 0. -1.
        994   -1    0    0    0    0 -0.00000000000E+00 -0.00000000000E+00  0.11368683772E-12  0.17120000000E+03  0.17120000000E+03 0.  0.
         13    1    1    2    0    0  0.19134484483E+03  0.16206543777E+03  0.12465912745E+04  0.12715611950E+04  0.10566000000E+00 0. -1.
        994    1    1    2    0    0 -0.19250449779E+03 -0.16324956520E+03  0.24539365164E+03  0.39145355596E+03  0.17120000000E+03 0.  0.
        998    1    1    2    0    0  0.11596529640E+01  0.11841274313E+01  0.80150701003E+01  0.81852490178E+01  0.10000000000E+00 0.  0.
</event>
<event>
 5    1  0.2313627E-009  0.3824221E+03  0.7957747E-01  0.3440680E+00
         13   -1    0    0    0    0  0.00000000000E+00  0.00000000000E+00  0.14999999963E+04  0.15000000000E+04  0.10566000000E+00 0. -1.
        994   -1    0    0    0    0 -0.00000000000E+00 -0.00000000000E+00  0.11368683772E-12  0.17120000000E+03  0.17120000000E+03 0.  0.
         13    1    1    2    0    0  0.19482164583E+02 -0.66251077125E+02  0.26398705400E+03  0.27286981474E+03  0.10566000000E+00 0. -1.
        994    1    1    2    0    0 -0.64689185351E+02  0.15806264243E+03  0.10657499925E+03  0.26426532141E+03  0.17120000000E+03 0.  0.
        998    1    1    2    0    0  0.45207020767E+02 -0.91811565307E+02  0.11294379430E+04  0.11340648638E+04  0.10000000000E+00 0. -1.
</event>
<event>
 5    1  0.2313627E-009  0.3882982E+03  0.7957747E-01  0.3415803E+00
         13   -1    0    0    0    0  0.00000000000E+00  0.00000000000E+00  0.14999999963E+04  0.15000000000E+04  0.10566000000E+00 0.  1.
        994   -1    0    0    0    0 -0.00000000000E+00 -0.00000000000E+00  0.11368683772E-12  0.17120000000E+03  0.17120000000E+03 0.  0.
         13    1    1    2    0    0  0.18645467539E+03  0.82413037239E+02  0.11550117238E+04  0.11728637380E+04  0.10566000000E+00 0.  1.
        994    1    1    2    0    0 -0.20998995983E+03 -0.93573588266E+02  0.19636685299E+03  0.34744953678E+03  0.17120000000E+03 0.  0.
        998    1    1    2    0    0  0.23535284438E+02  0.11160551027E+02  0.14862141950E+03  0.15088672522E+03  0.10000000000E+00 0.  1.
</event>
<event>
 5    1  0.2313627E-009  0.3882960E+03  0.7957747E-01  0.3415813E+00
         13   -1    0    0    0    0  0.00000000000E+00  0.00000000000E+00  0.14999999963E+04  0.15000000000E+04  0.10566000000E+00 0. -1.
        994   -1    0    0    0    0 -0.00000000000E+00 -0.00000000000E+00  0.11368683772E-12  0.17120000000E+03  0.17120000000E+03 0.  0.
         13    1    1    2    0    0 -0.89682401989E+02 -0.20722248624E+03  0.13044385919E+04  0.13238369021E+04  0.10566000000E+00 0. -1.
        994    1    1    2    0    0  0.90163324038E+02  0.20813014912E+03  0.19032112404E+03  0.34202215459E+03  0.17120000000E+03 0.  0.
        998    1    1    2    0    0 -0.48092204927E+00 -0.90766288285E+00  0.52402803357E+01  0.53409433552E+01  0.10000000000E+00 0. -1.
</event>
<event>
 5    1  0.2313627E-009  0.3882922E+03  0.7957747E-01  0.3415828E+00
         13   -1    0    0    0    0  0.00000000000E+00  0.00000000000E+00  0.14999999963E+04  0.15000000000E+04  0.10566000000E+00 0. -1.
        994   -1    0    0    0    0 -0.00000000000E+00 -0.00000000000E+00  0.11368683772E-12  0.17120000000E+03  0.17120000000E+03 0.  0.
         13    1    1    2    0    0 -0.23019141447E+03 -0.30863599679E+02  0.12111557608E+04  0.12332229876E+04  0.10566000000E+00 0. -1.
        994    1    1    2    0    0  0.24241704506E+03  0.33004753784E+02  0.22751290827E+03  0.37540231877E+03  0.17120000000E+03 0.  0.
        998    1    1    2    0    0 -0.12225630590E+02 -0.21411541049E+01  0.61331327183E+02  0.62574693593E+02  0.10000000000E+00 0. -1.
</event>
<event>
 5    1  0.2313627E-009  0.3882980E+03  0.7957747E-01  0.3415804E+00
         13   -1    0    0    0    0  0.00000000000E+00  0.00000000000E+00  0.14999999963E+04  0.15000000000E+04  0.10566000000E+00 0. -1.
        994   -1    0    0    0    0 -0.00000000000E+00 -0.00000000000E+00  0.11368683772E-12  0.17120000000E+03  0.17120000000E+03 0.  0.
         13    1    1    2    0    0  0.20394138406E+03 -0.11014212472E+03  0.10156160885E+04  0.10417290560E+04  0.10566000000E+00 0. -1.
        994    1    1    2    0    0 -0.24133372312E+03  0.12938538068E+03  0.30147821065E+03  0.44179304447E+03  0.17120000000E+03 0.  0.
        998    1    1    2    0    0  0.37392339064E+02 -0.19243255961E+02  0.18290569713E+03  0.18767789951E+03  0.10000000000E+00 0. -1.
</event>
<event>
 5    1  0.2313627E-009  0.3879414E+03  0.7957747E-01  0.3417293E+00
         13   -1    0    0    0    0  0.00000000000E+00  0.00000000000E+00  0.14999999963E+04  0.15000000000E+04  0.10566000000E+00 0.  1.
        994   -1    0    0    0    0 -0.00000000000E+00 -0.00000000000E+00  0.11368683772E-12  0.17120000000E+03  0.17120000000E+03 0.  0.
         13    1    1    2    0    0  0.23067295033E+03  0.77032316688E+02  0.12676779911E+04  0.12907949055E+04  0.10566000000E+00 0.  1.
        994    1    1    2    0    0 -0.23079249604E+03 -0.78657515179E+02  0.22620129631E+03  0.37407037757E+03  0.17120000000E+03 0.  0.
        998    1    1    2    0    0  0.11954570935E+00  0.16251984909E+01  0.61207088660E+01  0.63347169103E+01  0.10000000000E+00 0.  1.
</event>
<event>
 5    1  0.2313627E-009  0.3879131E+03  0.7957747E-01  0.3417410E+00
         13   -1    0    0    0    0  0.00000000000E+00  0.00000000000E+00  0.14999999963E+04  0.15000000000E+04  0.10566000000E+00 0. -1.
        994   -1    0    0    0    0 -0.00000000000E+00 -0.00000000000E+00  0.11368683772E-12  0.17120000000E+03  0.17120000000E+03 0.  0.
         13    1    1    2    0    0  0.21148171724E+02  0.28762861005E+03  0.10878085053E+04  0.11253909622E+04  0.10566000000E+00 0. -1.
        994    1    1    2    0    0 -0.20039350906E+02 -0.29429056518E+03  0.37050579115E+03  0.50357967951E+03  0.17120000000E+03 0.  0.
        998    1    1    2    0    0 -0.11088208179E+01  0.66619551240E+01  0.41685699804E+02  0.42229358246E+02  0.10000000000E+00 0.  1.
</event>
<event>
 5    1  0.2313627E-009  0.3882024E+03  0.7957747E-01  0.3416203E+00
         13   -1    0    0    0    0  0.00000000000E+00  0.00000000000E+00  0.14999999963E+04  0.15000000000E+04  0.10566000000E+00 0. -1.
        994   -1    0    0    0    0 -0.00000000000E+00 -0.00000000000E+00  0.11368683772E-12  0.17120000000E+03  0.17120000000E+03 0.  0.
         13    1    1    2    0    0  0.17599276735E+03  0.21591441784E+03  0.11530540222E+04  0.11862234525E+04  0.10566000000E+00 0. -1.
        994    1    1    2    0    0 -0.17829105424E+03 -0.21843276742E+03  0.32606688751E+03  0.46382068629E+03  0.17120000000E+03 0.  0.
        998    1    1    2    0    0  0.22982868876E+01  0.25183495839E+01  0.20879086564E+02  0.21155861198E+02  0.10000000000E+00 0.  1.
</event>
<event>
 5    1  0.2313627E-009  0.3867782E+03  0.7957747E-01  0.3422165E+00
         13   -1    0    0    0    0  0.00000000000E+00  0.00000000000E+00  0.14999999963E+04  0.15000000000E+04  0.10566000000E+00 0.  1.
        994   -1    0    0    0    0 -0.00000000000E+00 -0.00000000000E+00  0.11368683772E-12  0.17120000000E+03  0.17120000000E+03 0.  0.
         13    1    1    2    0    0  0.50133722632E+02 -0.48985739970E+02  0.40224617151E+03  0.40830746567E+03  0.10566000000E+00 0.  1.
        994    1    1    2    0    0 -0.98054260403E+02  0.18533382516E+03  0.16077953248E+03  0.31483767690E+03  0.17120000000E+03 0.  0.
        998    1    1    2    0    0  0.47920537772E+02 -0.13634808519E+03  0.93697429229E+03  0.94805485743E+03  0.10000000000E+00 0.  1.
</event>
<event>
 5    1  0.2313627E-009  0.3870909E+03  0.7957747E-01  0.3420853E+00
         13   -1    0    0    0    0  0.00000000000E+00  0.00000000000E+00  0.14999999963E+04  0.15000000000E+04  0.10566000000E+00 0.  1.
        994   -1    0    0    0    0 -0.00000000000E+00 -0.00000000000E+00  0.11368683772E-12  0.17120000000E+03  0.17120000000E+03 0.  0.
         13    1    1    2    0    0 -0.59706468113E+02 -0.15559410841E+03  0.87541268069E+03  0.89113509726E+03  0.10566000000E+00 0.  1.
        994    1    1    2    0    0  0.78502105527E+02  0.20636318770E+03  0.18035114497E+03  0.33254220980E+03  0.17120000000E+03 0.  0.
        998    1    1    2    0    0 -0.18795637414E+02 -0.50769079293E+02  0.44423617063E+03  0.44752269293E+03  0.10000000000E+00 0. -1.
</event>
<event>
 5    1  0.2313627E-009  0.3883005E+03  0.7957747E-01  0.3415794E+00
         13   -1    0    0    0    0  0.00000000000E+00  0.00000000000E+00  0.14999999963E+04  0.15000000000E+04  0.10566000000E+00 0.  1.
        994   -1    0    0    0    0 -0.00000000000E+00 -0.00000000000E+00  0.11368683772E-12  0.17120000000E+03  0.17120000000E+03 0.  0.
         13    1    1    2    0    0 -0.22844266493E+03  0.15155366913E+02  0.12267730902E+04  0.12479535097E+04  0.10566000000E+00 0.  1.
        994    1    1    2    0    0  0.23903697310E+03 -0.15716714242E+02  0.21632793211E+03  0.36536680723E+03  0.17120000000E+03 0.  0.
        998    1    1    2    0    0 -0.10594308165E+02  0.56134732893E+00  0.56898973959E+02  0.57879683084E+02  0.10000000000E+00 0.  1.
</event>
<event>
 5    1  0.2313627E-009  0.3882049E+03  0.7957747E-01  0.3416192E+00
         13   -1    0    0    0    0  0.00000000000E+00  0.00000000000E+00  0.14999999963E+04  0.15000000000E+04  0.10566000000E+00 0.  1.
        994   -1    0    0    0    0 -0.00000000000E+00 -0.00000000000E+00  0.11368683772E-12  0.17120000000E+03  0.17120000000E+03 0.  0.
         13    1    1    2    0    0 -0.71899099628E+02 -0.83322913790E+02  0.66363832997E+03  0.67270203854E+03  0.10566000000E+00 0.  1.
        994    1    1    2    0    0  0.13756501404E+03  0.17596224933E+03  0.18378332554E+03  0.33611396433E+03  0.17120000000E+03 0.  0.
        998    1    1    2    0    0 -0.65665914408E+02 -0.92639335536E+02  0.65257834077E+03  0.66238399713E+03  0.10000000000E+00 0. -1.
</event>
<event>
 5    1  0.2313627E-009  0.3868565E+03  0.7957747E-01  0.3421836E+00
         13   -1    0    0    0    0  0.00000000000E+00  0.00000000000E+00  0.14999999963E+04  0.15000000000E+04  0.10566000000E+00 0. -1.
        994   -1    0    0    0    0 -0.00000000000E+00 -0.00000000000E+00  0.11368683772E-12  0.17120000000E+03  0.17120000000E+03 0.  0.
         13    1    1    2    0    0  0.40860887694E+02 -0.83768543178E+02  0.44565364831E+03  0.45529547152E+03  0.10566000000E+00 0. -1.
        994    1    1    2    0    0 -0.85467870688E+02  0.19563004666E+03  0.16734255014E+03  0.32076290490E+03  0.17120000000E+03 0.  0.
        998    1    1    2    0    0  0.44606982994E+02 -0.11186150348E+03  0.88700379784E+03  0.89514162358E+03  0.10000000000E+00 0. -1.
</event>
<event>
 5    1  0.2313627E-009  0.3882996E+03  0.7957747E-01  0.3415798E+00
         13   -1    0    0    0    0  0.00000000000E+00  0.00000000000E+00  0.14999999963E+04  0.15000000000E+04  0.10566000000E+00 0. -1.
        994   -1    0    0    0    0 -0.00000000000E+00 -0.00000000000E+00  0.11368683772E-12  0.17120000000E+03  0.17120000000E+03 0.  0.
         13    1    1    2    0    0  0.15671706548E+02 -0.14729175722E+03  0.44550166653E+03  0.46948078787E+03  0.10566000000E+00 0. -1.
        994    1    1    2    0    0 -0.34145312395E+02  0.32566139624E+03  0.51977320629E+03  0.63772633107E+03  0.17120000000E+03 0.  0.
        998    1    1    2    0    0  0.18473605847E+02 -0.17836963901E+03  0.53472512346E+03  0.56399288106E+03  0.10000000000E+00 0. -1.
</event>
<event>
 5    1  0.2313627E-009  0.3883006E+03  0.7957747E-01  0.3415793E+00
         13   -1    0    0    0    0  0.00000000000E+00  0.00000000000E+00  0.14999999963E+04  0.15000000000E+04  0.10566000000E+00 0. -1.
        994   -1    0    0    0    0 -0.00000000000E+00 -0.00000000000E+00  0.11368683772E-12  0.17120000000E+03  0.17120000000E+03 0.  0.
         13    1    1    2    0    0  0.24270480367E+03 -0.14483078950E+02  0.10292532597E+04  0.10575810442E+04  0.10566000000E+00 0. -1.
        994    1    1    2    0    0 -0.27878199789E+03  0.16387732524E+02  0.31754503737E+03  0.45621513663E+03  0.17120000000E+03 0.  0.
        998    1    1    2    0    0  0.36077194222E+02 -0.19046535735E+01  0.15320169924E+03  0.15740381920E+03  0.10000000000E+00 0.  1.
</event>
<event>
 5    1  0.2313627E-009  0.3882820E+03  0.7957747E-01  0.3415871E+00
         13   -1    0    0    0    0  0.00000000000E+00  0.00000000000E+00  0.14999999963E+04  0.15000000000E+04  0.10566000000E+00 0. -1.
        994   -1    0    0    0    0 -0.00000000000E+00 -0.00000000000E+00  0.11368683772E-12  0.17120000000E+03  0.17120000000E+03 0.  0.
         13    1    1    2    0    0  0.20246740401E+03 -0.54344972050E+02  0.11410809600E+04  0.11601776563E+04  0.10566000000E+00 0. -1.
        994    1    1    2    0    0 -0.23015283225E+03  0.61576581868E+02  0.21356714814E+03  0.36288065310E+03  0.17120000000E+03 0.  0.
        998    1    1    2    0    0  0.27685428242E+02 -0.72316098180E+01  0.14535188811E+03  0.14814169060E+03  0.10000000000E+00 0.  1.
</event>
<event>
 5    1  0.2313627E-009  0.3882827E+03  0.7957747E-01  0.3415868E+00
         13   -1    0    0    0    0  0.00000000000E+00  0.00000000000E+00  0.14999999963E+04  0.15000000000E+04  0.10566000000E+00 0. -1.
        994   -1    0    0    0    0 -0.00000000000E+00 -0.00000000000E+00  0.11368683772E-12  0.17120000000E+03  0.17120000000E+03 0.  0.
         13    1    1    2    0    0 -0.22103577152E+03  0.88314789896E+02  0.12779107288E+04  0.12998892862E+04  0.10566000000E+00 0. -1.
        994    1    1    2    0    0  0.22191549640E+03 -0.89009309373E+02  0.21538430743E+03  0.36451198140E+03  0.17120000000E+03 0.  0.
        998    1    1    2    0    0 -0.87972487527E+00  0.69451947692E+00  0.67049600018E+01  0.67987323661E+01  0.10000000000E+00 0. -1.
</event>
<event>
 5    1  0.2313627E-009  0.3882992E+03  0.7957747E-01  0.3415799E+00
         13   -1    0    0    0    0  0.00000000000E+00  0.00000000000E+00  0.14999999963E+04  0.15000000000E+04  0.10566000000E+00 0. -1.
        994   -1    0    0    0    0 -0.00000000000E+00 -0.00000000000E+00  0.11368683772E-12  0.17120000000E+03  0.17120000000E+03 0.  0.
         13    1    1    2    0    0 -0.20390425926E+03 -0.71005371021E+02  0.11821584268E+04  0.12017143034E+04  0.10566000000E+00 0. -1.
        994    1    1    2    0    0  0.22304561223E+03  0.77775564586E+02  0.20926231041E+03  0.35902442555E+03  0.17120000000E+03 0.  0.
        998    1    1    2    0    0 -0.19141352963E+02 -0.67701935657E+01  0.10857925905E+03  0.11046127109E+03  0.10000000000E+00 0. -1.
</event>
<event>
 5    1  0.2313627E-009  0.3882284E+03  0.7957747E-01  0.3416094E+00
         13   -1    0    0    0    0  0.00000000000E+00  0.00000000000E+00  0.14999999963E+04  0.15000000000E+04  0.10566000000E+00 0.  1.
        994   -1    0    0    0    0 -0.00000000000E+00 -0.00000000000E+00  0.11368683772E-12  0.17120000000E+03  0.17120000000E+03 0.  0.
         13    1    1    2    0    0  0.18100232720E+03 -0.12293668635E+03  0.13114983254E+04  0.13296251878E+04  0.10566000000E+00 0.  1.
        994    1    1    2    0    0 -0.18199298695E+03  0.12323632160E+03  0.17709811196E+03  0.33012394569E+03  0.17120000000E+03 0.  0.
        998    1    1    2    0    0  0.99065975280E+00 -0.29963525818E+00  0.11403558926E+02  0.11450866527E+02  0.10000000000E+00 0.  1.
</event>
<event>
 5    1  0.2313627E-009  0.3882815E+03  0.7957747E-01  0.3415873E+00
         13   -1    0    0    0    0  0.00000000000E+00  0.00000000000E+00  0.14999999963E+04  0.15000000000E+04  0.10566000000E+00 0.  1.
        994   -1    0    0    0    0 -0.00000000000E+00 -0.00000000000E+00  0.11368683772E-12  0.17120000000E+03  0.17120000000E+03 0.  0.
         13    1    1    2    0    0  0.14453900511E+03  0.14291396852E+03  0.11078120414E+04  0.11263052236E+04  0.10566000000E+00 0.  1.
        994    1    1    2    0    0 -0.16980991356E+03 -0.16698812014E+03  0.21338258679E+03  0.36271477411E+03  0.17120000000E+03 0.  0.
        998    1    1    2    0    0  0.25270908460E+02  0.24074151622E+02  0.17880536808E+03  0.18218000231E+03  0.10000000000E+00 0.  1.
</event>
<event>
 5    1  0.2313627E-009  0.3818440E+03  0.7957747E-01  0.3443168E+00
         13   -1    0    0    0    0  0.00000000000E+00  0.00000000000E+00  0.14999999963E+04  0.15000000000E+04  0.10566000000E+00 0.  1.
        994   -1    0    0    0    0 -0.00000000000E+00 -0.00000000000E+00  0.11368683772E-12  0.17120000000E+03  0.17120000000E+03 0.  0.
         13    1    1    2    0    0  0.82172969438E+02  0.59026873188E+02  0.41506294580E+03  0.42721637235E+03  0.10566000000E+00 0.  1.
        994    1    1    2    0    0 -0.15998558667E+03 -0.94773200225E+02  0.12818028962E+03  0.28340249482E+03  0.17120000000E+03 0.  0.
        998    1    1    2    0    0  0.77812617234E+02  0.35746327037E+02  0.95675676086E+03  0.96058113283E+03  0.10000000000E+00 0.  1.
</event>
<event>
 5    1  0.2313627E-009  0.3882932E+03  0.7957747E-01  0.3415824E+00
         13   -1    0    0    0    0  0.00000000000E+00  0.00000000000E+00  0.14999999963E+04  0.15000000000E+04  0.10566000000E+00 0. -1.
        994   -1    0    0    0    0 -0.00000000000E+00 -0.00000000000E+00  0.11368683772E-12  0.17120000000E+03  0.17120000000E+03 0.  0.
         13    1    1    2    0    0  0.15678188054E+03 -0.15063968454E+03  0.12903602075E+04  0.13085497121E+04  0.10566000000E+00 0. -1.
        994    1    1    2    0    0 -0.16060288981E+03  0.15399231029E+03  0.18206401973E+03  0.33460972359E+03  0.17120000000E+03 0.  0.
        998    1    1    2    0    0  0.38210092761E+01 -0.33526257500E+01  0.27575769016E+02  0.28040564333E+02  0.10000000000E+00 0. -1.
</event>
<event>
 5    1  0.2313627E-009  0.3882972E+03  0.7957747E-01  0.3415808E+00
         13   -1    0    0    0    0  0.00000000000E+00  0.00000000000E+00  0.14999999963E+04  0.15000000000E+04  0.10566000000E+00 0. -1.
        994   -1    0    0    0    0 -0.00000000000E+00 -0.00000000000E+00  0.11368683772E-12  0.17120000000E+03  0.17120000000E+03 0.  0.
         13    1    1    2    0    0 -0.19067931673E+03  0.18394804489E+03  0.12119431026E+04  0.12405650246E+04  0.10566000000E+00 0. -1.
        994    1    1    2    0    0  0.19166198727E+03 -0.18504549803E+03  0.28084148685E+03  0.42327004907E+03  0.17120000000E+03 0.  0.
        998    1    1    2    0    0 -0.98267053496E+00  0.10974531370E+01  0.72154068366E+01  0.73649263802E+01  0.10000000000E+00 0. -1.
</event>
<event>
 5    1  0.2313627E-009  0.3882955E+03  0.7957747E-01  0.3415815E+00
         13   -1    0    0    0    0  0.00000000000E+00  0.00000000000E+00  0.14999999963E+04  0.15000000000E+04  0.10566000000E+00 0.  1.
        994   -1    0    0    0    0 -0.00000000000E+00 -0.00000000000E+00  0.11368683772E-12  0.17120000000E+03  0.17120000000E+03 0.  0.
         13    1    1    2    0    0 -0.10382622961E+03  0.19264486122E+03  0.13185571345E+04  0.13365944997E+04  0.10566000000E+00 0.  1.
        994    1    1    2    0    0  0.10412994762E+03 -0.19324896961E+03  0.17651151469E+03  0.32962700900E+03  0.17120000000E+03 0.  0.
        998    1    1    2    0    0 -0.30371800077E+00  0.60410839177E+00  0.49313470644E+01  0.49784912817E+01  0.10000000000E+00 0.  0.
</event>
<event>
 5    1  0.2313627E-009  0.3882884E+03  0.7957747E-01  0.3415844E+00
         13   -1    0    0    0    0  0.00000000000E+00  0.00000000000E+00  0.14999999963E+04  0.15000000000E+04  0.10566000000E+00 0. -1.
        994   -1    0    0    0    0 -0.00000000000E+00 -0.00000000000E+00  0.11368683772E-12  0.17120000000E+03  0.17120000000E+03 0.  0.
         13    1    1    2    0    0 -0.17838968810E+03  0.19587759293E+03  0.11844902027E+04  0.12137577862E+04  0.10566000000E+00 0. -1.
        994    1    1    2    0    0  0.18189592129E+03 -0.19944435266E+03  0.29047851273E+03  0.43191594361E+03  0.17120000000E+03 0.  0.
        998    1    1    2    0    0 -0.35062331875E+01  0.35667597300E+01  0.25031280876E+02  0.25526270163E+02  0.10000000000E+00 0.  1.
</event>
<event>
 5    1  0.2313627E-009  0.3882946E+03  0.7957747E-01  0.3415818E+00
         13   -1    0    0    0    0  0.00000000000E+00  0.00000000000E+00  0.14999999963E+04  0.15000000000E+04  0.10566000000E+00 0. -1.
        994   -1    0    0    0    0 -0.00000000000E+00 -0.00000000000E+00  0.11368683772E-12  0.17120000000E+03  0.17120000000E+03 0.  0.
         13    1    1    2    0    0 -0.14560055681E+03  0.25343900435E+03  0.11228618100E+04  0.11602799259E+04  0.10566000000E+00 0. -1.
        994    1    1    2    0    0  0.14666587925E+03 -0.25562768435E+03  0.36854098339E+03  0.50198435193E+03  0.17120000000E+03 0.  0.
        998    1    1    2    0    0 -0.10653224474E+01  0.21886800073E+01  0.85972029210E+01  0.89357221396E+01  0.10000000000E+00 0.  1.
</event>
<event>
 5    1  0.2313627E-009  0.3882783E+03  0.7957747E-01  0.3415886E+00
         13   -1    0    0    0    0  0.00000000000E+00  0.00000000000E+00  0.14999999963E+04  0.15000000000E+04  0.10566000000E+00 0.  1.
        994   -1    0    0    0    0 -0.00000000000E+00 -0.00000000000E+00  0.11368683772E-12  0.17120000000E+03  0.17120000000E+03 0.  0.
         13    1    1    2    0    0  0.14475511817E+03  0.20944944151E+03  0.12295012750E+04  0.12555861217E+04  0.10566000000E+00 0.  1.
        994    1    1    2    0    0 -0.14667440914E+03 -0.21124877815E+03  0.25702093790E+03  0.40188136444E+03  0.17120000000E+03 0.  0.
        998    1    1    2    0    0  0.19192909718E+01  0.17993366423E+01  0.13477783411E+02  0.13732513822E+02  0.10000000000E+00 0. -1.
</event>
<event>
 5    1  0.2313627E-009  0.3883007E+03  0.7957747E-01  0.3415793E+00
         13   -1    0    0    0    0  0.00000000000E+00  0.00000000000E+00  0.14999999963E+04  0.15000000000E+04  0.10566000000E+00 0.  1.
        994   -1    0    0    0    0 -0.00000000000E+00 -0.00000000000E+00  0.11368683772E-12  0.17120000000E+03  0.17120000000E+03 0.  0.
         13    1    1    2    0    0  0.22150846643E+03 -0.25597019955E+02  0.11391443770E+04  0.11607631674E+04  0.10566000000E+00 0.  1.
        994    1    1    2    0    0 -0.24618539066E+03  0.28537026604E+02  0.23470207698E+03  0.38185876106E+03  0.17120000000E+03 0.  0.
        998    1    1    2    0    0  0.24676924227E+02 -0.29400066493E+01  0.12615354232E+03  0.12857807149E+03  0.10000000000E+00 0.  0.
</event>
<event>
 5    1  0.2313627E-009  0.3882913E+03  0.7957747E-01  0.3415832E+00
         13   -1    0    0    0    0  0.00000000000E+00  0.00000000000E+00  0.14999999963E+04  0.15000000000E+04  0.10566000000E+00 0. -1.
        994   -1    0    0    0    0 -0.00000000000E+00 -0.00000000000E+00  0.11368683772E-12  0.17120000000E+03  0.17120000000E+03 0.  0.
         13    1    1    2    0    0 -0.39386606346E+02 -0.23336872291E+03  0.12003925970E+04  0.12235009864E+04  0.10566000000E+00 0. -1.
        994    1    1    2    0    0  0.41865298016E+02  0.24492162214E+03  0.23618910353E+03  0.38318929630E+03  0.17120000000E+03 0.  0.
        998    1    1    2    0    0 -0.24786916703E+01 -0.11552899226E+02  0.63418295701E+02  0.64509717272E+02  0.10000000000E+00 0.  1.
</event>
<event>
 5    1  0.2313627E-009  0.3883007E+03  0.7957747E-01  0.3415793E+00
         13   -1    0    0    0    0  0.00000000000E+00  0.00000000000E+00  0.14999999963E+04  0.15000000000E+04  0.10566000000E+00 0.  1.
        994   -1    0    0    0    0 -0.00000000000E+00 -0.00000000000E+00  0.11368683772E-12  0.17120000000E+03  0.17120000000E+03 0.  0.
         13    1    1    2    0    0  0.13773185146E+03  0.14292051477E+03  0.11051890789E+04  0.11228709845E+04  0.10566000000E+00 0.  1.
        994    1    1    2    0    0 -0.16186676688E+03 -0.16779968311E+03  0.20291869704E+03  0.35333131970E+03  0.17120000000E+03 0.  0.
        998    1    1    2    0    0  0.24134915419E+02  0.24879168335E+02  0.19189222032E+03  0.19499769582E+03  0.10000000000E+00 0.  1.
</event>
<event>
 5    1  0.2313627E-009  0.3874619E+03  0.7957747E-01  0.3419298E+00
         13   -1    0    0    0    0  0.00000000000E+00  0.00000000000E+00  0.14999999963E+04  0.15000000000E+04  0.10566000000E+00 0.  1.
        994   -1    0    0    0    0 -0.00000000000E+00 -0.00000000000E+00  0.11368683772E-12  0.17120000000E+03  0.17120000000E+03 0.  0.
         13    1    1    2    0    0 -0.12627978598E+03 -0.27529548990E+03  0.10255953716E+04  0.10693830317E+04  0.10566000000E+00 0.  1.
        994    1    1    2    0    0  0.12913099846E+03  0.28072086952E+03  0.42774318157E+03  0.55475462208E+03  0.17120000000E+03 0.  0.
        998    1    1    2    0    0 -0.28512124805E+01 -0.54253796160E+01  0.46661443094E+02  0.47062346183E+02  0.10000000000E+00 0. -1.
</event>
<event>
 5    1  0.2313627E-009  0.3850503E+03  0.7957747E-01  0.3429459E+00
         13   -1    0    0    0    0  0.00000000000E+00  0.00000000000E+00  0.14999999963E+04  0.15000000000E+04  0.10566000000E+00 0. -1.
        994   -1    0    0    0    0 -0.00000000000E+00 -0.00000000000E+00  0.11368683772E-12  0.17120000000E+03  0.17120000000E+03 0.  0.
         13    1    1    2    0    0 -0.21363737137E+03 -0.90902404663E+02  0.11050807586E+04  0.11292066542E+04  0.10566000000E+00 0. -1.
        994    1    1    2    0    0  0.23118874871E+03  0.81407667216E+02  0.23351491840E+03  0.37936012300E+03  0.17120000000E+03 0.  0.
        998    1    1    2    0    0 -0.17551377337E+02  0.94947374465E+01  0.16140431925E+03  0.16263322280E+03  0.10000000000E+00 0.  1.
</event>
<event>
 5    1  0.2313627E-009  0.3840887E+03  0.7957747E-01  0.3433546E+00
         13   -1    0    0    0    0  0.00000000000E+00  0.00000000000E+00  0.14999999963E+04  0.15000000000E+04  0.10566000000E+00 0.  1.
        994   -1    0    0    0    0 -0.00000000000E+00 -0.00000000000E+00  0.11368683772E-12  0.17120000000E+03  0.17120000000E+03 0.  0.
         13    1    1    2    0    0 -0.51943171365E+02  0.54092483646E+02  0.22020268793E+03  0.23262270907E+03  0.10566000000E+00 0.  1.
        994    1    1    2    0    0  0.14304243236E+03 -0.21317002442E+03  0.26315504506E+03  0.40553990495E+03  0.17120000000E+03 0.  0.
        998    1    1    2    0    0 -0.91099260992E+02  0.15907754077E+03  0.10166422633E+04  0.10330373860E+04  0.10000000000E+00 0.  1.
</event>
<event>
 5    1  0.2313627E-009  0.3882996E+03  0.7957747E-01  0.3415797E+00
         13   -1    0    0    0    0  0.00000000000E+00  0.00000000000E+00  0.14999999963E+04  0.15000000000E+04  0.10566000000E+00 0. -1.
        994   -1    0    0    0    0 -0.00000000000E+00 -0.00000000000E+00  0.11368683772E-12  0.17120000000E+03  0.17120000000E+03 0.  0.
         13    1    1    2    0    0 -0.71008728555E+02 -0.21365132672E+03  0.12899801839E+04  0.13094800552E+04  0.10566000000E+00 0. -1.
        994    1    1    2    0    0  0.71907881042E+02  0.21658663911E+03  0.19303509764E+03  0.34445972844E+03  0.17120000000E+03 0.  0.
        998    1    1    2    0    0 -0.89915248616E+00 -0.29353123914E+01  0.16984714737E+02  0.17260216358E+02  0.10000000000E+00 0. -1.
</event>
<event>
 5    1  0.2313627E-009  0.3878239E+03  0.7957747E-01  0.3417784E+00
         13   -1    0    0    0    0  0.00000000000E+00  0.00000000000E+00  0.14999999963E+04  0.15000000000E+04  0.10566000000E+00 0. -1.
        994   -1    0    0    0    0 -0.00000000000E+00 -0.00000000000E+00  0.11368683772E-12  0.17120000000E+03  0.17120000000E+03 0.  0.
         13    1    1    2    0    0  0.22581970427E+03 -0.13195217311E+03  0.11751143649E+04  0.12038686376E+04  0.10566000000E+00 0. -1.
        994    1    1    2    0    0 -0.23055445182E+03  0.13317841882E+03  0.28130858046E+03  0.42348058272E+03  0.17120000000E+03 0.  0.
        998    1    1    2    0    0  0.47347475550E+01 -0.12262457144E+01  0.43577050927E+02  0.43850779702E+02  0.10000000000E+00 0.  1.
</event>
<event>
 5    1  0.2313627E-009  0.3882981E+03  0.7957747E-01  0.3415804E+00
         13   -1    0    0    0    0  0.00000000000E+00  0.00000000000E+00  0.14999999963E+04  0.15000000000E+04  0.10566000000E+00 0. -1.
        994   -1    0    0    0    0 -0.00000000000E+00 -0.00000000000E+00  0.11368683772E-12  0.17120000000E+03  0.17120000000E+03 0.  0.
         13    1    1    2    0    0  0.24280677463E+03  0.59874385813E+02  0.12492938800E+04  0.12740782086E+04  0.10566000000E+00 0. -1.
        994    1    1    2    0    0 -0.24418968039E+03 -0.60340278845E+02  0.24332540530E+03  0.38959753866E+03  0.17120000000E+03 0.  0.
        998    1    1    2    0    0  0.13829057640E+01  0.46589303260E+00  0.73807109707E+01  0.75242527273E+01  0.10000000000E+00 0.  0.
</event>
<event>
 5    1  0.2313627E-009  0.3882973E+03  0.7957747E-01  0.3415807E+00
         13   -1    0    0    0    0  0.00000000000E+00  0.00000000000E+00  0.14999999963E+04  0.15000000000E+04  0.10566000000E+00 0. -1.
        994   -1    0    0    0    0 -0.00000000000E+00 -0.00000000000E+00  0.11368683772E-12  0.17120000000E+03  0.17120000000E+03 0.  0.
         13    1    1    2    0    0  0.17608810376E+03  0.13665912089E+03  0.12943840530E+04  0.13134355041E+04  0.10566000000E+00 0. -1.
        994    1    1    2    0    0 -0.17820961221E+03 -0.13852919680E+03  0.18818634135E+03  0.34010666462E+03  0.17120000000E+03 0.  0.
        998    1    1    2    0    0  0.21215084565E+01  0.18700759050E+01  0.17429601958E+02  0.17657831306E+02  0.10000000000E+00 0. -1.
</event>
<event>
 5    1  0.2313627E-009  0.3883006E+03  0.7957747E-01  0.3415793E+00
         13   -1    0    0    0    0  0.00000000000E+00  0.00000000000E+00  0.14999999963E+04  0.15000000000E+04  0.10566000000E+00 0. -1.
        994   -1    0    0    0    0 -0.00000000000E+00 -0.00000000000E+00  0.11368683772E-12  0.17120000000E+03  0.17120000000E+03 0.  0.
         13    1    1    2    0    0 -0.17964262251E+03  0.18655729684E+03  0.11938559479E+04  0.12216247919E+04  0.10566000000E+00 0. -1.
        994    1    1    2    0    0  0.18391282301E+03 -0.19102306185E+03  0.27750279809E+03  0.42027488573E+03  0.17120000000E+03 0.  0.
        998    1    1    2    0    0 -0.42702005022E+01  0.44657650080E+01  0.28641250320E+02  0.29300322342E+02  0.10000000000E+00 0.  0.
</event>
<event>
 5    1  0.2313627E-009  0.3883008E+03  0.7957747E-01  0.3415793E+00
         13   -1    0    0    0    0  0.00000000000E+00  0.00000000000E+00  0.14999999963E+04  0.15000000000E+04  0.10566000000E+00 0. -1.
        994   -1    0    0    0    0 -0.00000000000E+00 -0.00000000000E+00  0.11368683772E-12  0.17120000000E+03  0.17120000000E+03 0.  0.
         13    1    1    2    0    0 -0.20210540603E+03  0.75858760203E+02  0.12610677922E+04  0.12794112452E+04  0.10566000000E+00 0. -1.
        994    1    1    2    0    0  0.21050953242E+03 -0.78986755650E+02  0.18649384045E+03  0.33858907740E+03  0.17120000000E+03 0.  0.
        998    1    1    2    0    0 -0.84041263917E+01  0.31279954476E+01  0.52438363584E+02  0.53199677360E+02  0.10000000000E+00 0.  0.
</event>
<event>
 5    1  0.2313627E-009  0.3882341E+03  0.7957747E-01  0.3416071E+00
         13   -1    0    0    0    0  0.00000000000E+00  0.00000000000E+00  0.14999999963E+04  0.15000000000E+04  0.10566000000E+00 0.  1.
        994   -1    0    0    0    0 -0.00000000000E+00 -0.00000000000E+00  0.11368683772E-12  0.17120000000E+03  0.17120000000E+03 0.  0.
         13    1    1    2    0    0  0.22350020565E+03 -0.98104396588E+02  0.12523562407E+04  0.12759204440E+04  0.10566000000E+00 0.  1.
        994    1    1    2    0    0 -0.22570233170E+03  0.98509062995E+02  0.23122452130E+03  0.37870806339E+03  0.17120000000E+03 0.  0.
        998    1    1    2    0    0  0.22021260493E+01 -0.40466640779E+00  0.16419234243E+02  0.16571492605E+02  0.10000000000E+00 0. -1.
</event>
<event>
 5    1  0.2313627E-009  0.3882815E+03  0.7957747E-01  0.3415873E+00
         13   -1    0    0    0    0  0.00000000000E+00  0.00000000000E+00  0.14999999963E+04  0.15000000000E+04  0.10566000000E+00 0. -1.
        994   -1    0    0    0    0 -0.00000000000E+00 -0.00000000000E+00  0.11368683772E-12  0.17120000000E+03  0.17120000000E+03 0.  0.
         13    1    1    2    0    0  0.21861367508E+03  0.66059286343E+02  0.11009082111E+04  0.11243463295E+04  0.10566000000E+00 0. -1.
        994    1    1    2    0    0 -0.24558986593E+03 -0.76039985820E+02  0.25680827745E+03  0.40169191311E+03  0.17120000000E+03 0.  0.
        998    1    1    2    0    0  0.26976190846E+02  0.99806994771E+01  0.14228350775E+03  0.14516175740E+03  0.10000000000E+00 0. -1.
</event>
<event>
 5    1  0.2313627E-009  0.3882791E+03  0.7957747E-01  0.3415883E+00
         13   -1    0    0    0    0  0.00000000000E+00  0.00000000000E+00  0.14999999963E+04  0.15000000000E+04  0.10566000000E+00 0. -1.
        994   -1    0    0    0    0 -0.00000000000E+00 -0.00000000000E+00  0.11368683772E-12  0.17120000000E+03  0.17120000000E+03 0.  0.
         13    1    1    2    0    0  0.18505883472E+03 -0.84185831145E+02  0.11319855326E+04  0.11500979452E+04  0.10566000000E+00 0. -1.
        994    1    1    2    0    0 -0.21073135206E+03  0.95570836410E+02  0.19938595232E+03  0.35015094673E+03  0.17120000000E+03 0.  0.
        998    1    1    2    0    0  0.25672517346E+02 -0.11385005265E+02  0.16862851136E+03  0.17095110803E+03  0.10000000000E+00 0. -1.
</event>
<event>
 5    1  0.2313627E-009  0.3882969E+03  0.7957747E-01  0.3415809E+00
         13   -1    0    0    0    0  0.00000000000E+00  0.00000000000E+00  0.14999999963E+04  0.15000000000E+04  0.10566000000E+00 0.  1.
        994   -1    0    0    0    0 -0.00000000000E+00 -0.00000000000E+00  0.11368683772E-12  0.17120000000E+03  0.17120000000E+03 0.  0.
         13    1    1    2    0    0  0.33728617942E+02 -0.22009990251E+03  0.11201607494E+04  0.11420778005E+04  0.10566000000E+00 0.  1.
        994    1    1    2    0    0 -0.38696831456E+02  0.24765429233E+03  0.24126529896E+03  0.38774795648E+03  0.17120000000E+03 0.  0.
        998    1    1    2    0    0  0.49682135139E+01 -0.27554389818E+02  0.13857394788E+03  0.14137424297E+03  0.10000000000E+00 0.  1.
</event>
<event>
 5    1  0.2313627E-009  0.3882914E+03  0.7957747E-01  0.3415832E+00
         13   -1    0    0    0    0  0.00000000000E+00  0.00000000000E+00  0.14999999963E+04  0.15000000000E+04  0.10566000000E+00 0. -1.
        994   -1    0    0    0    0 -0.00000000000E+00 -0.00000000000E+00  0.11368683772E-12  0.17120000000E+03  0.17120000000E+03 0.  0.
         13    1    1    2    0    0 -0.24016508549E+03  0.18486432340E+02  0.11918954562E+04  0.12159916966E+04  0.10566000000E+00 0. -1.
        994    1    1    2    0    0  0.25195191833E+03 -0.18979429376E+02  0.24602445269E+03  0.39201716698E+03  0.17120000000E+03 0.  0.
        998    1    1    2    0    0 -0.11786832832E+02  0.49299703636E+00  0.62080087407E+02  0.63191136457E+02  0.10000000000E+00 0.  1.
</event>
<event>
 5    1  0.2313627E-009  0.3883009E+03  0.7957747E-01  0.3415792E+00
         13   -1    0    0    0    0  0.00000000000E+00  0.00000000000E+00  0.14999999963E+04  0.15000000000E+04  0.10566000000E+00 0. -1.
        994   -1    0    0    0    0 -0.00000000000E+00 -0.00000000000E+00  0.11368683772E-12  0.17120000000E+03  0.17120000000E+03 0.  0.
         13    1    1    2    0    0  0.19391416390E+03 -0.47117363244E+01  0.68813881927E+03  0.71495450846E+03  0.10566000000E+00 0. -1.
        994    1    1    2    0    0 -0.30621639717E+03  0.76131861275E+01  0.41339730025E+03  0.54224829216E+03  0.17120000000E+03 0.  0.
        998    1    1    2    0    0  0.11230223327E+03 -0.29014498031E+01  0.39846387676E+03  0.41399719938E+03  0.10000000000E+00 0. -1.
</event>
<event>
 5    1  0.2313627E-009  0.3882813E+03  0.7957747E-01  0.3415874E+00
         13   -1    0    0    0    0  0.00000000000E+00  0.00000000000E+00  0.14999999963E+04  0.15000000000E+04  0.10566000000E+00 0. -1.
        994   -1    0    0    0    0 -0.00000000000E+00 -0.00000000000E+00  0.11368683772E-12  0.17120000000E+03  0.17120000000E+03 0.  0.
         13    1    1    2    0    0 -0.20959107763E+03  0.88125177673E+02  0.12540293698E+04  0.12744740634E+04  0.10566000000E+00 0. -1.
        994    1    1    2    0    0  0.21651475022E+03 -0.90014878660E+02  0.20568237452E+03  0.35580330891E+03  0.17120000000E+03 0.  0.
        998    1    1    2    0    0 -0.69236725950E+01  0.18897009867E+01  0.40288251960E+02  0.40922627701E+02  0.10000000000E+00 0.  1.
</event>
<event>
 5    1  0.2313627E-009  0.3883008E+03  0.7957747E-01  0.3415792E+00
         13   -1    0    0    0    0  0.00000000000E+00  0.00000000000E+00  0.14999999963E+04  0.15000000000E+04  0.10566000000E+00 0.  1.
        994   -1    0    0    0    0 -0.00000000000E+00 -0.00000000000E+00  0.11368683772E-12  0.17120000000E+03  0.17120000000E+03 0.  0.
         13    1    1    2    0    0 -0.23980870206E+03  0.65964257053E+01  0.72253102681E+03  0.76131650599E+03  0.10566000000E+00 0.  1.
        994    1    1    2    0    0  0.32671863461E+03 -0.91713599850E+01  0.51606684226E+03  0.63440019367E+03  0.17120000000E+03 0.  0.
        998    1    1    2    0    0 -0.86909932544E+02  0.25749342797E+01  0.26140212721E+03  0.27548330035E+03  0.10000000000E+00 0.  1.
</event>
<event>
 5    1  0.2313627E-009  0.3849675E+03  0.7957747E-01  0.3429810E+00
         13   -1    0    0    0    0  0.00000000000E+00  0.00000000000E+00  0.14999999963E+04  0.15000000000E+04  0.10566000000E+00 0. -1.
        994   -1    0    0    0    0 -0.00000000000E+00 -0.00000000000E+00  0.11368683772E-12  0.17120000000E+03  0.17120000000E+03 0.  0.
         13    1    1    2    0    0 -0.86179119722E+02  0.19059932380E+03  0.11062501807E+04  0.11258527507E+04  0.10566000000E+00 0. -1.
        994    1    1    2    0    0  0.71972747178E+02 -0.22127104954E+03  0.20656045761E+03  0.35513042161E+03  0.17120000000E+03 0.  0.
        998    1    1    2    0    0  0.14206372543E+02  0.30671725746E+02  0.18718935801E+03  0.19021682768E+03  0.10000000000E+00 0.  1.
</event>
<event>
 5    1  0.2313627E-009  0.3882992E+03  0.7957747E-01  0.3415799E+00
         13   -1    0    0    0    0  0.00000000000E+00  0.00000000000E+00  0.14999999963E+04  0.15000000000E+04  0.10566000000E+00 0.  1.
        994   -1    0    0    0    0 -0.00000000000E+00 -0.00000000000E+00  0.11368683772E-12  0.17120000000E+03  0.17120000000E+03 0.  0.
         13    1    1    2    0    0  0.90606568517E+01 -0.29820320367E+03  0.11063221568E+04  0.11458429089E+04  0.10566000000E+00 0.  1.
        994    1    1    2    0    0 -0.90564777375E+01  0.29979590860E+03  0.38788944532E+03  0.51935273985E+03  0.17120000000E+03 0.  0.
        998    1    1    2    0    0 -0.41791142040E-02 -0.15927049341E+01  0.57883941766E+01  0.60043512235E+01  0.10000000000E+00 0.  0.
</event>
<event>
 5    1  0.2313627E-009  0.3882900E+03  0.7957747E-01  0.3415838E+00
         13   -1    0    0    0    0  0.00000000000E+00  0.00000000000E+00  0.14999999963E+04  0.15000000000E+04  0.10566000000E+00 0. -1.
        994   -1    0    0    0    0 -0.00000000000E+00 -0.00000000000E+00  0.11368683772E-12  0.17120000000E+03  0.17120000000E+03 0.  0.
         13    1    1    2    0    0 -0.16932643143E+02  0.23296725352E+03  0.12380031532E+04  0.12598461311E+04  0.10566000000E+00 0. -1.
        994    1    1    2    0    0  0.18073945193E+02 -0.24109438135E+03  0.22114570268E+03  0.36968639416E+03  0.17120000000E+03 0.  0.
        998    1    1    2    0    0 -0.11413020494E+01  0.81271278311E+01  0.40851140402E+02  0.41667474717E+02  0.10000000000E+00 0. -1.
</event>
<event>
 5    1  0.2313627E-009  0.3882300E+03  0.7957747E-01  0.3416088E+00
         13   -1    0    0    0    0  0.00000000000E+00  0.00000000000E+00  0.14999999963E+04  0.15000000000E+04  0.10566000000E+00 0. -1.
        994   -1    0    0    0    0 -0.00000000000E+00 -0.00000000000E+00  0.11368683772E-12  0.17120000000E+03  0.17120000000E+03 0.  0.
         13    1    1    2    0    0  0.16766125394E+03  0.21319213593E+03  0.11478248688E+04  0.11794333908E+04  0.10566000000E+00 0. -1.
        994    1    1    2    0    0 -0.17287004765E+03 -0.22063377847E+03  0.32084131361E+03  0.45914257709E+03  0.17120000000E+03 0.  0.
        998    1    1    2    0    0  0.52087937058E+01  0.74416425345E+01  0.31333813886E+02  0.32624032064E+02  0.10000000000E+00 0.  1.
</event>
<event>
 5    1  0.2313627E-009  0.3713818E+03  0.7957747E-01  0.3489564E+00
         13   -1    0    0    0    0  0.00000000000E+00  0.00000000000E+00  0.14999999963E+04  0.15000000000E+04  0.10566000000E+00 0.  1.
        994   -1    0    0    0    0 -0.00000000000E+00 -0.00000000000E+00  0.11368683772E-12  0.17120000000E+03  0.17120000000E+03 0.  0.
         13    1    1    2    0    0  0.32389148060E+01 -0.86974779066E+02  0.33077147409E+03  0.34203052787E+03  0.10566000000E+00 0.  1.
        994    1    1    2    0    0 -0.12156197396E+03  0.10359016445E+03  0.10218872904E+03  0.25546078374E+03  0.17120000000E+03 0.  0.
        998    1    1    2    0    0  0.11832305916E+03 -0.16615385381E+02  0.10670397932E+04  0.10737086884E+04  0.10000000000E+00 0.  1.
</event>
<event>
 5    1  0.2313627E-009  0.3868366E+03  0.7957747E-01  0.3421920E+00
         13   -1    0    0    0    0  0.00000000000E+00  0.00000000000E+00  0.14999999963E+04  0.15000000000E+04  0.10566000000E+00 0. -1.
        994   -1    0    0    0    0 -0.00000000000E+00 -0.00000000000E+00  0.11368683772E-12  0.17120000000E+03  0.17120000000E+03 0.  0.
         13    1    1    2    0    0  0.15206148228E+03 -0.15144636780E+03  0.11023334533E+04  0.11230306097E+04  0.10566000000E+00 0. -1.
        994    1    1    2    0    0 -0.16845284323E+03  0.16117901228E+03  0.20491625208E+03  0.35447869436E+03  0.17120000000E+03 0.  0.
        998    1    1    2    0    0  0.16391360945E+02 -0.97326444772E+01  0.19275029086E+03  0.19369069598E+03  0.10000000000E+00 0.  1.
</event>
<event>
 5    1  0.2313627E-009  0.3882669E+03  0.7957747E-01  0.3415934E+00
         13   -1    0    0    0    0  0.00000000000E+00  0.00000000000E+00  0.14999999963E+04  0.15000000000E+04  0.10566000000E+00 0. -1.
        994   -1    0    0    0    0 -0.00000000000E+00 -0.00000000000E+00  0.11368683772E-12  0.17120000000E+03  0.17120000000E+03 0.  0.
         13    1    1    2    0    0 -0.18164728024E+03 -0.10379453275E+03  0.10984835348E+04  0.11182285664E+04  0.10566000000E+00 0. -1.
        994    1    1    2    0    0  0.20945722652E+03  0.12295678636E+03  0.22361381681E+03  0.37189148972E+03  0.17120000000E+03 0.  0.
        998    1    1    2    0    0 -0.27809946286E+02 -0.19162253616E+02  0.17790264469E+03  0.18107994385E+03  0.10000000000E+00 0. -1.
</event>
<event>
 5    1  0.2313627E-009  0.3876559E+03  0.7957747E-01  0.3418486E+00
         13   -1    0    0    0    0  0.00000000000E+00  0.00000000000E+00  0.14999999963E+04  0.15000000000E+04  0.10566000000E+00 0. -1.
        994   -1    0    0    0    0 -0.00000000000E+00 -0.00000000000E+00  0.11368683772E-12  0.17120000000E+03  0.17120000000E+03 0.  0.
         13    1    1    2    0    0 -0.11564661630E+03 -0.11464133699E+03  0.18630090649E+03  0.24743648666E+03  0.10566000000E+00 0. -1.
        994    1    1    2    0    0  0.24124544165E+03  0.21081485543E+03  0.10962139890E+04  0.11548319428E+04  0.17120000000E+03 0.  0.
        998    1    1    2    0    0 -0.12559882535E+03 -0.96173518448E+02  0.21748510079E+03  0.26893157056E+03  0.10000000000E+00 0. -1.
</event>
<event>
 5    1  0.2313627E-009  0.3849440E+03  0.7957747E-01  0.3429910E+00
         13   -1    0    0    0    0  0.00000000000E+00  0.00000000000E+00  0.14999999963E+04  0.15000000000E+04  0.10566000000E+00 0. -1.
        994   -1    0    0    0    0 -0.00000000000E+00 -0.00000000000E+00  0.11368683772E-12  0.17120000000E+03  0.17120000000E+03 0.  0.
         13    1    1    2    0    0  0.15163282903E+03  0.26885124402E+03  0.81378872682E+03  0.87035947132E+03  0.10566000000E+00 0. -1.
        994    1    1    2    0    0 -0.17054977094E+03 -0.28274999794E+03  0.55869290066E+03  0.67117954599E+03  0.17120000000E+03 0.  0.
        998    1    1    2    0    0  0.18916941911E+02  0.13898753925E+02  0.12751836880E+03  0.12966098269E+03  0.10000000000E+00 0.  1.
</event>
<event>
 5    1  0.2313627E-009  0.3882844E+03  0.7957747E-01  0.3415861E+00
         13   -1    0    0    0    0  0.00000000000E+00  0.00000000000E+00  0.14999999963E+04  0.15000000000E+04  0.10566000000E+00 0. -1.
        994   -1    0    0    0    0 -0.00000000000E+00 -0.00000000000E+00  0.11368683772E-12  0.17120000000E+03  0.17120000000E+03 0.  0.
         13    1    1    2    0    0 -0.21626300071E+03 -0.43981322227E+02  0.11614403991E+04  0.11822215757E+04  0.10566000000E+00 0. -1.
        994    1    1    2    0    0  0.23773436074E+03  0.49884602561E+02  0.22365768457E+03  0.37193856981E+03  0.17120000000E+03 0.  0.
        998    1    1    2    0    0 -0.21471360037E+02 -0.59032803336E+01  0.11490191257E+03  0.11703985446E+03  0.10000000000E+00 0. -1.
</event>
<event>
 5    1  0.2313627E-009  0.3883009E+03  0.7957747E-01  0.3415792E+00
         13   -1    0    0    0    0  0.00000000000E+00  0.00000000000E+00  0.14999999963E+04  0.15000000000E+04  0.10566000000E+00 0. -1.
        994   -1    0    0    0    0 -0.00000000000E+00 -0.00000000000E+00  0.11368683772E-12  0.17120000000E+03  0.17120000000E+03 0.  0.
         13    1    1    2    0    0  0.19016674795E+03  0.83558371995E+02  0.57449848891E+03  0.61089599645E+03  0.10566000000E+00 0. -1.
        994    1    1    2    0    0 -0.30671400992E+03 -0.13496722926E+03  0.57319350880E+03  0.68567475919E+03  0.17120000000E+03 0.  0.
        998    1    1    2    0    0  0.11654726196E+03  0.51408857265E+02  0.35230799856E+03  0.37462924436E+03  0.10000000000E+00 0.  0.
</event>
<event>
 5    1  0.2313627E-009  0.3882977E+03  0.7957747E-01  0.3415806E+00
         13   -1    0    0    0    0  0.00000000000E+00  0.00000000000E+00  0.14999999963E+04  0.15000000000E+04  0.10566000000E+00 0.  1.
        994   -1    0    0    0    0 -0.00000000000E+00 -0.00000000000E+00  0.11368683772E-12  0.17120000000E+03  0.17120000000E+03 0.  0.
         13    1    1    2    0    0 -0.13222826326E+03 -0.12452375641E+03  0.10896018625E+04  0.11046369130E+04  0.10566000000E+00 0.  1.
        994    1    1    2    0    0  0.15965304281E+03  0.15172448574E+03  0.17785594349E+03  0.33083468725E+03  0.17120000000E+03 0.  0.
        998    1    1    2    0    0 -0.27424779548E+02 -0.27200729339E+02  0.23254219025E+03  0.23572839977E+03  0.10000000000E+00 0. -1.
</event>
<event>
 5    1  0.2313627E-009  0.3859521E+03  0.7957747E-01  0.3425644E+00
         13   -1    0    0    0    0  0.00000000000E+00  0.00000000000E+00  0.14999999963E+04  0.15000000000E+04  0.10566000000E+00 0.  1.
        994   -1    0    0    0    0 -0.00000000000E+00 -0.00000000000E+00  0.11368683772E-12  0.17120000000E+03  0.17120000000E+03 0.  0.
         13    1    1    2    0    0 -0.84499573965E+02 -0.14189877309E+03  0.83313262229E+03  0.84934411006E+03  0.10566000000E+00 0.  1.
        994    1    1    2    0    0  0.11303857740E+03  0.18527592153E+03  0.17481117961E+03  0.32706769268E+03  0.17120000000E+03 0.  0.
        998    1    1    2    0    0 -0.28539003432E+02 -0.43377148444E+02  0.49205619437E+03  0.49478819725E+03  0.10000000000E+00 0.  1.
</event>
<event>
 5    1  0.2313627E-009  0.3871052E+03  0.7957747E-01  0.3420792E+00
         13   -1    0    0    0    0  0.00000000000E+00  0.00000000000E+00  0.14999999963E+04  0.15000000000E+04  0.10566000000E+00 0.  1.
        994   -1    0    0    0    0 -0.00000000000E+00 -0.00000000000E+00  0.11368683772E-12  0.17120000000E+03  0.17120000000E+03 0.  0.
         13    1    1    2    0    0 -0.20033858107E+02 -0.32444363394E+03  0.60073491762E+03  0.68304280941E+03  0.10566000000E+00 0.  1.
        994    1    1    2    0    0  0.13342693962E+02  0.34492967119E+03  0.87251079643E+03  0.95380240901E+03  0.17120000000E+03 0.  0.
        998    1    1    2    0    0  0.66911641449E+01 -0.20486037251E+02  0.26754282226E+02  0.34354781578E+02  0.10000000000E+00 0. -1.
</event>
<event>
 5    1  0.2313627E-009  0.3882812E+03  0.7957747E-01  0.3415875E+00
         13   -1    0    0    0    0  0.00000000000E+00  0.00000000000E+00  0.14999999963E+04  0.15000000000E+04  0.10566000000E+00 0.  1.
        994   -1    0    0    0    0 -0.00000000000E+00 -0.00000000000E+00  0.11368683772E-12  0.17120000000E+03  0.17120000000E+03 0.  0.
         13    1    1    2    0    0 -0.20283982408E+03  0.30667462091E+02  0.11072379140E+04  0.11260818340E+04  0.10566000000E+00 0.  1.
        994    1    1    2    0    0  0.23721215151E+03 -0.35676334153E+02  0.21705848041E+03  0.36601397454E+03  0.17120000000E+03 0.  0.
        998    1    1    2    0    0 -0.34372327433E+02  0.50088720612E+01  0.17570360185E+03  0.17910419145E+03  0.10000000000E+00 0.  1.
</event>
<event>
 5    1  0.2313627E-009  0.3883001E+03  0.7957747E-01  0.3415796E+00
         13   -1    0    0    0    0  0.00000000000E+00  0.00000000000E+00  0.14999999963E+04  0.15000000000E+04  0.10566000000E+00 0. -1.
        994   -1    0    0    0    0 -0.00000000000E+00 -0.00000000000E+00  0.11368683772E-12  0.17120000000E+03  0.17120000000E+03 0.  0.
         13    1    1    2    0    0  0.63012293166E+02  0.20230916788E+03  0.12600892609E+04  0.12777810865E+04  0.10566000000E+00 0. -1.
        994    1    1    2    0    0 -0.65933970128E+02 -0.21162641429E+03  0.18047689373E+03  0.33318820029E+03  0.17120000000E+03 0.  0.
        998    1    1    2    0    0  0.29216769627E+01  0.93172464139E+01  0.59433841634E+02  0.60230713166E+02  0.10000000000E+00 0. -1.
</event>
<event>
 5    1  0.2313627E-009  0.3882429E+03  0.7957747E-01  0.3416034E+00
         13   -1    0    0    0    0  0.00000000000E+00  0.00000000000E+00  0.14999999963E+04  0.15000000000E+04  0.10566000000E+00 0. -1.
        994   -1    0    0    0    0 -0.00000000000E+00 -0.00000000000E+00  0.11368683772E-12  0.17120000000E+03  0.17120000000E+03 0.  0.
         13    1    1    2    0    0  0.13735470181E+03 -0.31467893686E+03  0.59629057145E+03  0.68807819627E+03  0.10566000000E+00 0. -1.
        994    1    1    2    0    0 -0.13771641334E+03  0.31629809420E+03  0.90178258187E+03  0.98057715650E+03  0.17120000000E+03 0.  0.
        998    1    1    2    0    0  0.36171152796E+00 -0.16191573409E+01  0.19268429614E+01  0.25446472293E+01  0.10000000000E+00 0. -1.
</event>
<event>
 5    1  0.2313627E-009  0.3882804E+03  0.7957747E-01  0.3415878E+00
         13   -1    0    0    0    0  0.00000000000E+00  0.00000000000E+00  0.14999999963E+04  0.15000000000E+04  0.10566000000E+00 0.  1.
        994   -1    0    0    0    0 -0.00000000000E+00 -0.00000000000E+00  0.11368683772E-12  0.17120000000E+03  0.17120000000E+03 0.  0.
         13    1    1    2    0    0 -0.65322092293E+02 -0.26828802339E+03  0.10950982960E+04  0.11293740427E+04  0.10566000000E+00 0.  1.
        994    1    1    2    0    0  0.67879210022E+02  0.28099107606E+03  0.34895909825E+03  0.48440217199E+03  0.17120000000E+03 0.  0.
        998    1    1    2    0    0 -0.25571177291E+01 -0.12703052673E+02  0.55942601986E+02  0.57423785275E+02  0.10000000000E+00 0.  1.
</event>
<event>
 5    1  0.2313627E-009  0.3882898E+03  0.7957747E-01  0.3415838E+00
         13   -1    0    0    0    0  0.00000000000E+00  0.00000000000E+00  0.14999999963E+04  0.15000000000E+04  0.10566000000E+00 0. -1.
        994   -1    0    0    0    0 -0.00000000000E+00 -0.00000000000E+00  0.11368683772E-12  0.17120000000E+03  0.17120000000E+03 0.  0.
         13    1    1    2    0    0  0.11467842996E+03  0.21023216082E+03  0.12528563944E+04  0.12755382628E+04  0.10566000000E+00 0. -1.
        994    1    1    2    0    0 -0.11714710726E+03 -0.21390733785E+03  0.22580325899E+03  0.37386674859E+03  0.17120000000E+03 0.  0.
        998    1    1    2    0    0  0.24686772962E+01  0.36751770361E+01  0.21340342904E+02  0.21794988624E+02  0.10000000000E+00 0.  1.
</event>
<event>
 5    1  0.2313627E-009  0.3882934E+03  0.7957747E-01  0.3415824E+00
         13   -1    0    0    0    0  0.00000000000E+00  0.00000000000E+00  0.14999999963E+04  0.15000000000E+04  0.10566000000E+00 0.  1.
        994   -1    0    0    0    0 -0.00000000000E+00 -0.00000000000E+00  0.11368683772E-12  0.17120000000E+03  0.17120000000E+03 0.  0.
         13    1    1    2    0    0  0.38758159309E+02 -0.28455041888E+03  0.11516088715E+04  0.11868757896E+04  0.10566000000E+00 0.  1.
        994    1    1    2    0    0 -0.38863511198E+02  0.28541045027E+03  0.34547954642E+03  0.48128479575E+03  0.17120000000E+03 0.  0.
        998    1    1    2    0    0  0.10535188879E+00 -0.86003139345E+00  0.29115783845E+01  0.30394146981E+01  0.10000000000E+00 0. -1.
</event>
<event>
 5    1  0.2313627E-009  0.3762631E+03  0.7957747E-01  0.3467593E+00
         13   -1    0    0    0    0  0.00000000000E+00  0.00000000000E+00  0.14999999963E+04  0.15000000000E+04  0.10566000000E+00 0. -1.
        994   -1    0    0    0    0 -0.00000000000E+00 -0.00000000000E+00  0.11368683772E-12  0.17120000000E+03  0.17120000000E+03 0.  0.
         13    1    1    2    0    0 -0.30229945689E+01  0.47316764591E+02  0.67404067209E+02  0.82409551315E+02  0.10566000000E+00 0. -1.
        994    1    1    2    0    0 -0.11543227864E+03 -0.25607350857E+03  0.35167988260E+03  0.48154587795E+03  0.17120000000E+03 0.  0.
        998    1    1    2    0    0  0.11845527321E+03  0.20875674398E+03  0.10809160465E+04  0.11072445707E+04  0.10000000000E+00 0. -1.
</event>
<event>
 5    1  0.2313627E-009  0.3882547E+03  0.7957747E-01  0.3415985E+00
         13   -1    0    0    0    0  0.00000000000E+00  0.00000000000E+00  0.14999999963E+04  0.15000000000E+04  0.10566000000E+00 0.  1.
        994   -1    0    0    0    0 -0.00000000000E+00 -0.00000000000E+00  0.11368683772E-12  0.17120000000E+03  0.17120000000E+03 0.  0.
         13    1    1    2    0    0 -0.99242090718E+02  0.20653002234E+03  0.12993789721E+04  0.13194276665E+04  0.10566000000E+00 0.  1.
        994    1    1    2    0    0  0.99126360013E+02 -0.20735241985E+03  0.19629143352E+03  0.34736267523E+03  0.17120000000E+03 0.  0.
        998    1    1    2    0    0  0.11573070547E+00  0.82239750748E+00  0.43295906210E+01  0.44096582863E+01  0.10000000000E+00 0.  1.
</event>
<event>
 5    1  0.2313627E-009  0.3881374E+03  0.7957747E-01  0.3416474E+00
         13   -1    0    0    0    0  0.00000000000E+00  0.00000000000E+00  0.14999999963E+04  0.15000000000E+04  0.10566000000E+00 0. -1.
        994   -1    0    0    0    0 -0.00000000000E+00 -0.00000000000E+00  0.11368683772E-12  0.17120000000E+03  0.17120000000E+03 0.  0.
         13    1    1    2    0    0  0.16601151482E+03  0.23848622027E+02  0.96172267558E+03  0.97623721283E+03  0.10566000000E+00 0. -1.
        994    1    1    2    0    0 -0.21853375380E+03 -0.34959043088E+02  0.18002949408E+03  0.33271488542E+03  0.17120000000E+03 0.  0.
        998    1    1    2    0    0  0.52522238981E+02  0.11110421061E+02  0.35824782662E+03  0.36224790175E+03  0.10000000000E+00 0. -1.
</event>
<event>
 5    1  0.2313627E-009  0.3855898E+03  0.7957747E-01  0.3427175E+00
         13   -1    0    0    0    0  0.00000000000E+00  0.00000000000E+00  0.14999999963E+04  0.15000000000E+04  0.10566000000E+00 0.  1.
        994   -1    0    0    0    0 -0.00000000000E+00 -0.00000000000E+00  0.11368683772E-12  0.17120000000E+03  0.17120000000E+03 0.  0.
         13    1    1    2    0    0 -0.19351884267E+03  0.23130866083E+03  0.10031404624E+04  0.10474941707E+04  0.10566000000E+00 0.  1.
        994    1    1    2    0    0  0.21088035959E+03 -0.23190698385E+03  0.45536169660E+03  0.57871848938E+03  0.17120000000E+03 0.  0.
        998    1    1    2    0    0 -0.17361516923E+02  0.59832301899E+00  0.41497837238E+02  0.44987339949E+02  0.10000000000E+00 0.  1.
</event>
<event>
 5    1  0.2313627E-009  0.3881977E+03  0.7957747E-01  0.3416223E+00
         13   -1    0    0    0    0  0.00000000000E+00  0.00000000000E+00  0.14999999963E+04  0.15000000000E+04  0.10566000000E+00 0. -1.
        994   -1    0    0    0    0 -0.00000000000E+00 -0.00000000000E+00  0.11368683772E-12  0.17120000000E+03  0.17120000000E+03 0.  0.
         13    1    1    2    0    0  0.98657423982E+01  0.97010729341E+02  0.50507255721E+03  0.51439937178E+03  0.10566000000E+00 0. -1.
        994    1    1    2    0    0 -0.22218838287E+02 -0.23326922430E+03  0.20547613682E+03  0.35558134172E+03  0.17120000000E+03 0.  0.
        998    1    1    2    0    0  0.12353095889E+02  0.13625849496E+03  0.78945130225E+03  0.80121928649E+03  0.10000000000E+00 0. -1.
</event>
<event>
 5    1  0.2313627E-009  0.3820693E+03  0.7957747E-01  0.3442198E+00
         13   -1    0    0    0    0  0.00000000000E+00  0.00000000000E+00  0.14999999963E+04  0.15000000000E+04  0.10566000000E+00 0. -1.
        994   -1    0    0    0    0 -0.00000000000E+00 -0.00000000000E+00  0.11368683772E-12  0.17120000000E+03  0.17120000000E+03 0.  0.
         13    1    1    2    0    0 -0.39935381488E+01  0.21896586030E+03  0.10046961795E+04  0.10282881020E+04  0.10566000000E+00 0. -1.
        994    1    1    2    0    0 -0.38908751990E+02 -0.26106245322E+03  0.28608787657E+03  0.42523312263E+03  0.17120000000E+03 0.  0.
        998    1    1    2    0    0  0.42902290139E+02  0.42096592920E+02  0.20921594017E+03  0.21767877539E+03  0.10000000000E+00 0. -1.
</event>
<event>
 5    1  0.2313627E-009  0.3881872E+03  0.7957747E-01  0.3416266E+00
         13   -1    0    0    0    0  0.00000000000E+00  0.00000000000E+00  0.14999999963E+04  0.15000000000E+04  0.10566000000E+00 0. -1.
        994   -1    0    0    0    0 -0.00000000000E+00 -0.00000000000E+00  0.11368683772E-12  0.17120000000E+03  0.17120000000E+03 0.  0.
         13    1    1    2    0    0 -0.87812666450E+02 -0.19955421222E+03  0.10829728148E+04  0.11047004466E+04  0.10566000000E+00 0. -1.
        994    1    1    2    0    0  0.10078219248E+03  0.22755760063E+03  0.23728282578E+03  0.38412509855E+03  0.17120000000E+03 0.  0.
        998    1    1    2    0    0 -0.12969526027E+02 -0.28003388414E+02  0.17974435575E+03  0.18237445487E+03  0.10000000000E+00 0.  1.
</event>
<event>
 5    1  0.2313627E-009  0.3882797E+03  0.7957747E-01  0.3415880E+00
         13   -1    0    0    0    0  0.00000000000E+00  0.00000000000E+00  0.14999999963E+04  0.15000000000E+04  0.10566000000E+00 0.  1.
        994   -1    0    0    0    0 -0.00000000000E+00 -0.00000000000E+00  0.11368683772E-12  0.17120000000E+03  0.17120000000E+03 0.  0.
         13    1    1    2    0    0  0.79141347749E+02 -0.19805317540E+03  0.12788908184E+04  0.12965531805E+04  0.10566000000E+00 0.  1.
        994    1    1    2    0    0 -0.80801001557E+02  0.20487338441E+03  0.17784641422E+03  0.33081821677E+03  0.17120000000E+03 0.  0.
        998    1    1    2    0    0  0.16596538079E+01 -0.68202090157E+01  0.43262763615E+02  0.43828602732E+02  0.10000000000E+00 0.  1.
</event>
<event>
 5    1  0.2313627E-009  0.3882778E+03  0.7957747E-01  0.3415889E+00
         13   -1    0    0    0    0  0.00000000000E+00  0.00000000000E+00  0.14999999963E+04  0.15000000000E+04  0.10566000000E+00 0. -1.
        994   -1    0    0    0    0 -0.00000000000E+00 -0.00000000000E+00  0.11368683772E-12  0.17120000000E+03  0.17120000000E+03 0.  0.
         13    1    1    2    0    0 -0.19491933733E+03 -0.11446229111E+03  0.12804183353E+04  0.13002177851E+04  0.10566000000E+00 0. -1.
        994    1    1    2    0    0  0.19805044500E+03  0.11598747468E+03  0.19563784352E+03  0.34678621493E+03  0.17120000000E+03 0.  0.
        998    1    1    2    0    0 -0.31311076739E+01 -0.15251835715E+01  0.23943817464E+02  0.24195999978E+02  0.10000000000E+00 0. -1.
</event>
<event>
 5    1  0.2313627E-009  0.3883006E+03  0.7957747E-01  0.3415793E+00
         13   -1    0    0    0    0  0.00000000000E+00  0.00000000000E+00  0.14999999963E+04  0.15000000000E+04  0.10566000000E+00 0. -1.
        994   -1    0    0    0    0 -0.00000000000E+00 -0.00000000000E+00  0.11368683772E-12  0.17120000000E+03  0.17120000000E+03 0.  0.
         13    1    1    2    0    0 -0.22722588261E+03  0.50146901296E+02  0.11226654865E+04  0.11465269815E+04  0.10566000000E+00 0. -1.
        994    1    1    2    0    0  0.25154462594E+03 -0.55328224876E+02  0.25793094529E+03  0.40270798830E+03  0.17120000000E+03 0.  0.
        998    1    1    2    0    0 -0.24318743330E+02  0.51813235804E+01  0.11940356447E+03  0.12196503023E+03  0.10000000000E+00 0.  1.
</event>
<event>
 5    1  0.2313627E-009  0.3882952E+03  0.7957747E-01  0.3415816E+00
         13   -1    0    0    0    0  0.00000000000E+00  0.00000000000E+00  0.14999999963E+04  0.15000000000E+04  0.10566000000E+00 0.  1.
        994   -1    0    0    0    0 -0.00000000000E+00 -0.00000000000E+00  0.11368683772E-12  0.17120000000E+03  0.17120000000E+03 0.  0.
         13    1    1    2    0    0 -0.22894891149E+03  0.20624297016E+03  0.90133331424E+03  0.95255210951E+03  0.10566000000E+00 0.  1.
        994    1    1    2    0    0  0.24465478559E+03 -0.22135446441E+03  0.53578196846E+03  0.65209318410E+03  0.17120000000E+03 0.  0.
        998    1    1    2    0    0 -0.15705874100E+02  0.15111494254E+02  0.62884713581E+02  0.66554706385E+02  0.10000000000E+00 0. -1.
</event>
<event>
 5    1  0.2313627E-009  0.3883006E+03  0.7957747E-01  0.3415793E+00
         13   -1    0    0    0    0  0.00000000000E+00  0.00000000000E+00  0.14999999963E+04  0.15000000000E+04  0.10566000000E+00 0.  1.
        994   -1    0    0    0    0 -0.00000000000E+00 -0.00000000000E+00  0.11368683772E-12  0.17120000000E+03  0.17120000000E+03 0.  0.
         13    1    1    2    0    0 -0.17450560615E+03 -0.13823786173E+03  0.12101495544E+04  0.12304567722E+04  0.10566000000E+00 0.  1.
        994    1    1    2    0    0  0.18578629092E+03  0.14713999143E+03  0.21089271579E+03  0.36048841943E+03  0.17120000000E+03 0.  0.
        998    1    1    2    0    0 -0.11280684775E+02 -0.89021296987E+01  0.78957726053E+02  0.80254808365E+02  0.10000000000E+00 0.  1.
</event>
<event>
 5    1  0.2313627E-009  0.3867086E+03  0.7957747E-01  0.3422458E+00
         13   -1    0    0    0    0  0.00000000000E+00  0.00000000000E+00  0.14999999963E+04  0.15000000000E+04  0.10566000000E+00 0.  1.
        994   -1    0    0    0    0 -0.00000000000E+00 -0.00000000000E+00  0.11368683772E-12  0.17120000000E+03  0.17120000000E+03 0.  0.
         13    1    1    2    0    0 -0.11955929675E+02 -0.13834470984E+02  0.72845854291E+02  0.75105702135E+02  0.10566000000E+00 0.  1.
        994    1    1    2    0    0  0.14431260536E+03  0.75904505733E+02  0.93166171764E+02  0.25412004568E+03  0.17120000000E+03 0.  0.
        998    1    1    2    0    0 -0.13235667569E+03 -0.62070034749E+02  0.13339879702E+04  0.13419742522E+04  0.10000000000E+00 0.  1.
</event>
<event>
 5    1  0.2313627E-009  0.3882297E+03  0.7957747E-01  0.3416089E+00
         13   -1    0    0    0    0  0.00000000000E+00  0.00000000000E+00  0.14999999963E+04  0.15000000000E+04  0.10566000000E+00 0. -1.
        994   -1    0    0    0    0 -0.00000000000E+00 -0.00000000000E+00  0.11368683772E-12  0.17120000000E+03  0.17120000000E+03 0.  0.
         13    1    1    2    0    0 -0.66620117007E+02 -0.21128477129E+03  0.12819099810E+04  0.13009122588E+04  0.10566000000E+00 0. -1.
        994    1    1    2    0    0  0.68885225320E+02  0.21482950716E+03  0.18805034973E+03  0.33995479913E+03  0.17120000000E+03 0.  0.
        998    1    1    2    0    0 -0.22651083125E+01 -0.35447358769E+01  0.30039665521E+02  0.30332942038E+02  0.10000000000E+00 0. -1.
</event>
<event>
 5    1  0.2313627E-009  0.3879839E+03  0.7957747E-01  0.3417115E+00
         13   -1    0    0    0    0  0.00000000000E+00  0.00000000000E+00  0.14999999963E+04  0.15000000000E+04  0.10566000000E+00 0. -1.
        994   -1    0    0    0    0 -0.00000000000E+00 -0.00000000000E+00  0.11368683772E-12  0.17120000000E+03  0.17120000000E+03 0.  0.
         13    1    1    2    0    0  0.89890061004E+02 -0.20206830398E+03  0.11889922145E+04  0.12093859268E+04  0.10566000000E+00 0. -1.
        994    1    1    2    0    0 -0.93657475460E+02  0.21493201757E+03  0.20603243783E+03  0.35598637660E+03  0.17120000000E+03 0.  0.
        998    1    1    2    0    0  0.37674144554E+01 -0.12863713591E+02  0.10497534391E+03  0.10582769661E+03  0.10000000000E+00 0.  1.
</event>
<event>
 5    1  0.2313627E-009  0.3882732E+03  0.7957747E-01  0.3415908E+00
         13   -1    0    0    0    0  0.00000000000E+00  0.00000000000E+00  0.14999999963E+04  0.15000000000E+04  0.10566000000E+00 0.  1.
        994   -1    0    0    0    0 -0.00000000000E+00 -0.00000000000E+00  0.11368683772E-12  0.17120000000E+03  0.17120000000E+03 0.  0.
         13    1    1    2    0    0 -0.16829179589E+03  0.26385912052E+03  0.72846957020E+03  0.79285035783E+03  0.10566000000E+00 0.  1.
        994    1    1    2    0    0  0.18582787603E+03 -0.29206028532E+03  0.69927216536E+03  0.79882551976E+03  0.17120000000E+03 0.  0.
        998    1    1    2    0    0 -0.17536080141E+02  0.28201164795E+02  0.72258260721E+02  0.79524122409E+02  0.10000000000E+00 0.  1.
</event>
<event>
 5    1  0.2313627E-009  0.3883000E+03  0.7957747E-01  0.3415796E+00
         13   -1    0    0    0    0  0.00000000000E+00  0.00000000000E+00  0.14999999963E+04  0.15000000000E+04  0.10566000000E+00 0.  1.
        994   -1    0    0    0    0 -0.00000000000E+00 -0.00000000000E+00  0.11368683772E-12  0.17120000000E+03  0.17120000000E+03 0.  0.
         13    1    1    2    0    0  0.93189635559E+02  0.20259987080E+03  0.11951125892E+04  0.12157405677E+04  0.10566000000E+00 0.  1.
        994    1    1    2    0    0 -0.10034340483E+03 -0.21743971412E+03  0.21616357974E+03  0.36521905943E+03  0.17120000000E+03 0.  0.
        998    1    1    2    0    0  0.71537692672E+01  0.14839843315E+02  0.88723827303E+02  0.90240372869E+02  0.10000000000E+00 0.  0.
</event>
<event>
 5    1  0.2313627E-009  0.3883001E+03  0.7957747E-01  0.3415796E+00
         13   -1    0    0    0    0  0.00000000000E+00  0.00000000000E+00  0.14999999963E+04  0.15000000000E+04  0.10566000000E+00 0.  1.
        994   -1    0    0    0    0 -0.00000000000E+00 -0.00000000000E+00  0.11368683772E-12  0.17120000000E+03  0.17120000000E+03 0.  0.
         13    1    1    2    0    0  0.14067090266E+03 -0.14048045141E+03  0.11995542173E+04  0.12159166878E+04  0.10566000000E+00 0.  1.
        994    1    1    2    0    0 -0.15550122462E+03  0.15479648896E+03  0.17631477741E+03  0.32945246180E+03  0.17120000000E+03 0.  0.
        998    1    1    2    0    0  0.14830321956E+02 -0.14316037555E+02  0.12413100154E+03  0.12583085045E+03  0.10000000000E+00 0.  0.
</event>
<event>
 5    1  0.2313627E-009  0.3882982E+03  0.7957747E-01  0.3415803E+00
         13   -1    0    0    0    0  0.00000000000E+00  0.00000000000E+00  0.14999999963E+04  0.15000000000E+04  0.10566000000E+00 0. -1.
        994   -1    0    0    0    0 -0.00000000000E+00 -0.00000000000E+00  0.11368683772E-12  0.17120000000E+03  0.17120000000E+03 0.  0.
         13    1    1    2    0    0  0.16259699285E+01  0.17274192560E+03  0.10342084352E+04  0.10485368449E+04  0.10566000000E+00 0. -1.
        994    1    1    2    0    0 -0.31286778762E+01 -0.22059515996E+03  0.17853837344E+03  0.33144743778E+03  0.17120000000E+03 0.  0.
        998    1    1    2    0    0  0.15027079477E+01  0.47853234355E+02  0.28725318767E+03  0.29121571729E+03  0.10000000000E+00 0. -1.
</event>
<event>
 5    1  0.2313627E-009  0.3882241E+03  0.7957747E-01  0.3416113E+00
         13   -1    0    0    0    0  0.00000000000E+00  0.00000000000E+00  0.14999999963E+04  0.15000000000E+04  0.10566000000E+00 0.  1.
        994   -1    0    0    0    0 -0.00000000000E+00 -0.00000000000E+00  0.11368683772E-12  0.17120000000E+03  0.17120000000E+03 0.  0.
         13    1    1    2    0    0 -0.23446200633E+03 -0.19016923926E+01  0.12395777349E+04  0.12615581719E+04  0.10566000000E+00 0.  1.
        994    1    1    2    0    0  0.24078580704E+03  0.32358334734E+01  0.21914547055E+03  0.36786200232E+03  0.17120000000E+03 0.  0.
        998    1    1    2    0    0 -0.63238007093E+01 -0.13341410808E+01  0.41276790792E+02  0.41779825824E+02  0.10000000000E+00 0. -1.
</event>
<event>
 5    1  0.2313627E-009  0.3877284E+03  0.7957747E-01  0.3418183E+00
         13   -1    0    0    0    0  0.00000000000E+00  0.00000000000E+00  0.14999999963E+04  0.15000000000E+04  0.10566000000E+00 0. -1.
        994   -1    0    0    0    0 -0.00000000000E+00 -0.00000000000E+00  0.11368683772E-12  0.17120000000E+03  0.17120000000E+03 0.  0.
         13    1    1    2    0    0 -0.15662915228E+03 -0.16147172988E+03  0.12907007623E+04  0.13101581125E+04  0.10566000000E+00 0. -1.
        994    1    1    2    0    0  0.16119986541E+03  0.16171344488E+03  0.19402619341E+03  0.34509743348E+03  0.17120000000E+03 0.  0.
        998    1    1    2    0    0 -0.45707131204E+01 -0.24171500701E+00  0.15273040619E+02  0.15944454031E+02  0.10000000000E+00 0.  1.
</event>
<event>
 5    1  0.2313627E-009  0.3882965E+03  0.7957747E-01  0.3415811E+00
         13   -1    0    0    0    0  0.00000000000E+00  0.00000000000E+00  0.14999999963E+04  0.15000000000E+04  0.10566000000E+00 0. -1.
        994   -1    0    0    0    0 -0.00000000000E+00 -0.00000000000E+00  0.11368683772E-12  0.17120000000E+03  0.17120000000E+03 0.  0.
         13    1    1    2    0    0 -0.19590935022E+03  0.12742653905E+03  0.12931511887E+04  0.13140996935E+04  0.10566000000E+00 0. -1.
        994    1    1    2    0    0  0.19622295488E+03 -0.12760797580E+03  0.20480842987E+03  0.35502559972E+03  0.17120000000E+03 0.  0.
        998    1    1    2    0    0 -0.31360465981E+00  0.18143674981E+00  0.20403777106E+01  0.20747068175E+01  0.10000000000E+00 0.  0.
</event>
<event>
 5    1  0.2313627E-009  0.3882891E+03  0.7957747E-01  0.3415841E+00
         13   -1    0    0    0    0  0.00000000000E+00  0.00000000000E+00  0.14999999963E+04  0.15000000000E+04  0.10566000000E+00 0. -1.
        994   -1    0    0    0    0 -0.00000000000E+00 -0.00000000000E+00  0.11368683772E-12  0.17120000000E+03  0.17120000000E+03 0.  0.
         13    1    1    2    0    0 -0.17619838236E+03  0.16554374374E+03  0.12699115135E+04  0.12927203350E+04  0.10566000000E+00 0. -1.
        994    1    1    2    0    0  0.17711425949E+03 -0.16657441715E+03  0.22415184573E+03  0.37238419315E+03  0.17120000000E+03 0.  0.
        998    1    1    2    0    0 -0.91587712371E+00  0.10306734081E+01  0.59366370048E+01  0.60954718855E+01  0.10000000000E+00 0.  1.
</event>
<event>
 5    1  0.2313627E-009  0.3882885E+03  0.7957747E-01  0.3415844E+00
         13   -1    0    0    0    0  0.00000000000E+00  0.00000000000E+00  0.14999999963E+04  0.15000000000E+04  0.10566000000E+00 0. -1.
        994   -1    0    0    0    0 -0.00000000000E+00 -0.00000000000E+00  0.11368683772E-12  0.17120000000E+03  0.17120000000E+03 0.  0.
         13    1    1    2    0    0  0.12792667423E+03 -0.22862595932E+03  0.11600414585E+04  0.11892565997E+04  0.10566000000E+00 0. -1.
        994    1    1    2    0    0 -0.13279121362E+03  0.23671254814E+03  0.29462218989E+03  0.43563518182E+03  0.17120000000E+03 0.  0.
        998    1    1    2    0    0  0.48645393908E+01 -0.80865888195E+01  0.45336347872E+02  0.46308218499E+02  0.10000000000E+00 0. -1.
</event>
<event>
 5    1  0.2313627E-009  0.3882673E+03  0.7957747E-01  0.3415932E+00
         13   -1    0    0    0    0  0.00000000000E+00  0.00000000000E+00  0.14999999963E+04  0.15000000000E+04  0.10566000000E+00 0.  1.
        994   -1    0    0    0    0 -0.00000000000E+00 -0.00000000000E+00  0.11368683772E-12  0.17120000000E+03  0.17120000000E+03 0.  0.
         13    1    1    2    0    0  0.26885228928E+03 -0.11624486464E+03  0.11339239684E+04  0.11711438850E+04  0.10566000000E+00 0.  1.
        994    1    1    2    0    0 -0.26930113683E+03  0.11669606441E+03  0.36427505819E+03  0.49814338474E+03  0.17120000000E+03 0.  0.
        998    1    1    2    0    0  0.44884754971E+00 -0.45119977673E+00  0.18009696696E+01  0.19127302769E+01  0.10000000000E+00 0. -1.
</event>
<event>
 5    1  0.2313627E-009  0.3882940E+03  0.7957747E-01  0.3415821E+00
         13   -1    0    0    0    0  0.00000000000E+00  0.00000000000E+00  0.14999999963E+04  0.15000000000E+04  0.10566000000E+00 0. -1.
        994   -1    0    0    0    0 -0.00000000000E+00 -0.00000000000E+00  0.11368683772E-12  0.17120000000E+03  0.17120000000E+03 0.  0.
         13    1    1    2    0    0  0.25006329313E+03 -0.10885489018E+01  0.12552640813E+04  0.12799299826E+04  0.10566000000E+00 0. -1.
        994    1    1    2    0    0 -0.25076169979E+03  0.97576436079E+00  0.24151489047E+03  0.38797070060E+03  0.17120000000E+03 0.  0.
        998    1    1    2    0    0  0.69840666351E+00  0.11278454105E+00  0.32210245138E+01  0.32993167684E+01  0.10000000000E+00 0.  1.
</event>
<event>
 5    1  0.2313627E-009  0.3829510E+03  0.7957747E-01  0.3438409E+00
         13   -1    0    0    0    0  0.00000000000E+00  0.00000000000E+00  0.14999999963E+04  0.15000000000E+04  0.10566000000E+00 0.  1.
        994   -1    0    0    0    0 -0.00000000000E+00 -0.00000000000E+00  0.11368683772E-12  0.17120000000E+03  0.17120000000E+03 0.  0.
         13    1    1    2    0    0  0.16885685428E+03  0.17069667643E+03  0.82041800162E+03  0.85483080263E+03  0.10566000000E+00 0.  1.
        994    1    1    2    0    0 -0.19046407269E+03 -0.20866566710E+03  0.34023883020E+03  0.47422550036E+03  0.17120000000E+03 0.  0.
        998    1    1    2    0    0  0.21607218411E+02  0.37968990670E+02  0.33934316446E+03  0.34214369701E+03  0.10000000000E+00 0. -1.
</event>
<event>
 5    1  0.2313627E-009  0.3876114E+03  0.7957747E-01  0.3418672E+00
         13   -1    0    0    0    0  0.00000000000E+00  0.00000000000E+00  0.14999999963E+04  0.15000000000E+04  0.10566000000E+00 0.  1.
        994   -1    0    0    0    0 -0.00000000000E+00 -0.00000000000E+00  0.11368683772E-12  0.17120000000E+03  0.17120000000E+03 0.  0.
         13    1    1    2    0    0 -0.16235278792E+03 -0.16289867011E+03  0.12138997023E+04  0.12354945985E+04  0.10566000000E+00 0.  1.
        994    1    1    2    0    0  0.16653806163E+03  0.16764544964E+03  0.21041333038E+03  0.35975426663E+03  0.17120000000E+03 0.  0.
        998    1    1    2    0    0 -0.41852737108E+01 -0.47467795351E+01  0.75686963608E+02  0.75951134897E+02  0.10000000000E+00 0. -1.
</event>
<event>
 5    1  0.2313627E-009  0.3880939E+03  0.7957747E-01  0.3416656E+00
         13   -1    0    0    0    0  0.00000000000E+00  0.00000000000E+00  0.14999999963E+04  0.15000000000E+04  0.10566000000E+00 0.  1.
        994   -1    0    0    0    0 -0.00000000000E+00 -0.00000000000E+00  0.11368683772E-12  0.17120000000E+03  0.17120000000E+03 0.  0.
         13    1    1    2    0    0 -0.11426715229E+03 -0.29515532498E+03  0.10196732363E+04  0.10676643518E+04  0.10566000000E+00 0.  1.
        994    1    1    2    0    0  0.11397405061E+03  0.29723911254E+03  0.46957901071E+03  0.59258337939E+03  0.17120000000E+03 0.  0.
        998    1    1    2    0    0  0.29310167558E+00 -0.20837875627E+01  0.10747749237E+02  0.10952268846E+02  0.10000000000E+00 0.  1.
</event>
<event>
 5    1  0.2313627E-009  0.3882991E+03  0.7957747E-01  0.3415800E+00
         13   -1    0    0    0    0  0.00000000000E+00  0.00000000000E+00  0.14999999963E+04  0.15000000000E+04  0.10566000000E+00 0.  1.
        994   -1    0    0    0    0 -0.00000000000E+00 -0.00000000000E+00  0.11368683772E-12  0.17120000000E+03  0.17120000000E+03 0.  0.
         13    1    1    2    0    0 -0.15044723118E+03  0.53481524791E+02  0.86142618824E+03  0.87609915638E+03  0.10566000000E+00 0.  1.
        994    1    1    2    0    0  0.22439548058E+03 -0.80983525504E+02  0.21421034163E+03  0.36346550533E+03  0.17120000000E+03 0.  0.
        998    1    1    2    0    0 -0.73948249396E+02  0.27502000713E+02  0.42436346642E+03  0.43163533829E+03  0.10000000000E+00 0. -1.
</event>
<event>
 5    1  0.2313627E-009  0.3882978E+03  0.7957747E-01  0.3415805E+00
         13   -1    0    0    0    0  0.00000000000E+00  0.00000000000E+00  0.14999999963E+04  0.15000000000E+04  0.10566000000E+00 0. -1.
        994   -1    0    0    0    0 -0.00000000000E+00 -0.00000000000E+00  0.11368683772E-12  0.17120000000E+03  0.17120000000E+03 0.  0.
         13    1    1    2    0    0  0.19216340937E+03 -0.87989969729E+02  0.11527467439E+04  0.11719616365E+04  0.10566000000E+00 0. -1.
        994    1    1    2    0    0 -0.21456980472E+03  0.98227888026E+02  0.20878008498E+03  0.35859096889E+03  0.17120000000E+03 0.  0.
        998    1    1    2    0    0  0.22406395355E+02 -0.10237918298E+02  0.13847316743E+03  0.14064739465E+03  0.10000000000E+00 0. -1.
</event>
<event>
 5    1  0.2313627E-009  0.3883010E+03  0.7957747E-01  0.3415792E+00
         13   -1    0    0    0    0  0.00000000000E+00  0.00000000000E+00  0.14999999963E+04  0.15000000000E+04  0.10566000000E+00 0. -1.
        994   -1    0    0    0    0 -0.00000000000E+00 -0.00000000000E+00  0.11368683772E-12  0.17120000000E+03  0.17120000000E+03 0.  0.
         13    1    1    2    0    0  0.14467947167E+03  0.54240702654E+02  0.92875718601E+03  0.94152223822E+03  0.10566000000E+00 0. -1.
        994    1    1    2    0    0 -0.20606144602E+03 -0.77219310103E+02  0.17749403573E+03  0.33051129196E+03  0.17120000000E+03 0.  0.
        998    1    1    2    0    0  0.61381974359E+02  0.22978607449E+02  0.39374877454E+03  0.39916646982E+03  0.10000000000E+00 0.  0.
</event>
<event>
 5    1  0.2313627E-009  0.3882938E+03  0.7957747E-01  0.3415822E+00
         13   -1    0    0    0    0  0.00000000000E+00  0.00000000000E+00  0.14999999963E+04  0.15000000000E+04  0.10566000000E+00 0. -1.
        994   -1    0    0    0    0 -0.00000000000E+00 -0.00000000000E+00  0.11368683772E-12  0.17120000000E+03  0.17120000000E+03 0.  0.
         13    1    1    2    0    0 -0.17838685485E+03  0.14540165784E+03  0.11945004462E+04  0.12164681826E+04  0.10566000000E+00 0. -1.
        994    1    1    2    0    0  0.18923542790E+03 -0.15490492210E+03  0.22728319492E+03  0.37519684535E+03  0.17120000000E+03 0.  0.
        998    1    1    2    0    0 -0.10848573055E+02  0.95032642581E+01  0.78216355186E+02  0.79534972103E+02  0.10000000000E+00 0. -1.
</event>
<event>
 5    1  0.2313627E-009  0.3881331E+03  0.7957747E-01  0.3416492E+00
         13   -1    0    0    0    0  0.00000000000E+00  0.00000000000E+00  0.14999999963E+04  0.15000000000E+04  0.10566000000E+00 0. -1.
        994   -1    0    0    0    0 -0.00000000000E+00 -0.00000000000E+00  0.11368683772E-12  0.17120000000E+03  0.17120000000E+03 0.  0.
         13    1    1    2    0    0  0.28098706373E+03  0.11627119425E+03  0.10881182178E+04  0.11298114832E+04  0.10566000000E+00 0. -1.
        994    1    1    2    0    0 -0.28167881197E+03 -0.11737015055E+03  0.40913735594E+03  0.53835074197E+03  0.17120000000E+03 0.  0.
        998    1    1    2    0    0  0.69174824374E+00  0.10989563027E+01  0.27444225526E+01  0.30377748000E+01  0.10000000000E+00 0. -1.
</event>
<event>
 5    1  0.2313627E-009  0.3882956E+03  0.7957747E-01  0.3415814E+00
         13   -1    0    0    0    0  0.00000000000E+00  0.00000000000E+00  0.14999999963E+04  0.15000000000E+04  0.10566000000E+00 0. -1.
        994   -1    0    0    0    0 -0.00000000000E+00 -0.00000000000E+00  0.11368683772E-12  0.17120000000E+03  0.17120000000E+03 0.  0.
         13    1    1    2    0    0 -0.35711132151E+02  0.22469240515E+03  0.12772418519E+04  0.12973468007E+04  0.10566000000E+00 0. -1.
        994    1    1    2    0    0  0.36065458505E+02 -0.22858396019E+03  0.19940667479E+03  0.35017682120E+03  0.17120000000E+03 0.  0.
        998    1    1    2    0    0 -0.35432635373E+00  0.38915550427E+01  0.23351469592E+02  0.23676378100E+02  0.10000000000E+00 0.  1.
</event>
<event>
 5    1  0.2313627E-009  0.3882995E+03  0.7957747E-01  0.3415798E+00
         13   -1    0    0    0    0  0.00000000000E+00  0.00000000000E+00  0.14999999963E+04  0.15000000000E+04  0.10566000000E+00 0.  1.
        994   -1    0    0    0    0 -0.00000000000E+00 -0.00000000000E+00  0.11368683772E-12  0.17120000000E+03  0.17120000000E+03 0.  0.
         13    1    1    2    0    0  0.18056218802E+03 -0.69252418982E+02  0.11288593562E+04  0.11453043519E+04  0.10566000000E+00 0.  1.
        994    1    1    2    0    0 -0.20993289128E+03  0.80043306303E+02  0.18617867044E+03  0.33830561191E+03  0.17120000000E+03 0.  0.
        998    1    1    2    0    0  0.29370703258E+02 -0.10790887320E+02  0.18496196967E+03  0.18759003620E+03  0.10000000000E+00 0.  1.
</event>
<event>
 5    1  0.2313627E-009  0.3761950E+03  0.7957747E-01  0.3467896E+00
         13   -1    0    0    0    0  0.00000000000E+00  0.00000000000E+00  0.14999999963E+04  0.15000000000E+04  0.10566000000E+00 0.  1.
        994   -1    0    0    0    0 -0.00000000000E+00 -0.00000000000E+00  0.11368683772E-12  0.17120000000E+03  0.17120000000E+03 0.  0.
         13    1    1    2    0    0  0.60082631778E+02 -0.17966077285E+02  0.36179233005E+03  0.36718715095E+03  0.10566000000E+00 0.  1.
        994    1    1    2    0    0 -0.88745823819E+02 -0.10410172467E+03  0.72305129327E+02  0.23076061634E+03  0.17120000000E+03 0.  0.
        998    1    1    2    0    0  0.28663192041E+02  0.12206780196E+03  0.10659025369E+04  0.10732522327E+04  0.10000000000E+00 0.  1.
</event>
<event>
 5    1  0.2313627E-009  0.3882800E+03  0.7957747E-01  0.3415879E+00
         13   -1    0    0    0    0  0.00000000000E+00  0.00000000000E+00  0.14999999963E+04  0.15000000000E+04  0.10566000000E+00 0. -1.
        994   -1    0    0    0    0 -0.00000000000E+00 -0.00000000000E+00  0.11368683772E-12  0.17120000000E+03  0.17120000000E+03 0.  0.
         13    1    1    2    0    0 -0.19593733721E+03 -0.12831830465E+03  0.12928476639E+04  0.13138919745E+04  0.10566000000E+00 0. -1.
        994    1    1    2    0    0  0.19603945984E+03  0.12841275226E+03  0.20542019234E+03  0.35556743408E+03  0.17120000000E+03 0.  0.
        998    1    1    2    0    0 -0.10212263046E+00 -0.94447617798E-01  0.17321400731E+01  0.17405914561E+01  0.10000000000E+00 0.  1.
</event>
<event>
 5    1  0.2313627E-009  0.3882991E+03  0.7957747E-01  0.3415800E+00
         13   -1    0    0    0    0  0.00000000000E+00  0.00000000000E+00  0.14999999963E+04  0.15000000000E+04  0.10566000000E+00 0. -1.
        994   -1    0    0    0    0 -0.00000000000E+00 -0.00000000000E+00  0.11368683772E-12  0.17120000000E+03  0.17120000000E+03 0.  0.
         13    1    1    2    0    0 -0.14628373406E+03  0.15060886667E+03  0.12565250180E+04  0.12739454830E+04  0.10566000000E+00 0. -1.
        994    1    1    2    0    0  0.15348798872E+03 -0.15848663288E+03  0.17855647063E+03  0.33146406847E+03  0.17120000000E+03 0.  0.
        998    1    1    2    0    0 -0.72042546551E+01  0.78777662081E+01  0.64918507656E+02  0.65790448561E+02  0.10000000000E+00 0.  1.
</event>
<event>
 5    1  0.2313627E-009  0.3880291E+03  0.7957747E-01  0.3416926E+00
         13   -1    0    0    0    0  0.00000000000E+00  0.00000000000E+00  0.14999999963E+04  0.15000000000E+04  0.10566000000E+00 0.  1.
        994   -1    0    0    0    0 -0.00000000000E+00 -0.00000000000E+00  0.11368683772E-12  0.17120000000E+03  0.17120000000E+03 0.  0.
         13    1    1    2    0    0  0.15185727172E+03 -0.12944120043E+03  0.11904465135E+04  0.12070536724E+04  0.10566000000E+00 0.  1.
        994    1    1    2    0    0 -0.16512424781E+03  0.13929698108E+03  0.17049807980E+03  0.32411217405E+03  0.17120000000E+03 0.  0.
        998    1    1    2    0    0  0.13266976093E+02 -0.98557806507E+01  0.13905540301E+03  0.14003415360E+03  0.10000000000E+00 0. -1.
</event>
<event>
 5    1  0.2313627E-009  0.3882975E+03  0.7957747E-01  0.3415806E+00
         13   -1    0    0    0    0  0.00000000000E+00  0.00000000000E+00  0.14999999963E+04  0.15000000000E+04  0.10566000000E+00 0.  1.
        994   -1    0    0    0    0 -0.00000000000E+00 -0.00000000000E+00  0.11368683772E-12  0.17120000000E+03  0.17120000000E+03 0.  0.
         13    1    1    2    0    0  0.13669891495E+03  0.19318526564E+03  0.12521574733E+04  0.12743255036E+04  0.10566000000E+00 0.  1.
        994    1    1    2    0    0 -0.13936201515E+03 -0.19728658871E+03  0.22064062581E+03  0.36923636753E+03  0.17120000000E+03 0.  0.
        998    1    1    2    0    0  0.26631002015E+01  0.41013230672E+01  0.27201897206E+02  0.27638128829E+02  0.10000000000E+00 0. -1.
</event>
<event>
 5    1  0.2439376E-009  0.3882832E+03  0.7957747E-01  0.3415866E+00
         13   -1    0    0    0    0  0.00000000000E+00  0.00000000000E+00  0.14999999963E+04  0.15000000000E+04  0.10566000000E+00 0. -1.
        994   -1    0    0    0    0 -0.00000000000E+00 -0.00000000000E+00  0.11368683772E-12  0.17120000000E+03  0.17120000000E+03 0.  0.
         13    1    1    2    0    0  0.16181913805E+03 -0.17012457158E+03  0.12886730292E+04  0.13098877779E+04  0.10566000000E+00 0. -1.
        994    1    1    2    0    0 -0.16222520353E+03  0.17040218007E+03  0.20732093576E+03  0.35727486623E+03  0.17120000000E+03 0.  0.
        998    1    1    2    0    0  0.40606548191E+00 -0.27760849081E+00  0.40060313487E+01  0.40373559190E+01  0.10000000000E+00 0.  1.
</event>
<event>
 5    1  0.2313627E-009  0.3880070E+03  0.7957747E-01  0.3417018E+00
         13   -1    0    0    0    0  0.00000000000E+00  0.00000000000E+00  0.14999999963E+04  0.15000000000E+04  0.10566000000E+00 0.  1.
        994   -1    0    0    0    0 -0.00000000000E+00 -0.00000000000E+00  0.11368683772E-12  0.17120000000E+03  0.17120000000E+03 0.  0.
         13    1    1    2    0    0  0.27233313404E+03 -0.13076606375E+03  0.86137086041E+03  0.91281151923E+03  0.10566000000E+00 0.  1.
        994    1    1    2    0    0 -0.29674900734E+03  0.14968468687E+03  0.55445965280E+03  0.66873045797E+03  0.17120000000E+03 0.  0.
        998    1    1    2    0    0  0.24415873305E+02 -0.18918623125E+02  0.84169483074E+02  0.89658022792E+02  0.10000000000E+00 0. -1.
</event>
<event>
 5    1  0.2313627E-009  0.3882977E+03  0.7957747E-01  0.3415806E+00
         13   -1    0    0    0    0  0.00000000000E+00  0.00000000000E+00  0.14999999963E+04  0.15000000000E+04  0.10566000000E+00 0.  1.
        994   -1    0    0    0    0 -0.00000000000E+00 -0.00000000000E+00  0.11368683772E-12  0.17120000000E+03  0.17120000000E+03 0.  0.
         13    1    1    2    0    0  0.14697335264E+03 -0.22641790008E+03  0.11654718229E+04  0.11963238746E+04  0.10566000000E+00 0.  1.
        994    1    1    2    0    0 -0.15049814339E+03  0.23133761573E+03  0.30774806869E+03  0.44742049282E+03  0.17120000000E+03 0.  0.
        998    1    1    2    0    0  0.35247907506E+01 -0.49197156471E+01  0.26780104724E+02  0.27455632590E+02  0.10000000000E+00 0. -1.
</event>
<event>
 5    1  0.2313627E-009  0.3883006E+03  0.7957747E-01  0.3415793E+00
         13   -1    0    0    0    0  0.00000000000E+00  0.00000000000E+00  0.14999999963E+04  0.15000000000E+04  0.10566000000E+00 0.  1.
        994   -1    0    0    0    0 -0.00000000000E+00 -0.00000000000E+00  0.11368683772E-12  0.17120000000E+03  0.17120000000E+03 0.  0.
         13    1    1    2    0    0  0.56506670688E+02  0.19282515010E+03  0.81887167867E+03  0.84316391030E+03  0.10566000000E+00 0.  1.
        994    1    1    2    0    0 -0.80518425532E+02 -0.27361703678E+03  0.33619503021E+03  0.47295458345E+03  0.17120000000E+03 0.  0.
        998    1    1    2    0    0  0.24011754844E+02  0.80791886682E+02  0.34493328740E+03  0.35508150625E+03  0.10000000000E+00 0.  1.
</event>
<event>
 5    1  0.2313627E-009  0.3697609E+03  0.7957747E-01  0.3496991E+00
         13   -1    0    0    0    0  0.00000000000E+00  0.00000000000E+00  0.14999999963E+04  0.15000000000E+04  0.10566000000E+00 0. -1.
        994   -1    0    0    0    0 -0.00000000000E+00 -0.00000000000E+00  0.11368683772E-12  0.17120000000E+03  0.17120000000E+03 0.  0.
         13    1    1    2    0    0  0.13770039695E+01 -0.41992699693E+02  0.16214685438E+03  0.16750192989E+03  0.10566000000E+00 0. -1.
        994    1    1    2    0    0 -0.11149781456E+03 -0.82757372160E+02  0.79406286473E+02  0.23429755361E+03  0.17120000000E+03 0.  0.
        998    1    1    2    0    0  0.11012081059E+03  0.12475007185E+03  0.12584468554E+04  0.12694005165E+04  0.10000000000E+00 0. -1.
</event>
<event>
 5    1  0.2313627E-009  0.3850196E+03  0.7957747E-01  0.3429589E+00
         13   -1    0    0    0    0  0.00000000000E+00  0.00000000000E+00  0.14999999963E+04  0.15000000000E+04  0.10566000000E+00 0.  1.
        994   -1    0    0    0    0 -0.00000000000E+00 -0.00000000000E+00  0.11368683772E-12  0.17120000000E+03  0.17120000000E+03 0.  0.
         13    1    1    2    0    0  0.77879049961E+02 -0.13633543566E+03  0.70866890991E+03  0.72585407107E+03  0.10566000000E+00 0.  1.
        994    1    1    2    0    0 -0.18130418350E+03  0.22403454181E+03  0.35425487179E+03  0.48771778424E+03  0.17120000000E+03 0.  0.
        998    1    1    2    0    0  0.10342513354E+03 -0.87699106151E+02  0.43707621458E+03  0.45762814469E+03  0.10000000000E+00 0.  1.
</event>
<event>
 5    1  0.2313627E-009  0.3882855E+03  0.7957747E-01  0.3415856E+00
         13   -1    0    0    0    0  0.00000000000E+00  0.00000000000E+00  0.14999999963E+04  0.15000000000E+04  0.10566000000E+00 0. -1.
        994   -1    0    0    0    0 -0.00000000000E+00 -0.00000000000E+00  0.11368683772E-12  0.17120000000E+03  0.17120000000E+03 0.  0.
         13    1    1    2    0    0 -0.27081912321E+03  0.35888217858E+02  0.11273144456E+04  0.11599434607E+04  0.10566000000E+00 0. -1.
        994    1    1    2    0    0  0.28040818251E+03 -0.37410565698E+02  0.32880968892E+03  0.46631915119E+03  0.17120000000E+03 0.  0.
        998    1    1    2    0    0 -0.95890592977E+01  0.15223478394E+01  0.43875861775E+02  0.44937388083E+02  0.10000000000E+00 0.  1.
</event>
<event>
 5    1  0.2313627E-009  0.3882712E+03  0.7957747E-01  0.3415916E+00
         13   -1    0    0    0    0  0.00000000000E+00  0.00000000000E+00  0.14999999963E+04  0.15000000000E+04  0.10566000000E+00 0. -1.
        994   -1    0    0    0    0 -0.00000000000E+00 -0.00000000000E+00  0.11368683772E-12  0.17120000000E+03  0.17120000000E+03 0.  0.
         13    1    1    2    0    0 -0.96128144239E+02  0.20100666173E+03  0.10827046638E+04  0.11053930062E+04  0.10566000000E+00 0. -1.
        994    1    1    2    0    0  0.11297774615E+03 -0.23063795168E+03  0.25615804525E+03  0.40110375220E+03  0.17120000000E+03 0.  0.
        998    1    1    2    0    0 -0.16849601912E+02  0.29631289953E+02  0.16113728728E+03  0.16470324156E+03  0.10000000000E+00 0.  1.
</event>
<event>
 5    1  0.2313627E-009  0.3881103E+03  0.7957747E-01  0.3416587E+00
         13   -1    0    0    0    0  0.00000000000E+00  0.00000000000E+00  0.14999999963E+04  0.15000000000E+04  0.10566000000E+00 0. -1.
        994   -1    0    0    0    0 -0.00000000000E+00 -0.00000000000E+00  0.11368683772E-12  0.17120000000E+03  0.17120000000E+03 0.  0.
         13    1    1    2    0    0  0.10346098984E+03 -0.19351565654E+03  0.13106163218E+04  0.13288595260E+04  0.10566000000E+00 0. -1.
        994    1    1    2    0    0 -0.10290411527E+03  0.19555657175E+03  0.17944129787E+03  0.33217502777E+03  0.17120000000E+03 0.  0.
        998    1    1    2    0    0 -0.55687457008E+00 -0.20409152088E+01  0.99423766181E+01  0.10165446227E+02  0.10000000000E+00 0.  1.
</event>
<event>
 5    1  0.3299691E-009  0.3882832E+03  0.7957747E-01  0.3415866E+00
         13   -1    0    0    0    0  0.00000000000E+00  0.00000000000E+00  0.14999999963E+04  0.15000000000E+04  0.10566000000E+00 0. -1.
        994   -1    0    0    0    0 -0.00000000000E+00 -0.00000000000E+00  0.11368683772E-12  0.17120000000E+03  0.17120000000E+03 0.  0.
         13    1    1    2    0    0 -0.66610214339E+02  0.33711280046E+03  0.83396966127E+03  0.90199078042E+03  0.10566000000E+00 0. -1.
        994    1    1    2    0    0  0.66747306334E+02 -0.33751629016E+03  0.66453769514E+03  0.76765372225E+03  0.17120000000E+03 0.  0.
        998    1    1    2    0    0 -0.13709199532E+00  0.40348969365E+00  0.14926398715E+01  0.15554973270E+01  0.10000000000E+00 0.  1.
</event>
<event>
 5    1  0.2313627E-009  0.3883006E+03  0.7957747E-01  0.3415794E+00
         13   -1    0    0    0    0  0.00000000000E+00  0.00000000000E+00  0.14999999963E+04  0.15000000000E+04  0.10566000000E+00 0.  1.
        994   -1    0    0    0    0 -0.00000000000E+00 -0.00000000000E+00  0.11368683772E-12  0.17120000000E+03  0.17120000000E+03 0.  0.
         13    1    1    2    0    0 -0.28578975629E+03  0.15445018858E+02  0.10744483491E+04  0.11119143849E+04  0.10566000000E+00 0.  1.
        994    1    1    2    0    0  0.29766310121E+03 -0.15961625950E+02  0.38090856684E+03  0.51308758669E+03  0.17120000000E+03 0.  0.
        998    1    1    2    0    0 -0.11873344918E+02  0.51660709196E+00  0.44643080384E+02  0.46198028406E+02  0.10000000000E+00 0.  1.
</event>
<event>
 5    1  0.2313627E-009  0.3883005E+03  0.7957747E-01  0.3415794E+00
         13   -1    0    0    0    0  0.00000000000E+00  0.00000000000E+00  0.14999999963E+04  0.15000000000E+04  0.10566000000E+00 0. -1.
        994   -1    0    0    0    0 -0.00000000000E+00 -0.00000000000E+00  0.11368683772E-12  0.17120000000E+03  0.17120000000E+03 0.  0.
         13    1    1    2    0    0  0.19328361668E+03  0.14067049939E+03  0.12268811496E+04  0.12499536441E+04  0.10566000000E+00 0. -1.
        994    1    1    2    0    0 -0.19956186103E+03 -0.14532492053E+03  0.23249771011E+03  0.37988010492E+03  0.17120000000E+03 0.  0.
        998    1    1    2    0    0  0.62782443449E+01  0.46544211439E+01  0.40621136570E+02  0.41366251032E+02  0.10000000000E+00 0.  1.
</event>
<event>
 5    1  0.2313627E-009  0.3882883E+03  0.7957747E-01  0.3415845E+00
         13   -1    0    0    0    0  0.00000000000E+00  0.00000000000E+00  0.14999999963E+04  0.15000000000E+04  0.10566000000E+00 0. -1.
        994   -1    0    0    0    0 -0.00000000000E+00 -0.00000000000E+00  0.11368683772E-12  0.17120000000E+03  0.17120000000E+03 0.  0.
         13    1    1    2    0    0 -0.18805007545E+03 -0.21336787854E+03  0.56333795896E+03  0.63106128834E+03  0.10566000000E+00 0. -1.
        994    1    1    2    0    0  0.22957735964E+03  0.26211873319E+03  0.80591139597E+03  0.89454715499E+03  0.17120000000E+03 0.  0.
        998    1    1    2    0    0 -0.41527284187E+02 -0.48750854647E+02  0.13075064135E+03  0.14559155667E+03  0.10000000000E+00 0. -1.
</event>
<event>
 5    1  0.2313627E-009  0.3882995E+03  0.7957747E-01  0.3415798E+00
         13   -1    0    0    0    0  0.00000000000E+00  0.00000000000E+00  0.14999999963E+04  0.15000000000E+04  0.10566000000E+00 0.  1.
        994   -1    0    0    0    0 -0.00000000000E+00 -0.00000000000E+00  0.11368683772E-12  0.17120000000E+03  0.17120000000E+03 0.  0.
         13    1    1    2    0    0 -0.19491816356E+03  0.19623694019E+03  0.11647216445E+04  0.11971125877E+04  0.10566000000E+00 0.  1.
        994    1    1    2    0    0  0.19738919471E+03 -0.19869497017E+03  0.32002436805E+03  0.45843998681E+03  0.17120000000E+03 0.  0.
        998    1    1    2    0    0 -0.24710311535E+01  0.24580299885E+01  0.15253983702E+02  0.15647425512E+02  0.10000000000E+00 0.  0.
</event>
<event>
 5    1  0.2313627E-009  0.3882390E+03  0.7957747E-01  0.3416050E+00
         13   -1    0    0    0    0  0.00000000000E+00  0.00000000000E+00  0.14999999963E+04  0.15000000000E+04  0.10566000000E+00 0. -1.
        994   -1    0    0    0    0 -0.00000000000E+00 -0.00000000000E+00  0.11368683772E-12  0.17120000000E+03  0.17120000000E+03 0.  0.
         13    1    1    2    0    0 -0.13164091173E+03  0.25563482535E+03  0.11397539795E+04  0.11754648606E+04  0.10566000000E+00 0. -1.
        994    1    1    2    0    0  0.13328772482E+03 -0.25765371244E+03  0.35249976191E+03  0.48756186814E+03  0.17120000000E+03 0.  0.
        998    1    1    2    0    0 -0.16468130834E+01  0.20188870929E+01  0.77462549148E+01  0.81732712931E+01  0.10000000000E+00 0.  1.
</event>
<event>
 5    1  0.2313627E-009  0.3883009E+03  0.7957747E-01  0.3415792E+00
         13   -1    0    0    0    0  0.00000000000E+00  0.00000000000E+00  0.14999999963E+04  0.15000000000E+04  0.10566000000E+00 0.  1.
        994   -1    0    0    0    0 -0.00000000000E+00 -0.00000000000E+00  0.11368683772E-12  0.17120000000E+03  0.17120000000E+03 0.  0.
         13    1    1    2    0    0  0.95906656470E+02 -0.15955686026E+03  0.10739040563E+04  0.10899203694E+04  0.10566000000E+00 0.  1.
        994    1    1    2    0    0 -0.11705172635E+03  0.19447697196E+03  0.19063547599E+03  0.34230647667E+03  0.17120000000E+03 0.  0.
        998    1    1    2    0    0  0.21145069880E+02 -0.34920111700E+02  0.23546046400E+03  0.23897315391E+03  0.10000000000E+00 0. -1.
</event>
<event>
 5    1  0.2313627E-009  0.3882984E+03  0.7957747E-01  0.3415803E+00
         13   -1    0    0    0    0  0.00000000000E+00  0.00000000000E+00  0.14999999963E+04  0.15000000000E+04  0.10566000000E+00 0.  1.
        994   -1    0    0    0    0 -0.00000000000E+00 -0.00000000000E+00  0.11368683772E-12  0.17120000000E+03  0.17120000000E+03 0.  0.
         13    1    1    2    0    0  0.18330948203E+03  0.87028602336E+02  0.11771205780E+04  0.11944828212E+04  0.10566000000E+00 0.  1.
        994    1    1    2    0    0 -0.20464512507E+03 -0.96525106797E+02  0.18924379618E+03  0.34105626787E+03  0.17120000000E+03 0.  0.
        998    1    1    2    0    0  0.21335643042E+02  0.94965044604E+01  0.13363562215E+03  0.13566091098E+03  0.10000000000E+00 0. -1.
</event>
<event>
 5    1  0.2313627E-009  0.3881175E+03  0.7957747E-01  0.3416557E+00
         13   -1    0    0    0    0  0.00000000000E+00  0.00000000000E+00  0.14999999963E+04  0.15000000000E+04  0.10566000000E+00 0. -1.
        994   -1    0    0    0    0 -0.00000000000E+00 -0.00000000000E+00  0.11368683772E-12  0.17120000000E+03  0.17120000000E+03 0.  0.
         13    1    1    2    0    0 -0.21521036532E+03  0.19013226540E+03  0.11338561813E+04  0.11696562019E+04  0.10566000000E+00 0. -1.
        994    1    1    2    0    0  0.21877248085E+03 -0.19100947058E+03  0.35395498160E+03  0.48881446913E+03  0.17120000000E+03 0.  0.
        998    1    1    2    0    0 -0.35621155390E+01  0.87720518058E+00  0.12188833384E+02  0.12729328942E+02  0.10000000000E+00 0.  1.
</event>
<event>
 5    1  0.2313627E-009  0.3882707E+03  0.7957747E-01  0.3415918E+00
         13   -1    0    0    0    0  0.00000000000E+00  0.00000000000E+00  0.14999999963E+04  0.15000000000E+04  0.10566000000E+00 0. -1.
        994   -1    0    0    0    0 -0.00000000000E+00 -0.00000000000E+00  0.11368683772E-12  0.17120000000E+03  0.17120000000E+03 0.  0.
         13    1    1    2    0    0 -0.22654743852E+03  0.60429185748E+02  0.12796778114E+04  0.13009806842E+04  0.10566000000E+00 0. -1.
        994    1    1    2    0    0  0.22816349866E+03 -0.60483938864E+02  0.20894165242E+03  0.35872404868E+03  0.17120000000E+03 0.  0.
        998    1    1    2    0    0 -0.16160601388E+01  0.54753115921E-01  0.11380532422E+02  0.11495267134E+02  0.10000000000E+00 0.  1.
</event>
<event>
 5    1  0.2313627E-009  0.3882440E+03  0.7957747E-01  0.3416029E+00
         13   -1    0    0    0    0  0.00000000000E+00  0.00000000000E+00  0.14999999963E+04  0.15000000000E+04  0.10566000000E+00 0. -1.
        994   -1    0    0    0    0 -0.00000000000E+00 -0.00000000000E+00  0.11368683772E-12  0.17120000000E+03  0.17120000000E+03 0.  0.
         13    1    1    2    0    0 -0.15680164196E+03 -0.15896698455E+03  0.13012646454E+04  0.13202829036E+04  0.10566000000E+00 0. -1.
        994    1    1    2    0    0  0.15739533550E+03  0.16047063524E+03  0.18644225431E+03  0.33851775523E+03  0.17120000000E+03 0.  0.
        998    1    1    2    0    0 -0.59369354384E+00 -0.15036506971E+01  0.12293096569E+02  0.12399341140E+02  0.10000000000E+00 0. -1.
</event>
<event>
 5    1  0.2313627E-009  0.3870864E+03  0.7957747E-01  0.3420871E+00
         13   -1    0    0    0    0  0.00000000000E+00  0.00000000000E+00  0.14999999963E+04  0.15000000000E+04  0.10566000000E+00 0. -1.
        994   -1    0    0    0    0 -0.00000000000E+00 -0.00000000000E+00  0.11368683772E-12  0.17120000000E+03  0.17120000000E+03 0.  0.
         13    1    1    2    0    0  0.38767693782E+02  0.82546068867E+02  0.40909511421E+03  0.41913674523E+03  0.10566000000E+00 0. -1.
        994    1    1    2    0    0 -0.15921362583E+03 -0.20616501438E+03  0.26746891957E+03  0.41073355687E+03  0.17120000000E+03 0.  0.
        998    1    1    2    0    0  0.12044593205E+03  0.12361894551E+03  0.82343596250E+03  0.84132969790E+03  0.10000000000E+00 0. -1.
</event>
<event>
 5    1  0.2313627E-009  0.3882999E+03  0.7957747E-01  0.3415796E+00
         13   -1    0    0    0    0  0.00000000000E+00  0.00000000000E+00  0.14999999963E+04  0.15000000000E+04  0.10566000000E+00 0.  1.
        994   -1    0    0    0    0 -0.00000000000E+00 -0.00000000000E+00  0.11368683772E-12  0.17120000000E+03  0.17120000000E+03 0.  0.
         13    1    1    2    0    0 -0.81996078747E+02  0.25228603792E+03  0.11225111665E+04  0.11534309394E+04  0.10566000000E+00 0.  1.
        994    1    1    2    0    0  0.86296765210E+02 -0.26553349573E+03  0.31736831554E+03  0.45605619911E+03  0.17120000000E+03 0.  0.
        998    1    1    2    0    0 -0.43006864631E+01  0.13247457810E+02  0.60120514231E+02  0.61712861495E+02  0.10000000000E+00 0.  1.
</event>
<event>
 5    1  0.3324113E-009  0.3882553E+03  0.7957747E-01  0.3415982E+00
         13   -1    0    0    0    0  0.00000000000E+00  0.00000000000E+00  0.14999999963E+04  0.15000000000E+04  0.10566000000E+00 0. -1.
        994   -1    0    0    0    0 -0.00000000000E+00 -0.00000000000E+00  0.11368683772E-12  0.17120000000E+03  0.17120000000E+03 0.  0.
         13    1    1    2    0    0  0.30745590057E+02  0.31482227368E+03  0.10392001663E+04  0.10862759097E+04  0.10566000000E+00 0. -1.
        994    1    1    2    0    0 -0.30611637400E+02 -0.31499166639E+03  0.45956335356E+03  0.58366491943E+03  0.17120000000E+03 0.  0.
        998    1    1    2    0    0 -0.13395265707E+00  0.16939270952E+00  0.12364764379E+01  0.12591708326E+01  0.10000000000E+00 0.  1.
</event>
<event>
 5    1  0.2313627E-009  0.3883008E+03  0.7957747E-01  0.3415793E+00
         13   -1    0    0    0    0  0.00000000000E+00  0.00000000000E+00  0.14999999963E+04  0.15000000000E+04  0.10566000000E+00 0.  1.
        994   -1    0    0    0    0 -0.00000000000E+00 -0.00000000000E+00  0.11368683772E-12  0.17120000000E+03  0.17120000000E+03 0.  0.
         13    1    1    2    0    0  0.43217981979E+02 -0.19329456105E+03  0.96839181010E+03  0.98843982636E+03  0.10566000000E+00 0.  1.
        994    1    1    2    0    0 -0.55697727843E+02  0.24922915124E+03  0.25255552996E+03  0.39788332766E+03  0.17120000000E+03 0.  0.
        998    1    1    2    0    0  0.12479745864E+02 -0.55934590185E+02  0.27905265621E+03  0.28487684598E+03  0.10000000000E+00 0.  0.
</event>
<event>
 5    1  0.2313627E-009  0.3882828E+03  0.7957747E-01  0.3415868E+00
         13   -1    0    0    0    0  0.00000000000E+00  0.00000000000E+00  0.14999999963E+04  0.15000000000E+04  0.10566000000E+00 0. -1.
        994   -1    0    0    0    0 -0.00000000000E+00 -0.00000000000E+00  0.11368683772E-12  0.17120000000E+03  0.17120000000E+03 0.  0.
         13    1    1    2    0    0  0.73362664546E+02 -0.17511298671E+03  0.10764111353E+04  0.10930267984E+04  0.10566000000E+00 0. -1.
        994    1    1    2    0    0 -0.91025976025E+02  0.21112010677E+03  0.19641170477E+03  0.34748298601E+03  0.17120000000E+03 0.  0.
        998    1    1    2    0    0  0.17663311479E+02 -0.36007120054E+02  0.22717715616E+03  0.23069021554E+03  0.10000000000E+00 0. -1.
</event>
<event>
 5    1  0.2313627E-009  0.3878502E+03  0.7957747E-01  0.3417673E+00
         13   -1    0    0    0    0  0.00000000000E+00  0.00000000000E+00  0.14999999963E+04  0.15000000000E+04  0.10566000000E+00 0.  1.
        994   -1    0    0    0    0 -0.00000000000E+00 -0.00000000000E+00  0.11368683772E-12  0.17120000000E+03  0.17120000000E+03 0.  0.
         13    1    1    2    0    0  0.13620350878E+03 -0.13596291902E+03  0.10065710955E+04  0.10248037337E+04  0.10566000000E+00 0.  1.
        994    1    1    2    0    0 -0.16650846213E+03  0.16404479934E+03  0.20475649639E+03  0.35478222470E+03  0.17120000000E+03 0.  0.
        998    1    1    2    0    0  0.30304953346E+02 -0.28081880325E+02  0.28867240437E+03  0.29161404157E+03  0.10000000000E+00 0.  1.
</event>
<event>
 5    1  0.2313627E-009  0.3882972E+03  0.7957747E-01  0.3415808E+00
         13   -1    0    0    0    0  0.00000000000E+00  0.00000000000E+00  0.14999999963E+04  0.15000000000E+04  0.10566000000E+00 0.  1.
        994   -1    0    0    0    0 -0.00000000000E+00 -0.00000000000E+00  0.11368683772E-12  0.17120000000E+03  0.17120000000E+03 0.  0.
         13    1    1    2    0    0  0.14388214852E+03 -0.37263733361E+02  0.84237397982E+03  0.85538563907E+03  0.10566000000E+00 0.  1.
        994    1    1    2    0    0 -0.22378622199E+03  0.58304897190E+02  0.19909297687E+03  0.34989596686E+03  0.17120000000E+03 0.  0.
        998    1    1    2    0    0  0.79904073469E+02 -0.21041163829E+02  0.45853303959E+03  0.46591839406E+03  0.10000000000E+00 0.  1.
</event>
<event>
 5    1  0.2313627E-009  0.3882515E+03  0.7957747E-01  0.3415998E+00
         13   -1    0    0    0    0  0.00000000000E+00  0.00000000000E+00  0.14999999963E+04  0.15000000000E+04  0.10566000000E+00 0. -1.
        994   -1    0    0    0    0 -0.00000000000E+00 -0.00000000000E+00  0.11368683772E-12  0.17120000000E+03  0.17120000000E+03 0.  0.
         13    1    1    2    0    0 -0.27223019597E+03  0.99429981047E+02  0.11049287283E+04  0.11423060477E+04  0.10566000000E+00 0. -1.
        994    1    1    2    0    0  0.27812233543E+03 -0.10218362986E+03  0.37441239259E+03  0.50723525844E+03  0.17120000000E+03 0.  0.
        998    1    1    2    0    0 -0.58921394639E+01  0.27536488176E+01  0.20658875396E+02  0.21658693910E+02  0.10000000000E+00 0.  1.
</event>
<event>
 5    1  0.2313627E-009  0.3868552E+03  0.7957747E-01  0.3421842E+00
         13   -1    0    0    0    0  0.00000000000E+00  0.00000000000E+00  0.14999999963E+04  0.15000000000E+04  0.10566000000E+00 0. -1.
        994   -1    0    0    0    0 -0.00000000000E+00 -0.00000000000E+00  0.11368683772E-12  0.17120000000E+03  0.17120000000E+03 0.  0.
         13    1    1    2    0    0 -0.11619409489E+03  0.31337738557E+02  0.62444784470E+03  0.63593886770E+03  0.10566000000E+00 0. -1.
        994    1    1    2    0    0  0.23257949382E+03 -0.17842398399E+02  0.20514014535E+03  0.35468787879E+03  0.17120000000E+03 0.  0.
        998    1    1    2    0    0 -0.11638539893E+03 -0.13495340157E+02  0.67041200623E+03  0.68057325351E+03  0.10000000000E+00 0. -1.
</event>
<event>
 5    1  0.2313627E-009  0.3882539E+03  0.7957747E-01  0.3415988E+00
         13   -1    0    0    0    0  0.00000000000E+00  0.00000000000E+00  0.14999999963E+04  0.15000000000E+04  0.10566000000E+00 0.  1.
        994   -1    0    0    0    0 -0.00000000000E+00 -0.00000000000E+00  0.11368683772E-12  0.17120000000E+03  0.17120000000E+03 0.  0.
         13    1    1    2    0    0  0.16056141390E+02 -0.98034920309E+02  0.48722885744E+03  0.49725307034E+03  0.10566000000E+00 0.  1.
        994    1    1    2    0    0 -0.48115657145E+02  0.24530460652E+03  0.23974071493E+03  0.38636060466E+03  0.17120000000E+03 0.  0.
        998    1    1    2    0    0  0.32059515755E+02 -0.14726968621E+03  0.77303042391E+03  0.78758632500E+03  0.10000000000E+00 0.  1.
</event>
<event>
 5    1  0.2313627E-009  0.3882501E+03  0.7957747E-01  0.3416004E+00
         13   -1    0    0    0    0  0.00000000000E+00  0.00000000000E+00  0.14999999963E+04  0.15000000000E+04  0.10566000000E+00 0. -1.
        994   -1    0    0    0    0 -0.00000000000E+00 -0.00000000000E+00  0.11368683772E-12  0.17120000000E+03  0.17120000000E+03 0.  0.
         13    1    1    2    0    0 -0.16787486346E+03 -0.17870049217E+03  0.12704794690E+04  0.12939219173E+04  0.10566000000E+00 0. -1.
        994    1    1    2    0    0  0.16800726500E+03  0.17862836283E+03  0.22885410646E+03  0.37658753981E+03  0.17120000000E+03 0.  0.
        998    1    1    2    0    0 -0.13240153453E+00  0.72129335095E-01  0.66642081343E+00  0.69054290808E+00  0.10000000000E+00 0. -1.
</event>
<event>
 5    1  0.2313627E-009  0.3882955E+03  0.7957747E-01  0.3415815E+00
         13   -1    0    0    0    0  0.00000000000E+00  0.00000000000E+00  0.14999999963E+04  0.15000000000E+04  0.10566000000E+00 0. -1.
        994   -1    0    0    0    0 -0.00000000000E+00 -0.00000000000E+00  0.11368683772E-12  0.17120000000E+03  0.17120000000E+03 0.  0.
         13    1    1    2    0    0 -0.89376579080E+02 -0.22848060856E+03  0.11333206437E+04  0.11595720133E+04  0.10566000000E+00 0. -1.
        994    1    1    2    0    0  0.97174928580E+02  0.24627183712E+03  0.27640554917E+03  0.41928779152E+03  0.17120000000E+03 0.  0.
        998    1    1    2    0    0 -0.77983495001E+01 -0.17791228564E+02  0.90273803427E+02  0.92340195223E+02  0.10000000000E+00 0.  1.
</event>
<event>
 5    1  0.2313627E-009  0.3881852E+03  0.7957747E-01  0.3416275E+00
         13   -1    0    0    0    0  0.00000000000E+00  0.00000000000E+00  0.14999999963E+04  0.15000000000E+04  0.10566000000E+00 0.  1.
        994   -1    0    0    0    0 -0.00000000000E+00 -0.00000000000E+00  0.11368683772E-12  0.17120000000E+03  0.17120000000E+03 0.  0.
         13    1    1    2    0    0  0.12387592173E+03 -0.26479989932E+03  0.11303720419E+04  0.11675637863E+04  0.10566000000E+00 0.  1.
        994    1    1    2    0    0 -0.12515797660E+03  0.26572891116E+03  0.36531109076E+03  0.49903707915E+03  0.17120000000E+03 0.  0.
        998    1    1    2    0    0  0.12820548678E+01 -0.92901184597E+00  0.43168635961E+01  0.45991345926E+01  0.10000000000E+00 0. -1.
</event>
<event>
 5    1  0.2313627E-009  0.3880316E+03  0.7957747E-01  0.3416916E+00
         13   -1    0    0    0    0  0.00000000000E+00  0.00000000000E+00  0.14999999963E+04  0.15000000000E+04  0.10566000000E+00 0.  1.
        994   -1    0    0    0    0 -0.00000000000E+00 -0.00000000000E+00  0.11368683772E-12  0.17120000000E+03  0.17120000000E+03 0.  0.
         13    1    1    2    0    0  0.12618829718E+03  0.96099664333E+02  0.85667760437E+03  0.87123771775E+03  0.10566000000E+00 0.  1.
        994    1    1    2    0    0 -0.19990879180E+03 -0.13544745633E+03  0.22087717532E+03  0.36933142981E+03  0.17120000000E+03 0.  0.
        998    1    1    2    0    0  0.73720494616E+02  0.39347792001E+02  0.42244521658E+03  0.43063085244E+03  0.10000000000E+00 0.  1.
</event>
<event>
 5    1  0.2313627E-009  0.3882881E+03  0.7957747E-01  0.3415845E+00
         13   -1    0    0    0    0  0.00000000000E+00  0.00000000000E+00  0.14999999963E+04  0.15000000000E+04  0.10566000000E+00 0.  1.
        994   -1    0    0    0    0 -0.00000000000E+00 -0.00000000000E+00  0.11368683772E-12  0.17120000000E+03  0.17120000000E+03 0.  0.
         13    1    1    2    0    0  0.23402650638E+03 -0.66022074258E+02  0.11624807554E+04  0.11876400287E+04  0.10566000000E+00 0.  1.
        994    1    1    2    0    0 -0.24851965883E+03  0.70542931884E+02  0.25989967470E+03  0.40446953775E+03  0.17120000000E+03 0.  0.
        998    1    1    2    0    0  0.14493152444E+02 -0.45208576262E+01  0.77619566183E+02  0.79090433529E+02  0.10000000000E+00 0.  1.
</event>
<event>
 5    1  0.2313627E-009  0.3838971E+03  0.7957747E-01  0.3434363E+00
         13   -1    0    0    0    0  0.00000000000E+00  0.00000000000E+00  0.14999999963E+04  0.15000000000E+04  0.10566000000E+00 0. -1.
        994   -1    0    0    0    0 -0.00000000000E+00 -0.00000000000E+00  0.11368683772E-12  0.17120000000E+03  0.17120000000E+03 0.  0.
         13    1    1    2    0    0 -0.49341808240E+01 -0.17341303369E+02  0.81320319224E+02  0.83295092446E+02  0.10566000000E+00 0. -1.
        994    1    1    2    0    0  0.37355971353E+02 -0.14762885812E+02  0.75219679097E+01  0.17600974801E+03  0.17120000000E+03 0.  0.
        998    1    1    2    0    0 -0.32421790529E+02  0.32104189181E+02  0.14111577091E+04  0.14118951595E+04  0.10000000000E+00 0. -1.
</event>
<event>
 5    1  0.2313627E-009  0.3882987E+03  0.7957747E-01  0.3415801E+00
         13   -1    0    0    0    0  0.00000000000E+00  0.00000000000E+00  0.14999999963E+04  0.15000000000E+04  0.10566000000E+00 0. -1.
        994   -1    0    0    0    0 -0.00000000000E+00 -0.00000000000E+00  0.11368683772E-12  0.17120000000E+03  0.17120000000E+03 0.  0.
         13    1    1    2    0    0  0.29782569272E+03 -0.80005069405E+02  0.85769318335E+03  0.91144860651E+03  0.10566000000E+00 0. -1.
        994    1    1    2    0    0 -0.32328409189E+03  0.86302844991E+02  0.56935053650E+03  0.68222449277E+03  0.17120000000E+03 0.  0.
        998    1    1    2    0    0  0.25458399171E+02 -0.62977755859E+01  0.72956276426E+02  0.77526900723E+02  0.10000000000E+00 0. -1.
</event>
<event>
 5    1  0.2313627E-009  0.3882050E+03  0.7957747E-01  0.3416192E+00
         13   -1    0    0    0    0  0.00000000000E+00  0.00000000000E+00  0.14999999963E+04  0.15000000000E+04  0.10566000000E+00 0.  1.
        994   -1    0    0    0    0 -0.00000000000E+00 -0.00000000000E+00  0.11368683772E-12  0.17120000000E+03  0.17120000000E+03 0.  0.
         13    1    1    2    0    0 -0.10301947093E+02  0.26325890051E+03  0.12214413569E+04  0.12495320638E+04  0.10566000000E+00 0.  1.
        994    1    1    2    0    0  0.96975377186E+01 -0.26396329259E+03  0.27496288466E+03  0.41795297585E+03  0.17120000000E+03 0.  0.
        998    1    1    2    0    0  0.60440937419E+00  0.70439208795E+00  0.35957546751E+01  0.37149603751E+01  0.10000000000E+00 0. -1.
</event>
<event>
 5    1  0.2313627E-009  0.3882038E+03  0.7957747E-01  0.3416197E+00
         13   -1    0    0    0    0  0.00000000000E+00  0.00000000000E+00  0.14999999963E+04  0.15000000000E+04  0.10566000000E+00 0. -1.
        994   -1    0    0    0    0 -0.00000000000E+00 -0.00000000000E+00  0.11368683772E-12  0.17120000000E+03  0.17120000000E+03 0.  0.
         13    1    1    2    0    0  0.19254887107E+03  0.15294746547E+03  0.11638558004E+04  0.11895496333E+04  0.10566000000E+00 0. -1.
        994    1    1    2    0    0 -0.20226595798E+03 -0.16441524157E+03  0.26592616747E+03  0.40984150103E+03  0.17120000000E+03 0.  0.
        998    1    1    2    0    0  0.97170869162E+01  0.11467776103E+02  0.70218028429E+02  0.71808865632E+02  0.10000000000E+00 0.  1.
</event>
<event>
 5    1  0.2313627E-009  0.3882901E+03  0.7957747E-01  0.3415837E+00
         13   -1    0    0    0    0  0.00000000000E+00  0.00000000000E+00  0.14999999963E+04  0.15000000000E+04  0.10566000000E+00 0.  1.
        994   -1    0    0    0    0 -0.00000000000E+00 -0.00000000000E+00  0.11368683772E-12  0.17120000000E+03  0.17120000000E+03 0.  0.
         13    1    1    2    0    0  0.10749421378E+03  0.24100024235E+03  0.12219413427E+04  0.12501107067E+04  0.10566000000E+00 0.  1.
        994    1    1    2    0    0 -0.10757892098E+03 -0.24147922242E+03  0.27537908636E+03  0.41836410016E+03  0.17120000000E+03 0.  0.
        998    1    1    2    0    0  0.84707200309E-01  0.47898007298E+00  0.26795672288E+01  0.27251931590E+01  0.10000000000E+00 0.  0.
</event>
<event>
 5    1  0.2313627E-009  0.3883006E+03  0.7957747E-01  0.3415794E+00
         13   -1    0    0    0    0  0.00000000000E+00  0.00000000000E+00  0.14999999963E+04  0.15000000000E+04  0.10566000000E+00 0.  1.
        994   -1    0    0    0    0 -0.00000000000E+00 -0.00000000000E+00  0.11368683772E-12  0.17120000000E+03  0.17120000000E+03 0.  0.
         13    1    1    2    0    0 -0.13386870579E+03 -0.10299495853E+02  0.80657572508E+03  0.81767433704E+03  0.10566000000E+00 0.  1.
        994    1    1    2    0    0  0.21902177499E+03  0.16970565795E+02  0.17679998532E+03  0.32988818232E+03  0.17120000000E+03 0.  0.
        998    1    1    2    0    0 -0.85153069200E+02 -0.66710699417E+01  0.51662428588E+03  0.52363748064E+03  0.10000000000E+00 0. -1.
</event>
<event>
 5    1  0.2313627E-009  0.3883001E+03  0.7957747E-01  0.3415796E+00
         13   -1    0    0    0    0  0.00000000000E+00  0.00000000000E+00  0.14999999963E+04  0.15000000000E+04  0.10566000000E+00 0. -1.
        994   -1    0    0    0    0 -0.00000000000E+00 -0.00000000000E+00  0.11368683772E-12  0.17120000000E+03  0.17120000000E+03 0.  0.
         13    1    1    2    0    0 -0.25928608106E+03 -0.50978334719E+02  0.12098379183E+04  0.12383601505E+04  0.10566000000E+00 0. -1.
        994    1    1    2    0    0  0.26133468679E+03  0.51355699773E+02  0.28061955272E+03  0.42307209763E+03  0.17120000000E+03 0.  0.
        998    1    1    2    0    0 -0.20486057334E+01 -0.37736505358E+00  0.95425252240E+01  0.97677519157E+01  0.10000000000E+00 0.  0.
</event>
<event>
 5    1  0.2313627E-009  0.3881623E+03  0.7957747E-01  0.3416370E+00
         13   -1    0    0    0    0  0.00000000000E+00  0.00000000000E+00  0.14999999963E+04  0.15000000000E+04  0.10566000000E+00 0. -1.
        994   -1    0    0    0    0 -0.00000000000E+00 -0.00000000000E+00  0.11368683772E-12  0.17120000000E+03  0.17120000000E+03 0.  0.
         13    1    1    2    0    0 -0.26591862024E+02  0.19785714792E+03  0.10783406957E+04  0.10966646002E+04  0.10566000000E+00 0. -1.
        994    1    1    2    0    0  0.31358666569E+02 -0.24054089594E+03  0.22310054431E+03  0.37138468124E+03  0.17120000000E+03 0.  0.
        998    1    1    2    0    0 -0.47668045444E+01  0.42683748026E+02  0.19855875626E+03  0.20315071857E+03  0.10000000000E+00 0.  1.
</event>
<event>
 5    1  0.2313627E-009  0.3869467E+03  0.7957747E-01  0.3421458E+00
         13   -1    0    0    0    0  0.00000000000E+00  0.00000000000E+00  0.14999999963E+04  0.15000000000E+04  0.10566000000E+00 0.  1.
        994   -1    0    0    0    0 -0.00000000000E+00 -0.00000000000E+00  0.11368683772E-12  0.17120000000E+03  0.17120000000E+03 0.  0.
         13    1    1    2    0    0 -0.11162438979E+03  0.22826640920E+03  0.11441833459E+04  0.11720584875E+04  0.10566000000E+00 0.  1.
        994    1    1    2    0    0  0.10912914682E+03 -0.24684855153E+03  0.29301874999E+03  0.43360443485E+03  0.17120000000E+03 0.  0.
        998    1    1    2    0    0  0.24952429645E+01  0.18582142330E+02  0.62797900421E+02  0.65537077660E+02  0.10000000000E+00 0.  1.
</event>
<event>
 5    1  0.2313627E-009  0.3791601E+03  0.7957747E-01  0.3454824E+00
         13   -1    0    0    0    0  0.00000000000E+00  0.00000000000E+00  0.14999999963E+04  0.15000000000E+04  0.10566000000E+00 0. -1.
        994   -1    0    0    0    0 -0.00000000000E+00 -0.00000000000E+00  0.11368683772E-12  0.17120000000E+03  0.17120000000E+03 0.  0.
         13    1    1    2    0    0 -0.23152051863E+03  0.10615790973E+02  0.12266953174E+04  0.12483973160E+04  0.10566000000E+00 0. -1.
        994    1    1    2    0    0  0.24141384901E+03 -0.26882514865E+02  0.23094856465E+03  0.37636417951E+03  0.17120000000E+03 0.  0.
        998    1    1    2    0    0 -0.98933303825E+01  0.16266723892E+02  0.42356114208E+02  0.46438504531E+02  0.10000000000E+00 0.  1.
</event>
<event>
 5    1  0.2313627E-009  0.3857007E+03  0.7957747E-01  0.3426706E+00
         13   -1    0    0    0    0  0.00000000000E+00  0.00000000000E+00  0.14999999963E+04  0.15000000000E+04  0.10566000000E+00 0. -1.
        994   -1    0    0    0    0 -0.00000000000E+00 -0.00000000000E+00  0.11368683772E-12  0.17120000000E+03  0.17120000000E+03 0.  0.
         13    1    1    2    0    0  0.35666826088E+02 -0.90393092151E+01  0.18088407004E+03  0.18458843288E+03  0.10566000000E+00 0. -1.
        994    1    1    2    0    0 -0.11860902440E+03  0.67328741190E+02  0.64898158027E+02  0.22830346247E+03  0.17120000000E+03 0.  0.
        998    1    1    2    0    0  0.82942198312E+02 -0.58289431975E+02  0.12542177682E+04  0.12583081047E+04  0.10000000000E+00 0. -1.
</event>
<event>
 5    1  0.2313627E-009  0.3882969E+03  0.7957747E-01  0.3415809E+00
         13   -1    0    0    0    0  0.00000000000E+00  0.00000000000E+00  0.14999999963E+04  0.15000000000E+04  0.10566000000E+00 0.  1.
        994   -1    0    0    0    0 -0.00000000000E+00 -0.00000000000E+00  0.11368683772E-12  0.17120000000E+03  0.17120000000E+03 0.  0.
         13    1    1    2    0    0 -0.19489614206E+03  0.60876750817E+02  0.11585168408E+04  0.11763722908E+04  0.10566000000E+00 0.  1.
        994    1    1    2    0    0  0.21890493177E+03 -0.67969462911E+02  0.19501677600E+03  0.34623720188E+03  0.17120000000E+03 0.  0.
        998    1    1    2    0    0 -0.24008789713E+02  0.70927120945E+01  0.14646637947E+03  0.14859050731E+03  0.10000000000E+00 0.  1.
</event>
<event>
 5    1  0.2313627E-009  0.3814352E+03  0.7957747E-01  0.3444933E+00
         13   -1    0    0    0    0  0.00000000000E+00  0.00000000000E+00  0.14999999963E+04  0.15000000000E+04  0.10566000000E+00 0. -1.
        994   -1    0    0    0    0 -0.00000000000E+00 -0.00000000000E+00  0.11368683772E-12  0.17120000000E+03  0.17120000000E+03 0.  0.
         13    1    1    2    0    0 -0.86960648508E+02  0.28825444427E+02  0.35282690567E+03  0.36452694985E+03  0.10566000000E+00 0. -1.
        994    1    1    2    0    0  0.16436429552E+03 -0.16680497519E+03  0.21475305890E+03  0.36092636049E+03  0.17120000000E+03 0.  0.
        998    1    1    2    0    0 -0.77403647012E+02  0.13797953076E+03  0.93242003170E+03  0.94574668966E+03  0.10000000000E+00 0. -1.
</event>
<event>
 5    1  0.2313627E-009  0.3882995E+03  0.7957747E-01  0.3415798E+00
         13   -1    0    0    0    0  0.00000000000E+00  0.00000000000E+00  0.14999999963E+04  0.15000000000E+04  0.10566000000E+00 0. -1.
        994   -1    0    0    0    0 -0.00000000000E+00 -0.00000000000E+00  0.11368683772E-12  0.17120000000E+03  0.17120000000E+03 0.  0.
         13    1    1    2    0    0 -0.21890005972E+03 -0.60042103227E+02  0.12986159994E+04  0.13183041438E+04  0.10566000000E+00 0. -1.
        994    1    1    2    0    0  0.22020685636E+03  0.60436709389E+02  0.19330715719E+03  0.34470386196E+03  0.17120000000E+03 0.  0.
        998    1    1    2    0    0 -0.13067966378E+01 -0.39460616197E+00  0.80768396544E+01  0.81919942797E+01  0.10000000000E+00 0.  0.
</event>
<event>
 5    1  0.2313627E-009  0.3882994E+03  0.7957747E-01  0.3415799E+00
         13   -1    0    0    0    0  0.00000000000E+00  0.00000000000E+00  0.14999999963E+04  0.15000000000E+04  0.10566000000E+00 0.  1.
        994   -1    0    0    0    0 -0.00000000000E+00 -0.00000000000E+00  0.11368683772E-12  0.17120000000E+03  0.17120000000E+03 0.  0.
         13    1    1    2    0    0 -0.13043093795E+03  0.20934848385E+03  0.12536999629E+04  0.12777333937E+04  0.10566000000E+00 0.  1.
        994    1    1    2    0    0  0.13142713865E+03 -0.21106548071E+03  0.23655903067E+03  0.38352489477E+03  0.17120000000E+03 0.  0.
        998    1    1    2    0    0 -0.99620069897E+00  0.17169968563E+01  0.97410027115E+01  0.99417115158E+01  0.10000000000E+00 0. -1.
</event>
<event>
 5    1  0.2313627E-009  0.3838517E+03  0.7957747E-01  0.3434557E+00
         13   -1    0    0    0    0  0.00000000000E+00  0.00000000000E+00  0.14999999963E+04  0.15000000000E+04  0.10566000000E+00 0. -1.
        994   -1    0    0    0    0 -0.00000000000E+00 -0.00000000000E+00  0.11368683772E-12  0.17120000000E+03  0.17120000000E+03 0.  0.
         13    1    1    2    0    0 -0.70912711185E+01  0.78533533584E+01  0.29660986406E+02  0.31492007933E+02  0.10566000000E+00 0. -1.
        994    1    1    2    0    0 -0.79945125212E+02 -0.16692728755E+02  0.24538118913E+02  0.19126272381E+03  0.17120000000E+03 0.  0.
        998    1    1    2    0    0  0.87036396330E+02  0.88393753969E+01  0.14458008910E+04  0.14484452683E+04  0.10000000000E+00 0. -1.
</event>
<event>
 5    1  0.2313627E-009  0.3872656E+03  0.7957747E-01  0.3420120E+00
         13   -1    0    0    0    0  0.00000000000E+00  0.00000000000E+00  0.14999999963E+04  0.15000000000E+04  0.10566000000E+00 0.  1.
        994   -1    0    0    0    0 -0.00000000000E+00 -0.00000000000E+00  0.11368683772E-12  0.17120000000E+03  0.17120000000E+03 0.  0.
         13    1    1    2    0    0 -0.10470014394E+03 -0.22305696615E+03  0.12667157073E+04  0.12904593076E+04  0.10566000000E+00 0.  1.
        994    1    1    2    0    0  0.10290329961E+03  0.22242757333E+03  0.23126021172E+03  0.37796010368E+03  0.17120000000E+03 0.  0.
        998    1    1    2    0    0  0.17968443250E+01  0.62939281871E+00  0.20240772512E+01  0.27805887088E+01  0.10000000000E+00 0. -1.
</event>
<event>
 5    1  0.2313627E-009  0.3883008E+03  0.7957747E-01  0.3415793E+00
         13   -1    0    0    0    0  0.00000000000E+00  0.00000000000E+00  0.14999999963E+04  0.15000000000E+04  0.10566000000E+00 0. -1.
        994   -1    0    0    0    0 -0.00000000000E+00 -0.00000000000E+00  0.11368683772E-12  0.17120000000E+03  0.17120000000E+03 0.  0.
         13    1    1    2    0    0 -0.15372676485E+03  0.11074931974E+03  0.88224798288E+03  0.90236292284E+03  0.10566000000E+00 0. -1.
        994    1    1    2    0    0  0.21365378115E+03 -0.15426441046E+03  0.27316710582E+03  0.41638342215E+03  0.17120000000E+03 0.  0.
        998    1    1    2    0    0 -0.59927016300E+02  0.43515090721E+02  0.34458490757E+03  0.35245365501E+03  0.10000000000E+00 0.  1.
</event>
<event>
 5    1  0.2313627E-009  0.3883004E+03  0.7957747E-01  0.3415795E+00
         13   -1    0    0    0    0  0.00000000000E+00  0.00000000000E+00  0.14999999963E+04  0.15000000000E+04  0.10566000000E+00 0.  1.
        994   -1    0    0    0    0 -0.00000000000E+00 -0.00000000000E+00  0.11368683772E-12  0.17120000000E+03  0.17120000000E+03 0.  0.
         13    1    1    2    0    0 -0.19304661321E+02 -0.22685893111E+03  0.12473140433E+04  0.12679234907E+04  0.10566000000E+00 0.  1.
        994    1    1    2    0    0  0.19924549544E+02  0.23502663781E+03  0.20853598443E+03  0.35837299697E+03  0.17120000000E+03 0.  0.
        998    1    1    2    0    0 -0.61988822308E+00 -0.81677067015E+01  0.44149968573E+02  0.44903512326E+02  0.10000000000E+00 0. -1.
</event>
<event>
 5    1  0.2313627E-009  0.3881712E+03  0.7957747E-01  0.3416333E+00
         13   -1    0    0    0    0  0.00000000000E+00  0.00000000000E+00  0.14999999963E+04  0.15000000000E+04  0.10566000000E+00 0.  1.
        994   -1    0    0    0    0 -0.00000000000E+00 -0.00000000000E+00  0.11368683772E-12  0.17120000000E+03  0.17120000000E+03 0.  0.
         13    1    1    2    0    0 -0.85728470688E+02  0.24977294798E+03  0.12083956918E+04  0.12369139240E+04  0.10566000000E+00 0.  1.
        994    1    1    2    0    0  0.86396648398E+02 -0.25103530001E+03  0.27859420368E+03  0.42119742762E+03  0.17120000000E+03 0.  0.
        998    1    1    2    0    0 -0.66817771077E+00  0.12623520323E+01  0.13010100809E+02  0.13088648409E+02  0.10000000000E+00 0. -1.
</event>
<event>
 5    1  0.2313627E-009  0.3882933E+03  0.7957747E-01  0.3415824E+00
         13   -1    0    0    0    0  0.00000000000E+00  0.00000000000E+00  0.14999999963E+04  0.15000000000E+04  0.10566000000E+00 0.  1.
        994   -1    0    0    0    0 -0.00000000000E+00 -0.00000000000E+00  0.11368683772E-12  0.17120000000E+03  0.17120000000E+03 0.  0.
         13    1    1    2    0    0  0.32496304332E-01  0.25914629743E+03  0.12322954830E+04  0.12592493689E+04  0.10566000000E+00 0.  1.
        994    1    1    2    0    0 -0.89241389290E-01 -0.25983703758E+03  0.26367090154E+03  0.40785668854E+03  0.17120000000E+03 0.  0.
        998    1    1    2    0    0  0.56745084958E-01  0.69074014909E+00  0.40336117231E+01  0.40939425364E+01  0.10000000000E+00 0.  0.
</event>
<event>
 5    1  0.2313627E-009  0.3879652E+03  0.7957747E-01  0.3417193E+00
         13   -1    0    0    0    0  0.00000000000E+00  0.00000000000E+00  0.14999999963E+04  0.15000000000E+04  0.10566000000E+00 0.  1.
        994   -1    0    0    0    0 -0.00000000000E+00 -0.00000000000E+00  0.11368683772E-12  0.17120000000E+03  0.17120000000E+03 0.  0.
         13    1    1    2    0    0  0.25623840833E+03 -0.88649692355E+02  0.11194708920E+04  0.11518385213E+04  0.10566000000E+00 0.  1.
        994    1    1    2    0    0 -0.26463666483E+03  0.95467855456E+02  0.32464419011E+03  0.46243914840E+03  0.17120000000E+03 0.  0.
        998    1    1    2    0    0  0.83982564967E+01 -0.68181631011E+01  0.55884914123E+02  0.56922330301E+02  0.10000000000E+00 0. -1.
</event>
<event>
 5    1  0.2313627E-009  0.3882643E+03  0.7957747E-01  0.3415945E+00
         13   -1    0    0    0    0  0.00000000000E+00  0.00000000000E+00  0.14999999963E+04  0.15000000000E+04  0.10566000000E+00 0.  1.
        994   -1    0    0    0    0 -0.00000000000E+00 -0.00000000000E+00  0.11368683772E-12  0.17120000000E+03  0.17120000000E+03 0.  0.
         13    1    1    2    0    0  0.22083647710E+03 -0.15869516328E+03  0.95142707849E+03  0.98952837318E+03  0.10566000000E+00 0.  1.
        994    1    1    2    0    0 -0.24844531986E+03  0.18161146052E+03  0.41958061391E+03  0.54778201059E+03  0.17120000000E+03 0.  0.
        998    1    1    2    0    0  0.27608842763E+02 -0.22916297240E+02  0.12899230387E+03  0.13388961624E+03  0.10000000000E+00 0. -1.
</event>
<event>
 5    1  0.2313627E-009  0.3882986E+03  0.7957747E-01  0.3415802E+00
         13   -1    0    0    0    0  0.00000000000E+00  0.00000000000E+00  0.14999999963E+04  0.15000000000E+04  0.10566000000E+00 0. -1.
        994   -1    0    0    0    0 -0.00000000000E+00 -0.00000000000E+00  0.11368683772E-12  0.17120000000E+03  0.17120000000E+03 0.  0.
         13    1    1    2    0    0  0.15378345805E+03  0.30312192353E+03  0.86572278178E+03  0.93005816945E+03  0.10566000000E+00 0. -1.
        994    1    1    2    0    0 -0.15441939440E+03 -0.30437678048E+03  0.63049378710E+03  0.73710408318E+03  0.17120000000E+03 0.  0.
        998    1    1    2    0    0  0.63593635163E+00  0.12548569565E+01  0.37834273938E+01  0.40377473756E+01  0.10000000000E+00 0.  0.
</event>
<event>
 5    1  0.2313627E-009  0.3781605E+03  0.7957747E-01  0.3459207E+00
         13   -1    0    0    0    0  0.00000000000E+00  0.00000000000E+00  0.14999999963E+04  0.15000000000E+04  0.10566000000E+00 0. -1.
        994   -1    0    0    0    0 -0.00000000000E+00 -0.00000000000E+00  0.11368683772E-12  0.17120000000E+03  0.17120000000E+03 0.  0.
         13    1    1    2    0    0  0.14994830106E+03 -0.10248464686E+02  0.75810083745E+03  0.77285601177E+03  0.10566000000E+00 0. -1.
        994    1    1    2    0    0 -0.23065147572E+03  0.11230927662E+03  0.27353589918E+03  0.41224362336E+03  0.17120000000E+03 0.  0.
        998    1    1    2    0    0  0.80703174651E+02 -0.10206081194E+03  0.46836325965E+03  0.48610036487E+03  0.10000000000E+00 0. -1.
</event>
<event>
 5    1  0.2313627E-009  0.3882998E+03  0.7957747E-01  0.3415797E+00
         13   -1    0    0    0    0  0.00000000000E+00  0.00000000000E+00  0.14999999963E+04  0.15000000000E+04  0.10566000000E+00 0. -1.
        994   -1    0    0    0    0 -0.00000000000E+00 -0.00000000000E+00  0.11368683772E-12  0.17120000000E+03  0.17120000000E+03 0.  0.
         13    1    1    2    0    0 -0.16325000240E+03 -0.19779341957E+03  0.10752346190E+04  0.11053968958E+04  0.10566000000E+00 0. -1.
        994    1    1    2    0    0  0.17889365529E+03  0.21681649031E+03  0.32315118517E+03  0.46124663559E+03  0.17120000000E+03 0.  0.
        998    1    1    2    0    0 -0.15643652886E+02 -0.19023070734E+02  0.10161419209E+03  0.10455646862E+03  0.10000000000E+00 0.  1.
</event>
<event>
 5    1  0.2313627E-009  0.3882898E+03  0.7957747E-01  0.3415839E+00
         13   -1    0    0    0    0  0.00000000000E+00  0.00000000000E+00  0.14999999963E+04  0.15000000000E+04  0.10566000000E+00 0.  1.
        994   -1    0    0    0    0 -0.00000000000E+00 -0.00000000000E+00  0.11368683772E-12  0.17120000000E+03  0.17120000000E+03 0.  0.
         13    1    1    2    0    0  0.85934967670E+02  0.33571642043E+03  0.68973772064E+03  0.77189926030E+03  0.10566000000E+00 0.  1.
        994    1    1    2    0    0 -0.86384590934E+02 -0.33756713275E+03  0.80579236836E+03  0.89444096931E+03  0.17120000000E+03 0.  0.
        998    1    1    2    0    0  0.44962326360E+00  0.18507123243E+01  0.44699072833E+01  0.48597703966E+01  0.10000000000E+00 0.  1.
</event>
<event>
 5    1  0.2313627E-009  0.3882990E+03  0.7957747E-01  0.3415800E+00
         13   -1    0    0    0    0  0.00000000000E+00  0.00000000000E+00  0.14999999963E+04  0.15000000000E+04  0.10566000000E+00 0.  1.
        994   -1    0    0    0    0 -0.00000000000E+00 -0.00000000000E+00  0.11368683772E-12  0.17120000000E+03  0.17120000000E+03 0.  0.
         13    1    1    2    0    0  0.26997772302E+02  0.21489048260E+03  0.75845810216E+03  0.78877468463E+03  0.10566000000E+00 0.  1.
        994    1    1    2    0    0 -0.37328065717E+02 -0.30575628978E+03  0.42066186092E+03  0.54876783294E+03  0.17120000000E+03 0.  0.
        998    1    1    2    0    0  0.10330293414E+02  0.90865807186E+02  0.32088003320E+03  0.33365748244E+03  0.10000000000E+00 0. -1.
</event>
<event>
 5    1  0.2313627E-009  0.3883009E+03  0.7957747E-01  0.3415792E+00
         13   -1    0    0    0    0  0.00000000000E+00  0.00000000000E+00  0.14999999963E+04  0.15000000000E+04  0.10566000000E+00 0. -1.
        994   -1    0    0    0    0 -0.00000000000E+00 -0.00000000000E+00  0.11368683772E-12  0.17120000000E+03  0.17120000000E+03 0.  0.
         13    1    1    2    0    0  0.32194332892E+01  0.16584389684E+03  0.91091529029E+03  0.92589483211E+03  0.10566000000E+00 0. -1.
        994    1    1    2    0    0 -0.44253639267E+01 -0.23522524659E+03  0.20728129677E+03  0.35724708042E+03  0.17120000000E+03 0.  0.
        998    1    1    2    0    0  0.12059306375E+01  0.69381349745E+02  0.38180340922E+03  0.38805808748E+03  0.10000000000E+00 0. -1.
</event>
<event>
 5    1  0.2313627E-009  0.3882453E+03  0.7957747E-01  0.3416024E+00
         13   -1    0    0    0    0  0.00000000000E+00  0.00000000000E+00  0.14999999963E+04  0.15000000000E+04  0.10566000000E+00 0.  1.
        994   -1    0    0    0    0 -0.00000000000E+00 -0.00000000000E+00  0.11368683772E-12  0.17120000000E+03  0.17120000000E+03 0.  0.
         13    1    1    2    0    0  0.21187781287E+03  0.49748939954E+02  0.13128487254E+04  0.13307663024E+04  0.10566000000E+00 0.  1.
        994    1    1    2    0    0 -0.21294128980E+03 -0.50169954220E+02  0.17520309186E+03  0.32843048063E+03  0.17120000000E+03 0.  0.
        998    1    1    2    0    0  0.10634769333E+01  0.42101426598E+00  0.11948179005E+02  0.12003216974E+02  0.10000000000E+00 0.  1.
</event>
<event>
 5    1  0.2313627E-009  0.3882827E+03  0.7957747E-01  0.3415868E+00
         13   -1    0    0    0    0  0.00000000000E+00  0.00000000000E+00  0.14999999963E+04  0.15000000000E+04  0.10566000000E+00 0.  1.
        994   -1    0    0    0    0 -0.00000000000E+00 -0.00000000000E+00  0.11368683772E-12  0.17120000000E+03  0.17120000000E+03 0.  0.
         13    1    1    2    0    0 -0.80149555871E+02  0.23358774617E+03  0.11951060632E+04  0.12203547435E+04  0.10566000000E+00 0.  1.
        994    1    1    2    0    0  0.83198447937E+02 -0.24236272606E+03  0.25471478309E+03  0.39981337327E+03  0.17120000000E+03 0.  0.
        998    1    1    2    0    0 -0.30488920655E+01  0.87749798856E+01  0.50179149988E+02  0.51031883253E+02  0.10000000000E+00 0.  1.
</event>
<event>
 5    1  0.2313627E-009  0.3882839E+03  0.7957747E-01  0.3415863E+00
         13   -1    0    0    0    0  0.00000000000E+00  0.00000000000E+00  0.14999999963E+04  0.15000000000E+04  0.10566000000E+00 0. -1.
        994   -1    0    0    0    0 -0.00000000000E+00 -0.00000000000E+00  0.11368683772E-12  0.17120000000E+03  0.17120000000E+03 0.  0.
         13    1    1    2    0    0  0.26191228973E+03  0.59233467682E+02  0.11164964713E+04  0.11483340250E+04  0.10566000000E+00 0. -1.
        994    1    1    2    0    0 -0.27591870799E+03 -0.61786146993E+02  0.32836988797E+03  0.46592368978E+03  0.17120000000E+03 0.  0.
        998    1    1    2    0    0  0.14006418260E+02  0.25526793108E+01  0.55133636974E+02  0.56942285255E+02  0.10000000000E+00 0.  1.
</event>
<event>
 5    1  0.2313627E-009  0.3876997E+03  0.7957747E-01  0.3418303E+00
         13   -1    0    0    0    0  0.00000000000E+00  0.00000000000E+00  0.14999999963E+04  0.15000000000E+04  0.10566000000E+00 0.  1.
        994   -1    0    0    0    0 -0.00000000000E+00 -0.00000000000E+00  0.11368683772E-12  0.17120000000E+03  0.17120000000E+03 0.  0.
         13    1    1    2    0    0  0.17039925496E+03 -0.15437789011E+03  0.11856562535E+04  0.12077455037E+04  0.10566000000E+00 0.  1.
        994    1    1    2    0    0 -0.17624901599E+03  0.16347964667E+03  0.21901506230E+03  0.36751373856E+03  0.17120000000E+03 0.  0.
        998    1    1    2    0    0  0.58497610375E+01 -0.91017565595E+01  0.95328680488E+02  0.95940757764E+02  0.10000000000E+00 0. -1.
</event>
<event>
 5    1  0.2313627E-009  0.3883007E+03  0.7957747E-01  0.3415793E+00
         13   -1    0    0    0    0  0.00000000000E+00  0.00000000000E+00  0.14999999963E+04  0.15000000000E+04  0.10566000000E+00 0.  1.
        994   -1    0    0    0    0 -0.00000000000E+00 -0.00000000000E+00  0.11368683772E-12  0.17120000000E+03  0.17120000000E+03 0.  0.
         13    1    1    2    0    0  0.13548095994E+03  0.11516613197E+03  0.10065183734E+04  0.10221044837E+04  0.10566000000E+00 0.  1.
        994    1    1    2    0    0 -0.17510580899E+03 -0.14916059235E+03  0.19661957308E+03  0.34767747003E+03  0.17120000000E+03 0.  0.
        998    1    1    2    0    0  0.39624849049E+02  0.33994460381E+02  0.29686204980E+03  0.30141804626E+03  0.10000000000E+00 0.  1.
</event>
<event>
 5    1  0.2313627E-009  0.3882815E+03  0.7957747E-01  0.3415873E+00
         13   -1    0    0    0    0  0.00000000000E+00  0.00000000000E+00  0.14999999963E+04  0.15000000000E+04  0.10566000000E+00 0. -1.
        994   -1    0    0    0    0 -0.00000000000E+00 -0.00000000000E+00  0.11368683772E-12  0.17120000000E+03  0.17120000000E+03 0.  0.
         13    1    1    2    0    0  0.24578636348E+03 -0.10396947476E+03  0.11203859726E+04  0.11517314474E+04  0.10566000000E+00 0. -1.
        994    1    1    2    0    0 -0.25825202143E+03  0.11047258662E+03  0.32256497069E+03  0.46071238238E+03  0.17120000000E+03 0.  0.
        998    1    1    2    0    0  0.12465657949E+02 -0.65031118623E+01  0.57049053017E+02  0.58756170248E+02  0.10000000000E+00 0. -1.
</event>
<event>
 5    1  0.2313627E-009  0.3877938E+03  0.7957747E-01  0.3417909E+00
         13   -1    0    0    0    0  0.00000000000E+00  0.00000000000E+00  0.14999999963E+04  0.15000000000E+04  0.10566000000E+00 0.  1.
        994   -1    0    0    0    0 -0.00000000000E+00 -0.00000000000E+00  0.11368683772E-12  0.17120000000E+03  0.17120000000E+03 0.  0.
         13    1    1    2    0    0  0.13461167629E+03  0.14596463276E+03  0.11039768858E+04  0.11216911130E+04  0.10566000000E+00 0.  1.
        994    1    1    2    0    0 -0.14762470731E+03 -0.17427814402E+03  0.19406674572E+03  0.34516266815E+03  0.17120000000E+03 0.  0.
        998    1    1    2    0    0  0.13013031021E+02  0.28313511259E+02  0.20195636475E+03  0.20434621885E+03  0.10000000000E+00 0. -1.
</event>
<event>
 5    1  0.2313627E-009  0.3883007E+03  0.7957747E-01  0.3415793E+00
         13   -1    0    0    0    0  0.00000000000E+00  0.00000000000E+00  0.14999999963E+04  0.15000000000E+04  0.10566000000E+00 0.  1.
        994   -1    0    0    0    0 -0.00000000000E+00 -0.00000000000E+00  0.11368683772E-12  0.17120000000E+03  0.17120000000E+03 0.  0.
         13    1    1    2    0    0 -0.18433386905E+03 -0.58038808071E+01  0.36359739759E+03  0.40769564507E+03  0.10566000000E+00 0.  1.
        994    1    1    2    0    0  0.34820326204E+03  0.11428748561E+02  0.81222437686E+03  0.90021886581E+03  0.17120000000E+03 0.  0.
        998    1    1    2    0    0 -0.16386939299E+03 -0.56248677542E+01  0.32417822183E+03  0.36328548912E+03  0.10000000000E+00 0.  1.
</event>
<event>
 5    1  0.2313627E-009  0.3883006E+03  0.7957747E-01  0.3415794E+00
         13   -1    0    0    0    0  0.00000000000E+00  0.00000000000E+00  0.14999999963E+04  0.15000000000E+04  0.10566000000E+00 0.  1.
        994   -1    0    0    0    0 -0.00000000000E+00 -0.00000000000E+00  0.11368683772E-12  0.17120000000E+03  0.17120000000E+03 0.  0.
         13    1    1    2    0    0  0.20120695005E+03  0.10068523633E+02  0.11191311501E+04  0.11371192348E+04  0.10566000000E+00 0.  1.
        994    1    1    2    0    0 -0.23331560784E+03 -0.11725499876E+02  0.20386558020E+03  0.35418113304E+03  0.17120000000E+03 0.  0.
        998    1    1    2    0    0  0.32108657790E+02  0.16569762435E+01  0.17700326600E+03  0.17989963215E+03  0.10000000000E+00 0.  1.
</event>
<event>
 5    1  0.2313627E-009  0.3883005E+03  0.7957747E-01  0.3415794E+00
         13   -1    0    0    0    0  0.00000000000E+00  0.00000000000E+00  0.14999999963E+04  0.15000000000E+04  0.10566000000E+00 0. -1.
        994   -1    0    0    0    0 -0.00000000000E+00 -0.00000000000E+00  0.11368683772E-12  0.17120000000E+03  0.17120000000E+03 0.  0.
         13    1    1    2    0    0  0.18022444420E+03  0.13070009219E+03  0.12576836101E+04  0.12772358587E+04  0.10566000000E+00 0. -1.
        994    1    1    2    0    0 -0.18671549996E+03 -0.13535869306E+03  0.19780655388E+03  0.34874277981E+03  0.17120000000E+03 0.  0.
        998    1    1    2    0    0  0.64910557584E+01  0.46586008673E+01  0.44509832285E+02  0.45221361511E+02  0.10000000000E+00 0.  0.
</event>
<event>
 5    1  0.2313627E-009  0.3882879E+03  0.7957747E-01  0.3415846E+00
         13   -1    0    0    0    0  0.00000000000E+00  0.00000000000E+00  0.14999999963E+04  0.15000000000E+04  0.10566000000E+00 0. -1.
        994   -1    0    0    0    0 -0.00000000000E+00 -0.00000000000E+00  0.11368683772E-12  0.17120000000E+03  0.17120000000E+03 0.  0.
         13    1    1    2    0    0  0.25404743041E+03 -0.10054560254E+03  0.11909718927E+04  0.12219098066E+04  0.10566000000E+00 0. -1.
        994    1    1    2    0    0 -0.25520980993E+03  0.10076929493E+03  0.30310035492E+03  0.44324458603E+03  0.17120000000E+03 0.  0.
        998    1    1    2    0    0  0.11623795250E+01 -0.22369238739E+00  0.59277486106E+01  0.60456073338E+01  0.10000000000E+00 0. -1.
</event>
<event>
 5    1  0.2313627E-009  0.3882034E+03  0.7957747E-01  0.3416199E+00
         13   -1    0    0    0    0  0.00000000000E+00  0.00000000000E+00  0.14999999963E+04  0.15000000000E+04  0.10566000000E+00 0.  1.
        994   -1    0    0    0    0 -0.00000000000E+00 -0.00000000000E+00  0.11368683772E-12  0.17120000000E+03  0.17120000000E+03 0.  0.
         13    1    1    2    0    0 -0.79340861816E+02  0.31791012338E+03  0.88902995775E+03  0.94748936450E+03  0.10566000000E+00 0.  1.
        994    1    1    2    0    0  0.83247964390E+02 -0.32640601494E+03  0.58842407963E+03  0.69930211472E+03  0.17120000000E+03 0.  0.
        998    1    1    2    0    0 -0.39071025738E+01  0.84958915658E+01  0.22545958894E+02  0.24408520776E+02  0.10000000000E+00 0. -1.
</event>
<event>
 5    1  0.2313627E-009  0.3820215E+03  0.7957747E-01  0.3442403E+00
         13   -1    0    0    0    0  0.00000000000E+00  0.00000000000E+00  0.14999999963E+04  0.15000000000E+04  0.10566000000E+00 0. -1.
        994   -1    0    0    0    0 -0.00000000000E+00 -0.00000000000E+00  0.11368683772E-12  0.17120000000E+03  0.17120000000E+03 0.  0.
         13    1    1    2    0    0 -0.43893486320E+02  0.58400993270E+02  0.21867026734E+03  0.23055153684E+03  0.10566000000E+00 0. -1.
        994    1    1    2    0    0  0.17557172324E+03 -0.14525602915E+03  0.20075633622E+03  0.34862198803E+03  0.17120000000E+03 0.  0.
        998    1    1    2    0    0 -0.13167823692E+03  0.86855035876E+02  0.10805733927E+04  0.10920264751E+04  0.10000000000E+00 0. -1.
</event>
<event>
 5    1  0.2313627E-009  0.3883009E+03  0.7957747E-01  0.3415792E+00
         13   -1    0    0    0    0  0.00000000000E+00  0.00000000000E+00  0.14999999963E+04  0.15000000000E+04  0.10566000000E+00 0. -1.
        994   -1    0    0    0    0 -0.00000000000E+00 -0.00000000000E+00  0.11368683772E-12  0.17120000000E+03  0.17120000000E+03 0.  0.
         13    1    1    2    0    0 -0.21176973599E+03  0.79698827693E+02  0.11012875119E+04  0.11242920080E+04  0.10566000000E+00 0. -1.
        994    1    1    2    0    0  0.23956478701E+03 -0.90165455636E+02  0.25400945123E+03  0.39918834888E+03  0.17120000000E+03 0.  0.
        998    1    1    2    0    0 -0.27795051025E+02  0.10466627943E+02  0.14470303312E+03  0.14771964309E+03  0.10000000000E+00 0.  0.
</event>
<event>
 5    1  0.2313627E-009  0.3835326E+03  0.7957747E-01  0.3435919E+00
         13   -1    0    0    0    0  0.00000000000E+00  0.00000000000E+00  0.14999999963E+04  0.15000000000E+04  0.10566000000E+00 0.  1.
        994   -1    0    0    0    0 -0.00000000000E+00 -0.00000000000E+00  0.11368683772E-12  0.17120000000E+03  0.17120000000E+03 0.  0.
         13    1    1    2    0    0  0.37241292478E+02 -0.17658826297E+03  0.56169888945E+03  0.58997964546E+03  0.10566000000E+00 0.  1.
        994    1    1    2    0    0 -0.41399983042E+02  0.28159991548E+03  0.34582823918E+03  0.47949878207E+03  0.17120000000E+03 0.  0.
        998    1    1    2    0    0  0.41586905642E+01 -0.10501165251E+03  0.59247286765E+03  0.60172157247E+03  0.10000000000E+00 0.  1.
</event>
<event>
 5    1  0.2313627E-009  0.3881046E+03  0.7957747E-01  0.3416611E+00
         13   -1    0    0    0    0  0.00000000000E+00  0.00000000000E+00  0.14999999963E+04  0.15000000000E+04  0.10566000000E+00 0.  1.
        994   -1    0    0    0    0 -0.00000000000E+00 -0.00000000000E+00  0.11368683772E-12  0.17120000000E+03  0.17120000000E+03 0.  0.
         13    1    1    2    0    0  0.46059799325E+02 -0.18608517387E+03  0.97213149780E+03  0.99085259107E+03  0.10566000000E+00 0.  1.
        994    1    1    2    0    0 -0.68398922567E+02  0.24259539274E+03  0.24486986511E+03  0.39089848813E+03  0.17120000000E+03 0.  0.
        998    1    1    2    0    0  0.22339123242E+02 -0.56510218867E+02  0.28299863337E+03  0.28944892080E+03  0.10000000000E+00 0.  1.
</event>
<event>
 5    1  0.2313627E-009  0.3882996E+03  0.7957747E-01  0.3415798E+00
         13   -1    0    0    0    0  0.00000000000E+00  0.00000000000E+00  0.14999999963E+04  0.15000000000E+04  0.10566000000E+00 0. -1.
        994   -1    0    0    0    0 -0.00000000000E+00 -0.00000000000E+00  0.11368683772E-12  0.17120000000E+03  0.17120000000E+03 0.  0.
         13    1    1    2    0    0 -0.14472884324E+03  0.14555817840E+03  0.12267833860E+04  0.12438372517E+04  0.10566000000E+00 0. -1.
        994    1    1    2    0    0  0.15614125207E+03 -0.15672971873E+03  0.17968221429E+03  0.33247471102E+03  0.17120000000E+03 0.  0.
        998    1    1    2    0    0 -0.11412408833E+02  0.11171540329E+02  0.93534396012E+02  0.94888037318E+02  0.10000000000E+00 0.  1.
</event>
<event>
 5    1  0.2313627E-009  0.3867799E+03  0.7957747E-01  0.3422158E+00
         13   -1    0    0    0    0  0.00000000000E+00  0.00000000000E+00  0.14999999963E+04  0.15000000000E+04  0.10566000000E+00 0.  1.
        994   -1    0    0    0    0 -0.00000000000E+00 -0.00000000000E+00  0.11368683772E-12  0.17120000000E+03  0.17120000000E+03 0.  0.
         13    1    1    2    0    0  0.15978073447E+03  0.20714173712E+03  0.11381287312E+04  0.11678076050E+04  0.10566000000E+00 0.  1.
        994    1    1    2    0    0 -0.15803324463E+03 -0.21791691697E+03  0.29137055783E+03  0.43205153752E+03  0.17120000000E+03 0.  0.
        998    1    1    2    0    0 -0.17474898448E+01  0.10775179848E+02  0.70500707225E+02  0.71340857443E+02  0.10000000000E+00 0.  1.
</event>
<event>
 5    1  0.2313627E-009  0.3882988E+03  0.7957747E-01  0.3415801E+00
         13   -1    0    0    0    0  0.00000000000E+00  0.00000000000E+00  0.14999999963E+04  0.15000000000E+04  0.10566000000E+00 0. -1.
        994   -1    0    0    0    0 -0.00000000000E+00 -0.00000000000E+00  0.11368683772E-12  0.17120000000E+03  0.17120000000E+03 0.  0.
         13    1    1    2    0    0  0.34839193702E+02  0.30448052987E+03  0.10772036588E+04  0.11199508454E+04  0.10566000000E+00 0. -1.
        994    1    1    2    0    0 -0.34936443303E+02 -0.30558909383E+03  0.41875473252E+03  0.54705595267E+03  0.17120000000E+03 0.  0.
        998    1    1    2    0    0  0.97249601377E-01  0.11085639677E+01  0.40416049410E+01  0.41932018857E+01  0.10000000000E+00 0.  0.
</event>
<event>
 5    1  0.2313627E-009  0.3883005E+03  0.7957747E-01  0.3415794E+00
         13   -1    0    0    0    0  0.00000000000E+00  0.00000000000E+00  0.14999999963E+04  0.15000000000E+04  0.10566000000E+00 0.  1.
        994   -1    0    0    0    0 -0.00000000000E+00 -0.00000000000E+00  0.11368683772E-12  0.17120000000E+03  0.17120000000E+03 0.  0.
         13    1    1    2    0    0 -0.14372384516E+03  0.13328402829E+03  0.96495384849E+03  0.98466091460E+03  0.10566000000E+00 0.  1.
        994    1    1    2    0    0  0.18631511476E+03 -0.17308362791E+03  0.24995092339E+03  0.39554540617E+03  0.17120000000E+03 0.  0.
        998    1    1    2    0    0 -0.42591269604E+02  0.39799599618E+02  0.28509522440E+03  0.29099367923E+03  0.10000000000E+00 0.  1.
</event>
<event>
 5    1  0.2313627E-009  0.3725984E+03  0.7957747E-01  0.3484034E+00
         13   -1    0    0    0    0  0.00000000000E+00  0.00000000000E+00  0.14999999963E+04  0.15000000000E+04  0.10566000000E+00 0.  1.
        994   -1    0    0    0    0 -0.00000000000E+00 -0.00000000000E+00  0.11368683772E-12  0.17120000000E+03  0.17120000000E+03 0.  0.
         13    1    1    2    0    0  0.24129328469E+03 -0.98086268324E+02  0.12073203375E+04  0.12350974754E+04  0.10566000000E+00 0.  1.
        994    1    1    2    0    0 -0.20925657235E+03  0.95305016113E+02  0.23766175979E+03  0.37237603472E+03  0.17120000000E+03 0.  0.
        998    1    1    2    0    0 -0.32036712335E+02  0.27812522108E+01  0.55017898987E+02  0.63726489862E+02  0.10000000000E+00 0.  1.
</event>
<event>
 5    1  0.2313627E-009  0.3878040E+03  0.7957747E-01  0.3417866E+00
         13   -1    0    0    0    0  0.00000000000E+00  0.00000000000E+00  0.14999999963E+04  0.15000000000E+04  0.10566000000E+00 0.  1.
        994   -1    0    0    0    0 -0.00000000000E+00 -0.00000000000E+00  0.11368683772E-12  0.17120000000E+03  0.17120000000E+03 0.  0.
         13    1    1    2    0    0  0.61477585778E+02 -0.27674127567E+03  0.10936366197E+04  0.11297815250E+04  0.10566000000E+00 0.  1.
        994    1    1    2    0    0 -0.66232713960E+02  0.28364440878E+03  0.35769188186E+03  0.49203032973E+03  0.17120000000E+03 0.  0.
        998    1    1    2    0    0  0.47551281818E+01 -0.69031331056E+01  0.48671494745E+02  0.49388145252E+02  0.10000000000E+00 0. -1.
</event>
<event>
 5    1  0.2313627E-009  0.3882647E+03  0.7957747E-01  0.3415943E+00
         13   -1    0    0    0    0  0.00000000000E+00  0.00000000000E+00  0.14999999963E+04  0.15000000000E+04  0.10566000000E+00 0.  1.
        994   -1    0    0    0    0 -0.00000000000E+00 -0.00000000000E+00  0.11368683772E-12  0.17120000000E+03  0.17120000000E+03 0.  0.
         13    1    1    2    0    0  0.13703433117E+03  0.18377410617E+03  0.88647932965E+03  0.91564018210E+03  0.10566000000E+00 0.  1.
        994    1    1    2    0    0 -0.17773235225E+03 -0.23610128463E+03  0.37153599437E+03  0.50465933138E+03  0.17120000000E+03 0.  0.
        998    1    1    2    0    0  0.40698021081E+02  0.52327178464E+02  0.24198467226E+03  0.25090048651E+03  0.10000000000E+00 0. -1.
</event>
<event>
 5    1  0.2313627E-009  0.3882957E+03  0.7957747E-01  0.3415814E+00
         13   -1    0    0    0    0  0.00000000000E+00  0.00000000000E+00  0.14999999963E+04  0.15000000000E+04  0.10566000000E+00 0. -1.
        994   -1    0    0    0    0 -0.00000000000E+00 -0.00000000000E+00  0.11368683772E-12  0.17120000000E+03  0.17120000000E+03 0.  0.
         13    1    1    2    0    0 -0.20149536779E+03  0.10598635414E+03  0.13018169458E+04  0.13215751443E+04  0.10566000000E+00 0. -1.
        994    1    1    2    0    0  0.20215544877E+03 -0.10648200254E+03  0.19357743998E+03  0.34494478921E+03  0.17120000000E+03 0.  0.
        998    1    1    2    0    0 -0.66008098433E+00  0.49564839621E+00  0.46056104858E+01  0.46800664723E+01  0.10000000000E+00 0.  0.
</event>
<event>
 5    1  0.2313627E-009  0.3883008E+03  0.7957747E-01  0.3415793E+00
         13   -1    0    0    0    0  0.00000000000E+00  0.00000000000E+00  0.14999999963E+04  0.15000000000E+04  0.10566000000E+00 0.  1.
        994   -1    0    0    0    0 -0.00000000000E+00 -0.00000000000E+00  0.11368683772E-12  0.17120000000E+03  0.17120000000E+03 0.  0.
         13    1    1    2    0    0  0.23037014487E+03 -0.87434637691E+02  0.10068203123E+04  0.10365338258E+04  0.10566000000E+00 0.  1.
        994    1    1    2    0    0 -0.26651651517E+03  0.10098704230E+03  0.33551520895E+03  0.47234450458E+03  0.17120000000E+03 0.  0.
        998    1    1    2    0    0  0.36146370298E+02 -0.13552404609E+02  0.15766447498E+03  0.16232166962E+03  0.10000000000E+00 0.  0.
</event>
<event>
 5    1  0.2313627E-009  0.3873953E+03  0.7957747E-01  0.3419577E+00
         13   -1    0    0    0    0  0.00000000000E+00  0.00000000000E+00  0.14999999963E+04  0.15000000000E+04  0.10566000000E+00 0.  1.
        994   -1    0    0    0    0 -0.00000000000E+00 -0.00000000000E+00  0.11368683772E-12  0.17120000000E+03  0.17120000000E+03 0.  0.
         13    1    1    2    0    0 -0.13798892400E+03  0.17631063634E+03  0.12952764172E+04  0.13144836978E+04  0.10566000000E+00 0.  1.
        994    1    1    2    0    0  0.14095232237E+03 -0.17458439529E+03  0.18676855174E+03  0.33843640493E+03  0.17120000000E+03 0.  0.
        998    1    1    2    0    0 -0.29633983682E+01 -0.17262410524E+01  0.17955027357E+02  0.18279897305E+02  0.10000000000E+00 0. -1.
</event>
<event>
 5    1  0.2313627E-009  0.3882983E+03  0.7957747E-01  0.3415803E+00
         13   -1    0    0    0    0  0.00000000000E+00  0.00000000000E+00  0.14999999963E+04  0.15000000000E+04  0.10566000000E+00 0.  1.
        994   -1    0    0    0    0 -0.00000000000E+00 -0.00000000000E+00  0.11368683772E-12  0.17120000000E+03  0.17120000000E+03 0.  0.
         13    1    1    2    0    0 -0.64515799202E+02 -0.19352058575E+03  0.12082399057E+04  0.12253392127E+04  0.10566000000E+00 0.  1.
        994    1    1    2    0    0  0.69789737686E+02  0.21115995023E+03  0.18185577796E+03  0.33442502305E+03  0.17120000000E+03 0.  0.
        998    1    1    2    0    0 -0.52739384841E+01 -0.17639364479E+02  0.10990431267E+03  0.11143576423E+03  0.10000000000E+00 0. -1.
</event>
<event>
 5    1  0.2313627E-009  0.3882963E+03  0.7957747E-01  0.3415811E+00
         13   -1    0    0    0    0  0.00000000000E+00  0.00000000000E+00  0.14999999963E+04  0.15000000000E+04  0.10566000000E+00 0. -1.
        994   -1    0    0    0    0 -0.00000000000E+00 -0.00000000000E+00  0.11368683772E-12  0.17120000000E+03  0.17120000000E+03 0.  0.
         13    1    1    2    0    0  0.23917520176E+03  0.19009183576E+03  0.10839180429E+04  0.11261518628E+04  0.10566000000E+00 0. -1.
        994    1    1    2    0    0 -0.23983851279E+03 -0.19051118619E+03  0.41334797283E+03  0.54220200196E+03  0.17120000000E+03 0.  0.
        998    1    1    2    0    0  0.66331102869E+00  0.41935043229E+00  0.27339805180E+01  0.28461352355E+01  0.10000000000E+00 0.  1.
</event>
<event>
 5    1  0.2313627E-009  0.3836698E+03  0.7957747E-01  0.3435334E+00
         13   -1    0    0    0    0  0.00000000000E+00  0.00000000000E+00  0.14999999963E+04  0.15000000000E+04  0.10566000000E+00 0. -1.
        994   -1    0    0    0    0 -0.00000000000E+00 -0.00000000000E+00  0.11368683772E-12  0.17120000000E+03  0.17120000000E+03 0.  0.
         13    1    1    2    0    0 -0.13122632130E+02  0.61326076281E+01  0.75028712367E+02  0.76414208062E+02  0.10566000000E+00 0. -1.
        994    1    1    2    0    0 -0.87870349465E+02 -0.28487724859E+02  0.31003803037E+02  0.19698584869E+03  0.17120000000E+03 0.  0.
        998    1    1    2    0    0  0.10099298159E+03  0.22355117231E+02  0.13939674809E+04  0.13977999432E+04  0.10000000000E+00 0. -1.
</event>
<event>
 5    1  0.2313627E-009  0.3882966E+03  0.7957747E-01  0.3415810E+00
         13   -1    0    0    0    0  0.00000000000E+00  0.00000000000E+00  0.14999999963E+04  0.15000000000E+04  0.10566000000E+00 0.  1.
        994   -1    0    0    0    0 -0.00000000000E+00 -0.00000000000E+00  0.11368683772E-12  0.17120000000E+03  0.17120000000E+03 0.  0.
         13    1    1    2    0    0  0.24573269023E+01 -0.15309944345E+03  0.91514274773E+03  0.92786407298E+03  0.10566000000E+00 0.  1.
        994    1    1    2    0    0 -0.47858936339E+01  0.22182075620E+03  0.18087902228E+03  0.33354761783E+03  0.17120000000E+03 0.  0.
        998    1    1    2    0    0  0.23285667315E+01 -0.68721312754E+02  0.40397822627E+03  0.40978830919E+03  0.10000000000E+00 0. -1.
</event>
<event>
 5    1  0.2313627E-009  0.3883009E+03  0.7957747E-01  0.3415792E+00
         13   -1    0    0    0    0  0.00000000000E+00  0.00000000000E+00  0.14999999963E+04  0.15000000000E+04  0.10566000000E+00 0. -1.
        994   -1    0    0    0    0 -0.00000000000E+00 -0.00000000000E+00  0.11368683772E-12  0.17120000000E+03  0.17120000000E+03 0.  0.
         13    1    1    2    0    0  0.49647003114E+02 -0.18295044434E+03  0.10914465824E+04  0.11077866868E+04  0.10566000000E+00 0. -1.
        994    1    1    2    0    0 -0.59605982962E+02  0.21928521040E+03  0.19113514422E+03  0.34275495629E+03  0.17120000000E+03 0.  0.
        998    1    1    2    0    0  0.99589798482E+01 -0.36334766064E+02  0.21741826964E+03  0.22065835692E+03  0.10000000000E+00 0. -1.
</event>
<event>
 5    1  0.2313627E-009  0.3876626E+03  0.7957747E-01  0.3418458E+00
         13   -1    0    0    0    0  0.00000000000E+00  0.00000000000E+00  0.14999999963E+04  0.15000000000E+04  0.10566000000E+00 0.  1.
        994   -1    0    0    0    0 -0.00000000000E+00 -0.00000000000E+00  0.11368683772E-12  0.17120000000E+03  0.17120000000E+03 0.  0.
         13    1    1    2    0    0  0.16374097492E+03  0.41316851467E+02  0.44898890532E+03  0.47969702662E+03  0.10566000000E+00 0.  1.
        994    1    1    2    0    0 -0.32340766053E+03 -0.66455026298E+02  0.54110276352E+03  0.65658999847E+03  0.17120000000E+03 0.  0.
        998    1    1    2    0    0  0.15966668562E+03  0.25138174830E+02  0.50990832744E+03  0.53491297491E+03  0.10000000000E+00 0.  1.
</event>
<event>
 5    1  0.2313627E-009  0.3882911E+03  0.7957747E-01  0.3415833E+00
         13   -1    0    0    0    0  0.00000000000E+00  0.00000000000E+00  0.14999999963E+04  0.15000000000E+04  0.10566000000E+00 0.  1.
        994   -1    0    0    0    0 -0.00000000000E+00 -0.00000000000E+00  0.11368683772E-12  0.17120000000E+03  0.17120000000E+03 0.  0.
         13    1    1    2    0    0  0.15243414019E+03  0.25651996476E+03  0.11083006755E+04  0.11477669877E+04  0.10566000000E+00 0.  1.
        994    1    1    2    0    0 -0.15329042574E+03 -0.25755899355E+03  0.38711529125E+03  0.51865429576E+03  0.17120000000E+03 0.  0.
        998    1    1    2    0    0  0.85628555643E+00  0.10390287905E+01  0.45840295031E+01  0.47787165921E+01  0.10000000000E+00 0. -1.
</event>
<event>
 5    1  0.2313627E-009  0.3882986E+03  0.7957747E-01  0.3415802E+00
         13   -1    0    0    0    0  0.00000000000E+00  0.00000000000E+00  0.14999999963E+04  0.15000000000E+04  0.10566000000E+00 0. -1.
        994   -1    0    0    0    0 -0.00000000000E+00 -0.00000000000E+00  0.11368683772E-12  0.17120000000E+03  0.17120000000E+03 0.  0.
         13    1    1    2    0    0 -0.56654050566E+02  0.22324199686E+03  0.11357258291E+04  0.11588441831E+04  0.10566000000E+00 0. -1.
        994    1    1    2    0    0  0.61952476285E+02 -0.24578307547E+03  0.24794105099E+03  0.39374056722E+03  0.17120000000E+03 0.  0.
        998    1    1    2    0    0 -0.52984257195E+01  0.22541078608E+02  0.11633311620E+03  0.11861524971E+03  0.10000000000E+00 0. -1.
</event>
<event>
 5    1  0.2313627E-009  0.3882744E+03  0.7957747E-01  0.3415903E+00
         13   -1    0    0    0    0  0.00000000000E+00  0.00000000000E+00  0.14999999963E+04  0.15000000000E+04  0.10566000000E+00 0. -1.
        994   -1    0    0    0    0 -0.00000000000E+00 -0.00000000000E+00  0.11368683772E-12  0.17120000000E+03  0.17120000000E+03 0.  0.
         13    1    1    2    0    0  0.41631694753E+01  0.24834985443E+03  0.12613561153E+04  0.12855793414E+04  0.10566000000E+00 0. -1.
        994    1    1    2    0    0 -0.42477644315E+01 -0.24883152678E+03  0.23712535456E+03  0.38402219467E+03  0.17120000000E+03 0.  0.
        998    1    1    2    0    0  0.84594956126E-01  0.48167235026E+00  0.15185264293E+01  0.15984639740E+01  0.10000000000E+00 0. -1.
</event>
<event>
 5    1  0.2313627E-009  0.3882742E+03  0.7957747E-01  0.3415904E+00
         13   -1    0    0    0    0  0.00000000000E+00  0.00000000000E+00  0.14999999963E+04  0.15000000000E+04  0.10566000000E+00 0.  1.
        994   -1    0    0    0    0 -0.00000000000E+00 -0.00000000000E+00  0.11368683772E-12  0.17120000000E+03  0.17120000000E+03 0.  0.
         13    1    1    2    0    0 -0.19301223489E+03  0.15002026329E+03  0.12685329801E+04  0.12918729562E+04  0.10566000000E+00 0.  1.
        994    1    1    2    0    0  0.19322062464E+03 -0.15044365538E+03  0.22805300985E+03  0.37587912755E+03  0.17120000000E+03 0.  0.
        998    1    1    2    0    0 -0.20838974832E+00  0.42339208769E+00  0.34140063566E+01  0.34479162620E+01  0.10000000000E+00 0.  1.
</event>
<event>
 5    1  0.2313627E-009  0.3821491E+03  0.7957747E-01  0.3441854E+00
         13   -1    0    0    0    0  0.00000000000E+00  0.00000000000E+00  0.14999999963E+04  0.15000000000E+04  0.10566000000E+00 0. -1.
        994   -1    0    0    0    0 -0.00000000000E+00 -0.00000000000E+00  0.11368683772E-12  0.17120000000E+03  0.17120000000E+03 0.  0.
         13    1    1    2    0    0 -0.12570933774E+03 -0.20550507745E+03  0.12646598063E+04  0.12874003306E+04  0.10566000000E+00 0. -1.
        994    1    1    2    0    0  0.11979504555E+03  0.20887565685E+03  0.23393366456E+03  0.37684783717E+03  0.17120000000E+03 0.  0.
        998    1    1    2    0    0  0.59142921831E+01 -0.33705794032E+01  0.14065254435E+01  0.69518322307E+01  0.10000000000E+00 0. -1.
</event>
<event>
 5    1  0.2313627E-009  0.3882973E+03  0.7957747E-01  0.3415807E+00
         13   -1    0    0    0    0  0.00000000000E+00  0.00000000000E+00  0.14999999963E+04  0.15000000000E+04  0.10566000000E+00 0. -1.
        994   -1    0    0    0    0 -0.00000000000E+00 -0.00000000000E+00  0.11368683772E-12  0.17120000000E+03  0.17120000000E+03 0.  0.
         13    1    1    2    0    0 -0.18453116415E+03 -0.13825008667E+03  0.12923007606E+04  0.13127094515E+04  0.10566000000E+00 0. -1.
        994    1    1    2    0    0  0.18569755869E+03  0.13902101434E+03  0.20053292703E+03  0.35118844023E+03  0.17120000000E+03 0.  0.
        998    1    1    2    0    0 -0.11663945402E+01 -0.77092766732E+00  0.71663086171E+01  0.73021082494E+01  0.10000000000E+00 0.  0.
</event>
<event>
 5    1  0.2313627E-009  0.3882410E+03  0.7957747E-01  0.3416042E+00
         13   -1    0    0    0    0  0.00000000000E+00  0.00000000000E+00  0.14999999963E+04  0.15000000000E+04  0.10566000000E+00 0.  1.
        994   -1    0    0    0    0 -0.00000000000E+00 -0.00000000000E+00  0.11368683772E-12  0.17120000000E+03  0.17120000000E+03 0.  0.
         13    1    1    2    0    0 -0.22118283462E+03 -0.11573086738E+03  0.11557746746E+04  0.11824257227E+04  0.10566000000E+00 0.  1.
        994    1    1    2    0    0  0.23493483025E+03  0.12413638225E+03  0.27907296761E+03  0.42165789108E+03  0.17120000000E+03 0.  0.
        998    1    1    2    0    0 -0.13751995623E+02 -0.84055148673E+01  0.65152354058E+02  0.67116386249E+02  0.10000000000E+00 0. -1.
</event>
<event>
 5    1  0.2313627E-009  0.3883009E+03  0.7957747E-01  0.3415792E+00
         13   -1    0    0    0    0  0.00000000000E+00  0.00000000000E+00  0.14999999963E+04  0.15000000000E+04  0.10566000000E+00 0.  1.
        994   -1    0    0    0    0 -0.00000000000E+00 -0.00000000000E+00  0.11368683772E-12  0.17120000000E+03  0.17120000000E+03 0.  0.
         13    1    1    2    0    0 -0.14101734276E+03  0.15565941670E+03  0.11763420787E+04  0.11949462090E+04  0.10566000000E+00 0.  1.
        994    1    1    2    0    0  0.15576387609E+03 -0.17190355450E+03  0.20054025271E+03  0.35119659751E+03  0.17120000000E+03 0.  0.
        998    1    1    2    0    0 -0.14746533328E+02  0.16244137800E+02  0.12311766483E+03  0.12505719352E+03  0.10000000000E+00 0.  0.
</event>
<event>
 5    1  0.2313627E-009  0.3877069E+03  0.7957747E-01  0.3418273E+00
         13   -1    0    0    0    0  0.00000000000E+00  0.00000000000E+00  0.14999999963E+04  0.15000000000E+04  0.10566000000E+00 0. -1.
        994   -1    0    0    0    0 -0.00000000000E+00 -0.00000000000E+00  0.11368683772E-12  0.17120000000E+03  0.17120000000E+03 0.  0.
         13    1    1    2    0    0  0.77432988740E+02  0.14370301369E+03  0.66873324621E+03  0.68836806263E+03  0.10566000000E+00 0. -1.
        994    1    1    2    0    0 -0.11136299589E+03 -0.25375749715E+03  0.31236847471E+03  0.45130708858E+03  0.17120000000E+03 0.  0.
        998    1    1    2    0    0  0.33930007147E+02  0.11005448346E+03  0.51889827536E+03  0.53152484879E+03  0.10000000000E+00 0. -1.
</event>
<event>
 5    1  0.2313627E-009  0.3832084E+03  0.7957747E-01  0.3437306E+00
         13   -1    0    0    0    0  0.00000000000E+00  0.00000000000E+00  0.14999999963E+04  0.15000000000E+04  0.10566000000E+00 0. -1.
        994   -1    0    0    0    0 -0.00000000000E+00 -0.00000000000E+00  0.11368683772E-12  0.17120000000E+03  0.17120000000E+03 0.  0.
         13    1    1    2    0    0  0.13417359225E+02 -0.85220863545E+01  0.58923036034E+02  0.61029393115E+02  0.10566000000E+00 0. -1.
        994    1    1    2    0    0 -0.17742468962E+02 -0.71383244495E+02  0.20629665702E+02  0.18747102685E+03  0.17120000000E+03 0.  0.
        998    1    1    2    0    0  0.43251097374E+01  0.79905330849E+02  0.14204472945E+04  0.14226995800E+04  0.10000000000E+00 0. -1.
</event>
<event>
 5    1  0.2313627E-009  0.3882965E+03  0.7957747E-01  0.3415811E+00
         13   -1    0    0    0    0  0.00000000000E+00  0.00000000000E+00  0.14999999963E+04  0.15000000000E+04  0.10566000000E+00 0. -1.
        994   -1    0    0    0    0 -0.00000000000E+00 -0.00000000000E+00  0.11368683772E-12  0.17120000000E+03  0.17120000000E+03 0.  0.
         13    1    1    2    0    0 -0.19921814975E+03 -0.84763691787E+01  0.11891501808E+04  0.12057519993E+04  0.10566000000E+00 0. -1.
        994    1    1    2    0    0  0.22131261962E+03  0.10225413102E+02  0.18027395380E+03  0.33300446408E+03  0.17120000000E+03 0.  0.
        998    1    1    2    0    0 -0.22094469870E+02 -0.17490439231E+01  0.13057586166E+03  0.13244353665E+03  0.10000000000E+00 0.  1.
</event>
<event>
 5    1  0.2313627E-009  0.3537533E+03  0.7957747E-01  0.3574061E+00
         13   -1    0    0    0    0  0.00000000000E+00  0.00000000000E+00  0.14999999963E+04  0.15000000000E+04  0.10566000000E+00 0. -1.
        994   -1    0    0    0    0 -0.00000000000E+00 -0.00000000000E+00  0.11368683772E-12  0.17120000000E+03  0.17120000000E+03 0.  0.
         13    1    1    2    0    0 -0.21317478022E+03  0.64564762715E+02  0.10286416568E+04  0.10524807670E+04  0.10566000000E+00 0. -1.
        994    1    1    2    0    0  0.26446889632E+03 -0.10746153654E+03  0.37488648558E+03  0.50133930230E+03  0.17120000000E+03 0.  0.
        998    1    1    2    0    0 -0.51294116098E+02  0.42896773828E+02  0.96471853872E+02  0.11737993074E+03  0.10000000000E+00 0. -1.
</event>
<event>
 5    1  0.2313627E-009  0.3882703E+03  0.7957747E-01  0.3415920E+00
         13   -1    0    0    0    0  0.00000000000E+00  0.00000000000E+00  0.14999999963E+04  0.15000000000E+04  0.10566000000E+00 0.  1.
        994   -1    0    0    0    0 -0.00000000000E+00 -0.00000000000E+00  0.11368683772E-12  0.17120000000E+03  0.17120000000E+03 0.  0.
         13    1    1    2    0    0 -0.44962437675E+02  0.16205025915E+03  0.91113719872E+03  0.92652734086E+03  0.10566000000E+00 0.  1.
        994    1    1    2    0    0  0.67772190327E+02 -0.22869259532E+03  0.21416993743E+03  0.36341653104E+03  0.17120000000E+03 0.  0.
        998    1    1    2    0    0 -0.22809752652E+02  0.66642336171E+02  0.37469286013E+03  0.38125612811E+03  0.10000000000E+00 0.  1.
</event>
<event>
 5    1  0.2313627E-009  0.3883007E+03  0.7957747E-01  0.3415793E+00
         13   -1    0    0    0    0  0.00000000000E+00  0.00000000000E+00  0.14999999963E+04  0.15000000000E+04  0.10566000000E+00 0. -1.
        994   -1    0    0    0    0 -0.00000000000E+00 -0.00000000000E+00  0.11368683772E-12  0.17120000000E+03  0.17120000000E+03 0.  0.
         13    1    1    2    0    0 -0.21947124238E+03 -0.21534532068E+03  0.10242625952E+04  0.10694181167E+04  0.10566000000E+00 0. -1.
        994    1    1    2    0    0  0.22468723795E+03  0.22049071739E+03  0.45127531463E+03  0.57624592055E+03  0.17120000000E+03 0.  0.
        998    1    1    2    0    0 -0.52159955698E+01 -0.51453967016E+01  0.24462086465E+02  0.25535962704E+02  0.10000000000E+00 0.  0.
</event>
<event>
 5    1  0.2313627E-009  0.3883007E+03  0.7957747E-01  0.3415793E+00
         13   -1    0    0    0    0  0.00000000000E+00  0.00000000000E+00  0.14999999963E+04  0.15000000000E+04  0.10566000000E+00 0. -1.
        994   -1    0    0    0    0 -0.00000000000E+00 -0.00000000000E+00  0.11368683772E-12  0.17120000000E+03  0.17120000000E+03 0.  0.
         13    1    1    2    0    0 -0.11628902131E+03  0.34208345227E+02  0.69826313449E+03  0.70870640149E+03  0.10566000000E+00 0. -1.
        994    1    1    2    0    0  0.21833690714E+03 -0.63658881058E+02  0.19149851523E+03  0.34308101010E+03  0.17120000000E+03 0.  0.
        998    1    1    2    0    0 -0.10204788584E+03  0.29450535831E+02  0.61023834656E+03  0.61941258841E+03  0.10000000000E+00 0. -1.
</event>
<event>
 5    1  0.2313627E-009  0.3822667E+03  0.7957747E-01  0.3441348E+00
         13   -1    0    0    0    0  0.00000000000E+00  0.00000000000E+00  0.14999999963E+04  0.15000000000E+04  0.10566000000E+00 0.  1.
        994   -1    0    0    0    0 -0.00000000000E+00 -0.00000000000E+00  0.11368683772E-12  0.17120000000E+03  0.17120000000E+03 0.  0.
         13    1    1    2    0    0 -0.25313499953E+02 -0.20207629189E+03  0.71362778760E+03  0.74211874482E+03  0.10566000000E+00 0.  1.
        994    1    1    2    0    0 -0.90343612693E+01  0.27596193364E+03  0.32129535027E+03  0.45692094568E+03  0.17120000000E+03 0.  0.
        998    1    1    2    0    0  0.34347861223E+02 -0.73885641744E+02  0.46507685841E+03  0.47216030949E+03  0.10000000000E+00 0.  1.
</event>
<event>
 5    1  0.2313627E-009  0.3841133E+03  0.7957747E-01  0.3433442E+00
         13   -1    0    0    0    0  0.00000000000E+00  0.00000000000E+00  0.14999999963E+04  0.15000000000E+04  0.10566000000E+00 0.  1.
        994   -1    0    0    0    0 -0.00000000000E+00 -0.00000000000E+00  0.11368683772E-12  0.17120000000E+03  0.17120000000E+03 0.  0.
         13    1    1    2    0    0 -0.10562890077E+02 -0.12189292732E+02  0.45225064300E+02  0.48015321607E+02  0.10566000000E+00 0.  1.
        994    1    1    2    0    0  0.84598932925E+02  0.29245569757E+02  0.28959880726E+02  0.19534686456E+03  0.17120000000E+03 0.  0.
        998    1    1    2    0    0 -0.74036042849E+02 -0.17056277025E+02  0.14258150513E+04  0.14278378138E+04  0.10000000000E+00 0.  1.
</event>
<event>
 5    1  0.2313627E-009  0.3882986E+03  0.7957747E-01  0.3415802E+00
         13   -1    0    0    0    0  0.00000000000E+00  0.00000000000E+00  0.14999999963E+04  0.15000000000E+04  0.10566000000E+00 0. -1.
        994   -1    0    0    0    0 -0.00000000000E+00 -0.00000000000E+00  0.11368683772E-12  0.17120000000E+03  0.17120000000E+03 0.  0.
         13    1    1    2    0    0 -0.15388972597E+03 -0.20353786922E+03  0.10193362127E+04  0.10507882935E+04  0.10566000000E+00 0. -1.
        994    1    1    2    0    0  0.17349997218E+03  0.23059298579E+03  0.34723822656E+03  0.48286560390E+03  0.17120000000E+03 0.  0.
        998    1    1    2    0    0 -0.19610246211E+02 -0.27055116572E+02  0.13342555701E+03  0.13754610265E+03  0.10000000000E+00 0.  1.
</event>
<event>
 5    1  0.2313627E-009  0.3882430E+03  0.7957747E-01  0.3416034E+00
         13   -1    0    0    0    0  0.00000000000E+00  0.00000000000E+00  0.14999999963E+04  0.15000000000E+04  0.10566000000E+00 0.  1.
        994   -1    0    0    0    0 -0.00000000000E+00 -0.00000000000E+00  0.11368683772E-12  0.17120000000E+03  0.17120000000E+03 0.  0.
         13    1    1    2    0    0 -0.89792041596E+01 -0.60236773309E+02  0.29011066914E+03  0.29643432068E+03  0.10566000000E+00 0.  1.
        994    1    1    2    0    0  0.42379645704E+02  0.24528574147E+03  0.23729545879E+03  0.38416103928E+03  0.17120000000E+03 0.  0.
        998    1    1    2    0    0 -0.33400441545E+02 -0.18504896816E+03  0.97259386835E+03  0.99060464004E+03  0.10000000000E+00 0.  1.
</event>
<event>
 5    1  0.2313627E-009  0.3883007E+03  0.7957747E-01  0.3415793E+00
         13   -1    0    0    0    0  0.00000000000E+00  0.00000000000E+00  0.14999999963E+04  0.15000000000E+04  0.10566000000E+00 0. -1.
        994   -1    0    0    0    0 -0.00000000000E+00 -0.00000000000E+00  0.11368683772E-12  0.17120000000E+03  0.17120000000E+03 0.  0.
         13    1    1    2    0    0 -0.26523487130E+03  0.62965661760E+02  0.11258076871E+04  0.11583424239E+04  0.10566000000E+00 0. -1.
        994    1    1    2    0    0  0.27564623707E+03 -0.65494785020E+02  0.33012561463E+03  0.46750697996E+03  0.17120000000E+03 0.  0.
        998    1    1    2    0    0 -0.10411365770E+02  0.25291232600E+01  0.44066694575E+02  0.45350596164E+02  0.10000000000E+00 0.  0.
</event>
<event>
 5    1  0.2313627E-009  0.3879261E+03  0.7957747E-01  0.3417356E+00
         13   -1    0    0    0    0  0.00000000000E+00  0.00000000000E+00  0.14999999963E+04  0.15000000000E+04  0.10566000000E+00 0. -1.
        994   -1    0    0    0    0 -0.00000000000E+00 -0.00000000000E+00  0.11368683772E-12  0.17120000000E+03  0.17120000000E+03 0.  0.
         13    1    1    2    0    0 -0.19178753233E+03  0.92515553998E+02  0.12724953607E+04  0.12901883736E+04  0.10566000000E+00 0. -1.
        994    1    1    2    0    0  0.19520060364E+03 -0.97937218874E+02  0.17489493171E+03  0.32801318821E+03  0.17120000000E+03 0.  0.
        998    1    1    2    0    0 -0.34130713106E+01  0.54216648758E+01  0.52609703894E+02  0.52998438181E+02  0.10000000000E+00 0. -1.
</event>
<event>
 5    1  0.2313627E-009  0.3856800E+03  0.7957747E-01  0.3426794E+00
         13   -1    0    0    0    0  0.00000000000E+00  0.00000000000E+00  0.14999999963E+04  0.15000000000E+04  0.10566000000E+00 0. -1.
        994   -1    0    0    0    0 -0.00000000000E+00 -0.00000000000E+00  0.11368683772E-12  0.17120000000E+03  0.17120000000E+03 0.  0.
         13    1    1    2    0    0  0.10474597170E+02  0.68690334908E+02  0.40763765065E+03  0.41351728463E+03  0.10566000000E+00 0. -1.
        994    1    1    2    0    0 -0.35541310744E+02 -0.14131868632E+03  0.74378040770E+02  0.23680305914E+03  0.17120000000E+03 0.  0.
        998    1    1    2    0    0  0.25066713574E+02  0.72628351408E+02  0.10179843049E+04  0.10208796562E+04  0.10000000000E+00 0.  1.
</event>
<event>
 5    1  0.2313627E-009  0.3883002E+03  0.7957747E-01  0.3415795E+00
         13   -1    0    0    0    0  0.00000000000E+00  0.00000000000E+00  0.14999999963E+04  0.15000000000E+04  0.10566000000E+00 0.  1.
        994   -1    0    0    0    0 -0.00000000000E+00 -0.00000000000E+00  0.11368683772E-12  0.17120000000E+03  0.17120000000E+03 0.  0.
         13    1    1    2    0    0  0.92592371946E+02 -0.14456999170E+03  0.86228275090E+03  0.87920724719E+03  0.10566000000E+00 0.  1.
        994    1    1    2    0    0 -0.13539334836E+03  0.21149753912E+03  0.24234983836E+03  0.38872284727E+03  0.17120000000E+03 0.  0.
        998    1    1    2    0    0  0.42800976415E+02 -0.66927547420E+02  0.39536740701E+03  0.40326990554E+03  0.10000000000E+00 0. -1.
</event>
<event>
 5    1  0.2313627E-009  0.3883008E+03  0.7957747E-01  0.3415793E+00
         13   -1    0    0    0    0  0.00000000000E+00  0.00000000000E+00  0.14999999963E+04  0.15000000000E+04  0.10566000000E+00 0.  1.
        994   -1    0    0    0    0 -0.00000000000E+00 -0.00000000000E+00  0.11368683772E-12  0.17120000000E+03  0.17120000000E+03 0.  0.
         13    1    1    2    0    0 -0.18808967573E+03  0.19961150476E+03  0.91859188798E+03  0.95866237371E+03  0.10566000000E+00 0.  1.
        994    1    1    2    0    0  0.21537437760E+03 -0.22873295614E+03  0.44828823123E+03  0.57356487515E+03  0.17120000000E+03 0.  0.
        998    1    1    2    0    0 -0.27284701862E+02  0.29121451382E+02  0.13311987707E+03  0.13897275114E+03  0.10000000000E+00 0.  1.
</event>
<event>
 5    1  0.2313627E-009  0.3847851E+03  0.7957747E-01  0.3430584E+00
         13   -1    0    0    0    0  0.00000000000E+00  0.00000000000E+00  0.14999999963E+04  0.15000000000E+04  0.10566000000E+00 0.  1.
        994   -1    0    0    0    0 -0.00000000000E+00 -0.00000000000E+00  0.11368683772E-12  0.17120000000E+03  0.17120000000E+03 0.  0.
         13    1    1    2    0    0 -0.73755167460E+02 -0.14287856302E+03  0.44607397849E+03  0.47416886649E+03  0.10566000000E+00 0.  1.
        994    1    1    2    0    0 -0.41201093934E+02  0.21462280738E+03  0.22567852320E+03  0.35777187623E+03  0.17120000000E+03 0.  0.
        998    1    1    2    0    0  0.11495626139E+03 -0.71744244364E+02  0.82824749459E+03  0.83925925728E+03  0.10000000000E+00 0.  1.
</event>
<event>
 5    1  0.2313627E-009  0.3881205E+03  0.7957747E-01  0.3416545E+00
         13   -1    0    0    0    0  0.00000000000E+00  0.00000000000E+00  0.14999999963E+04  0.15000000000E+04  0.10566000000E+00 0. -1.
        994   -1    0    0    0    0 -0.00000000000E+00 -0.00000000000E+00  0.11368683772E-12  0.17120000000E+03  0.17120000000E+03 0.  0.
         13    1    1    2    0    0 -0.20515816128E+03  0.11503360320E+02  0.12087713506E+04  0.12261118985E+04  0.10566000000E+00 0. -1.
        994    1    1    2    0    0  0.22043216270E+03 -0.93303898953E+01  0.17877946929E+03  0.33158548395E+03  0.17120000000E+03 0.  0.
        998    1    1    2    0    0 -0.15274001417E+02 -0.21729704246E+01  0.11244917642E+03  0.11350261758E+03  0.10000000000E+00 0.  1.
</event>
<event>
 5    1  0.2313627E-009  0.3882975E+03  0.7957747E-01  0.3415806E+00
         13   -1    0    0    0    0  0.00000000000E+00  0.00000000000E+00  0.14999999963E+04  0.15000000000E+04  0.10566000000E+00 0.  1.
        994   -1    0    0    0    0 -0.00000000000E+00 -0.00000000000E+00  0.11368683772E-12  0.17120000000E+03  0.17120000000E+03 0.  0.
         13    1    1    2    0    0  0.96332893143E+02 -0.75237195177E+02  0.54455708399E+03  0.55810670192E+03  0.10566000000E+00 0.  1.
        994    1    1    2    0    0 -0.21381772292E+03  0.16462482718E+03  0.29023014850E+03  0.43169703665E+03  0.17120000000E+03 0.  0.
        998    1    1    2    0    0  0.11748482977E+03 -0.89387632000E+02  0.66521276379E+03  0.68139626143E+03  0.10000000000E+00 0. -1.
</event>
<event>
 5    1  0.2313627E-009  0.3882984E+03  0.7957747E-01  0.3415803E+00
         13   -1    0    0    0    0  0.00000000000E+00  0.00000000000E+00  0.14999999963E+04  0.15000000000E+04  0.10566000000E+00 0.  1.
        994   -1    0    0    0    0 -0.00000000000E+00 -0.00000000000E+00  0.11368683772E-12  0.17120000000E+03  0.17120000000E+03 0.  0.
         13    1    1    2    0    0  0.11963557642E+02 -0.21202571414E+03  0.12257870127E+04  0.12440465594E+04  0.10566000000E+00 0.  1.
        994    1    1    2    0    0 -0.13167068725E+02  0.22626417808E+03  0.18998065339E+03  0.34171762999E+03  0.17120000000E+03 0.  0.
        998    1    1    2    0    0  0.12035110832E+01 -0.14238463945E+02  0.84232330156E+02  0.85435810630E+02  0.10000000000E+00 0. -1.
</event>
<event>
 5    1  0.2313627E-009  0.3880863E+03  0.7957747E-01  0.3416687E+00
         13   -1    0    0    0    0  0.00000000000E+00  0.00000000000E+00  0.14999999963E+04  0.15000000000E+04  0.10566000000E+00 0.  1.
        994   -1    0    0    0    0 -0.00000000000E+00 -0.00000000000E+00  0.11368683772E-12  0.17120000000E+03  0.17120000000E+03 0.  0.
         13    1    1    2    0    0  0.24419564988E+03 -0.80891171365E+00  0.12246226756E+04  0.12487325088E+04  0.10566000000E+00 0.  1.
        994    1    1    2    0    0 -0.24911442215E+03  0.26710848711E+01  0.23802691393E+03  0.38474846559E+03  0.17120000000E+03 0.  0.
        998    1    1    2    0    0  0.49187722662E+01 -0.18621731574E+01  0.37350406726E+02  0.37719025598E+02  0.10000000000E+00 0.  1.
</event>
<event>
 5    1  0.2313627E-009  0.3883005E+03  0.7957747E-01  0.3415794E+00
         13   -1    0    0    0    0  0.00000000000E+00  0.00000000000E+00  0.14999999963E+04  0.15000000000E+04  0.10566000000E+00 0. -1.
        994   -1    0    0    0    0 -0.00000000000E+00 -0.00000000000E+00  0.11368683772E-12  0.17120000000E+03  0.17120000000E+03 0.  0.
         13    1    1    2    0    0 -0.18798396714E+03 -0.70535351700E+02  0.10136699593E+04  0.10333634430E+04  0.10566000000E+00 0. -1.
        994    1    1    2    0    0  0.23363772674E+03  0.88099939754E+02  0.23900732713E+03  0.38572286575E+03  0.17120000000E+03 0.  0.
        998    1    1    2    0    0 -0.45653759595E+02 -0.17564588053E+02  0.24732270987E+03  0.25211369129E+03  0.10000000000E+00 0. -1.
</event>
<event>
 5    1  0.2313627E-009  0.3883009E+03  0.7957747E-01  0.3415792E+00
         13   -1    0    0    0    0  0.00000000000E+00  0.00000000000E+00  0.14999999963E+04  0.15000000000E+04  0.10566000000E+00 0. -1.
        994   -1    0    0    0    0 -0.00000000000E+00 -0.00000000000E+00  0.11368683772E-12  0.17120000000E+03  0.17120000000E+03 0.  0.
         13    1    1    2    0    0  0.83571053115E+02  0.55204687282E+01  0.48142172888E+03  0.48865272812E+03  0.10566000000E+00 0. -1.
        994    1    1    2    0    0 -0.22721203076E+03 -0.14524869412E+02  0.19198293779E+03  0.34351589069E+03  0.17120000000E+03 0.  0.
        998    1    1    2    0    0  0.14364097765E+03  0.90044006836E+01  0.82659532961E+03  0.83903138119E+03  0.10000000000E+00 0. -1.
</event>
<event>
 5    1  0.2313627E-009  0.3863835E+03  0.7957747E-01  0.3423826E+00
         13   -1    0    0    0    0  0.00000000000E+00  0.00000000000E+00  0.14999999963E+04  0.15000000000E+04  0.10566000000E+00 0.  1.
        994   -1    0    0    0    0 -0.00000000000E+00 -0.00000000000E+00  0.11368683772E-12  0.17120000000E+03  0.17120000000E+03 0.  0.
         13    1    1    2    0    0  0.13327261303E+03 -0.23634717819E+03  0.98152721938E+03  0.10183404497E+04  0.10566000000E+00 0.  1.
        994    1    1    2    0    0 -0.16431542625E+03  0.25469721400E+03  0.40629595908E+03  0.53502904266E+03  0.17120000000E+03 0.  0.
        998    1    1    2    0    0  0.31042813214E+02 -0.18350035808E+02  0.11217681781E+03  0.11783050760E+03  0.10000000000E+00 0. -1.
</event>
<event>
 5    1  0.2313627E-009  0.3879476E+03  0.7957747E-01  0.3417266E+00
         13   -1    0    0    0    0  0.00000000000E+00  0.00000000000E+00  0.14999999963E+04  0.15000000000E+04  0.10566000000E+00 0.  1.
        994   -1    0    0    0    0 -0.00000000000E+00 -0.00000000000E+00  0.11368683772E-12  0.17120000000E+03  0.17120000000E+03 0.  0.
         13    1    1    2    0    0  0.13766510383E+03  0.24837955389E+03  0.10551028473E+04  0.10926509567E+04  0.10566000000E+00 0.  1.
        994    1    1    2    0    0 -0.14968148687E+03 -0.25903598022E+03  0.38600934291E+03  0.51751023118E+03  0.17120000000E+03 0.  0.
        998    1    1    2    0    0  0.12016383035E+02  0.10656426327E+02  0.58887806077E+02  0.61038812144E+02  0.10000000000E+00 0. -1.
</event>
<event>
 5    1  0.2313627E-009  0.3870969E+03  0.7957747E-01  0.3420827E+00
         13   -1    0    0    0    0  0.00000000000E+00  0.00000000000E+00  0.14999999963E+04  0.15000000000E+04  0.10566000000E+00 0.  1.
        994   -1    0    0    0    0 -0.00000000000E+00 -0.00000000000E+00  0.11368683772E-12  0.17120000000E+03  0.17120000000E+03 0.  0.
         13    1    1    2    0    0 -0.21033249251E+03  0.10417343265E+03  0.12338475917E+04  0.12559744234E+04  0.10566000000E+00 0.  1.
        994    1    1    2    0    0  0.22268642606E+03 -0.10685902118E+03  0.23466283886E+03  0.38129277819E+03  0.17120000000E+03 0.  0.
        998    1    1    2    0    0 -0.12353933548E+02  0.26855885303E+01  0.31489565706E+02  0.33932798414E+02  0.10000000000E+00 0. -1.
</event>
<event>
 5    1  0.2313627E-009  0.3883005E+03  0.7957747E-01  0.3415794E+00
         13   -1    0    0    0    0  0.00000000000E+00  0.00000000000E+00  0.14999999963E+04  0.15000000000E+04  0.10566000000E+00 0. -1.
        994   -1    0    0    0    0 -0.00000000000E+00 -0.00000000000E+00  0.11368683772E-12  0.17120000000E+03  0.17120000000E+03 0.  0.
         13    1    1    2    0    0  0.37796449952E+02 -0.10717649967E+03  0.56786437602E+03  0.57912462771E+03  0.10566000000E+00 0. -1.
        994    1    1    2    0    0 -0.84373403296E+02  0.23744424144E+03  0.24439949693E+03  0.39056266216E+03  0.17120000000E+03 0.  0.
        998    1    1    2    0    0  0.46576953344E+02 -0.13026774177E+03  0.68773612333E+03  0.70151271012E+03  0.10000000000E+00 0. -1.
</event>
<event>
 5    1  0.2313627E-009  0.3881281E+03  0.7957747E-01  0.3416513E+00
         13   -1    0    0    0    0  0.00000000000E+00  0.00000000000E+00  0.14999999963E+04  0.15000000000E+04  0.10566000000E+00 0.  1.
        994   -1    0    0    0    0 -0.00000000000E+00 -0.00000000000E+00  0.11368683772E-12  0.17120000000E+03  0.17120000000E+03 0.  0.
         13    1    1    2    0    0 -0.21968651538E+03 -0.98639869528E+02  0.11717349570E+04  0.11962252336E+04  0.10566000000E+00 0.  1.
        994    1    1    2    0    0  0.23639408627E+03  0.10408179928E+03  0.26006433284E+03  0.40454676142E+03  0.17120000000E+03 0.  0.
        998    1    1    2    0    0 -0.16707570890E+02 -0.54419297546E+01  0.68200706456E+02  0.70428004981E+02  0.10000000000E+00 0.  1.
</event>
<event>
 5    1  0.2313627E-009  0.3836999E+03  0.7957747E-01  0.3435205E+00
         13   -1    0    0    0    0  0.00000000000E+00  0.00000000000E+00  0.14999999963E+04  0.15000000000E+04  0.10566000000E+00 0. -1.
        994   -1    0    0    0    0 -0.00000000000E+00 -0.00000000000E+00  0.11368683772E-12  0.17120000000E+03  0.17120000000E+03 0.  0.
         13    1    1    2    0    0  0.60712855610E+01  0.21700009688E+02  0.43014945754E+02  0.48559732815E+02  0.10566000000E+00 0. -1.
        994    1    1    2    0    0  0.20888720542E+03 -0.27114945577E+03  0.71858290296E+03  0.81414170780E+03  0.17120000000E+03 0.  0.
        998    1    1    2    0    0 -0.21495849098E+03  0.24944944609E+03  0.73840214756E+03  0.80849855938E+03  0.10000000000E+00 0. -1.
</event>
<event>
 5    1  0.2313627E-009  0.3882455E+03  0.7957747E-01  0.3416023E+00
         13   -1    0    0    0    0  0.00000000000E+00  0.00000000000E+00  0.14999999963E+04  0.15000000000E+04  0.10566000000E+00 0.  1.
        994   -1    0    0    0    0 -0.00000000000E+00 -0.00000000000E+00  0.11368683772E-12  0.17120000000E+03  0.17120000000E+03 0.  0.
         13    1    1    2    0    0  0.19210618253E+03  0.57202652616E+02  0.12039229623E+04  0.12204947518E+04  0.10566000000E+00 0.  1.
        994    1    1    2    0    0 -0.21244720349E+03 -0.60488713962E+02  0.17911079432E+03  0.33193796925E+03  0.17120000000E+03 0.  0.
        998    1    1    2    0    0  0.20341020959E+02  0.32860613458E+01  0.11696623964E+03  0.11876727894E+03  0.10000000000E+00 0.  1.
</event>
<event>
 5    1  0.2313627E-009  0.3757449E+03  0.7957747E-01  0.3469898E+00
         13   -1    0    0    0    0  0.00000000000E+00  0.00000000000E+00  0.14999999963E+04  0.15000000000E+04  0.10566000000E+00 0. -1.
        994   -1    0    0    0    0 -0.00000000000E+00 -0.00000000000E+00  0.11368683772E-12  0.17120000000E+03  0.17120000000E+03 0.  0.
         13    1    1    2    0    0  0.28585066370E+02  0.12236449090E+02  0.67558355936E+02  0.74370554163E+02  0.10566000000E+00 0. -1.
        994    1    1    2    0    0 -0.68603688217E+02  0.45663152934E+02  0.29684391145E+02  0.19230754705E+03  0.17120000000E+03 0.  0.
        998    1    1    2    0    0  0.40018621847E+02 -0.57899602025E+02  0.14027572492E+04  0.14045218988E+04  0.10000000000E+00 0. -1.
</event>
<event>
 5    1  0.2313627E-009  0.3878897E+03  0.7957747E-01  0.3417508E+00
         13   -1    0    0    0    0  0.00000000000E+00  0.00000000000E+00  0.14999999963E+04  0.15000000000E+04  0.10566000000E+00 0. -1.
        994   -1    0    0    0    0 -0.00000000000E+00 -0.00000000000E+00  0.11368683772E-12  0.17120000000E+03  0.17120000000E+03 0.  0.
         13    1    1    2    0    0  0.83752080604E+02  0.22745363880E+03  0.12743469541E+04  0.12971930232E+04  0.10566000000E+00 0. -1.
        994    1    1    2    0    0 -0.83099750271E+02 -0.22759046271E+03  0.22263907146E+03  0.37091856701E+03  0.17120000000E+03 0.  0.
        998    1    1    2    0    0 -0.65233033313E+00  0.13682391408E+00  0.30139706802E+01  0.30884097701E+01  0.10000000000E+00 0.  1.
</event>
<event>
 5    1  0.2313627E-009  0.3882944E+03  0.7957747E-01  0.3415819E+00
         13   -1    0    0    0    0  0.00000000000E+00  0.00000000000E+00  0.14999999963E+04  0.15000000000E+04  0.10566000000E+00 0.  1.
        994   -1    0    0    0    0 -0.00000000000E+00 -0.00000000000E+00  0.11368683772E-12  0.17120000000E+03  0.17120000000E+03 0.  0.
         13    1    1    2    0    0 -0.60925115810E+02 -0.19619262216E+02  0.31704811229E+03  0.32344443395E+03  0.10566000000E+00 0.  1.
        994    1    1    2    0    0  0.24420394256E+03  0.78896149378E+02  0.25564869501E+03  0.40065678979E+03  0.17120000000E+03 0.  0.
        998    1    1    2    0    0 -0.18327882675E+03 -0.59276887162E+02  0.92730318898E+03  0.94709877625E+03  0.10000000000E+00 0.  1.
</event>
<event>
 5    1  0.2313627E-009  0.3882816E+03  0.7957747E-01  0.3415873E+00
         13   -1    0    0    0    0  0.00000000000E+00  0.00000000000E+00  0.14999999963E+04  0.15000000000E+04  0.10566000000E+00 0. -1.
        994   -1    0    0    0    0 -0.00000000000E+00 -0.00000000000E+00  0.11368683772E-12  0.17120000000E+03  0.17120000000E+03 0.  0.
         13    1    1    2    0    0 -0.68816512731E+02  0.26463306609E+03  0.10712315499E+04  0.11055783178E+04  0.10566000000E+00 0. -1.
        994    1    1    2    0    0  0.73748311650E+02 -0.28287983893E+03  0.36014561994E+03  0.49444324680E+03  0.17120000000E+03 0.  0.
        998    1    1    2    0    0 -0.49317989189E+01  0.18246772837E+02  0.68622826425E+02  0.71178435401E+02  0.10000000000E+00 0.  1.
</event>
<event>
 5    1  0.2313627E-009  0.3879810E+03  0.7957747E-01  0.3417127E+00
         13   -1    0    0    0    0  0.00000000000E+00  0.00000000000E+00  0.14999999963E+04  0.15000000000E+04  0.10566000000E+00 0. -1.
        994   -1    0    0    0    0 -0.00000000000E+00 -0.00000000000E+00  0.11368683772E-12  0.17120000000E+03  0.17120000000E+03 0.  0.
         13    1    1    2    0    0 -0.14802447068E+03 -0.20848013337E+03  0.11245039833E+04  0.11532061523E+04  0.10566000000E+00 0. -1.
        994    1    1    2    0    0  0.15292760316E+03  0.22349064411E+03  0.29351543955E+03  0.43450624054E+03  0.17120000000E+03 0.  0.
        998    1    1    2    0    0 -0.49031324796E+01 -0.15010510744E+02  0.81980573383E+02  0.83487607182E+02  0.10000000000E+00 0. -1.
</event>
<event>
 5    1  0.2313627E-009  0.3857127E+03  0.7957747E-01  0.3426655E+00
         13   -1    0    0    0    0  0.00000000000E+00  0.00000000000E+00  0.14999999963E+04  0.15000000000E+04  0.10566000000E+00 0.  1.
        994   -1    0    0    0    0 -0.00000000000E+00 -0.00000000000E+00  0.11368683772E-12  0.17120000000E+03  0.17120000000E+03 0.  0.
         13    1    1    2    0    0  0.20483065668E+02 -0.10695691151E+02  0.12428415649E+03  0.12641406768E+03  0.10566000000E+00 0.  1.
        994    1    1    2    0    0 -0.54726334596E+02  0.48235343891E+02  0.18936211405E+02  0.18705517956E+03  0.17120000000E+03 0.  0.
        998    1    1    2    0    0  0.34243268927E+02 -0.37539652740E+02  0.13567796284E+04  0.13577307528E+04  0.10000000000E+00 0.  1.
</event>
<event>
 5    1  0.2313627E-009  0.3882803E+03  0.7957747E-01  0.3415878E+00
         13   -1    0    0    0    0  0.00000000000E+00  0.00000000000E+00  0.14999999963E+04  0.15000000000E+04  0.10566000000E+00 0. -1.
        994   -1    0    0    0    0 -0.00000000000E+00 -0.00000000000E+00  0.11368683772E-12  0.17120000000E+03  0.17120000000E+03 0.  0.
         13    1    1    2    0    0  0.21049260006E+03  0.69792413653E+02  0.13049460815E+04  0.13236549409E+04  0.10566000000E+00 0. -1.
        994    1    1    2    0    0 -0.21216318526E+03 -0.70854641487E+02  0.18431106132E+03  0.33662086199E+03  0.17120000000E+03 0.  0.
        998    1    1    2    0    0  0.16705852053E+01  0.10622278334E+01  0.10742853458E+02  0.10924197147E+02  0.10000000000E+00 0. -1.
</event>
<event>
 5    1  0.2313627E-009  0.3795490E+03  0.7957747E-01  0.3453124E+00
         13   -1    0    0    0    0  0.00000000000E+00  0.00000000000E+00  0.14999999963E+04  0.15000000000E+04  0.10566000000E+00 0. -1.
        994   -1    0    0    0    0 -0.00000000000E+00 -0.00000000000E+00  0.11368683772E-12  0.17120000000E+03  0.17120000000E+03 0.  0.
         13    1    1    2    0    0  0.65617960576E+02  0.24270934311E+03  0.76034800263E+03  0.80083870926E+03  0.10566000000E+00 0. -1.
        994    1    1    2    0    0 -0.11301160612E+03 -0.27527420722E+03  0.40554264491E+03  0.53133961749E+03  0.17120000000E+03 0.  0.
        998    1    1    2    0    0  0.47393645545E+02  0.32564864112E+02  0.33410934875E+03  0.33902167325E+03  0.10000000000E+00 0. -1.
</event>
<event>
 5    1  0.2313627E-009  0.3883001E+03  0.7957747E-01  0.3415795E+00
         13   -1    0    0    0    0  0.00000000000E+00  0.00000000000E+00  0.14999999963E+04  0.15000000000E+04  0.10566000000E+00 0. -1.
        994   -1    0    0    0    0 -0.00000000000E+00 -0.00000000000E+00  0.11368683772E-12  0.17120000000E+03  0.17120000000E+03 0.  0.
         13    1    1    2    0    0 -0.18608788148E+02 -0.14117098167E+03  0.69737237606E+03  0.71176103793E+03  0.10566000000E+00 0. -1.
        994    1    1    2    0    0  0.34267194882E+02  0.25280888088E+03  0.25193142927E+03  0.39732286110E+03  0.17120000000E+03 0.  0.
        998    1    1    2    0    0 -0.15658406735E+02 -0.11163789922E+03  0.55069619095E+03  0.56211610097E+03  0.10000000000E+00 0. -1.
</event>
<event>
 5    1  0.2313627E-009  0.3883008E+03  0.7957747E-01  0.3415793E+00
         13   -1    0    0    0    0  0.00000000000E+00  0.00000000000E+00  0.14999999963E+04  0.15000000000E+04  0.10566000000E+00 0.  1.
        994   -1    0    0    0    0 -0.00000000000E+00 -0.00000000000E+00  0.11368683772E-12  0.17120000000E+03  0.17120000000E+03 0.  0.
         13    1    1    2    0    0 -0.16690177430E+03 -0.94033687990E+02  0.10033837584E+04  0.10215074716E+04  0.10566000000E+00 0.  1.
        994    1    1    2    0    0  0.21195296175E+03  0.11972378886E+03  0.22477677816E+03  0.37295024281E+03  0.17120000000E+03 0.  0.
        998    1    1    2    0    0 -0.45051187450E+02 -0.25690100871E+02  0.27183945976E+03  0.27674228563E+03  0.10000000000E+00 0.  1.
</event>
<event>
 5    1  0.2313627E-009  0.3883008E+03  0.7957747E-01  0.3415793E+00
         13   -1    0    0    0    0  0.00000000000E+00  0.00000000000E+00  0.14999999963E+04  0.15000000000E+04  0.10566000000E+00 0.  1.
        994   -1    0    0    0    0 -0.00000000000E+00 -0.00000000000E+00  0.11368683772E-12  0.17120000000E+03  0.17120000000E+03 0.  0.
         13    1    1    2    0    0 -0.30469735312E+03  0.27508844224E+00  0.86607590987E+03  0.91811112917E+03  0.10566000000E+00 0.  1.
        994    1    1    2    0    0  0.33265895332E+03 -0.19737265883E+00  0.55471399065E+03  0.66908823753E+03  0.17120000000E+03 0.  0.
        998    1    1    2    0    0 -0.27961600202E+02 -0.77715783407E-01  0.79210095758E+02  0.84000633305E+02  0.10000000000E+00 0. -1.
</event>
<event>
 5    1  0.2313627E-009  0.3880088E+03  0.7957747E-01  0.3417011E+00
         13   -1    0    0    0    0  0.00000000000E+00  0.00000000000E+00  0.14999999963E+04  0.15000000000E+04  0.10566000000E+00 0.  1.
        994   -1    0    0    0    0 -0.00000000000E+00 -0.00000000000E+00  0.11368683772E-12  0.17120000000E+03  0.17120000000E+03 0.  0.
         13    1    1    2    0    0 -0.21161732422E+03 -0.13387331901E+02  0.12685907662E+04  0.12861895878E+04  0.10566000000E+00 0.  1.
        994    1    1    2    0    0  0.22275525112E+03  0.16362976447E+02  0.18403341404E+03  0.33625196859E+03  0.17120000000E+03 0.  0.
        998    1    1    2    0    0 -0.11137926895E+02 -0.29756445455E+01  0.47375816044E+02  0.48758443595E+02  0.10000000000E+00 0. -1.
</event>
<event>
 5    1  0.2313627E-009  0.3754171E+03  0.7957747E-01  0.3471360E+00
         13   -1    0    0    0    0  0.00000000000E+00  0.00000000000E+00  0.14999999963E+04  0.15000000000E+04  0.10566000000E+00 0. -1.
        994   -1    0    0    0    0 -0.00000000000E+00 -0.00000000000E+00  0.11368683772E-12  0.17120000000E+03  0.17120000000E+03 0.  0.
         13    1    1    2    0    0 -0.53742276847E+02 -0.32668252764E+02  0.27278218266E+03  0.27993852432E+03  0.10566000000E+00 0. -1.
        994    1    1    2    0    0 -0.39569609481E+02 -0.82220787658E+02  0.44134111975E+02  0.19895545169E+03  0.17120000000E+03 0.  0.
        998    1    1    2    0    0  0.93311886328E+02  0.11488904042E+03  0.11830837016E+04  0.11923060240E+04  0.10000000000E+00 0. -1.
</event>
<event>
 5    1  0.2313627E-009  0.3882388E+03  0.7957747E-01  0.3416051E+00
         13   -1    0    0    0    0  0.00000000000E+00  0.00000000000E+00  0.14999999963E+04  0.15000000000E+04  0.10566000000E+00 0.  1.
        994   -1    0    0    0    0 -0.00000000000E+00 -0.00000000000E+00  0.11368683772E-12  0.17120000000E+03  0.17120000000E+03 0.  0.
         13    1    1    2    0    0  0.44341547195E+01  0.23306669037E+03  0.12466613640E+04  0.12682682333E+04  0.10566000000E+00 0.  1.
        994    1    1    2    0    0 -0.61364473778E+01 -0.23947877106E+03  0.21642629519E+03  0.36542785748E+03  0.17120000000E+03 0.  0.
        998    1    1    2    0    0  0.17022926583E+01  0.64120806852E+01  0.36912337042E+02  0.37503909195E+02  0.10000000000E+00 0. -1.
</event>
<event>
 5    1  0.2313627E-009  0.3882996E+03  0.7957747E-01  0.3415798E+00
         13   -1    0    0    0    0  0.00000000000E+00  0.00000000000E+00  0.14999999963E+04  0.15000000000E+04  0.10566000000E+00 0.  1.
        994   -1    0    0    0    0 -0.00000000000E+00 -0.00000000000E+00  0.11368683772E-12  0.17120000000E+03  0.17120000000E+03 0.  0.
         13    1    1    2    0    0 -0.20445501636E+03 -0.21036740672E+03  0.10389965766E+04  0.10796157635E+04  0.10566000000E+00 0.  1.
        994    1    1    2    0    0  0.21374566123E+03  0.21990277762E+03  0.41489156533E+03  0.54358889823E+03  0.17120000000E+03 0.  0.
        998    1    1    2    0    0 -0.92906448691E+01 -0.95353708956E+01  0.46111854399E+02  0.47995338277E+02  0.10000000000E+00 0.  1.
</event>
<event>
 5    1  0.2313627E-009  0.3882950E+03  0.7957747E-01  0.3415817E+00
         13   -1    0    0    0    0  0.00000000000E+00  0.00000000000E+00  0.14999999963E+04  0.15000000000E+04  0.10566000000E+00 0.  1.
        994   -1    0    0    0    0 -0.00000000000E+00 -0.00000000000E+00  0.11368683772E-12  0.17120000000E+03  0.17120000000E+03 0.  0.
         13    1    1    2    0    0  0.11082921219E+03  0.20343654787E+03  0.90407654896E+03  0.93328664452E+03  0.10566000000E+00 0.  1.
        994    1    1    2    0    0 -0.14028384139E+03 -0.25726120602E+03  0.36252637511E+03  0.49658604182E+03  0.17120000000E+03 0.  0.
        998    1    1    2    0    0  0.29454629202E+02  0.53824658158E+02  0.23339707220E+03  0.24132731366E+03  0.10000000000E+00 0.  1.
</event>
<event>
 5    1  0.2313627E-009  0.3855738E+03  0.7957747E-01  0.3427242E+00
         13   -1    0    0    0    0  0.00000000000E+00  0.00000000000E+00  0.14999999963E+04  0.15000000000E+04  0.10566000000E+00 0. -1.
        994   -1    0    0    0    0 -0.00000000000E+00 -0.00000000000E+00  0.11368683772E-12  0.17120000000E+03  0.17120000000E+03 0.  0.
         13    1    1    2    0    0 -0.47776965904E+01  0.91541745600E+01  0.61069831219E+02  0.61936747942E+02  0.10566000000E+00 0. -1.
        994    1    1    2    0    0 -0.43637728516E+02  0.38968804737E+02  0.12662756787E+02  0.18136318398E+03  0.17120000000E+03 0.  0.
        998    1    1    2    0    0  0.48415425106E+02 -0.48122979297E+02  0.14262674083E+04  0.14279000681E+04  0.10000000000E+00 0. -1.
</event>
<event>
 5    1  0.2313627E-009  0.3882997E+03  0.7957747E-01  0.3415797E+00
         13   -1    0    0    0    0  0.00000000000E+00  0.00000000000E+00  0.14999999963E+04  0.15000000000E+04  0.10566000000E+00 0.  1.
        994   -1    0    0    0    0 -0.00000000000E+00 -0.00000000000E+00  0.11368683772E-12  0.17120000000E+03  0.17120000000E+03 0.  0.
         13    1    1    2    0    0 -0.27139517506E+02  0.21421698144E+03  0.13023194109E+04  0.13200989840E+04  0.10566000000E+00 0.  1.
        994    1    1    2    0    0  0.27591381591E+02 -0.21782835239E+03  0.17659965076E+03  0.32970798002E+03  0.17120000000E+03 0.  0.
        998    1    1    2    0    0 -0.45186408479E+00  0.36113709516E+01  0.21080934653E+02  0.21393035949E+02  0.10000000000E+00 0.  0.
</event>
<event>
 5    1  0.2313627E-009  0.3882925E+03  0.7957747E-01  0.3415827E+00
         13   -1    0    0    0    0  0.00000000000E+00  0.00000000000E+00  0.14999999963E+04  0.15000000000E+04  0.10566000000E+00 0. -1.
        994   -1    0    0    0    0 -0.00000000000E+00 -0.00000000000E+00  0.11368683772E-12  0.17120000000E+03  0.17120000000E+03 0.  0.
         13    1    1    2    0    0 -0.53199242673E+02  0.11345857373E+03  0.53440059091E+03  0.54889617425E+03  0.10566000000E+00 0. -1.
        994    1    1    2    0    0  0.11596358735E+03 -0.25440130136E+03  0.31854076737E+03  0.45710527912E+03  0.17120000000E+03 0.  0.
        998    1    1    2    0    0 -0.62764344673E+02  0.14094272763E+03  0.64705863799E+03  0.66519854663E+03  0.10000000000E+00 0. -1.
</event>
<event>
 5    1  0.2313627E-009  0.3873048E+03  0.7957747E-01  0.3419956E+00
         13   -1    0    0    0    0  0.00000000000E+00  0.00000000000E+00  0.14999999963E+04  0.15000000000E+04  0.10566000000E+00 0.  1.
        994   -1    0    0    0    0 -0.00000000000E+00 -0.00000000000E+00  0.11368683772E-12  0.17120000000E+03  0.17120000000E+03 0.  0.
         13    1    1    2    0    0 -0.64835945981E+02 -0.26707871872E+03  0.11286962766E+04  0.11616755304E+04  0.10566000000E+00 0.  1.
        994    1    1    2    0    0  0.61651913642E+02  0.27329118121E+03  0.32249502839E+03  0.46021898214E+03  0.17120000000E+03 0.  0.
        998    1    1    2    0    0  0.31840323387E+01 -0.62124624877E+01  0.48808691271E+02  0.49305487480E+02  0.10000000000E+00 0. -1.
</event>
<event>
 5    1  0.2313627E-009  0.3875194E+03  0.7957747E-01  0.3419057E+00
         13   -1    0    0    0    0  0.00000000000E+00  0.00000000000E+00  0.14999999963E+04  0.15000000000E+04  0.10566000000E+00 0.  1.
        994   -1    0    0    0    0 -0.00000000000E+00 -0.00000000000E+00  0.11368683772E-12  0.17120000000E+03  0.17120000000E+03 0.  0.
         13    1    1    2    0    0  0.13945822250E+03  0.18859885541E+03  0.11345642235E+04  0.11585569094E+04  0.10566000000E+00 0.  1.
        994    1    1    2    0    0 -0.14881243358E+03 -0.19992365474E+03  0.23915678871E+03  0.38551266866E+03  0.17120000000E+03 0.  0.
        998    1    1    2    0    0  0.93542110844E+01  0.11324799332E+02  0.12627898412E+03  0.12713042191E+03  0.10000000000E+00 0.  1.
</event>
<event>
 5    1  0.2313627E-009  0.3882996E+03  0.7957747E-01  0.3415798E+00
         13   -1    0    0    0    0  0.00000000000E+00  0.00000000000E+00  0.14999999963E+04  0.15000000000E+04  0.10566000000E+00 0. -1.
        994   -1    0    0    0    0 -0.00000000000E+00 -0.00000000000E+00  0.11368683772E-12  0.17120000000E+03  0.17120000000E+03 0.  0.
         13    1    1    2    0    0  0.99883677071E+02 -0.18732105583E+03  0.12808900913E+04  0.12983625703E+04  0.10566000000E+00 0. -1.
        994    1    1    2    0    0 -0.10299539605E+03  0.19362290273E+03  0.17612818185E+03  0.32928476507E+03  0.17120000000E+03 0.  0.
        998    1    1    2    0    0  0.31117189800E+01 -0.63018468930E+01  0.42981723152E+02  0.43552664607E+02  0.10000000000E+00 0.  0.
</event>
<event>
 5    1  0.2313627E-009  0.3882172E+03  0.7957747E-01  0.3416141E+00
         13   -1    0    0    0    0  0.00000000000E+00  0.00000000000E+00  0.14999999963E+04  0.15000000000E+04  0.10566000000E+00 0.  1.
        994   -1    0    0    0    0 -0.00000000000E+00 -0.00000000000E+00  0.11368683772E-12  0.17120000000E+03  0.17120000000E+03 0.  0.
         13    1    1    2    0    0  0.26130882250E+03  0.10389413148E+02  0.12040754542E+04  0.12321476986E+04  0.10566000000E+00 0.  1.
        994    1    1    2    0    0 -0.26423181603E+03 -0.10607355555E+02  0.27574099033E+03  0.41865678347E+03  0.17120000000E+03 0.  0.
        998    1    1    2    0    0  0.29229935323E+01  0.21794240744E+00  0.20183551776E+02  0.20395517949E+02  0.10000000000E+00 0. -1.
</event>
<event>
 5    1  0.2313627E-009  0.3684731E+03  0.7957747E-01  0.3502938E+00
         13   -1    0    0    0    0  0.00000000000E+00  0.00000000000E+00  0.14999999963E+04  0.15000000000E+04  0.10566000000E+00 0. -1.
        994   -1    0    0    0    0 -0.00000000000E+00 -0.00000000000E+00  0.11368683772E-12  0.17120000000E+03  0.17120000000E+03 0.  0.
         13    1    1    2    0    0 -0.18764024301E+03 -0.11778213446E+03  0.12011165491E+04  0.12213772831E+04  0.10566000000E+00 0. -1.
        994    1    1    2    0    0  0.18313266262E+03  0.15612039920E+03  0.24609677687E+03  0.38442712541E+03  0.17120000000E+03 0.  0.
        998    1    1    2    0    0  0.45075803887E+01 -0.38338264742E+02  0.52786670348E+02  0.65395591524E+02  0.10000000000E+00 0. -1.
</event>
<event>
 5    1  0.2313627E-009  0.3882152E+03  0.7957747E-01  0.3416150E+00
         13   -1    0    0    0    0  0.00000000000E+00  0.00000000000E+00  0.14999999963E+04  0.15000000000E+04  0.10566000000E+00 0. -1.
        994   -1    0    0    0    0 -0.00000000000E+00 -0.00000000000E+00  0.11368683772E-12  0.17120000000E+03  0.17120000000E+03 0.  0.
         13    1    1    2    0    0 -0.30818411796E+03 -0.24763555330E+02  0.10644396150E+04  0.11084324018E+04  0.10566000000E+00 0. -1.
        994    1    1    2    0    0  0.30912783171E+03  0.25421693463E+02  0.43029643279E+03  0.55737845214E+03  0.17120000000E+03 0.  0.
        998    1    1    2    0    0 -0.94371374806E+00 -0.65813813347E+00  0.52639485326E+01  0.53891460915E+01  0.10000000000E+00 0.  1.
</event>
<event>
 5    1  0.2313627E-009  0.3878236E+03  0.7957747E-01  0.3417785E+00
         13   -1    0    0    0    0  0.00000000000E+00  0.00000000000E+00  0.14999999963E+04  0.15000000000E+04  0.10566000000E+00 0.  1.
        994   -1    0    0    0    0 -0.00000000000E+00 -0.00000000000E+00  0.11368683772E-12  0.17120000000E+03  0.17120000000E+03 0.  0.
         13    1    1    2    0    0 -0.12205490651E+03  0.89476464711E+02  0.76548265137E+03  0.78029939040E+03  0.10566000000E+00 0.  1.
        994    1    1    2    0    0  0.18337529588E+03 -0.14980116286E+03  0.21112280312E+03  0.36048462593E+03  0.17120000000E+03 0.  0.
        998    1    1    2    0    0 -0.61320389370E+02  0.60324698152E+02  0.52339454179E+03  0.53041598367E+03  0.10000000000E+00 0. -1.
</event>
<event>
 5    1  0.2313627E-009  0.3882921E+03  0.7957747E-01  0.3415829E+00
         13   -1    0    0    0    0  0.00000000000E+00  0.00000000000E+00  0.14999999963E+04  0.15000000000E+04  0.10566000000E+00 0. -1.
        994   -1    0    0    0    0 -0.00000000000E+00 -0.00000000000E+00  0.11368683772E-12  0.17120000000E+03  0.17120000000E+03 0.  0.
         13    1    1    2    0    0 -0.10694890902E+03 -0.22117412033E+03  0.12608005353E+04  0.12845131613E+04  0.10566000000E+00 0. -1.
        994    1    1    2    0    0  0.10739580547E+03  0.22217578494E+03  0.23228795011E+03  0.37968812229E+03  0.17120000000E+03 0.  0.
        998    1    1    2    0    0 -0.44689645035E+00 -0.10016646133E+01  0.69115108585E+01  0.69987163668E+01  0.10000000000E+00 0. -1.
</event>
<event>
 5    1  0.2313627E-009  0.3882973E+03  0.7957747E-01  0.3415807E+00
         13   -1    0    0    0    0  0.00000000000E+00  0.00000000000E+00  0.14999999963E+04  0.15000000000E+04  0.10566000000E+00 0. -1.
        994   -1    0    0    0    0 -0.00000000000E+00 -0.00000000000E+00  0.11368683772E-12  0.17120000000E+03  0.17120000000E+03 0.  0.
         13    1    1    2    0    0 -0.59228650018E+02  0.21151936935E+03  0.12365223273E+04  0.12558805491E+04  0.10566000000E+00 0. -1.
        994    1    1    2    0    0  0.62838707534E+02 -0.22254707364E+03  0.19907627541E+03  0.34988098917E+03  0.17120000000E+03 0.  0.
        998    1    1    2    0    0 -0.36100575156E+01  0.11027704292E+02  0.64401393585E+02  0.65438461725E+02  0.10000000000E+00 0.  1.
</event>
<event>
 5    1  0.2313627E-009  0.3882733E+03  0.7957747E-01  0.3415907E+00
         13   -1    0    0    0    0  0.00000000000E+00  0.00000000000E+00  0.14999999963E+04  0.15000000000E+04  0.10566000000E+00 0. -1.
        994   -1    0    0    0    0 -0.00000000000E+00 -0.00000000000E+00  0.11368683772E-12  0.17120000000E+03  0.17120000000E+03 0.  0.
         13    1    1    2    0    0  0.90447238082E+02 -0.24293447028E+03  0.12096487736E+04  0.12371127783E+04  0.10566000000E+00 0. -1.
        994    1    1    2    0    0 -0.92135887624E+02  0.24603108124E+03  0.27110743179E+03  0.41452261012E+03  0.17120000000E+03 0.  0.
        998    1    1    2    0    0  0.16886495422E+01 -0.30966109641E+01  0.19243790931E+02  0.19564611577E+02  0.10000000000E+00 0.  1.
</event>
<event>
 5    1  0.2313627E-009  0.3883009E+03  0.7957747E-01  0.3415792E+00
         13   -1    0    0    0    0  0.00000000000E+00  0.00000000000E+00  0.14999999963E+04  0.15000000000E+04  0.10566000000E+00 0. -1.
        994   -1    0    0    0    0 -0.00000000000E+00 -0.00000000000E+00  0.11368683772E-12  0.17120000000E+03  0.17120000000E+03 0.  0.
         13    1    1    2    0    0  0.11379305175E+02  0.14700321937E+03  0.81887111425E+03  0.83203927071E+03  0.10566000000E+00 0. -1.
        994    1    1    2    0    0 -0.18095236690E+02 -0.23273587830E+03  0.20351336957E+03  0.35386516956E+03  0.17120000000E+03 0.  0.
        998    1    1    2    0    0  0.67159315156E+01  0.85732658933E+02  0.47761551246E+03  0.48529555973E+03  0.10000000000E+00 0. -1.
</event>
<event>
 5    1  0.2313627E-009  0.3833472E+03  0.7957747E-01  0.3436712E+00
         13   -1    0    0    0    0  0.00000000000E+00  0.00000000000E+00  0.14999999963E+04  0.15000000000E+04  0.10566000000E+00 0. -1.
        994   -1    0    0    0    0 -0.00000000000E+00 -0.00000000000E+00  0.11368683772E-12  0.17120000000E+03  0.17120000000E+03 0.  0.
         13    1    1    2    0    0  0.21365389492E+03  0.29721408109E+02  0.90962850969E+03  0.93485581012E+03  0.10566000000E+00 0. -1.
        994    1    1    2    0    0 -0.24562885458E+03 -0.64487794932E+02  0.25749063423E+03  0.40012882502E+03  0.17120000000E+03 0.  0.
        998    1    1    2    0    0  0.31974959657E+02  0.34766386823E+02  0.33288085236E+03  0.33621536486E+03  0.10000000000E+00 0. -1.
</event>
<event>
 5    1  0.2313627E-009  0.3871212E+03  0.7957747E-01  0.3420726E+00
         13   -1    0    0    0    0  0.00000000000E+00  0.00000000000E+00  0.14999999963E+04  0.15000000000E+04  0.10566000000E+00 0.  1.
        994   -1    0    0    0    0 -0.00000000000E+00 -0.00000000000E+00  0.11368683772E-12  0.17120000000E+03  0.17120000000E+03 0.  0.
         13    1    1    2    0    0 -0.20958575129E+03  0.18056024720E+03  0.86067797382E+03  0.90404356964E+03  0.10566000000E+00 0.  1.
        994    1    1    2    0    0  0.23173367890E+03 -0.22166434250E+03  0.48618323383E+03  0.60705778599E+03  0.17120000000E+03 0.  0.
        998    1    1    2    0    0 -0.22147927612E+02  0.41104095298E+02  0.15313878863E+03  0.16009864437E+03  0.10000000000E+00 0.  1.
</event>
<event>
 5    1  0.7759393E-009  0.3882824E+03  0.7957747E-01  0.3415869E+00
         13   -1    0    0    0    0  0.00000000000E+00  0.00000000000E+00  0.14999999963E+04  0.15000000000E+04  0.10566000000E+00 0. -1.
        994   -1    0    0    0    0 -0.00000000000E+00 -0.00000000000E+00  0.11368683772E-12  0.17120000000E+03  0.17120000000E+03 0.  0.
         13    1    1    2    0    0  0.33508015151E+03  0.63662885750E+02  0.87015131383E+03  0.93460953937E+03  0.10566000000E+00 0. -1.
        994    1    1    2    0    0 -0.33519042862E+03 -0.63713145936E+02  0.62940309346E+03  0.73611798134E+03  0.17120000000E+03 0.  0.
        998    1    1    2    0    0  0.11027710477E+00  0.50260185894E-01  0.44558899062E+00  0.47247928493E+00  0.10000000000E+00 0.  0.
</event>
<event>
 5    1  0.2313627E-009  0.3883008E+03  0.7957747E-01  0.3415793E+00
         13   -1    0    0    0    0  0.00000000000E+00  0.00000000000E+00  0.14999999963E+04  0.15000000000E+04  0.10566000000E+00 0. -1.
        994   -1    0    0    0    0 -0.00000000000E+00 -0.00000000000E+00  0.11368683772E-12  0.17120000000E+03  0.17120000000E+03 0.  0.
         13    1    1    2    0    0  0.53353477876E+02  0.24449695199E+03  0.11832332878E+04  0.12094074489E+04  0.10566000000E+00 0. -1.
        994    1    1    2    0    0 -0.55661517170E+02 -0.25492081061E+03  0.26643588169E+03  0.41034173956E+03  0.17120000000E+03 0.  0.
        998    1    1    2    0    0  0.23080392943E+01  0.10423858616E+02  0.50330826832E+02  0.51450811494E+02  0.10000000000E+00 0.  0.
</event>
<event>
 5    1  0.2313627E-009  0.3883007E+03  0.7957747E-01  0.3415793E+00
         13   -1    0    0    0    0  0.00000000000E+00  0.00000000000E+00  0.14999999963E+04  0.15000000000E+04  0.10566000000E+00 0.  1.
        994   -1    0    0    0    0 -0.00000000000E+00 -0.00000000000E+00  0.11368683772E-12  0.17120000000E+03  0.17120000000E+03 0.  0.
         13    1    1    2    0    0 -0.22352251372E+03 -0.10232461806E+03  0.11038094561E+04  0.11308527615E+04  0.10566000000E+00 0.  1.
        994    1    1    2    0    0  0.24507271692E+03  0.11211030035E+03  0.28924789117E+03  0.43081682716E+03  0.17120000000E+03 0.  0.
        998    1    1    2    0    0 -0.21550203193E+02 -0.97856822850E+01  0.10694264902E+03  0.10953041137E+03  0.10000000000E+00 0.  0.
</event>
<event>
 5    1  0.2313627E-009  0.3867202E+03  0.7957747E-01  0.3422409E+00
         13   -1    0    0    0    0  0.00000000000E+00  0.00000000000E+00  0.14999999963E+04  0.15000000000E+04  0.10566000000E+00 0.  1.
        994   -1    0    0    0    0 -0.00000000000E+00 -0.00000000000E+00  0.11368683772E-12  0.17120000000E+03  0.17120000000E+03 0.  0.
         13    1    1    2    0    0 -0.54588610896E+02  0.58518786452E+01  0.23252698417E+03  0.23892042704E+03  0.10566000000E+00 0.  1.
        994    1    1    2    0    0  0.25476735349E+03 -0.12420635757E+03  0.33416227649E+03  0.47043330101E+03  0.17120000000E+03 0.  0.
        998    1    1    2    0    0 -0.20017874259E+03  0.11835447893E+03  0.93331073561E+03  0.96184627196E+03  0.10000000000E+00 0.  1.
</event>
<event>
 5    1  0.2313627E-009  0.2253288E+03  0.7957747E-01  0.4633883E+00
         13   -1    0    0    0    0  0.00000000000E+00  0.00000000000E+00  0.14999999963E+04  0.15000000000E+04  0.10566000000E+00 0.  1.
        994   -1    0    0    0    0 -0.00000000000E+00 -0.00000000000E+00  0.11368683772E-12  0.17120000000E+03  0.17120000000E+03 0.  0.
         13    1    1    2    0    0 -0.13548419469E+03 -0.88264009360E+02  0.48464907238E+03  0.51091216161E+03  0.10566000000E+00 0.  1.
        994    1    1    2    0    0 -0.83975451403E+02  0.35799117887E+02  0.10144521396E+03  0.21893840393E+03  0.17120000000E+03 0.  0.
        998    1    1    2    0    0  0.21945964609E+03  0.52464891473E+02  0.91390570994E+03  0.94134943446E+03  0.10000000000E+00 0.  1.
</event>
<event>
 5    1  0.2313627E-009  0.3882746E+03  0.7957747E-01  0.3415902E+00
         13   -1    0    0    0    0  0.00000000000E+00  0.00000000000E+00  0.14999999963E+04  0.15000000000E+04  0.10566000000E+00 0. -1.
        994   -1    0    0    0    0 -0.00000000000E+00 -0.00000000000E+00  0.11368683772E-12  0.17120000000E+03  0.17120000000E+03 0.  0.
         13    1    1    2    0    0  0.36339178997E+02  0.17920882343E+03  0.10755504002E+04  0.10909835071E+04  0.10566000000E+00 0. -1.
        994    1    1    2    0    0 -0.43269595401E+02 -0.21721203161E+03  0.18017241917E+03  0.33290368756E+03  0.17120000000E+03 0.  0.
        998    1    1    2    0    0  0.69304164037E+01  0.38003208179E+02  0.24427717694E+03  0.24731280533E+03  0.10000000000E+00 0. -1.
</event>
<event>
 5    1  0.2313627E-009  0.3883009E+03  0.7957747E-01  0.3415792E+00
         13   -1    0    0    0    0  0.00000000000E+00  0.00000000000E+00  0.14999999963E+04  0.15000000000E+04  0.10566000000E+00 0.  1.
        994   -1    0    0    0    0 -0.00000000000E+00 -0.00000000000E+00  0.11368683772E-12  0.17120000000E+03  0.17120000000E+03 0.  0.
         13    1    1    2    0    0  0.12740662003E+03  0.10716621375E+03  0.95314218140E+03  0.96757277417E+03  0.10566000000E+00 0.  1.
        994    1    1    2    0    0 -0.17460740791E+03 -0.14690778157E+03  0.19298660400E+03  0.34441677152E+03  0.17120000000E+03 0.  0.
        998    1    1    2    0    0  0.47200787881E+02  0.39741567825E+02  0.35387121088E+03  0.35921045430E+03  0.10000000000E+00 0. -1.
</event>
<event>
 5    1  0.2313627E-009  0.3882784E+03  0.7957747E-01  0.3415886E+00
         13   -1    0    0    0    0  0.00000000000E+00  0.00000000000E+00  0.14999999963E+04  0.15000000000E+04  0.10566000000E+00 0. -1.
        994   -1    0    0    0    0 -0.00000000000E+00 -0.00000000000E+00  0.11368683772E-12  0.17120000000E+03  0.17120000000E+03 0.  0.
         13    1    1    2    0    0  0.28682133806E+03  0.11771103616E+03  0.10610257207E+04  0.11053949336E+04  0.10566000000E+00 0. -1.
        994    1    1    2    0    0 -0.28789132697E+03 -0.11846604171E+03  0.43517364196E+03  0.56178390671E+03  0.17120000000E+03 0.  0.
        998    1    1    2    0    0  0.10699889047E+01  0.75500554674E+00  0.38006335696E+01  0.40211596788E+01  0.10000000000E+00 0. -1.
</event>
<event>
 5    1  0.2313627E-009  0.3882976E+03  0.7957747E-01  0.3415806E+00
         13   -1    0    0    0    0  0.00000000000E+00  0.00000000000E+00  0.14999999963E+04  0.15000000000E+04  0.10566000000E+00 0.  1.
        994   -1    0    0    0    0 -0.00000000000E+00 -0.00000000000E+00  0.11368683772E-12  0.17120000000E+03  0.17120000000E+03 0.  0.
         13    1    1    2    0    0  0.24313964073E+03 -0.56625894246E+02  0.12402044228E+04  0.12650811825E+04  0.10566000000E+00 0.  1.
        994    1    1    2    0    0 -0.24606793086E+03  0.57206099906E+02  0.24592922079E+03  0.39193441556E+03  0.17120000000E+03 0.  0.
        998    1    1    2    0    0  0.29282901285E+01 -0.58020566045E+00  0.13866352662E+02  0.14184401920E+02  0.10000000000E+00 0.  1.
</event>
<event>
 5    1  0.2313627E-009  0.3877214E+03  0.7957747E-01  0.3418212E+00
         13   -1    0    0    0    0  0.00000000000E+00  0.00000000000E+00  0.14999999963E+04  0.15000000000E+04  0.10566000000E+00 0.  1.
        994   -1    0    0    0    0 -0.00000000000E+00 -0.00000000000E+00  0.11368683772E-12  0.17120000000E+03  0.17120000000E+03 0.  0.
         13    1    1    2    0    0  0.12567801298E+03  0.19109448535E+03  0.12200746215E+04  0.12413275790E+04  0.10566000000E+00 0.  1.
        994    1    1    2    0    0 -0.12680295759E+03 -0.19871384351E+03  0.20904357951E+03  0.35857333949E+03  0.17120000000E+03 0.  0.
        998    1    1    2    0    0  0.11249446125E+01  0.76193581647E+01  0.70881795292E+02  0.71299081502E+02  0.10000000000E+00 0.  1.
</event>
<event>
 5    1  0.2313627E-009  0.3883006E+03  0.7957747E-01  0.3415794E+00
         13   -1    0    0    0    0  0.00000000000E+00  0.00000000000E+00  0.14999999963E+04  0.15000000000E+04  0.10566000000E+00 0. -1.
        994   -1    0    0    0    0 -0.00000000000E+00 -0.00000000000E+00  0.11368683772E-12  0.17120000000E+03  0.17120000000E+03 0.  0.
         13    1    1    2    0    0 -0.31003942087E+02  0.18904600378E+03  0.11124480069E+04  0.11288224906E+04  0.10566000000E+00 0. -1.
        994    1    1    2    0    0  0.36557013420E+02 -0.22311754126E+03  0.18890368954E+03  0.34075195725E+03  0.17120000000E+03 0.  0.
        998    1    1    2    0    0 -0.55530713329E+01  0.34071537475E+02  0.19864829984E+03  0.20162555219E+03  0.10000000000E+00 0.  0.
</event>
<event>
 5    1  0.2313627E-009  0.3882697E+03  0.7957747E-01  0.3415922E+00
         13   -1    0    0    0    0  0.00000000000E+00  0.00000000000E+00  0.14999999963E+04  0.15000000000E+04  0.10566000000E+00 0.  1.
        994   -1    0    0    0    0 -0.00000000000E+00 -0.00000000000E+00  0.11368683772E-12  0.17120000000E+03  0.17120000000E+03 0.  0.
         13    1    1    2    0    0 -0.55351265115E+02 -0.20015346939E+03  0.10398800936E+04  0.10604130300E+04  0.10566000000E+00 0.  1.
        994    1    1    2    0    0  0.65076146022E+02  0.24402143859E+03  0.24578300379E+03  0.39179087818E+03  0.17120000000E+03 0.  0.
        998    1    1    2    0    0 -0.97248809079E+01 -0.43867969196E+02  0.21433689888E+03  0.21899609187E+03  0.10000000000E+00 0. -1.
</event>
<event>
 5    1  0.2313627E-009  0.3882909E+03  0.7957747E-01  0.3415834E+00
         13   -1    0    0    0    0  0.00000000000E+00  0.00000000000E+00  0.14999999963E+04  0.15000000000E+04  0.10566000000E+00 0.  1.
        994   -1    0    0    0    0 -0.00000000000E+00 -0.00000000000E+00  0.11368683772E-12  0.17120000000E+03  0.17120000000E+03 0.  0.
         13    1    1    2    0    0  0.19958325894E+03 -0.91445405046E+02  0.12689074966E+04  0.12877585121E+04  0.10566000000E+00 0.  1.
        994    1    1    2    0    0 -0.20559986547E+03  0.94900387668E+02  0.18959862509E+03  0.34137145004E+03  0.17120000000E+03 0.  0.
        998    1    1    2    0    0  0.60166065288E+01 -0.34549826217E+01  0.41493874617E+02  0.42070037910E+02  0.10000000000E+00 0.  1.
</event>
<event>
 5    1  0.2313627E-009  0.3865113E+03  0.7957747E-01  0.3423288E+00
         13   -1    0    0    0    0  0.00000000000E+00  0.00000000000E+00  0.14999999963E+04  0.15000000000E+04  0.10566000000E+00 0.  1.
        994   -1    0    0    0    0 -0.00000000000E+00 -0.00000000000E+00  0.11368683772E-12  0.17120000000E+03  0.17120000000E+03 0.  0.
         13    1    1    2    0    0  0.25396382022E+03 -0.13341054418E+03  0.10347116750E+04  0.10737431056E+04  0.10566000000E+00 0.  1.
        994    1    1    2    0    0 -0.25980580837E+03  0.14916071128E+03  0.39181919409E+03  0.52209165547E+03  0.17120000000E+03 0.  0.
        998    1    1    2    0    0  0.58419881433E+01 -0.15750167109E+02  0.73469127230E+02  0.75365238973E+02  0.10000000000E+00 0. -1.
</event>
<event>
 5    1  0.2313627E-009  0.3882527E+03  0.7957747E-01  0.3415993E+00
         13   -1    0    0    0    0  0.00000000000E+00  0.00000000000E+00  0.14999999963E+04  0.15000000000E+04  0.10566000000E+00 0. -1.
        994   -1    0    0    0    0 -0.00000000000E+00 -0.00000000000E+00  0.11368683772E-12  0.17120000000E+03  0.17120000000E+03 0.  0.
         13    1    1    2    0    0 -0.21069637370E+02  0.19973593530E+03  0.11369026569E+04  0.11545068366E+04  0.10566000000E+00 0. -1.
        994    1    1    2    0    0  0.25163262492E+02 -0.23113263829E+03  0.20166288934E+03  0.35218297404E+03  0.17120000000E+03 0.  0.
        998    1    1    2    0    0 -0.40936251229E+01  0.31396702996E+02  0.16143445006E+03  0.16451018932E+03  0.10000000000E+00 0. -1.
</event>
<event>
 5    1  0.2313627E-009  0.3882881E+03  0.7957747E-01  0.3415846E+00
         13   -1    0    0    0    0  0.00000000000E+00  0.00000000000E+00  0.14999999963E+04  0.15000000000E+04  0.10566000000E+00 0.  1.
        994   -1    0    0    0    0 -0.00000000000E+00 -0.00000000000E+00  0.11368683772E-12  0.17120000000E+03  0.17120000000E+03 0.  0.
         13    1    1    2    0    0 -0.63647955296E+02  0.23912620684E+03  0.12624717187E+04  0.12864941728E+04  0.10566000000E+00 0.  1.
        994    1    1    2    0    0  0.63892992181E+02 -0.23950051055E+03  0.23481994164E+03  0.38195896900E+03  0.17120000000E+03 0.  0.
        998    1    1    2    0    0 -0.24503688467E+00  0.37430371720E+00  0.27083359329E+01  0.27468581821E+01  0.10000000000E+00 0. -1.
</event>
<event>
 5    1  0.2313627E-009  0.3882938E+03  0.7957747E-01  0.3415822E+00
         13   -1    0    0    0    0  0.00000000000E+00  0.00000000000E+00  0.14999999963E+04  0.15000000000E+04  0.10566000000E+00 0. -1.
        994   -1    0    0    0    0 -0.00000000000E+00 -0.00000000000E+00  0.11368683772E-12  0.17120000000E+03  0.17120000000E+03 0.  0.
         13    1    1    2    0    0 -0.19505051576E+02 -0.18716722753E+03  0.10265665263E+04  0.10436718173E+04  0.10566000000E+00 0. -1.
        994    1    1    2    0    0  0.24961051737E+02  0.23636417651E+03  0.21234369996E+03  0.36178773467E+03  0.17120000000E+03 0.  0.
        998    1    1    2    0    0 -0.54560001609E+01 -0.49196948981E+02  0.26108976998E+03  0.26574044803E+03  0.10000000000E+00 0. -1.
</event>
<event>
 5    1  0.2313627E-009  0.3862395E+03  0.7957747E-01  0.3424432E+00
         13   -1    0    0    0    0  0.00000000000E+00  0.00000000000E+00  0.14999999963E+04  0.15000000000E+04  0.10566000000E+00 0.  1.
        994   -1    0    0    0    0 -0.00000000000E+00 -0.00000000000E+00  0.11368683772E-12  0.17120000000E+03  0.17120000000E+03 0.  0.
         13    1    1    2    0    0  0.57342665876E+01 -0.11934412982E+02  0.67858297276E+02  0.69138062598E+02  0.10566000000E+00 0.  1.
        994    1    1    2    0    0 -0.92846854521E+02  0.88389841781E+01  0.30044950693E+02  0.19725821934E+03  0.17120000000E+03 0.  0.
        998    1    1    2    0    0  0.87112587933E+02  0.30954288038E+01  0.14020967483E+04  0.14048037181E+04  0.10000000000E+00 0.  1.
</event>
<event>
 5    1  0.2313627E-009  0.3855535E+03  0.7957747E-01  0.3427328E+00
         13   -1    0    0    0    0  0.00000000000E+00  0.00000000000E+00  0.14999999963E+04  0.15000000000E+04  0.10566000000E+00 0.  1.
        994   -1    0    0    0    0 -0.00000000000E+00 -0.00000000000E+00  0.11368683772E-12  0.17120000000E+03  0.17120000000E+03 0.  0.
         13    1    1    2    0    0  0.16246389179E+02  0.33642111807E+01  0.89944842693E+02  0.91462281675E+02  0.10566000000E+00 0.  1.
        994    1    1    2    0    0 -0.30542052467E+03 -0.15008791821E+03  0.65006245640E+03  0.75345784043E+03  0.17120000000E+03 0.  0.
        998    1    1    2    0    0  0.28917413549E+03  0.14672370702E+03  0.75999269719E+03  0.82627987790E+03  0.10000000000E+00 0.  1.
</event>
<event>
 5    1  0.2313627E-009  0.3878106E+03  0.7957747E-01  0.3417839E+00
         13   -1    0    0    0    0  0.00000000000E+00  0.00000000000E+00  0.14999999963E+04  0.15000000000E+04  0.10566000000E+00 0.  1.
        994   -1    0    0    0    0 -0.00000000000E+00 -0.00000000000E+00  0.11368683772E-12  0.17120000000E+03  0.17120000000E+03 0.  0.
         13    1    1    2    0    0  0.20159520720E+03  0.10094060421E+03  0.12305230829E+04  0.12510062757E+04  0.10566000000E+00 0.  1.
        994    1    1    2    0    0 -0.21051869919E+03 -0.10038003012E+03  0.20374966110E+03  0.35386104272E+03  0.17120000000E+03 0.  0.
        998    1    1    2    0    0  0.89234919906E+01 -0.56057409422E+00  0.65727252302E+02  0.66332681596E+02  0.10000000000E+00 0. -1.
</event>
<event>
 5    1  0.2313627E-009  0.3882655E+03  0.7957747E-01  0.3415940E+00
         13   -1    0    0    0    0  0.00000000000E+00  0.00000000000E+00  0.14999999963E+04  0.15000000000E+04  0.10566000000E+00 0.  1.
        994   -1    0    0    0    0 -0.00000000000E+00 -0.00000000000E+00  0.11368683772E-12  0.17120000000E+03  0.17120000000E+03 0.  0.
         13    1    1    2    0    0 -0.26677866841E+02  0.20895583772E+03  0.11996696754E+04  0.12180236418E+04  0.10566000000E+00 0.  1.
        994    1    1    2    0    0  0.30696314207E+02 -0.22819530987E+03  0.19711890780E+03  0.34811013625E+03  0.17120000000E+03 0.  0.
        998    1    1    2    0    0 -0.40184473660E+01  0.19239472152E+02  0.10321141308E+03  0.10506622197E+03  0.10000000000E+00 0. -1.
</event>
<event>
 5    1  0.2313627E-009  0.3882893E+03  0.7957747E-01  0.3415840E+00
         13   -1    0    0    0    0  0.00000000000E+00  0.00000000000E+00  0.14999999963E+04  0.15000000000E+04  0.10566000000E+00 0. -1.
        994   -1    0    0    0    0 -0.00000000000E+00 -0.00000000000E+00  0.11368683772E-12  0.17120000000E+03  0.17120000000E+03 0.  0.
         13    1    1    2    0    0  0.41493180755E+02  0.21530007682E+03  0.13192245054E+04  0.13373216195E+04  0.10566000000E+00 0. -1.
        994    1    1    2    0    0 -0.41767749831E+02 -0.21595269757E+03  0.17732349964E+03  0.33035310811E+03  0.17120000000E+03 0.  0.
        998    1    1    2    0    0  0.27456907576E+00  0.65262074570E+00  0.34519912233E+01  0.35252723895E+01  0.10000000000E+00 0. -1.
</event>
<event>
 5    1  0.2313627E-009  0.3882981E+03  0.7957747E-01  0.3415804E+00
         13   -1    0    0    0    0  0.00000000000E+00  0.00000000000E+00  0.14999999963E+04  0.15000000000E+04  0.10566000000E+00 0. -1.
        994   -1    0    0    0    0 -0.00000000000E+00 -0.00000000000E+00  0.11368683772E-12  0.17120000000E+03  0.17120000000E+03 0.  0.
         13    1    1    2    0    0 -0.34348077860E+02  0.88874299012E+02  0.51810347533E+03  0.52679185053E+03  0.10566000000E+00 0. -1.
        994    1    1    2    0    0  0.85255763041E+02 -0.21925203647E+03  0.20723885930E+03  0.35720776228E+03  0.17120000000E+03 0.  0.
        998    1    1    2    0    0 -0.50907685181E+02  0.13037773746E+03  0.77465766165E+03  0.78720038719E+03  0.10000000000E+00 0.  1.
</event>
<event>
 5    1  0.2313627E-009  0.3882893E+03  0.7957747E-01  0.3415841E+00
         13   -1    0    0    0    0  0.00000000000E+00  0.00000000000E+00  0.14999999963E+04  0.15000000000E+04  0.10566000000E+00 0. -1.
        994   -1    0    0    0    0 -0.00000000000E+00 -0.00000000000E+00  0.11368683772E-12  0.17120000000E+03  0.17120000000E+03 0.  0.
         13    1    1    2    0    0 -0.23829747357E+03 -0.49623848688E+02  0.12736217823E+04  0.12966729225E+04  0.10566000000E+00 0. -1.
        994    1    1    2    0    0  0.23855412906E+03  0.49626770636E+02  0.22530817556E+03  0.37342215096E+03  0.17120000000E+03 0.  0.
        998    1    1    2    0    0 -0.25665548690E+00 -0.29219476767E-02  0.10700383814E+01  0.11049265651E+01  0.10000000000E+00 0.  0.
</event>
<event>
 5    1  0.2313627E-009  0.3842263E+03  0.7957747E-01  0.3432960E+00
         13   -1    0    0    0    0  0.00000000000E+00  0.00000000000E+00  0.14999999963E+04  0.15000000000E+04  0.10566000000E+00 0. -1.
        994   -1    0    0    0    0 -0.00000000000E+00 -0.00000000000E+00  0.11368683772E-12  0.17120000000E+03  0.17120000000E+03 0.  0.
         13    1    1    2    0    0 -0.94050927342E+01 -0.82725875385E+01  0.42115355146E+02  0.43938659254E+02  0.10566000000E+00 0. -1.
        994    1    1    2    0    0  0.50933258488E+02 -0.71648521838E+02  0.27922360930E+02  0.19446543585E+03  0.17120000000E+03 0.  0.
        998    1    1    2    0    0 -0.41528165754E+02  0.79921109377E+02  0.14299622802E+04  0.14327959049E+04  0.10000000000E+00 0. -1.
</event>
<event>
 5    1  0.2313627E-009  0.3874987E+03  0.7957747E-01  0.3419143E+00
         13   -1    0    0    0    0  0.00000000000E+00  0.00000000000E+00  0.14999999963E+04  0.15000000000E+04  0.10566000000E+00 0. -1.
        994   -1    0    0    0    0 -0.00000000000E+00 -0.00000000000E+00  0.11368683772E-12  0.17120000000E+03  0.17120000000E+03 0.  0.
         13    1    1    2    0    0  0.49633426844E+02  0.24260079044E+03  0.11910808927E+04  0.12165493516E+04  0.10566000000E+00 0. -1.
        994    1    1    2    0    0 -0.58139627167E+02 -0.24980766167E+03  0.25663799531E+03  0.40119394900E+03  0.17120000000E+03 0.  0.
        998    1    1    2    0    0  0.85062003222E+01  0.72068712337E+01  0.52281108238E+02  0.53456699444E+02  0.10000000000E+00 0. -1.
</event>
<event>
 5    1  0.2313627E-009  0.3872781E+03  0.7957747E-01  0.3420068E+00
         13   -1    0    0    0    0  0.00000000000E+00  0.00000000000E+00  0.14999999963E+04  0.15000000000E+04  0.10566000000E+00 0.  1.
        994   -1    0    0    0    0 -0.00000000000E+00 -0.00000000000E+00  0.11368683772E-12  0.17120000000E+03  0.17120000000E+03 0.  0.
         13    1    1    2    0    0 -0.64731166776E+02  0.21229324547E+03  0.11813516003E+04  0.12020192015E+04  0.10566000000E+00 0.  1.
        994    1    1    2    0    0  0.70363719673E+02 -0.22099873316E+03  0.20183165078E+03  0.35190474331E+03  0.17120000000E+03 0.  0.
        998    1    1    2    0    0 -0.56325528969E+01  0.87054876966E+01  0.11681674517E+03  0.11727605518E+03  0.10000000000E+00 0.  1.
</event>
<event>
 5    1  0.2313627E-009  0.3882422E+03  0.7957747E-01  0.3416037E+00
         13   -1    0    0    0    0  0.00000000000E+00  0.00000000000E+00  0.14999999963E+04  0.15000000000E+04  0.10566000000E+00 0. -1.
        994   -1    0    0    0    0 -0.00000000000E+00 -0.00000000000E+00  0.11368683772E-12  0.17120000000E+03  0.17120000000E+03 0.  0.
         13    1    1    2    0    0  0.19599405690E+03  0.12171680962E+03  0.12957316257E+04  0.13161113589E+04  0.10566000000E+00 0. -1.
        994    1    1    2    0    0 -0.19665538009E+03 -0.12163329618E+03  0.19911582736E+03  0.34989219763E+03  0.17120000000E+03 0.  0.
        998    1    1    2    0    0  0.66132318684E+00 -0.83513439266E-01  0.51525432628E+01  0.51964434883E+01  0.10000000000E+00 0.  1.
</event>
<event>
 5    1  0.2313627E-009  0.3820707E+03  0.7957747E-01  0.3442191E+00
         13   -1    0    0    0    0  0.00000000000E+00  0.00000000000E+00  0.14999999963E+04  0.15000000000E+04  0.10566000000E+00 0.  1.
        994   -1    0    0    0    0 -0.00000000000E+00 -0.00000000000E+00  0.11368683772E-12  0.17120000000E+03  0.17120000000E+03 0.  0.
         13    1    1    2    0    0  0.20813199644E+03  0.12055601143E+02  0.81601201825E+03  0.84222318334E+03  0.10566000000E+00 0.  1.
        994    1    1    2    0    0 -0.26379935487E+03  0.31887563707E+02  0.29102395464E+03  0.42966416947E+03  0.17120000000E+03 0.  0.
        998    1    1    2    0    0  0.55667358429E+02 -0.43943164849E+02  0.39296402339E+03  0.39931264719E+03  0.10000000000E+00 0.  1.
</event>
<event>
 5    1  0.2313627E-009  0.3876224E+03  0.7957747E-01  0.3418626E+00
         13   -1    0    0    0    0  0.00000000000E+00  0.00000000000E+00  0.14999999963E+04  0.15000000000E+04  0.10566000000E+00 0. -1.
        994   -1    0    0    0    0 -0.00000000000E+00 -0.00000000000E+00  0.11368683772E-12  0.17120000000E+03  0.17120000000E+03 0.  0.
         13    1    1    2    0    0  0.14686446689E+02 -0.31507587614E+02  0.18371090470E+03  0.18697092679E+03  0.10566000000E+00 0. -1.
        994    1    1    2    0    0 -0.68309983409E+02  0.16749446284E+03  0.11543241507E+03  0.27450816265E+03  0.17120000000E+03 0.  0.
        998    1    1    2    0    0  0.53623536720E+02 -0.13598687523E+03  0.12008566765E+04  0.12097209106E+04  0.10000000000E+00 0. -1.
</event>
<event>
 5    1  0.2313627E-009  0.3883009E+03  0.7957747E-01  0.3415792E+00
         13   -1    0    0    0    0  0.00000000000E+00  0.00000000000E+00  0.14999999963E+04  0.15000000000E+04  0.10566000000E+00 0. -1.
        994   -1    0    0    0    0 -0.00000000000E+00 -0.00000000000E+00  0.11368683772E-12  0.17120000000E+03  0.17120000000E+03 0.  0.
         13    1    1    2    0    0 -0.81341705050E+02 -0.20377830067E+03  0.95605747154E+03  0.98091180483E+03  0.10566000000E+00 0. -1.
        994    1    1    2    0    0  0.10177965963E+03  0.25508994909E+03  0.30383136940E+03  0.44390643414E+03  0.17120000000E+03 0.  0.
        998    1    1    2    0    0 -0.20437954576E+02 -0.51311648417E+02  0.24011115534E+03  0.24638176103E+03  0.10000000000E+00 0.  0.
</event>
<event>
 5    1  0.2313627E-009  0.3882317E+03  0.7957747E-01  0.3416081E+00
         13   -1    0    0    0    0  0.00000000000E+00  0.00000000000E+00  0.14999999963E+04  0.15000000000E+04  0.10566000000E+00 0.  1.
        994   -1    0    0    0    0 -0.00000000000E+00 -0.00000000000E+00  0.11368683772E-12  0.17120000000E+03  0.17120000000E+03 0.  0.
         13    1    1    2    0    0 -0.76689955886E+02  0.21197432196E+03  0.13105296164E+04  0.13297753003E+04  0.10566000000E+00 0.  1.
        994    1    1    2    0    0  0.76860497205E+02 -0.21236800921E+03  0.18852129947E+03  0.34037835965E+03  0.17120000000E+03 0.  0.
        998    1    1    2    0    0 -0.17054131919E+00  0.39368725257E+00  0.94908036255E+00  0.10463400637E+01  0.10000000000E+00 0. -1.
</event>
<event>
 5    1  0.2313627E-009  0.3870479E+03  0.7957747E-01  0.3421033E+00
         13   -1    0    0    0    0  0.00000000000E+00  0.00000000000E+00  0.14999999963E+04  0.15000000000E+04  0.10566000000E+00 0.  1.
        994   -1    0    0    0    0 -0.00000000000E+00 -0.00000000000E+00  0.11368683772E-12  0.17120000000E+03  0.17120000000E+03 0.  0.
         13    1    1    2    0    0  0.21758944891E+02 -0.44779565279E+01  0.12573062332E+03  0.12767812883E+03  0.10566000000E+00 0.  1.
        994    1    1    2    0    0 -0.12025733377E+03  0.32532404462E+00  0.49373368089E+02  0.21496302389E+03  0.17120000000E+03 0.  0.
        998    1    1    2    0    0  0.98498388884E+02  0.41526324833E+01  0.13248960049E+04  0.13285588473E+04  0.10000000000E+00 0.  1.
</event>
<event>
 5    1  0.2313627E-009  0.3881942E+03  0.7957747E-01  0.3416237E+00
         13   -1    0    0    0    0  0.00000000000E+00  0.00000000000E+00  0.14999999963E+04  0.15000000000E+04  0.10566000000E+00 0. -1.
        994   -1    0    0    0    0 -0.00000000000E+00 -0.00000000000E+00  0.11368683772E-12  0.17120000000E+03  0.17120000000E+03 0.  0.
         13    1    1    2    0    0  0.19137216880E+03  0.21021436822E+03  0.11174997411E+04  0.11530910936E+04  0.10566000000E+00 0. -1.
        994    1    1    2    0    0 -0.19614417013E+03 -0.21376661503E+03  0.35271653102E+03  0.48773670401E+03  0.17120000000E+03 0.  0.
        998    1    1    2    0    0  0.47720013359E+01  0.35522468120E+01  0.29783724181E+02  0.30372202427E+02  0.10000000000E+00 0.  1.
</event>
<event>
 5    1  0.2313627E-009  0.3883009E+03  0.7957747E-01  0.3415792E+00
         13   -1    0    0    0    0  0.00000000000E+00  0.00000000000E+00  0.14999999963E+04  0.15000000000E+04  0.10566000000E+00 0.  1.
        994   -1    0    0    0    0 -0.00000000000E+00 -0.00000000000E+00  0.11368683772E-12  0.17120000000E+03  0.17120000000E+03 0.  0.
         13    1    1    2    0    0 -0.88686657879E+02 -0.85256780969E+02  0.73760923839E+03  0.74779772780E+03  0.10566000000E+00 0.  1.
        994    1    1    2    0    0  0.15878283271E+03  0.15281147171E+03  0.17807839135E+03  0.33103577951E+03  0.17120000000E+03 0.  0.
        998    1    1    2    0    0 -0.70096174834E+02 -0.67554690737E+02  0.58431236654E+03  0.59236649269E+03  0.10000000000E+00 0.  1.
</event>
<event>
 5    1  0.2313627E-009  0.3882921E+03  0.7957747E-01  0.3415829E+00
         13   -1    0    0    0    0  0.00000000000E+00  0.00000000000E+00  0.14999999963E+04  0.15000000000E+04  0.10566000000E+00 0. -1.
        994   -1    0    0    0    0 -0.00000000000E+00 -0.00000000000E+00  0.11368683772E-12  0.17120000000E+03  0.17120000000E+03 0.  0.
         13    1    1    2    0    0 -0.31490473823E+02  0.19178074134E+03  0.11645405783E+04  0.11806465484E+04  0.10566000000E+00 0. -1.
        994    1    1    2    0    0  0.36657437600E+02 -0.21684128352E+03  0.17725212565E+03  0.33029027539E+03  0.17120000000E+03 0.  0.
        998    1    1    2    0    0 -0.51669637765E+01  0.25060542176E+02  0.15820729234E+03  0.16026317618E+03  0.10000000000E+00 0. -1.
</event>
<event>
 5    1  0.2313627E-009  0.3882950E+03  0.7957747E-01  0.3415817E+00
         13   -1    0    0    0    0  0.00000000000E+00  0.00000000000E+00  0.14999999963E+04  0.15000000000E+04  0.10566000000E+00 0.  1.
        994   -1    0    0    0    0 -0.00000000000E+00 -0.00000000000E+00  0.11368683772E-12  0.17120000000E+03  0.17120000000E+03 0.  0.
         13    1    1    2    0    0  0.23885526340E+03  0.14322271762E+03  0.10823595308E+04  0.11176165482E+04  0.10566000000E+00 0.  1.
        994    1    1    2    0    0 -0.25069379926E+03 -0.15097090581E+03  0.36118652616E+03  0.49538342934E+03  0.17120000000E+03 0.  0.
        998    1    1    2    0    0  0.11838535860E+02  0.77481881851E+01  0.56453939313E+02  0.58200022469E+02  0.10000000000E+00 0.  1.
</event>
<event>
 5    1  0.2313627E-009  0.3882978E+03  0.7957747E-01  0.3415805E+00
         13   -1    0    0    0    0  0.00000000000E+00  0.00000000000E+00  0.14999999963E+04  0.15000000000E+04  0.10566000000E+00 0. -1.
        994   -1    0    0    0    0 -0.00000000000E+00 -0.00000000000E+00  0.11368683772E-12  0.17120000000E+03  0.17120000000E+03 0.  0.
         13    1    1    2    0    0  0.14550370576E+02 -0.22180508506E+03  0.12815589097E+04  0.13006930688E+04  0.10566000000E+00 0. -1.
        994    1    1    2    0    0 -0.14707951725E+02  0.22678294256E+03  0.19117319844E+03  0.34278777499E+03  0.17120000000E+03 0.  0.
        998    1    1    2    0    0  0.15758114873E+00 -0.49778575047E+01  0.27267888162E+02  0.27719156228E+02  0.10000000000E+00 0. -1.
</event>
<event>
 5    1  0.2313627E-009  0.3881282E+03  0.7957747E-01  0.3416512E+00
         13   -1    0    0    0    0  0.00000000000E+00  0.00000000000E+00  0.14999999963E+04  0.15000000000E+04  0.10566000000E+00 0.  1.
        994   -1    0    0    0    0 -0.00000000000E+00 -0.00000000000E+00  0.11368683772E-12  0.17120000000E+03  0.17120000000E+03 0.  0.
         13    1    1    2    0    0  0.20238543730E+03 -0.86649307287E+02  0.12929274970E+04  0.13115370721E+04  0.10566000000E+00 0.  1.
        994    1    1    2    0    0 -0.20635924219E+03  0.86100810473E+02  0.18434934643E+03  0.33658818745E+03  0.17120000000E+03 0.  0.
        998    1    1    2    0    0  0.39738048921E+01  0.54849681400E+00  0.22723152808E+02  0.23074740467E+02  0.10000000000E+00 0.  1.
</event>
<event>
 5    1  0.2313627E-009  0.3882939E+03  0.7957747E-01  0.3415821E+00
         13   -1    0    0    0    0  0.00000000000E+00  0.00000000000E+00  0.14999999963E+04  0.15000000000E+04  0.10566000000E+00 0.  1.
        994   -1    0    0    0    0 -0.00000000000E+00 -0.00000000000E+00  0.11368683772E-12  0.17120000000E+03  0.17120000000E+03 0.  0.
         13    1    1    2    0    0  0.19049371668E+02 -0.25909081737E+03  0.12327309423E+04  0.12598081272E+04  0.10566000000E+00 0.  1.
        994    1    1    2    0    0 -0.19188222247E+02  0.25960105484E+03  0.26487034312E+03  0.40893353275E+03  0.17120000000E+03 0.  0.
        998    1    1    2    0    0  0.13885057940E+00 -0.51023746711E+00  0.23987108641E+01  0.24583400020E+01  0.10000000000E+00 0.  0.
</event>
<event>
 5    1  0.2313627E-009  0.3882948E+03  0.7957747E-01  0.3415818E+00
         13   -1    0    0    0    0  0.00000000000E+00  0.00000000000E+00  0.14999999963E+04  0.15000000000E+04  0.10566000000E+00 0. -1.
        994   -1    0    0    0    0 -0.00000000000E+00 -0.00000000000E+00  0.11368683772E-12  0.17120000000E+03  0.17120000000E+03 0.  0.
         13    1    1    2    0    0 -0.30877010192E+01  0.85881384945E+02  0.50937498694E+03  0.51657335845E+03  0.10566000000E+00 0. -1.
        994    1    1    2    0    0  0.45626435338E+01 -0.22099809939E+03  0.17933741251E+03  0.33216310026E+03  0.17120000000E+03 0.  0.
        998    1    1    2    0    0 -0.14749425146E+01  0.13511671444E+03  0.81128759683E+03  0.82246354129E+03  0.10000000000E+00 0. -1.
</event>
<event>
 5    1  0.2313627E-009  0.3882389E+03  0.7957747E-01  0.3416051E+00
         13   -1    0    0    0    0  0.00000000000E+00  0.00000000000E+00  0.14999999963E+04  0.15000000000E+04  0.10566000000E+00 0.  1.
        994   -1    0    0    0    0 -0.00000000000E+00 -0.00000000000E+00  0.11368683772E-12  0.17120000000E+03  0.17120000000E+03 0.  0.
         13    1    1    2    0    0  0.32252534189E+03  0.97263402244E+02  0.89115374538E+03  0.95270025435E+03  0.10566000000E+00 0.  1.
        994    1    1    2    0    0 -0.32394582148E+03 -0.98269551715E+02  0.60302428212E+03  0.71242229392E+03  0.17120000000E+03 0.  0.
        998    1    1    2    0    0  0.14204795925E+01  0.10061494710E+01  0.58219687818E+01  0.60774517297E+01  0.10000000000E+00 0.  1.
</event>
<event>
 5    1  0.2313627E-009  0.3882657E+03  0.7957747E-01  0.3415939E+00
         13   -1    0    0    0    0  0.00000000000E+00  0.00000000000E+00  0.14999999963E+04  0.15000000000E+04  0.10566000000E+00 0. -1.
        994   -1    0    0    0    0 -0.00000000000E+00 -0.00000000000E+00  0.11368683772E-12  0.17120000000E+03  0.17120000000E+03 0.  0.
         13    1    1    2    0    0  0.20108861804E+03 -0.10609450590E+03  0.13018191196E+04  0.13215240095E+04  0.10566000000E+00 0. -1.
        994    1    1    2    0    0 -0.20174826568E+03  0.10613361642E+03  0.19258959828E+03  0.34404491073E+03  0.17120000000E+03 0.  0.
        998    1    1    2    0    0  0.65964763091E+00 -0.39110519192E-01  0.55912784063E+01  0.56310797230E+01  0.10000000000E+00 0. -1.
</event>
<event>
 5    1  0.2313627E-009  0.3882971E+03  0.7957747E-01  0.3415808E+00
         13   -1    0    0    0    0  0.00000000000E+00  0.00000000000E+00  0.14999999963E+04  0.15000000000E+04  0.10566000000E+00 0. -1.
        994   -1    0    0    0    0 -0.00000000000E+00 -0.00000000000E+00  0.11368683772E-12  0.17120000000E+03  0.17120000000E+03 0.  0.
         13    1    1    2    0    0 -0.69065337709E+02  0.21499487496E+03  0.13076154223E+04  0.13269705803E+04  0.10566000000E+00 0. -1.
        994    1    1    2    0    0  0.69182357130E+02 -0.21546446681E+03  0.18930710327E+03  0.34111252446E+03  0.17120000000E+03 0.  0.
        998    1    1    2    0    0 -0.11701942040E+00  0.46959184972E+00  0.30774707201E+01  0.31168952635E+01  0.10000000000E+00 0.  0.
</event>
<event>
 5    1  0.2313627E-009  0.3848505E+03  0.7957747E-01  0.3430306E+00
         13   -1    0    0    0    0  0.00000000000E+00  0.00000000000E+00  0.14999999963E+04  0.15000000000E+04  0.10566000000E+00 0.  1.
        994   -1    0    0    0    0 -0.00000000000E+00 -0.00000000000E+00  0.11368683772E-12  0.17120000000E+03  0.17120000000E+03 0.  0.
         13    1    1    2    0    0 -0.13818194919E+02 -0.19659354922E+02  0.14167121385E+03  0.14369473458E+03  0.10566000000E+00 0.  1.
        994    1    1    2    0    0  0.48493387623E+02  0.83797359983E+01  0.97137620542E+01  0.17839738168E+03  0.17120000000E+03 0.  0.
        998    1    1    2    0    0 -0.34675192704E+02  0.11279618924E+02  0.13486150204E+04  0.13491078837E+04  0.10000000000E+00 0.  1.
</event>
<event>
 5    1  0.2313627E-009  0.3882915E+03  0.7957747E-01  0.3415831E+00
         13   -1    0    0    0    0  0.00000000000E+00  0.00000000000E+00  0.14999999963E+04  0.15000000000E+04  0.10566000000E+00 0.  1.
        994   -1    0    0    0    0 -0.00000000000E+00 -0.00000000000E+00  0.11368683772E-12  0.17120000000E+03  0.17120000000E+03 0.  0.
         13    1    1    2    0    0 -0.75751053351E+02  0.16311622555E+03  0.10876104089E+04  0.11023799426E+04  0.10566000000E+00 0.  1.
        994    1    1    2    0    0  0.91455100511E+02 -0.19751617510E+03  0.17312573033E+03  0.32658633366E+03  0.17120000000E+03 0.  0.
        998    1    1    2    0    0 -0.15704047160E+02  0.34399949545E+02  0.23926385701E+03  0.24223372370E+03  0.10000000000E+00 0. -1.
</event>
<event>
 5    1  0.2313627E-009  0.3882494E+03  0.7957747E-01  0.3416007E+00
         13   -1    0    0    0    0  0.00000000000E+00  0.00000000000E+00  0.14999999963E+04  0.15000000000E+04  0.10566000000E+00 0. -1.
        994   -1    0    0    0    0 -0.00000000000E+00 -0.00000000000E+00  0.11368683772E-12  0.17120000000E+03  0.17120000000E+03 0.  0.
         13    1    1    2    0    0 -0.24769153011E+03 -0.25210636372E+02  0.12161634993E+04  0.12413864581E+04  0.10566000000E+00 0. -1.
        994    1    1    2    0    0  0.25313567076E+03  0.25434090741E+02  0.25028946599E+03  0.39582675196E+03  0.17120000000E+03 0.  0.
        998    1    1    2    0    0 -0.54441406496E+01 -0.22345436846E+00  0.33547030999E+02  0.33986789906E+02  0.10000000000E+00 0. -1.
</event>
<event>
 5    1  0.2313627E-009  0.3882837E+03  0.7957747E-01  0.3415864E+00
         13   -1    0    0    0    0  0.00000000000E+00  0.00000000000E+00  0.14999999963E+04  0.15000000000E+04  0.10566000000E+00 0. -1.
        994   -1    0    0    0    0 -0.00000000000E+00 -0.00000000000E+00  0.11368683772E-12  0.17120000000E+03  0.17120000000E+03 0.  0.
         13    1    1    2    0    0  0.20717919139E+03  0.72197849272E+02  0.13203274073E+04  0.13384320006E+04  0.10566000000E+00 0. -1.
        994    1    1    2    0    0 -0.20755592075E+03 -0.72147310591E+02  0.17693027333E+03  0.32999766103E+03  0.17120000000E+03 0.  0.
        998    1    1    2    0    0  0.37672936442E+00 -0.50538680982E-01  0.27423156953E+01  0.27703383449E+01  0.10000000000E+00 0.  1.
</event>
<event>
 5    1  0.2313627E-009  0.3814602E+03  0.7957747E-01  0.3444825E+00
         13   -1    0    0    0    0  0.00000000000E+00  0.00000000000E+00  0.14999999963E+04  0.15000000000E+04  0.10566000000E+00 0. -1.
        994   -1    0    0    0    0 -0.00000000000E+00 -0.00000000000E+00  0.11368683772E-12  0.17120000000E+03  0.17120000000E+03 0.  0.
         13    1    1    2    0    0 -0.24356990759E+02 -0.36029819392E+02  0.17959840026E+03  0.18478908903E+03  0.10566000000E+00 0. -1.
        994    1    1    2    0    0  0.75855643221E+02  0.52719435579E+02  0.32328114100E+02  0.19720031556E+03  0.17120000000E+03 0.  0.
        998    1    1    2    0    0 -0.51498652463E+02 -0.16689616187E+02  0.12880734819E+04  0.12892105954E+04  0.10000000000E+00 0. -1.
</event>
<event>
 5    1  0.2313627E-009  0.3883004E+03  0.7957747E-01  0.3415794E+00
         13   -1    0    0    0    0  0.00000000000E+00  0.00000000000E+00  0.14999999963E+04  0.15000000000E+04  0.10566000000E+00 0. -1.
        994   -1    0    0    0    0 -0.00000000000E+00 -0.00000000000E+00  0.11368683772E-12  0.17120000000E+03  0.17120000000E+03 0.  0.
         13    1    1    2    0    0 -0.20939659248E+03 -0.85262034595E+02  0.12676464989E+04  0.12876506533E+04  0.10566000000E+00 0. -1.
        994    1    1    2    0    0  0.21472843463E+03  0.87506306761E+02  0.20033352671E+03  0.35101084924E+03  0.17120000000E+03 0.  0.
        998    1    1    2    0    0 -0.53318421549E+01 -0.22442721664E+01  0.32019970633E+02  0.32538497470E+02  0.10000000000E+00 0. -1.
</event>
<event>
 5    1  0.2313627E-009  0.3880873E+03  0.7957747E-01  0.3416683E+00
         13   -1    0    0    0    0  0.00000000000E+00  0.00000000000E+00  0.14999999963E+04  0.15000000000E+04  0.10566000000E+00 0.  1.
        994   -1    0    0    0    0 -0.00000000000E+00 -0.00000000000E+00  0.11368683772E-12  0.17120000000E+03  0.17120000000E+03 0.  0.
         13    1    1    2    0    0  0.12460166798E+03 -0.21503853097E+03  0.12445998275E+04  0.12691713388E+04  0.10566000000E+00 0.  1.
        994    1    1    2    0    0 -0.12438911622E+03  0.21822343765E+03  0.24284094912E+03  0.38906977207E+03  0.17120000000E+03 0.  0.
        998    1    1    2    0    0 -0.21255176306E+00 -0.31849066735E+01  0.12559219638E+02  0.12958889099E+02  0.10000000000E+00 0. -1.
</event>
<event>
 5    1  0.2313627E-009  0.3882600E+03  0.7957747E-01  0.3415963E+00
         13   -1    0    0    0    0  0.00000000000E+00  0.00000000000E+00  0.14999999963E+04  0.15000000000E+04  0.10566000000E+00 0. -1.
        994   -1    0    0    0    0 -0.00000000000E+00 -0.00000000000E+00  0.11368683772E-12  0.17120000000E+03  0.17120000000E+03 0.  0.
         13    1    1    2    0    0 -0.11302651594E+03  0.22877741960E+03  0.10138888926E+04  0.10455069578E+04  0.10566000000E+00 0. -1.
        994    1    1    2    0    0  0.12646844860E+03 -0.25866922306E+03  0.34518308291E+03  0.48100398770E+03  0.17120000000E+03 0.  0.
        998    1    1    2    0    0 -0.13441932655E+02  0.29891803466E+02  0.14092802073E+03  0.14468905451E+03  0.10000000000E+00 0. -1.
</event>
<event>
 5    1  0.2313627E-009  0.3882950E+03  0.7957747E-01  0.3415817E+00
         13   -1    0    0    0    0  0.00000000000E+00  0.00000000000E+00  0.14999999963E+04  0.15000000000E+04  0.10566000000E+00 0.  1.
        994   -1    0    0    0    0 -0.00000000000E+00 -0.00000000000E+00  0.11368683772E-12  0.17120000000E+03  0.17120000000E+03 0.  0.
         13    1    1    2    0    0 -0.23714556264E+03 -0.44148460158E+02  0.12691814320E+04  0.12919011661E+04  0.10566000000E+00 0.  1.
        994    1    1    2    0    0  0.23865920045E+03  0.44227441981E+02  0.22322545198E+03  0.37155527583E+03  0.17120000000E+03 0.  0.
        998    1    1    2    0    0 -0.15136378124E+01 -0.78981822570E-01  0.75931122943E+01  0.77435580885E+01  0.10000000000E+00 0. -1.
</event>
<event>
 5    1  0.2313627E-009  0.3881933E+03  0.7957747E-01  0.3416241E+00
         13   -1    0    0    0    0  0.00000000000E+00  0.00000000000E+00  0.14999999963E+04  0.15000000000E+04  0.10566000000E+00 0. -1.
        994   -1    0    0    0    0 -0.00000000000E+00 -0.00000000000E+00  0.11368683772E-12  0.17120000000E+03  0.17120000000E+03 0.  0.
         13    1    1    2    0    0 -0.20071590039E+02 -0.13091209249E+03  0.77627800391E+03  0.78749501282E+03  0.10566000000E+00 0. -1.
        994    1    1    2    0    0  0.40008071501E+02  0.22770954038E+03  0.19911305070E+03  0.34986815735E+03  0.17120000000E+03 0.  0.
        998    1    1    2    0    0 -0.19936481462E+02 -0.96797447892E+02  0.52460894167E+03  0.53383682984E+03  0.10000000000E+00 0. -1.
</event>
<event>
 5    1  0.2313627E-009  0.3882912E+03  0.7957747E-01  0.3415833E+00
         13   -1    0    0    0    0  0.00000000000E+00  0.00000000000E+00  0.14999999963E+04  0.15000000000E+04  0.10566000000E+00 0.  1.
        994   -1    0    0    0    0 -0.00000000000E+00 -0.00000000000E+00  0.11368683772E-12  0.17120000000E+03  0.17120000000E+03 0.  0.
         13    1    1    2    0    0 -0.25557100043E+02  0.23627834556E+03  0.12858936505E+04  0.13076708736E+04  0.10566000000E+00 0.  1.
        994    1    1    2    0    0  0.25514543917E+02 -0.23651151728E+03  0.21278178279E+03  0.36217981286E+03  0.17120000000E+03 0.  0.
        998    1    1    2    0    0  0.42556126524E-01  0.23317171932E+00  0.13245629647E+01  0.13493135744E+01  0.10000000000E+00 0.  0.
</event>
<event>
 5    1  0.2313627E-009  0.3883003E+03  0.7957747E-01  0.3415795E+00
         13   -1    0    0    0    0  0.00000000000E+00  0.00000000000E+00  0.14999999963E+04  0.15000000000E+04  0.10566000000E+00 0. -1.
        994   -1    0    0    0    0 -0.00000000000E+00 -0.00000000000E+00  0.11368683772E-12  0.17120000000E+03  0.17120000000E+03 0.  0.
         13    1    1    2    0    0 -0.77614947428E+02 -0.18792570678E+03  0.11939439728E+04  0.12111326817E+04  0.10566000000E+00 0. -1.
        994    1    1    2    0    0  0.85216628733E+02  0.20713843692E+03  0.18485731992E+03  0.33711997062E+03  0.17120000000E+03 0.  0.
        998    1    1    2    0    0 -0.76016813051E+01 -0.19212730139E+02  0.12119870360E+03  0.12294734773E+03  0.10000000000E+00 0.  1.
</event>
<event>
 5    1  0.2313627E-009  0.3774488E+03  0.7957747E-01  0.3462343E+00
         13   -1    0    0    0    0  0.00000000000E+00  0.00000000000E+00  0.14999999963E+04  0.15000000000E+04  0.10566000000E+00 0. -1.
        994   -1    0    0    0    0 -0.00000000000E+00 -0.00000000000E+00  0.11368683772E-12  0.17120000000E+03  0.17120000000E+03 0.  0.
         13    1    1    2    0    0 -0.57744500880E+02 -0.27025537216E+02  0.37647759528E+03  0.38183792106E+03  0.10566000000E+00 0. -1.
        994    1    1    2    0    0  0.99195570369E+01  0.13334288291E+03  0.68290108673E+02  0.22770968573E+03  0.17120000000E+03 0.  0.
        998    1    1    2    0    0  0.47824943843E+02 -0.10631734569E+03  0.10552322923E+04  0.10616523932E+04  0.10000000000E+00 0. -1.
</event>
<event>
 5    1  0.2313627E-009  0.3882983E+03  0.7957747E-01  0.3415803E+00
         13   -1    0    0    0    0  0.00000000000E+00  0.00000000000E+00  0.14999999963E+04  0.15000000000E+04  0.10566000000E+00 0.  1.
        994   -1    0    0    0    0 -0.00000000000E+00 -0.00000000000E+00  0.11368683772E-12  0.17120000000E+03  0.17120000000E+03 0.  0.
         13    1    1    2    0    0 -0.17459121275E+02  0.22487102282E+03  0.12955284181E+04  0.13150154719E+04  0.10566000000E+00 0.  1.
        994    1    1    2    0    0  0.17785714019E+02 -0.22698540990E+03  0.19199668574E+03  0.34352710994E+03  0.17120000000E+03 0.  0.
        998    1    1    2    0    0 -0.32659274384E+00  0.21143870728E+01  0.12474892389E+02  0.12657418205E+02  0.10000000000E+00 0.  1.
</event>
<event>
 5    1  0.2313627E-009  0.3878340E+03  0.7957747E-01  0.3417741E+00
         13   -1    0    0    0    0  0.00000000000E+00  0.00000000000E+00  0.14999999963E+04  0.15000000000E+04  0.10566000000E+00 0.  1.
        994   -1    0    0    0    0 -0.00000000000E+00 -0.00000000000E+00  0.11368683772E-12  0.17120000000E+03  0.17120000000E+03 0.  0.
         13    1    1    2    0    0 -0.10599042715E+03  0.20750897860E+03  0.12937965773E+04  0.13146115553E+04  0.10566000000E+00 0.  1.
        994    1    1    2    0    0  0.10694486389E+03 -0.20773050577E+03  0.20432553199E+03  0.35446795337E+03  0.17120000000E+03 0.  0.
        998    1    1    2    0    0 -0.95443673872E+00  0.22152717010E+00  0.18778870108E+01  0.21204913111E+01  0.10000000000E+00 0.  1.
</event>
<event>
 5    1  0.2313627E-009  0.3882934E+03  0.7957747E-01  0.3415824E+00
         13   -1    0    0    0    0  0.00000000000E+00  0.00000000000E+00  0.14999999963E+04  0.15000000000E+04  0.10566000000E+00 0. -1.
        994   -1    0    0    0    0 -0.00000000000E+00 -0.00000000000E+00  0.11368683772E-12  0.17120000000E+03  0.17120000000E+03 0.  0.
         13    1    1    2    0    0 -0.24996073499E+03 -0.36138960305E+02  0.12506493719E+04  0.12758958641E+04  0.10566000000E+00 0. -1.
        994    1    1    2    0    0  0.25041919786E+03  0.36314610555E+02  0.24691277484E+03  0.39281533062E+03  0.17120000000E+03 0.  0.
        998    1    1    2    0    0 -0.45846286939E+00 -0.17565024949E+00  0.24378495252E+01  0.24888052395E+01  0.10000000000E+00 0. -1.
</event>
<event>
 5    1  0.2313627E-009  0.3883006E+03  0.7957747E-01  0.3415793E+00
         13   -1    0    0    0    0  0.00000000000E+00  0.00000000000E+00  0.14999999963E+04  0.15000000000E+04  0.10566000000E+00 0. -1.
        994   -1    0    0    0    0 -0.00000000000E+00 -0.00000000000E+00  0.11368683772E-12  0.17120000000E+03  0.17120000000E+03 0.  0.
         13    1    1    2    0    0 -0.21186182626E+03  0.31923669798E+02  0.12851480211E+04  0.13028852602E+04  0.10566000000E+00 0. -1.
        994    1    1    2    0    0  0.21796852419E+03 -0.32804430722E+02  0.17817569139E+03  0.33112297597E+03  0.17120000000E+03 0.  0.
        998    1    1    2    0    0 -0.61066979300E+01  0.88076092455E+00  0.36676283838E+02  0.37191763813E+02  0.10000000000E+00 0.  0.
</event>
<event>
 5    1  0.2313627E-009  0.3882876E+03  0.7957747E-01  0.3415848E+00
         13   -1    0    0    0    0  0.00000000000E+00  0.00000000000E+00  0.14999999963E+04  0.15000000000E+04  0.10566000000E+00 0. -1.
        994   -1    0    0    0    0 -0.00000000000E+00 -0.00000000000E+00  0.11368683772E-12  0.17120000000E+03  0.17120000000E+03 0.  0.
         13    1    1    2    0    0  0.19368674120E+03 -0.12053053342E+03  0.94740430697E+03  0.97448298868E+03  0.10566000000E+00 0. -1.
        994    1    1    2    0    0 -0.23940400081E+03  0.15109378409E+03  0.32944787482E+03  0.46689286718E+03  0.17120000000E+03 0.  0.
        998    1    1    2    0    0  0.45717259617E+02 -0.30563250671E+02  0.22314781449E+03  0.22982414414E+03  0.10000000000E+00 0. -1.
</event>
<event>
 5    1  0.2313627E-009  0.3874252E+03  0.7957747E-01  0.3419451E+00
         13   -1    0    0    0    0  0.00000000000E+00  0.00000000000E+00  0.14999999963E+04  0.15000000000E+04  0.10566000000E+00 0. -1.
        994   -1    0    0    0    0 -0.00000000000E+00 -0.00000000000E+00  0.11368683772E-12  0.17120000000E+03  0.17120000000E+03 0.  0.
         13    1    1    2    0    0 -0.22177093922E+02  0.24251696462E+03  0.12366682049E+04  0.12604184074E+04  0.10566000000E+00 0. -1.
        994    1    1    2    0    0  0.18858137957E+02 -0.24974172622E+03  0.24217923200E+03  0.38818395071E+03  0.17120000000E+03 0.  0.
        998    1    1    2    0    0  0.33189559648E+01  0.72247616001E+01  0.21152559410E+02  0.22597641878E+02  0.10000000000E+00 0. -1.
</event>
<event>
 5    1  0.2313627E-009  0.3882952E+03  0.7957747E-01  0.3415816E+00
         13   -1    0    0    0    0  0.00000000000E+00  0.00000000000E+00  0.14999999963E+04  0.15000000000E+04  0.10566000000E+00 0.  1.
        994   -1    0    0    0    0 -0.00000000000E+00 -0.00000000000E+00  0.11368683772E-12  0.17120000000E+03  0.17120000000E+03 0.  0.
         13    1    1    2    0    0 -0.19536795171E+03  0.10353965116E+03  0.13132844847E+04  0.13317677143E+04  0.10566000000E+00 0.  1.
        994    1    1    2    0    0  0.19630415539E+03 -0.10401641022E+03  0.18141859636E+03  0.33403125920E+03  0.17120000000E+03 0.  0.
        998    1    1    2    0    0 -0.93620367682E+00  0.47675905215E+00  0.52969151711E+01  0.54010264624E+01  0.10000000000E+00 0.  0.
</event>
<event>
 5    1  0.2313627E-009  0.3862293E+03  0.7957747E-01  0.3424475E+00
         13   -1    0    0    0    0  0.00000000000E+00  0.00000000000E+00  0.14999999963E+04  0.15000000000E+04  0.10566000000E+00 0.  1.
        994   -1    0    0    0    0 -0.00000000000E+00 -0.00000000000E+00  0.11368683772E-12  0.17120000000E+03  0.17120000000E+03 0.  0.
         13    1    1    2    0    0  0.16100190781E+02 -0.22173631503E+01  0.95421082988E+02  0.96795284416E+02  0.10566000000E+00 0.  1.
        994    1    1    2    0    0 -0.50239580829E+02 -0.33454638302E+02  0.13046884025E+02  0.18199694912E+03  0.17120000000E+03 0.  0.
        998    1    1    2    0    0  0.34139390048E+02  0.35672001453E+02  0.13915320293E+04  0.13924077665E+04  0.10000000000E+00 0.  1.
</event>
<event>
 5    1  0.2313627E-009  0.3882820E+03  0.7957747E-01  0.3415871E+00
         13   -1    0    0    0    0  0.00000000000E+00  0.00000000000E+00  0.14999999963E+04  0.15000000000E+04  0.10566000000E+00 0. -1.
        994   -1    0    0    0    0 -0.00000000000E+00 -0.00000000000E+00  0.11368683772E-12  0.17120000000E+03  0.17120000000E+03 0.  0.
         13    1    1    2    0    0  0.22298891791E+03  0.67790671724E+02  0.12879693864E+04  0.13088868493E+04  0.10566000000E+00 0. -1.
        994    1    1    2    0    0 -0.22403474653E+03 -0.67838054200E+02  0.20485619240E+03  0.35506206333E+03  0.17120000000E+03 0.  0.
        998    1    1    2    0    0  0.10458286201E+01  0.47382475913E-01  0.71744174563E+01  0.72510873970E+01  0.10000000000E+00 0.  1.
</event>
<event>
 5    1  0.2313627E-009  0.3859428E+03  0.7957747E-01  0.3425683E+00
         13   -1    0    0    0    0  0.00000000000E+00  0.00000000000E+00  0.14999999963E+04  0.15000000000E+04  0.10566000000E+00 0. -1.
        994   -1    0    0    0    0 -0.00000000000E+00 -0.00000000000E+00  0.11368683772E-12  0.17120000000E+03  0.17120000000E+03 0.  0.
         13    1    1    2    0    0  0.81336195083E+02  0.11963159328E+03  0.78347764917E+03  0.79672111347E+03  0.10566000000E+00 0. -1.
        994    1    1    2    0    0 -0.10184582565E+03 -0.17359879854E+03  0.14765388545E+03  0.30268832971E+03  0.17120000000E+03 0.  0.
        998    1    1    2    0    0  0.20509630571E+02  0.53967205254E+02  0.56886846166E+03  0.57179055681E+03  0.10000000000E+00 0. -1.
</event>
<event>
 5    1  0.2313627E-009  0.3871892E+03  0.7957747E-01  0.3420440E+00
         13   -1    0    0    0    0  0.00000000000E+00  0.00000000000E+00  0.14999999963E+04  0.15000000000E+04  0.10566000000E+00 0.  1.
        994   -1    0    0    0    0 -0.00000000000E+00 -0.00000000000E+00  0.11368683772E-12  0.17120000000E+03  0.17120000000E+03 0.  0.
         13    1    1    2    0    0  0.11325815318E+03 -0.61289359495E+02  0.51999576266E+03  0.53570458202E+03  0.10566000000E+00 0.  1.
        994    1    1    2    0    0 -0.24750929416E+03  0.17270531223E+03  0.39854570031E+03  0.52842794287E+03  0.17120000000E+03 0.  0.
        998    1    1    2    0    0  0.13425114098E+03 -0.11141595273E+03  0.58145853331E+03  0.60706747511E+03  0.10000000000E+00 0.  1.
</event>
<event>
 5    1  0.2313627E-009  0.3882918E+03  0.7957747E-01  0.3415830E+00
         13   -1    0    0    0    0  0.00000000000E+00  0.00000000000E+00  0.14999999963E+04  0.15000000000E+04  0.10566000000E+00 0. -1.
        994   -1    0    0    0    0 -0.00000000000E+00 -0.00000000000E+00  0.11368683772E-12  0.17120000000E+03  0.17120000000E+03 0.  0.
         13    1    1    2    0    0 -0.52837863636E+02  0.21064501953E+03  0.10073806266E+04  0.10305236058E+04  0.10566000000E+00 0. -1.
        994    1    1    2    0    0  0.64828519764E+02 -0.25504447241E+03  0.27221463428E+03  0.41552456846E+03  0.17120000000E+03 0.  0.
        998    1    1    2    0    0 -0.11990656128E+02  0.44399452877E+02  0.22040473543E+03  0.22515182578E+03  0.10000000000E+00 0.  1.
</event>
<event>
 5    1  0.2313627E-009  0.3844393E+03  0.7957747E-01  0.3432054E+00
         13   -1    0    0    0    0  0.00000000000E+00  0.00000000000E+00  0.14999999963E+04  0.15000000000E+04  0.10566000000E+00 0.  1.
        994   -1    0    0    0    0 -0.00000000000E+00 -0.00000000000E+00  0.11368683772E-12  0.17120000000E+03  0.17120000000E+03 0.  0.
         13    1    1    2    0    0 -0.21132667268E+02 -0.81173278065E+01  0.12356277689E+03  0.12561947155E+03  0.10566000000E+00 0.  1.
        994    1    1    2    0    0  0.74538673114E+02 -0.81016672652E+02  0.42915465065E+02  0.20801656708E+03  0.17120000000E+03 0.  0.
        998    1    1    2    0    0 -0.53406005846E+02  0.89134000458E+02  0.13335217543E+04  0.13375639614E+04  0.10000000000E+00 0.  1.
</event>
<event>
 5    1  0.2313627E-009  0.3882951E+03  0.7957747E-01  0.3415816E+00
         13   -1    0    0    0    0  0.00000000000E+00  0.00000000000E+00  0.14999999963E+04  0.15000000000E+04  0.10566000000E+00 0.  1.
        994   -1    0    0    0    0 -0.00000000000E+00 -0.00000000000E+00  0.11368683772E-12  0.17120000000E+03  0.17120000000E+03 0.  0.
         13    1    1    2    0    0  0.23451269747E+03  0.87504374574E+02  0.17788453002E+03  0.30707676244E+03  0.10566000000E+00 0.  1.
        994    1    1    2    0    0 -0.24402257237E+03 -0.91329436529E+02  0.13154641250E+04  0.13519036156E+04  0.17120000000E+03 0.  0.
        998    1    1    2    0    0  0.95098749035E+01  0.38250619543E+01  0.66513412621E+01  0.12219621934E+02  0.10000000000E+00 0.  1.
</event>
<event>
 5    1  0.2313627E-009  0.3882045E+03  0.7957747E-01  0.3416194E+00
         13   -1    0    0    0    0  0.00000000000E+00  0.00000000000E+00  0.14999999963E+04  0.15000000000E+04  0.10566000000E+00 0.  1.
        994   -1    0    0    0    0 -0.00000000000E+00 -0.00000000000E+00  0.11368683772E-12  0.17120000000E+03  0.17120000000E+03 0.  0.
         13    1    1    2    0    0 -0.19069318781E+03  0.84925371974E+02  0.12621687161E+04  0.12793146954E+04  0.10566000000E+00 0.  1.
        994    1    1    2    0    0  0.20194602767E+03 -0.89817026582E+02  0.17939950014E+03  0.33217904360E+03  0.17120000000E+03 0.  0.
        998    1    1    2    0    0 -0.11252839857E+02  0.48916546082E+01  0.58431780042E+02  0.59706261050E+02  0.10000000000E+00 0.  1.
</event>
<event>
 5    1  0.2313627E-009  0.3882984E+03  0.7957747E-01  0.3415803E+00
         13   -1    0    0    0    0  0.00000000000E+00  0.00000000000E+00  0.14999999963E+04  0.15000000000E+04  0.10566000000E+00 0. -1.
        994   -1    0    0    0    0 -0.00000000000E+00 -0.00000000000E+00  0.11368683772E-12  0.17120000000E+03  0.17120000000E+03 0.  0.
         13    1    1    2    0    0 -0.23441887228E+03  0.80489639879E+02  0.12471745315E+04  0.12715640420E+04  0.10566000000E+00 0. -1.
        994    1    1    2    0    0  0.23681723187E+03 -0.81391746531E+02  0.24068679463E+03  0.38722937753E+03  0.17120000000E+03 0.  0.
        998    1    1    2    0    0 -0.23983595882E+01  0.90210665167E+00  0.12138670139E+02  0.12406580426E+02  0.10000000000E+00 0.  0.
</event>
<event>
 5    1  0.2313627E-009  0.3882989E+03  0.7957747E-01  0.3415800E+00
         13   -1    0    0    0    0  0.00000000000E+00  0.00000000000E+00  0.14999999963E+04  0.15000000000E+04  0.10566000000E+00 0.  1.
        994   -1    0    0    0    0 -0.00000000000E+00 -0.00000000000E+00  0.11368683772E-12  0.17120000000E+03  0.17120000000E+03 0.  0.
         13    1    1    2    0    0  0.56825776152E+02 -0.23116260097E+02  0.34780767828E+03  0.35317661665E+03  0.10566000000E+00 0.  1.
        994    1    1    2    0    0 -0.21070051551E+03  0.87280866703E+02  0.19274397027E+03  0.34419810430E+03  0.17120000000E+03 0.  0.
        998    1    1    2    0    0  0.15387473936E+03 -0.64164606606E+02  0.95944834773E+03  0.97382527905E+03  0.10000000000E+00 0.  1.
</event>
<event>
 5    1  0.2313627E-009  0.3882820E+03  0.7957747E-01  0.3415871E+00
         13   -1    0    0    0    0  0.00000000000E+00  0.00000000000E+00  0.14999999963E+04  0.15000000000E+04  0.10566000000E+00 0. -1.
        994   -1    0    0    0    0 -0.00000000000E+00 -0.00000000000E+00  0.11368683772E-12  0.17120000000E+03  0.17120000000E+03 0.  0.
         13    1    1    2    0    0 -0.22232664840E+03 -0.38146114768E+02  0.10360487479E+04  0.10603213116E+04  0.10566000000E+00 0. -1.
        994    1    1    2    0    0  0.26143449267E+03  0.43013913920E+02  0.27695830839E+03  0.41977795957E+03  0.17120000000E+03 0.  0.
        998    1    1    2    0    0 -0.39107844276E+02 -0.48677991519E+01  0.18699293996E+03  0.19110072880E+03  0.10000000000E+00 0.  1.
</event>
<event>
 5    1  0.2313627E-009  0.3883009E+03  0.7957747E-01  0.3415792E+00
         13   -1    0    0    0    0  0.00000000000E+00  0.00000000000E+00  0.14999999963E+04  0.15000000000E+04  0.10566000000E+00 0. -1.
        994   -1    0    0    0    0 -0.00000000000E+00 -0.00000000000E+00  0.11368683772E-12  0.17120000000E+03  0.17120000000E+03 0.  0.
         13    1    1    2    0    0 -0.52475218868E+02 -0.14418315879E+03  0.77812028372E+03  0.79310378828E+03  0.10566000000E+00 0. -1.
        994    1    1    2    0    0  0.84954074545E+02  0.23407742267E+03  0.23742892686E+03  0.38430634902E+03  0.17120000000E+03 0.  0.
        998    1    1    2    0    0 -0.32478855677E+02 -0.89894263880E+02  0.48445078570E+03  0.49378986270E+03  0.10000000000E+00 0. -1.
</event>
<event>
 5    1  0.2313627E-009  0.3864895E+03  0.7957747E-01  0.3423379E+00
         13   -1    0    0    0    0  0.00000000000E+00  0.00000000000E+00  0.14999999963E+04  0.15000000000E+04  0.10566000000E+00 0.  1.
        994   -1    0    0    0    0 -0.00000000000E+00 -0.00000000000E+00  0.11368683772E-12  0.17120000000E+03  0.17120000000E+03 0.  0.
         13    1    1    2    0    0 -0.93507458847E+01 -0.91878220945E+01  0.52105154538E+02  0.53729050028E+02  0.10566000000E+00 0.  1.
        994    1    1    2    0    0  0.63459702849E+02  0.73636618893E+02  0.32452919307E+02  0.19952974089E+03  0.17120000000E+03 0.  0.
        998    1    1    2    0    0 -0.54108956964E+02 -0.64448796798E+02  0.14154419224E+04  0.14179412091E+04  0.10000000000E+00 0.  1.
</event>
<event>
 5    1  0.2313627E-009  0.3882012E+03  0.7957747E-01  0.3416208E+00
         13   -1    0    0    0    0  0.00000000000E+00  0.00000000000E+00  0.14999999963E+04  0.15000000000E+04  0.10566000000E+00 0. -1.
        994   -1    0    0    0    0 -0.00000000000E+00 -0.00000000000E+00  0.11368683772E-12  0.17120000000E+03  0.17120000000E+03 0.  0.
         13    1    1    2    0    0  0.14326325780E+03 -0.11683459877E+03  0.95475823717E+03  0.97249061029E+03  0.10566000000E+00 0. -1.
        994    1    1    2    0    0 -0.19307387567E+03  0.15964158927E+03  0.24110404107E+03  0.38756103663E+03  0.17120000000E+03 0.  0.
        998    1    1    2    0    0  0.49810617875E+02 -0.42806990505E+02  0.30413771804E+03  0.31114835308E+03  0.10000000000E+00 0. -1.
</event>
<event>
 5    1  0.2313627E-009  0.3883003E+03  0.7957747E-01  0.3415795E+00
         13   -1    0    0    0    0  0.00000000000E+00  0.00000000000E+00  0.14999999963E+04  0.15000000000E+04  0.10566000000E+00 0. -1.
        994   -1    0    0    0    0 -0.00000000000E+00 -0.00000000000E+00  0.11368683772E-12  0.17120000000E+03  0.17120000000E+03 0.  0.
         13    1    1    2    0    0  0.87234983453E+02  0.24544371205E+03  0.11921464292E+04  0.12202727883E+04  0.10566000000E+00 0. -1.
        994    1    1    2    0    0 -0.89247063791E+02 -0.25107865759E+03  0.28098397406E+03  0.42339929661E+03  0.17120000000E+03 0.  0.
        998    1    1    2    0    0  0.20120803385E+01  0.56349455358E+01  0.26869593042E+02  0.27527915082E+02  0.10000000000E+00 0.  1.
</event>
<event>
 5    1  0.2313627E-009  0.3882979E+03  0.7957747E-01  0.3415805E+00
         13   -1    0    0    0    0  0.00000000000E+00  0.00000000000E+00  0.14999999963E+04  0.15000000000E+04  0.10566000000E+00 0. -1.
        994   -1    0    0    0    0 -0.00000000000E+00 -0.00000000000E+00  0.11368683772E-12  0.17120000000E+03  0.17120000000E+03 0.  0.
         13    1    1    2    0    0  0.16044233665E+02  0.21918470558E+03  0.13135867466E+04  0.13318443995E+04  0.10566000000E+00 0. -1.
        994    1    1    2    0    0 -0.16017671231E+02 -0.22035840666E+03  0.17913748189E+03  0.33198504574E+03  0.17120000000E+03 0.  0.
        998    1    1    2    0    0 -0.26562433631E-01  0.11737010828E+01  0.72757678141E+01  0.73705547335E+01  0.10000000000E+00 0.  1.
</event>
<event>
 5    1  0.2313627E-009  0.3882972E+03  0.7957747E-01  0.3415808E+00
         13   -1    0    0    0    0  0.00000000000E+00  0.00000000000E+00  0.14999999963E+04  0.15000000000E+04  0.10566000000E+00 0.  1.
        994   -1    0    0    0    0 -0.00000000000E+00 -0.00000000000E+00  0.11368683772E-12  0.17120000000E+03  0.17120000000E+03 0.  0.
         13    1    1    2    0    0 -0.10761011072E+03 -0.18542724627E+03  0.99914806490E+03  0.10218904375E+04  0.10566000000E+00 0.  1.
        994    1    1    2    0    0  0.13115025563E+03  0.22819610134E+03  0.27232127436E+03  0.41562262533E+03  0.17120000000E+03 0.  0.
        998    1    1    2    0    0 -0.23540144906E+02 -0.42768855067E+02  0.22853065702E+03  0.23368693713E+03  0.10000000000E+00 0. -1.
</event>
