<LesHouchesEvents version="3.0">
<header>
<!--
#*********************************************************************
#                                                                    *
#                        MadGraph5_aMC@NLO                           *
#                                                                    *
#                           Going Beyond                             *
#                                                                    *
#                   http://madgraph.hep.uiuc.edu                     *
#                   http://madgraph.phys.ucl.ac.be                   *
#                   http://amcatnlo.cern.ch                          *
#                                                                    *
#                     The MadGraph5_aMC@NLO team                     *
#                                                                    *
#....................................................................*
#                                                                    *
# This file contains all the information necessary to reproduce      *
# the events generated:                                              *
#                                                                    *
# 1. software version                                                *
# 2. proc_card          : code generation info including model       *
# 3. param_card         : model primary parameters in the LH format  *
# 4. run_card           : running parameters (collider and cuts)     *
# 5. pythia_card        : present only if pythia has been run        *
# 6. pgs_card           : present only if pgs has been run           *
# 7. delphes_cards      : present only if delphes has been run       *
#                                                                    *
#                                                                    *
#*********************************************************************
-->
<MGVersion>
#3.5.0
</MGVersion>
<MG5ProcCard>
<![CDATA[
#************************************************************
#*                     MadGraph5_aMC@NLO                    *
#*                                                          *
#*                *                       *                 *
#*                  *        * *        *                   *
#*                    * * * * 5 * * * *                     *
#*                  *        * *        *                   *
#*                *                       *                 *
#*                                                          *
#*                                                          *
#*         VERSION 3.5.0                 2023-05-12         *
#*                                                          *
#*    The MadGraph5_aMC@NLO Development Team - Find us at   *
#*    https://server06.fynu.ucl.ac.be/projects/madgraph     *
#*                                                          *
#************************************************************
#*                                                          *
#*               Command File for MadGraph5_aMC@NLO         *
#*                                                          *
#*     run as ./bin/mg5_aMC  filename                       *
#*                                                          *
#************************************************************
set group_subprocesses Auto
set ignore_six_quark_processes False
set low_mem_multicore_nlo_generation False
set complex_mass_scheme False
set include_lepton_initiated_processes False
set gauge unitary
set loop_optimized_output True
set loop_color_flows False
set max_npoint_for_channel 0
set default_unset_couplings 99
set max_t_for_channel 99
set zerowidth_tchannel True
set nlo_mixed_expansion True
import model combined_beamdump
define l+ = e+ mu+
define l- = e- mu-
generate mu- ns > mu- ns phi
output /Users/sam/Documents/Research/BeamDumpBSM/calculations/madgraph\
/processes/test_madgraph_generation
]]>
</MG5ProcCard>
<MGProcCard>
#*********************************************************************
#                        MadGraph/MadEvent                           *
#                   http://madgraph.hep.uiuc.edu                     *
#                                                                    *
#                          proc_card.dat                             *
#*********************************************************************
#                                                                    *
#            This Files is generated by MADGRAPH 5                   *
#                                                                    *
# WARNING: This Files is generated for MADEVENT (compatibility issue)*
#          This files is NOT a valid MG4 proc_card.dat               *
#          Running this in MG4 will NEVER reproduce the result of MG5*
#                                                                    *
#*********************************************************************
#*********************************************************************
# Process(es) requested : mg2 input                                  *
#*********************************************************************
# Begin PROCESS # This is TAG. Do not modify this line
mu- ns > mu- ns phi           #Process
# Be carefull the coupling are here in MG5 convention
          
end_coup           # End the couplings input

done               # this tells MG there are no more procs
# End PROCESS  # This is TAG. Do not modify this line
#*********************************************************************
# Model information                                                  *
#*********************************************************************
# Begin MODEL  # This is TAG. Do not modify this line
combined_beamdump
# End   MODEL  # This is TAG. Do not modify this line
#*********************************************************************
# Start multiparticle definitions                                    *
#*********************************************************************
# Begin MULTIPARTICLES # This is TAG. Do not modify this line

# End  MULTIPARTICLES # This is TAG. Do not modify this line
</MGProcCard>
<MGRunCard>
<![CDATA[
#*********************************************************************
#                       MadGraph5_aMC@NLO                            *
#                                                                    *
#                     run_card.dat MadEvent                          *
#                                                                    *
#  This file is used to set the parameters of the run.               *
#                                                                    *
#  Some notation/conventions:                                        *
#                                                                    *
#   Lines starting with a '# ' are info or comments                  *
#                                                                    *
#   mind the format:   value    = variable     ! comment             *
#                                                                    *
#   To display more options, you can type the command:               *
#      update to_full                                                *
#*********************************************************************
#                                                                    
#*********************************************************************
# Tag name for the run (one word)                                    *
#*********************************************************************
  tag_1	= run_tag ! name of the run 
#*********************************************************************
# Number of events and rnd seed                                      *
# Warning: Do not generate more than 1M events in a single run       *
#*********************************************************************
  1000	= nevents ! Number of unweighted events requested 
 51 = iseed ! rnd seed (0=assigned automatically=default))
#*********************************************************************
# Collider type and energy                                           *
# lpp: 0=No PDF, 1=proton, -1=antiproton,                            *
#                2=elastic photon of proton/ion beam                 *
#             +/-3=PDF of electron/positron beam                     *
#             +/-4=PDF of muon/antimuon beam                         *
#*********************************************************************
  0	= lpp1 ! beam 1 type 
  0	= lpp2 ! beam 2 type
  500.0	= ebeam1 ! beam 1 total energy in GeV
  0.0	= ebeam2 ! beam 2 total energy in GeV
#*********************************************************************
# Beam polarization from -100 (left-handed) to 100 (right-handed)    *
#*********************************************************************
  0.0	= polbeam1 ! beam polarization for beam 1
  0.0	= polbeam2 ! beam polarization for beam 2


#*********************************************************************
# PDF CHOICE: this automatically fixes alpha_s and its evol.         *
# pdlabel: lhapdf=LHAPDF (installation needed) [1412.7420]           *
#          iww=Improved Weizsaecker-Williams Approx.[hep-ph/9310350] *
#          eva=Effective W/Z/A Approx.       [2111.02442]            *
#          edff=EDFF in gamma-UPC            [eq.(11) in 2207.03012] *
#          chff=ChFF in gamma-UPC            [eq.(13) in 2207.03012] *
#          none=No PDF, same as lhapdf with lppx=0                   *
#*********************************************************************
  none	= pdlabel1 ! PDF type for beam #1
  none	= pdlabel2 ! PDF type for beam #2
  230000	= lhaid ! if pdlabel=lhapdf, this is the lhapdf number
# To see heavy ion options: type "update ion_pdf"
#*********************************************************************
# Renormalization and factorization scales                           *
#*********************************************************************
  False	= fixed_ren_scale ! if .true. use fixed ren scale
  False	= fixed_fac_scale1 ! if .true. use fixed fac scale for beam 1
  False	= fixed_fac_scale2 ! if .true. use fixed fac scale for beam 2
  91.188	= scale ! fixed ren scale
  91.188	= dsqrt_q2fact1 ! fixed fact scale for pdf1
  91.188	= dsqrt_q2fact2 ! fixed fact scale for pdf2
  -1	= dynamical_scale_choice ! Choose one of the preselected dynamical choices
  1.0	= scalefact ! scale factor for event-by-event scales

 
#*********************************************************************
# Type and output format
#*********************************************************************
  False	= gridpack !True = setting up the grid pack
  -1.0	= time_of_flight ! threshold (in mm) below which the invariant livetime is not written (-1 means not written)
  average	= event_norm ! average/sum. Normalization of the weight in the LHEF
# To see MLM/CKKW  merging options: type "update MLM" or "update CKKW"

#*********************************************************************
#
#*********************************************************************
# Phase-Space Optimization strategy (basic options)
#*********************************************************************
  0	= nhel ! using helicities importance sampling or not.
                             ! 0: sum over helicity, 1: importance sampling
  2	= sde_strategy ! default integration strategy (hep-ph/2021.00773)
                             ! 1 is old strategy (using amp square)
			     ! 2 is new strategy (using only the denominator)
# To see advanced option for Phase-Space optimization: type "update psoptim"			     
#*********************************************************************
# Customization (custom cuts/scale/bias/...)                         *
# list of files containing fortran function that overwrite default   *
#*********************************************************************
  	= custom_fcts ! List of files containing user hook function
#*******************************                                                 
# Parton level cuts definition *
#*******************************
  0.0	= dsqrt_shat ! minimal shat for full process
#                                                                    
#
#*********************************************************************
# BW cutoff (M+/-bwcutoff*Gamma) ! Define on/off-shell for "$" and decay  
#*********************************************************************
  15.0	= bwcutoff ! (M+/-bwcutoff*Gamma)
#*********************************************************************
# Standard Cuts                                                      *
#*********************************************************************
# Minimum and maximum pt's (for max, -1 means no cut)                *
#*********************************************************************
  10.0	= ptl ! minimum pt for the charged leptons 
  -1.0	= ptlmax ! maximum pt for the charged leptons
  {}	= pt_min_pdg ! pt cut for other particles (use pdg code). Applied on particle and anti-particle
  {}	= pt_max_pdg ! pt cut for other particles (syntax e.g. {6: 100, 25: 50}) 
#
# For display option for energy cut in the partonic center of mass frame type 'update ecut'
#
#*********************************************************************
# Maximum and minimum absolute rapidity (for max, -1 means no cut)   *
#*********************************************************************
  2.5	= etal ! max rap for the charged leptons 
  0.0	= etalmin ! main rap for the charged leptons
  {}	= eta_min_pdg ! rap cut for other particles (use pdg code). Applied on particle and anti-particle
  {}	= eta_max_pdg ! rap cut for other particles (syntax e.g. {6: 2.5, 23: 5})
#*********************************************************************
# Minimum and maximum DeltaR distance                                *
#*********************************************************************
#*********************************************************************
# Minimum and maximum invariant mass for pairs                       *
#*********************************************************************
  {}	= mxx_min_pdg ! min invariant mass of a pair of particles X/X~ (e.g. {6:250})
  {'default': False}	= mxx_only_part_antipart ! if True the invariant mass is applied only 
                       ! to pairs of particle/antiparticle and not to pairs of the same pdg codes.  
#*********************************************************************
# Inclusive cuts                                                     *
#*********************************************************************
  0.0	= ptheavy ! minimum pt for at least one heavy final state
#*********************************************************************
# maximal pdg code for quark to be considered as a light jet         *
# (otherwise b cuts are applied)                                     *
#*********************************************************************
  4	= maxjetflavor ! Maximum jet pdg code
#*********************************************************************
#
#*********************************************************************
# Store info for systematics studies                                 *
# WARNING: Do not use for interference type of computation           *
#*********************************************************************
  False	= use_syst ! Enable systematics studies
#
  systematics	= systematics_program ! none, systematics [python], SysCalc [depreceted, C++]
  ['--mur=0.5,1,2', '--muf=0.5,1,2', '--pdf=errorset']	= systematics_arguments ! see: https://cp3.irmp.ucl.ac.be/projects/madgraph/wiki/Systematics#Systematicspythonmodule
]]>
</MGRunCard>
<slha>
######################################################################
## PARAM_CARD AUTOMATICALY GENERATED BY MG5                       ####
######################################################################
###################################
## INFORMATION FOR FRBLOCK
###################################
BLOCK FRBLOCK # 
      1 1.000000e+00 # alphaem
      2 1.000000e+00 # yse
      3 1.000000e+00 # ysmu
      4 1.000000e+00 # yphie
      5 1.000000e+00 # yphimu
      6 1.000000e+00 # gprimakoff
      7 1.000000e+00 # gvel
      8 1.000000e+00 # gvmu
      9 1.000000e+00 # guel
      10 1.000000e+00 # gumu
###################################
## INFORMATION FOR MASS
###################################
BLOCK MASS # 
      11 5.110000e-04 # mel
      13 1.056600e-01 # mmu
      994 1.310000e+02 # mns
      995 1.270000e+02 # mnf
      996 1.033000e+03 # ms
      997 200 # mphi
      998 1.181000e+03 # mv
      999 1.103000e+03 # mu
      22 0.000000e+00 # a : 0.0
###################################
## INFORMATION FOR DECAY
###################################
DECAY 11 0.000000e+00 # e- : 0.0
DECAY 13 0.000000e+00 # mu- : 0.0
DECAY 22 0.000000e+00 # a : 0.0
DECAY 994 0.000000e+00 # ns : 0.0
DECAY 995 0.000000e+00 # nf : 0.0
DECAY 996 0.000000e+00 # s : 0.0
DECAY 997 0.000000e+00 # phi : 0.0
DECAY 998 0.000000e+00 # v : 0.0
DECAY 999 0.000000e+00 # u : 0.0
###################################
## INFORMATION FOR QNUMBERS 994
###################################
BLOCK QNUMBERS 994 #    ns
      1 3 # 3 times electric charge
      2 1 # number of spin states (2s+1)
      3 1 # colour rep (1: singlet, 3: triplet, 8: octet)
      4 1 # particle/antiparticle distinction (0=own anti)
###################################
## INFORMATION FOR QNUMBERS 995
###################################
BLOCK QNUMBERS 995 #    nf
      1 3 # 3 times electric charge
      2 2 # number of spin states (2s+1)
      3 1 # colour rep (1: singlet, 3: triplet, 8: octet)
      4 1 # particle/antiparticle distinction (0=own anti)
###################################
## INFORMATION FOR QNUMBERS 996
###################################
BLOCK QNUMBERS 996 #    s
      1 0 # 3 times electric charge
      2 1 # number of spin states (2s+1)
      3 1 # colour rep (1: singlet, 3: triplet, 8: octet)
      4 0 # particle/antiparticle distinction (0=own anti)
###################################
## INFORMATION FOR QNUMBERS 997
###################################
BLOCK QNUMBERS 997 #    phi
      1 0 # 3 times electric charge
      2 1 # number of spin states (2s+1)
      3 1 # colour rep (1: singlet, 3: triplet, 8: octet)
      4 0 # particle/antiparticle distinction (0=own anti)
###################################
## INFORMATION FOR QNUMBERS 998
###################################
BLOCK QNUMBERS 998 #    v
      1 0 # 3 times electric charge
      2 3 # number of spin states (2s+1)
      3 1 # colour rep (1: singlet, 3: triplet, 8: octet)
      4 0 # particle/antiparticle distinction (0=own anti)
###################################
## INFORMATION FOR QNUMBERS 999
###################################
BLOCK QNUMBERS 999 #    u
      1 0 # 3 times electric charge
      2 3 # number of spin states (2s+1)
      3 1 # colour rep (1: singlet, 3: triplet, 8: octet)
      4 0 # particle/antiparticle distinction (0=own anti)
</slha>
<MGGenerationInfo>
#  Number of Events        :       1000
#  Integrated weight (pb)  :       6.742e-10
</MGGenerationInfo>
</header>
<init>
13 994 5.000000e+02 0.000000e+00 0 0 0 0 -4 1
6.742000e-10 7.354735e-12 6.742000e-10 1
<generator name='MadGraph5_aMC@NLO' version='3.5.0'>please cite 1405.0301 </generator>
</init>
<event>
 5      1 +6.7420000e-10 2.32267000e+02 7.95774700e-02 4.54166600e-01
       13 -1    0    0    0    0 +0.0000000000e+00 +0.0000000000e+00 +4.9999998884e+02 5.0000000000e+02 1.0566000000e-01 0.0000e+00 1.0000e+00
      994 -1    0    0    0    0 -0.0000000000e+00 -0.0000000000e+00 +0.0000000000e+00 1.3100000000e+02 1.3100000000e+02 0.0000e+00 0.0000e+00
       13  1    1    2    0    0 -1.0547820720e+01 -2.0318944958e+00 +2.8199744130e+00 1.1106238648e+01 1.0566000000e-01 0.0000e+00 -1.0000e+00
      994  1    1    2    0    0 +2.1362959151e+01 -7.5944847584e+00 +7.5319702624e+01 1.5280088294e+02 1.3100000000e+02 0.0000e+00 0.0000e+00
      997  1    1    2    0    0 -1.0815138431e+01 +9.6263792541e+00 +4.2186031180e+02 4.6709287842e+02 2.0000000000e+02 0.0000e+00 0.0000e+00
</event>
<event>
 5      1 +6.7420000e-10 2.37101300e+02 7.95774700e-02 4.48124700e-01
       13 -1    0    0    0    0 +0.0000000000e+00 +0.0000000000e+00 +4.9999998884e+02 5.0000000000e+02 1.0566000000e-01 0.0000e+00 -1.0000e+00
      994 -1    0    0    0    0 -0.0000000000e+00 -0.0000000000e+00 +0.0000000000e+00 1.3100000000e+02 1.3100000000e+02 0.0000e+00 0.0000e+00
       13  1    1    2    0    0 +7.3133913501e+00 -2.2191140596e+01 +1.8007069925e+01 2.9499121094e+01 1.0566000000e-01 0.0000e+00 1.0000e+00
      994  1    1    2    0    0 -1.8485218391e+01 +2.5092586448e+01 +9.2063858556e+01 1.6311987998e+02 1.3100000000e+02 0.0000e+00 0.0000e+00
      997  1    1    2    0    0 +1.1171827041e+01 -2.9014458523e+00 +3.8992906035e+02 4.3838099892e+02 2.0000000000e+02 0.0000e+00 0.0000e+00
</event>
<event>
 5      1 +6.7420000e-10 2.47201300e+02 7.95774700e-02 4.36403600e-01
       13 -1    0    0    0    0 +0.0000000000e+00 +0.0000000000e+00 +4.9999998884e+02 5.0000000000e+02 1.0566000000e-01 0.0000e+00 -1.0000e+00
      994 -1    0    0    0    0 -0.0000000000e+00 -0.0000000000e+00 +0.0000000000e+00 1.3100000000e+02 1.3100000000e+02 0.0000e+00 0.0000e+00
       13  1    1    2    0    0 -3.4162689309e+00 -1.8467291319e+01 -4.6803327716e+00 1.9355320223e+01 1.0566000000e-01 0.0000e+00 1.0000e+00
      994  1    1    2    0    0 +1.8635378946e+01 +2.7344168457e+01 +1.3522144590e+02 1.9115653357e+02 1.3100000000e+02 0.0000e+00 0.0000e+00
      997  1    1    2    0    0 -1.5219110015e+01 -8.8768771381e+00 +3.6945887571e+02 4.2048814620e+02 2.0000000000e+02 0.0000e+00 0.0000e+00
</event>
<event>
 5      1 +6.7420000e-10 2.32712300e+02 7.95774700e-02 4.53597500e-01
       13 -1    0    0    0    0 +0.0000000000e+00 +0.0000000000e+00 +4.9999998884e+02 5.0000000000e+02 1.0566000000e-01 0.0000e+00 -1.0000e+00
      994 -1    0    0    0    0 -0.0000000000e+00 -0.0000000000e+00 +0.0000000000e+00 1.3100000000e+02 1.3100000000e+02 0.0000e+00 0.0000e+00
       13  1    1    2    0    0 -1.5305779455e+01 -3.2960867521e+00 +1.3818906865e+01 2.0883113359e+01 1.0566000000e-01 0.0000e+00 1.0000e+00
      994  1    1    2    0    0 +1.5939129141e+00 +1.0206796372e+01 +7.1808567867e+01 1.4974708568e+02 1.3100000000e+02 0.0000e+00 0.0000e+00
      997  1    1    2    0    0 +1.3711866541e+01 -6.9107096198e+00 +4.1437251410e+02 4.6036980096e+02 2.0000000000e+02 0.0000e+00 0.0000e+00
</event>
<event>
 5      1 +6.7420000e-10 2.35256900e+02 7.95774700e-02 4.50394700e-01
       13 -1    0    0    0    0 +0.0000000000e+00 +0.0000000000e+00 +4.9999998884e+02 5.0000000000e+02 1.0566000000e-01 0.0000e+00 -1.0000e+00
      994 -1    0    0    0    0 -0.0000000000e+00 -0.0000000000e+00 +0.0000000000e+00 1.3100000000e+02 1.3100000000e+02 0.0000e+00 0.0000e+00
       13  1    1    2    0    0 +1.2664938768e+01 +9.6470186233e+00 +8.5870171849e+00 1.8089048357e+01 1.0566000000e-01 0.0000e+00 1.0000e+00
      994  1    1    2    0    0 -5.5142273216e+00 +1.0294890574e+01 +7.7326873195e+01 1.5256748275e+02 1.3100000000e+02 0.0000e+00 0.0000e+00
      997  1    1    2    0    0 -7.1507114460e+00 -1.9941909197e+01 +4.1408609846e+02 4.6034346889e+02 2.0000000000e+02 0.0000e+00 0.0000e+00
</event>
<event>
 5      1 +6.7420000e-10 2.40384600e+02 7.95774700e-02 4.44186300e-01
       13 -1    0    0    0    0 +0.0000000000e+00 +0.0000000000e+00 +4.9999998884e+02 5.0000000000e+02 1.0566000000e-01 0.0000e+00 -1.0000e+00
      994 -1    0    0    0    0 -0.0000000000e+00 -0.0000000000e+00 +0.0000000000e+00 1.3100000000e+02 1.3100000000e+02 0.0000e+00 0.0000e+00
       13  1    1    2    0    0 +1.0747715100e+01 -1.5383556365e+01 +2.0239414397e+00 1.8875240112e+01 1.0566000000e-01 0.0000e+00 1.0000e+00
      994  1    1    2    0    0 -1.8222108629e+01 +3.6000045491e+01 +1.1261258644e+02 1.7739967064e+02 1.3100000000e+02 0.0000e+00 0.0000e+00
      997  1    1    2    0    0 +7.4743935296e+00 -2.0616489126e+01 +3.8536346096e+02 4.3472508925e+02 2.0000000000e+02 0.0000e+00 0.0000e+00
</event>
<event>
 5      1 +6.7420000e-10 2.41716100e+02 7.95774700e-02 4.42625400e-01
       13 -1    0    0    0    0 +0.0000000000e+00 +0.0000000000e+00 +4.9999998884e+02 5.0000000000e+02 1.0566000000e-01 0.0000e+00 1.0000e+00
      994 -1    0    0    0    0 -0.0000000000e+00 -0.0000000000e+00 +0.0000000000e+00 1.3100000000e+02 1.3100000000e+02 0.0000e+00 0.0000e+00
       13  1    1    2    0    0 +2.3191478843e+01 +1.2474093617e+00 +1.0566833949e+01 2.5516070716e+01 1.0566000000e-01 0.0000e+00 -1.0000e+00
      994  1    1    2    0    0 -2.9245520620e-01 -2.9111184318e+01 +1.0408340386e+02 1.6982903621e+02 1.3100000000e+02 0.0000e+00 0.0000e+00
      997  1    1    2    0    0 -2.2899023637e+01 +2.7863774956e+01 +3.8534975103e+02 4.3565489307e+02 2.0000000000e+02 0.0000e+00 0.0000e+00
</event>
<event>
 5      1 +6.7420000e-10 2.43711500e+02 7.95774700e-02 4.40323900e-01
       13 -1    0    0    0    0 +0.0000000000e+00 +0.0000000000e+00 +4.9999998884e+02 5.0000000000e+02 1.0566000000e-01 0.0000e+00 -1.0000e+00
      994 -1    0    0    0    0 -0.0000000000e+00 -0.0000000000e+00 +0.0000000000e+00 1.3100000000e+02 1.3100000000e+02 0.0000e+00 0.0000e+00
       13  1    1    2    0    0 -2.9689678731e+01 -6.2213323711e+00 +1.9658417937e+01 3.6147566438e+01 1.0566000000e-01 0.0000e+00 1.0000e+00
      994  1    1    2    0    0 -1.1690674592e+01 +5.1221119714e+01 +1.7652721569e+02 2.2601578011e+02 1.3100000000e+02 0.0000e+00 0.0000e+00
      997  1    1    2    0    0 +4.1380353323e+01 -4.4999787343e+01 +3.0381435520e+02 3.6883665345e+02 2.0000000000e+02 0.0000e+00 0.0000e+00
</event>
<event>
 5      1 +6.7420000e-10 2.28655000e+02 7.95774700e-02 4.58882600e-01
       13 -1    0    0    0    0 +0.0000000000e+00 +0.0000000000e+00 +4.9999998884e+02 5.0000000000e+02 1.0566000000e-01 0.0000e+00 -1.0000e+00
      994 -1    0    0    0    0 -0.0000000000e+00 -0.0000000000e+00 +0.0000000000e+00 1.3100000000e+02 1.3100000000e+02 0.0000e+00 0.0000e+00
       13  1    1    2    0    0 -8.5556265735e+00 -6.9861481492e+00 +8.3176588836e+00 1.3827495267e+01 1.0566000000e-01 0.0000e+00 1.0000e+00
      994  1    1    2    0    0 +6.3973201551e+01 -1.6497660234e+01 +1.1482267664e+02 1.8630617376e+02 1.3100000000e+02 0.0000e+00 0.0000e+00
      997  1    1    2    0    0 -5.5417574977e+01 +2.3483808384e+01 +3.7685965331e+02 4.3086633097e+02 2.0000000000e+02 0.0000e+00 0.0000e+00
</event>
<event>
 5      1 +6.7420000e-10 2.43083200e+02 7.95774700e-02 4.41043700e-01
       13 -1    0    0    0    0 +0.0000000000e+00 +0.0000000000e+00 +4.9999998884e+02 5.0000000000e+02 1.0566000000e-01 0.0000e+00 1.0000e+00
      994 -1    0    0    0    0 -0.0000000000e+00 -0.0000000000e+00 +0.0000000000e+00 1.3100000000e+02 1.3100000000e+02 0.0000e+00 0.0000e+00
       13  1    1    2    0    0 -3.0037323042e+01 +2.1861177391e+00 +2.1891259486e+01 3.7232489740e+01 1.0566000000e-01 0.0000e+00 -1.0000e+00
      994  1    1    2    0    0 +1.7002195496e+01 +6.0903513312e+00 +1.0017555467e+02 1.6589848940e+02 1.3100000000e+02 0.0000e+00 0.0000e+00
      997  1    1    2    0    0 +1.3035127546e+01 -8.2764690703e+00 +3.7793317468e+02 4.2786902086e+02 2.0000000000e+02 0.0000e+00 0.0000e+00
</event>
<event>
 5      1 +6.7420000e-10 2.32143800e+02 7.95774700e-02 4.54324600e-01
       13 -1    0    0    0    0 +0.0000000000e+00 +0.0000000000e+00 +4.9999998884e+02 5.0000000000e+02 1.0566000000e-01 0.0000e+00 1.0000e+00
      994 -1    0    0    0    0 -0.0000000000e+00 -0.0000000000e+00 +0.0000000000e+00 1.3100000000e+02 1.3100000000e+02 0.0000e+00 0.0000e+00
       13  1    1    2    0    0 -8.3753780230e+00 +6.7578929545e+00 +8.5466339429e-01 1.0796188576e+01 1.0566000000e-01 0.0000e+00 -1.0000e+00
      994  1    1    2    0    0 +3.0827793196e+01 -5.2964914073e+01 +1.1775610373e+02 1.8650237243e+02 1.3100000000e+02 0.0000e+00 0.0000e+00
      997  1    1    2    0    0 -2.2452415173e+01 +4.6207021118e+01 +3.8138922171e+02 4.3370143900e+02 2.0000000000e+02 0.0000e+00 0.0000e+00
</event>
<event>
 5      1 +6.7420000e-10 2.37635400e+02 7.95774700e-02 4.47475100e-01
       13 -1    0    0    0    0 +0.0000000000e+00 +0.0000000000e+00 +4.9999998884e+02 5.0000000000e+02 1.0566000000e-01 0.0000e+00 -1.0000e+00
      994 -1    0    0    0    0 -0.0000000000e+00 -0.0000000000e+00 +0.0000000000e+00 1.3100000000e+02 1.3100000000e+02 0.0000e+00 0.0000e+00
       13  1    1    2    0    0 +2.7250894991e+01 +1.0710751269e+01 +7.5365714849e+01 8.0853779190e+01 1.0566000000e-01 0.0000e+00 1.0000e+00
      994  1    1    2    0    0 -4.2009270609e+01 -2.1193457056e+01 +1.1240903305e+02 1.7891543296e+02 1.3100000000e+02 0.0000e+00 0.0000e+00
      997  1    1    2    0    0 +1.4758375617e+01 +1.0482705787e+01 +3.1222524094e+02 3.7123078785e+02 2.0000000000e+02 0.0000e+00 0.0000e+00
</event>
<event>
 5      1 +6.7420000e-10 2.30699700e+02 7.95774700e-02 4.56191000e-01
       13 -1    0    0    0    0 +0.0000000000e+00 +0.0000000000e+00 +4.9999998884e+02 5.0000000000e+02 1.0566000000e-01 0.0000e+00 -1.0000e+00
      994 -1    0    0    0    0 -0.0000000000e+00 -0.0000000000e+00 +0.0000000000e+00 1.3100000000e+02 1.3100000000e+02 0.0000e+00 0.0000e+00
       13  1    1    2    0    0 +3.9663907722e+00 +1.3307198592e+01 +4.3773774090e+01 4.5923504355e+01 1.0566000000e-01 0.0000e+00 1.0000e+00
      994  1    1    2    0    0 +9.2496188773e+00 -5.8025983552e-01 +6.7793480669e+01 1.4779326159e+02 1.3100000000e+02 0.0000e+00 0.0000e+00
      997  1    1    2    0    0 -1.3216009650e+01 -1.2726938756e+01 +3.8843273408e+02 4.3728323405e+02 2.0000000000e+02 0.0000e+00 0.0000e+00
</event>
<event>
 5      1 +6.7420000e-10 2.45061400e+02 7.95774700e-02 4.38791900e-01
       13 -1    0    0    0    0 +0.0000000000e+00 +0.0000000000e+00 +4.9999998884e+02 5.0000000000e+02 1.0566000000e-01 0.0000e+00 -1.0000e+00
      994 -1    0    0    0    0 -0.0000000000e+00 -0.0000000000e+00 +0.0000000000e+00 1.3100000000e+02 1.3100000000e+02 0.0000e+00 0.0000e+00
       13  1    1    2    0    0 -2.0440523306e+01 -2.1580918801e+01 +1.1248419694e+01 3.1781899864e+01 1.0566000000e-01 0.0000e+00 1.0000e+00
      994  1    1    2    0    0 +3.5151873640e+01 +1.5491986516e+01 +1.3186835281e+02 1.8980494814e+02 1.3100000000e+02 0.0000e+00 0.0000e+00
      997  1    1    2    0    0 -1.4711350334e+01 +6.0889322842e+00 +3.5688321634e+02 4.0941315200e+02 2.0000000000e+02 0.0000e+00 0.0000e+00
</event>
<event>
 5      1 +6.7420000e-10 2.33528200e+02 7.95774700e-02 4.52561400e-01
       13 -1    0    0    0    0 +0.0000000000e+00 +0.0000000000e+00 +4.9999998884e+02 5.0000000000e+02 1.0566000000e-01 0.0000e+00 1.0000e+00
      994 -1    0    0    0    0 -0.0000000000e+00 -0.0000000000e+00 +0.0000000000e+00 1.3100000000e+02 1.3100000000e+02 0.0000e+00 0.0000e+00
       13  1    1    2    0    0 -2.1245968661e+01 +2.6723366357e+00 +2.7755250712e+01 3.5055636830e+01 1.0566000000e-01 0.0000e+00 -1.0000e+00
      994  1    1    2    0    0 +2.4641534884e+01 -3.3888955938e+01 +9.2947495797e+01 1.6599970949e+02 1.3100000000e+02 0.0000e+00 0.0000e+00
      997  1    1    2    0    0 -3.3955662233e+00 +3.1216619302e+01 +3.7929724233e+02 4.2994465368e+02 2.0000000000e+02 0.0000e+00 0.0000e+00
</event>
<event>
 5      1 +6.7420000e-10 2.44273400e+02 7.95774700e-02 4.39683700e-01
       13 -1    0    0    0    0 +0.0000000000e+00 +0.0000000000e+00 +4.9999998884e+02 5.0000000000e+02 1.0566000000e-01 0.0000e+00 -1.0000e+00
      994 -1    0    0    0    0 -0.0000000000e+00 -0.0000000000e+00 +0.0000000000e+00 1.3100000000e+02 1.3100000000e+02 0.0000e+00 0.0000e+00
       13  1    1    2    0    0 -2.9091495439e+01 -2.3424031659e+01 +7.9565037682e+01 8.7895430777e+01 1.0566000000e-01 0.0000e+00 1.0000e+00
      994  1    1    2    0    0 -1.1520862845e+00 +4.2101416239e+01 +1.3501950423e+02 1.9278257980e+02 1.3100000000e+02 0.0000e+00 0.0000e+00
      997  1    1    2    0    0 +3.0243581724e+01 -1.8677384580e+01 +2.8541544692e+02 3.5032198942e+02 2.0000000000e+02 0.0000e+00 0.0000e+00
</event>
<event>
 5      1 +6.7420000e-10 2.33297800e+02 7.95774700e-02 4.52853100e-01
       13 -1    0    0    0    0 +0.0000000000e+00 +0.0000000000e+00 +4.9999998884e+02 5.0000000000e+02 1.0566000000e-01 0.0000e+00 -1.0000e+00
      994 -1    0    0    0    0 -0.0000000000e+00 -0.0000000000e+00 +0.0000000000e+00 1.3100000000e+02 1.3100000000e+02 0.0000e+00 0.0000e+00
       13  1    1    2    0    0 +1.1971021731e+01 +1.2422137493e+01 +6.4346201408e+01 6.6618763579e+01 1.0566000000e-01 0.0000e+00 1.0000e+00
      994  1    1    2    0    0 +3.5641853134e+00 -4.7390237959e+01 +9.9018396951e+01 1.7095081458e+02 1.3100000000e+02 0.0000e+00 0.0000e+00
      997  1    1    2    0    0 -1.5535207045e+01 +3.4968100467e+01 +3.3663539048e+02 3.9343042184e+02 2.0000000000e+02 0.0000e+00 0.0000e+00
</event>
<event>
 5      1 +6.7420000e-10 2.48421500e+02 7.95774700e-02 4.35063400e-01
       13 -1    0    0    0    0 +0.0000000000e+00 +0.0000000000e+00 +4.9999998884e+02 5.0000000000e+02 1.0566000000e-01 0.0000e+00 1.0000e+00
      994 -1    0    0    0    0 -0.0000000000e+00 -0.0000000000e+00 +0.0000000000e+00 1.3100000000e+02 1.3100000000e+02 0.0000e+00 0.0000e+00
       13  1    1    2    0    0 +3.3098648958e+01 -2.7730911435e+01 +5.4945637243e+01 6.9882460088e+01 1.0566000000e-01 0.0000e+00 -1.0000e+00
      994  1    1    2    0    0 +7.5960287422e+00 +3.1464961106e+01 +1.4361939632e+02 1.9706667508e+02 1.3100000000e+02 0.0000e+00 0.0000e+00
      997  1    1    2    0    0 -4.0694677700e+01 -3.7340496707e+00 +3.0143495528e+02 3.6405086483e+02 2.0000000000e+02 0.0000e+00 0.0000e+00
</event>
<event>
 5      1 +6.7420000e-10 2.38741200e+02 7.95774700e-02 4.46141500e-01
       13 -1    0    0    0    0 +0.0000000000e+00 +0.0000000000e+00 +4.9999998884e+02 5.0000000000e+02 1.0566000000e-01 0.0000e+00 -1.0000e+00
      994 -1    0    0    0    0 -0.0000000000e+00 -0.0000000000e+00 +0.0000000000e+00 1.3100000000e+02 1.3100000000e+02 0.0000e+00 0.0000e+00
       13  1    1    2    0    0 -1.8965339171e+01 -2.5771000568e+01 +2.0359120068e+01 3.7925367423e+01 1.0566000000e-01 0.0000e+00 1.0000e+00
      994  1    1    2    0    0 +3.8850250381e+01 +2.6759664046e+01 +2.6284115896e+02 2.9744225728e+02 1.3100000000e+02 0.0000e+00 0.0000e+00
      997  1    1    2    0    0 -1.9884911210e+01 -9.8866347807e-01 +2.1679970981e+02 2.9563237530e+02 2.0000000000e+02 0.0000e+00 0.0000e+00
</event>
<event>
 5      1 +6.7420000e-10 2.30169900e+02 7.95774700e-02 4.56882900e-01
       13 -1    0    0    0    0 +0.0000000000e+00 +0.0000000000e+00 +4.9999998884e+02 5.0000000000e+02 1.0566000000e-01 0.0000e+00 -1.0000e+00
      994 -1    0    0    0    0 -0.0000000000e+00 -0.0000000000e+00 +0.0000000000e+00 1.3100000000e+02 1.3100000000e+02 0.0000e+00 0.0000e+00
       13  1    1    2    0    0 +3.3310414359e+00 +1.1380026032e+01 +5.2517306080e+01 5.3839385505e+01 1.0566000000e-01 0.0000e+00 1.0000e+00
      994  1    1    2    0    0 -1.4032019618e+01 -6.9412494048e+01 +1.3203277565e+02 1.9901920950e+02 1.3100000000e+02 0.0000e+00 0.0000e+00
      997  1    1    2    0    0 +1.0700978182e+01 +5.8032468015e+01 +3.1544990711e+02 3.7814140500e+02 2.0000000000e+02 0.0000e+00 0.0000e+00
</event>
<event>
 5      1 +6.7420000e-10 2.29199400e+02 7.95774700e-02 4.58160300e-01
       13 -1    0    0    0    0 +0.0000000000e+00 +0.0000000000e+00 +4.9999998884e+02 5.0000000000e+02 1.0566000000e-01 0.0000e+00 -1.0000e+00
      994 -1    0    0    0    0 -0.0000000000e+00 -0.0000000000e+00 +0.0000000000e+00 1.3100000000e+02 1.3100000000e+02 0.0000e+00 0.0000e+00
       13  1    1    2    0    0 -4.8629969721e+00 +1.0448819633e+01 +1.1023193143e+01 1.5948307822e+01 1.0566000000e-01 0.0000e+00 1.0000e+00
      994  1    1    2    0    0 -3.9791456490e+01 -3.4031048172e+01 +9.4210303757e+01 1.6964095491e+02 1.3100000000e+02 0.0000e+00 0.0000e+00
      997  1    1    2    0    0 +4.4654453462e+01 +2.3582228539e+01 +3.9476649194e+02 4.4541073727e+02 2.0000000000e+02 0.0000e+00 0.0000e+00
</event>
<event>
 5      1 +6.7420000e-10 2.40703000e+02 7.95774700e-02 4.43811100e-01
       13 -1    0    0    0    0 +0.0000000000e+00 +0.0000000000e+00 +4.9999998884e+02 5.0000000000e+02 1.0566000000e-01 0.0000e+00 1.0000e+00
      994 -1    0    0    0    0 -0.0000000000e+00 -0.0000000000e+00 +0.0000000000e+00 1.3100000000e+02 1.3100000000e+02 0.0000e+00 0.0000e+00
       13  1    1    2    0    0 -1.2988728155e+01 -1.3431077248e+01 +3.4686061559e+00 1.9003770358e+01 1.0566000000e-01 0.0000e+00 -1.0000e+00
      994  1    1    2    0    0 -5.9770598472e+01 +7.3748744997e+00 +1.8222001031e+02 2.3236188451e+02 1.3100000000e+02 0.0000e+00 0.0000e+00
      997  1    1    2    0    0 +7.2759326627e+01 +6.0562027479e+00 +3.1431137237e+02 3.7963434513e+02 2.0000000000e+02 0.0000e+00 0.0000e+00
</event>
<event>
 5      1 +6.7420000e-10 2.43776800e+02 7.95774700e-02 4.40249300e-01
       13 -1    0    0    0    0 +0.0000000000e+00 +0.0000000000e+00 +4.9999998884e+02 5.0000000000e+02 1.0566000000e-01 0.0000e+00 1.0000e+00
      994 -1    0    0    0    0 -0.0000000000e+00 -0.0000000000e+00 +0.0000000000e+00 1.3100000000e+02 1.3100000000e+02 0.0000e+00 0.0000e+00
       13  1    1    2    0    0 +3.9993261274e+01 +5.8353955252e-01 +4.2887925539e+01 5.8644580200e+01 1.0566000000e-01 0.0000e+00 -1.0000e+00
      994  1    1    2    0    0 -4.1182032129e+01 -2.2447109543e+01 +1.4455557073e+02 2.0064183394e+02 1.3100000000e+02 0.0000e+00 0.0000e+00
      997  1    1    2    0    0 +1.1887708554e+00 +2.1863569990e+01 +3.1255649256e+02 3.7171358586e+02 2.0000000000e+02 0.0000e+00 0.0000e+00
</event>
<event>
 5      1 +6.7420000e-10 2.37720700e+02 7.95774700e-02 4.47371700e-01
       13 -1    0    0    0    0 +0.0000000000e+00 +0.0000000000e+00 +4.9999998884e+02 5.0000000000e+02 1.0566000000e-01 0.0000e+00 -1.0000e+00
      994 -1    0    0    0    0 -0.0000000000e+00 -0.0000000000e+00 +0.0000000000e+00 1.3100000000e+02 1.3100000000e+02 0.0000e+00 0.0000e+00
       13  1    1    2    0    0 +7.9194951143e+00 +2.4710274814e+01 +2.2581232191e+01 3.4398245530e+01 1.0566000000e-01 0.0000e+00 1.0000e+00
      994  1    1    2    0    0 +2.2729931193e+01 -3.9855369076e+01 +1.1088520754e+02 1.7765593001e+02 1.3100000000e+02 0.0000e+00 0.0000e+00
      997  1    1    2    0    0 -3.0649426307e+01 +1.5145094263e+01 +3.6653354911e+02 4.1894582446e+02 2.0000000000e+02 0.0000e+00 0.0000e+00
</event>
<event>
 5      1 +6.7420000e-10 2.31074300e+02 7.95774700e-02 4.55704100e-01
       13 -1    0    0    0    0 +0.0000000000e+00 +0.0000000000e+00 +4.9999998884e+02 5.0000000000e+02 1.0566000000e-01 0.0000e+00 -1.0000e+00
      994 -1    0    0    0    0 -0.0000000000e+00 -0.0000000000e+00 +0.0000000000e+00 1.3100000000e+02 1.3100000000e+02 0.0000e+00 0.0000e+00
       13  1    1    2    0    0 +1.7922217219e+00 +1.8707719010e+01 +4.8195080727e+01 5.1729757196e+01 1.0566000000e-01 0.0000e+00 1.0000e+00
      994  1    1    2    0    0 -2.2793678638e+01 -5.1300231328e+01 +1.0488191165e+02 1.7695332975e+02 1.3100000000e+02 0.0000e+00 0.0000e+00
      997  1    1    2    0    0 +2.1001456917e+01 +3.2592512319e+01 +3.4692299646e+02 4.0231691305e+02 2.0000000000e+02 0.0000e+00 0.0000e+00
</event>
<event>
 5      1 +6.7420000e-10 2.44444500e+02 7.95774700e-02 4.39489500e-01
       13 -1    0    0    0    0 +0.0000000000e+00 +0.0000000000e+00 +4.9999998884e+02 5.0000000000e+02 1.0566000000e-01 0.0000e+00 1.0000e+00
      994 -1    0    0    0    0 -0.0000000000e+00 -0.0000000000e+00 +0.0000000000e+00 1.3100000000e+02 1.3100000000e+02 0.0000e+00 0.0000e+00
       13  1    1    2    0    0 +2.7809004590e+00 -2.7836149470e+01 +1.0618397355e+01 2.9922335321e+01 1.0566000000e-01 0.0000e+00 -1.0000e+00
      994  1    1    2    0    0 -7.0155693049e+00 +3.0857473502e+01 +1.1751426182e+02 1.7880716880e+02 1.3100000000e+02 0.0000e+00 0.0000e+00
      997  1    1    2    0    0 +4.2346688459e+00 -3.0213240321e+00 +3.7186732966e+02 4.2227049588e+02 2.0000000000e+02 0.0000e+00 0.0000e+00
</event>
<event>
 5      1 +6.7420000e-10 2.32154500e+02 7.95774700e-02 4.54310800e-01
       13 -1    0    0    0    0 +0.0000000000e+00 +0.0000000000e+00 +4.9999998884e+02 5.0000000000e+02 1.0566000000e-01 0.0000e+00 1.0000e+00
      994 -1    0    0    0    0 -0.0000000000e+00 -0.0000000000e+00 +0.0000000000e+00 1.3100000000e+02 1.3100000000e+02 0.0000e+00 0.0000e+00
       13  1    1    2    0    0 -1.3221260793e+01 +1.4404438556e+01 +3.0658429047e+01 3.6362618480e+01 1.0566000000e-01 0.0000e+00 -1.0000e+00
      994  1    1    2    0    0 -1.8297192910e+01 -5.6989035048e+01 +1.1496234450e+02 1.8428206108e+02 1.3100000000e+02 0.0000e+00 0.0000e+00
      997  1    1    2    0    0 +3.1518453702e+01 +4.2584596493e+01 +3.5437921529e+02 4.1035532044e+02 2.0000000000e+02 0.0000e+00 0.0000e+00
</event>
<event>
 5      1 +6.7420000e-10 2.39893900e+02 7.95774700e-02 4.44766800e-01
       13 -1    0    0    0    0 +0.0000000000e+00 +0.0000000000e+00 +4.9999998884e+02 5.0000000000e+02 1.0566000000e-01 0.0000e+00 -1.0000e+00
      994 -1    0    0    0    0 -0.0000000000e+00 -0.0000000000e+00 +0.0000000000e+00 1.3100000000e+02 1.3100000000e+02 0.0000e+00 0.0000e+00
       13  1    1    2    0    0 -2.5999729729e+01 -1.2049015376e+01 +4.4462525398e+01 5.2896994682e+01 1.0566000000e-01 0.0000e+00 1.0000e+00
      994  1    1    2    0    0 -6.3214492123e+00 +1.1441807732e+00 +8.6937851377e+01 1.5735456737e+02 1.3100000000e+02 0.0000e+00 0.0000e+00
      997  1    1    2    0    0 +3.2321178941e+01 +1.0904834603e+01 +3.6859961206e+02 4.2074843795e+02 2.0000000000e+02 0.0000e+00 0.0000e+00
</event>
<event>
 5      1 +6.7420000e-10 2.44949800e+02 7.95774700e-02 4.38917700e-01
       13 -1    0    0    0    0 +0.0000000000e+00 +0.0000000000e+00 +4.9999998884e+02 5.0000000000e+02 1.0566000000e-01 0.0000e+00 -1.0000e+00
      994 -1    0    0    0    0 -0.0000000000e+00 -0.0000000000e+00 +0.0000000000e+00 1.3100000000e+02 1.3100000000e+02 0.0000e+00 0.0000e+00
       13  1    1    2    0    0 +1.2758064548e+01 +5.1067686451e+00 -4.8746054424e+00 1.4581503326e+01 1.0566000000e-01 0.0000e+00 1.0000e+00
      994  1    1    2    0    0 +2.9672198109e+00 +1.4211573739e+01 +1.0459262786e+02 1.6825989131e+02 1.3100000000e+02 0.0000e+00 0.0000e+00
      997  1    1    2    0    0 -1.5725284359e+01 -1.9318342384e+01 +4.0028196642e+02 4.4815860536e+02 2.0000000000e+02 0.0000e+00 0.0000e+00
</event>
<event>
 5      1 +6.7420000e-10 2.30541000e+02 7.95774700e-02 4.56397900e-01
       13 -1    0    0    0    0 +0.0000000000e+00 +0.0000000000e+00 +4.9999998884e+02 5.0000000000e+02 1.0566000000e-01 0.0000e+00 -1.0000e+00
      994 -1    0    0    0    0 -0.0000000000e+00 -0.0000000000e+00 +0.0000000000e+00 1.3100000000e+02 1.3100000000e+02 0.0000e+00 0.0000e+00
       13  1    1    2    0    0 +1.4006268372e+01 +1.2794174687e+01 +3.3984293994e+01 3.8920558345e+01 1.0566000000e-01 0.0000e+00 1.0000e+00
      994  1    1    2    0    0 -1.3941522884e+01 -7.8299130041e+01 +1.7004698800e+02 2.2891504528e+02 1.3100000000e+02 0.0000e+00 0.0000e+00
      997  1    1    2    0    0 -6.4745488062e-02 +6.5504955354e+01 +2.9596870684e+02 3.6316439638e+02 2.0000000000e+02 0.0000e+00 0.0000e+00
</event>
<event>
 5      1 +6.7420000e-10 2.31353900e+02 7.95774700e-02 4.55342000e-01
       13 -1    0    0    0    0 +0.0000000000e+00 +0.0000000000e+00 +4.9999998884e+02 5.0000000000e+02 1.0566000000e-01 0.0000e+00 -1.0000e+00
      994 -1    0    0    0    0 -0.0000000000e+00 -0.0000000000e+00 +0.0000000000e+00 1.3100000000e+02 1.3100000000e+02 0.0000e+00 0.0000e+00
       13  1    1    2    0    0 +1.6415210979e+01 -2.1776711433e+00 +2.4164929860e+01 2.9294306653e+01 1.0566000000e-01 0.0000e+00 1.0000e+00
      994  1    1    2    0    0 -1.3996180980e+01 -2.3545408936e+01 +7.6032701684e+01 1.5392287383e+02 1.3100000000e+02 0.0000e+00 0.0000e+00
      997  1    1    2    0    0 -2.4190299992e+00 +2.5723080079e+01 +3.9980235729e+02 4.4778281951e+02 2.0000000000e+02 0.0000e+00 0.0000e+00
</event>
<event>
 5      1 +6.7420000e-10 2.48221400e+02 7.95774700e-02 4.35282200e-01
       13 -1    0    0    0    0 +0.0000000000e+00 +0.0000000000e+00 +4.9999998884e+02 5.0000000000e+02 1.0566000000e-01 0.0000e+00 -1.0000e+00
      994 -1    0    0    0    0 -0.0000000000e+00 -0.0000000000e+00 +0.0000000000e+00 1.3100000000e+02 1.3100000000e+02 0.0000e+00 0.0000e+00
       13  1    1    2    0    0 +1.2099139290e+01 -3.7284830507e+01 +2.8776490176e+01 4.8627618782e+01 1.0566000000e-01 0.0000e+00 1.0000e+00
      994  1    1    2    0    0 -1.1521707311e+01 +2.1718890324e+01 +1.2783673211e+02 1.8468267383e+02 1.3100000000e+02 0.0000e+00 0.0000e+00
      997  1    1    2    0    0 -5.7743197896e-01 +1.5565940183e+01 +3.4338676655e+02 3.9768970739e+02 2.0000000000e+02 0.0000e+00 0.0000e+00
</event>
<event>
 5      1 +6.7420000e-10 2.35090500e+02 7.95774700e-02 4.50601600e-01
       13 -1    0    0    0    0 +0.0000000000e+00 +0.0000000000e+00 +4.9999998884e+02 5.0000000000e+02 1.0566000000e-01 0.0000e+00 1.0000e+00
      994 -1    0    0    0    0 -0.0000000000e+00 -0.0000000000e+00 +0.0000000000e+00 1.3100000000e+02 1.3100000000e+02 0.0000e+00 0.0000e+00
       13  1    1    2    0    0 -6.5566841656e+00 -1.1458665623e+01 +5.2427724258e+00 1.4205243816e+01 1.0566000000e-01 0.0000e+00 -1.0000e+00
      994  1    1    2    0    0 -3.1987727810e+01 -2.8703907871e+01 +9.8475910470e+01 1.6942737087e+02 1.3100000000e+02 0.0000e+00 0.0000e+00
      997  1    1    2    0    0 +3.8544411976e+01 +4.0162573494e+01 +3.9628130594e+02 4.4736738531e+02 2.0000000000e+02 0.0000e+00 0.0000e+00
</event>
<event>
 5      1 +6.7420000e-10 2.38524800e+02 7.95774700e-02 4.46401300e-01
       13 -1    0    0    0    0 +0.0000000000e+00 +0.0000000000e+00 +4.9999998884e+02 5.0000000000e+02 1.0566000000e-01 0.0000e+00 1.0000e+00
      994 -1    0    0    0    0 -0.0000000000e+00 -0.0000000000e+00 +0.0000000000e+00 1.3100000000e+02 1.3100000000e+02 0.0000e+00 0.0000e+00
       13  1    1    2    0    0 -3.9998504398e+00 +1.8873411713e+01 +8.5611539055e+00 2.1107083964e+01 1.0566000000e-01 0.0000e+00 -1.0000e+00
      994  1    1    2    0    0 +1.9885251723e+01 -2.1929543483e+00 +8.8187747579e+01 1.5918012159e+02 1.3100000000e+02 0.0000e+00 0.0000e+00
      997  1    1    2    0    0 -1.5885401283e+01 -1.6680457364e+01 +4.0325108735e+02 4.5071279445e+02 2.0000000000e+02 0.0000e+00 0.0000e+00
</event>
<event>
 5      1 +6.7420000e-10 2.33469200e+02 7.95774700e-02 4.52636000e-01
       13 -1    0    0    0    0 +0.0000000000e+00 +0.0000000000e+00 +4.9999998884e+02 5.0000000000e+02 1.0566000000e-01 0.0000e+00 1.0000e+00
      994 -1    0    0    0    0 -0.0000000000e+00 -0.0000000000e+00 +0.0000000000e+00 1.3100000000e+02 1.3100000000e+02 0.0000e+00 0.0000e+00
       13  1    1    2    0    0 +1.3981783270e+01 +9.4182942612e+00 +6.2555659743e+01 6.4787469932e+01 1.0566000000e-01 0.0000e+00 -1.0000e+00
      994  1    1    2    0    0 -5.7506008856e+01 +1.9635347715e+01 +1.2191129187e+02 1.8898637787e+02 1.3100000000e+02 0.0000e+00 0.0000e+00
      997  1    1    2    0    0 +4.3524225586e+01 -2.9053641976e+01 +3.1553303722e+02 3.7722615220e+02 2.0000000000e+02 0.0000e+00 0.0000e+00
</event>
<event>
 5      1 +6.7420000e-10 2.44853200e+02 7.95774700e-02 4.39026900e-01
       13 -1    0    0    0    0 +0.0000000000e+00 +0.0000000000e+00 +4.9999998884e+02 5.0000000000e+02 1.0566000000e-01 0.0000e+00 1.0000e+00
      994 -1    0    0    0    0 -0.0000000000e+00 -0.0000000000e+00 +0.0000000000e+00 1.3100000000e+02 1.3100000000e+02 0.0000e+00 0.0000e+00
       13  1    1    2    0    0 -1.8402974912e+01 +3.8963269784e+01 +6.1746401125e+01 7.5295651228e+01 1.0566000000e-01 0.0000e+00 -1.0000e+00
      994  1    1    2    0    0 +1.5489659327e+01 -3.7281851579e+01 +1.3479810741e+02 1.9225346750e+02 1.3100000000e+02 0.0000e+00 0.0000e+00
      997  1    1    2    0    0 +2.9133155859e+00 -1.6814182057e+00 +3.0345548030e+02 3.6345088128e+02 2.0000000000e+02 0.0000e+00 0.0000e+00
</event>
<event>
 5      1 +6.7420000e-10 2.46625100e+02 7.95774700e-02 4.37041900e-01
       13 -1    0    0    0    0 +0.0000000000e+00 +0.0000000000e+00 +4.9999998884e+02 5.0000000000e+02 1.0566000000e-01 0.0000e+00 1.0000e+00
      994 -1    0    0    0    0 -0.0000000000e+00 -0.0000000000e+00 +0.0000000000e+00 1.3100000000e+02 1.3100000000e+02 0.0000e+00 0.0000e+00
       13  1    1    2    0    0 +2.4217543694e+01 -2.7862608913e+01 +6.0053928320e+01 7.0493261158e+01 1.0566000000e-01 0.0000e+00 -1.0000e+00
      994  1    1    2    0    0 +2.2445673842e+01 +4.0669199921e+00 +1.1736023868e+02 1.7735493716e+02 1.3100000000e+02 0.0000e+00 0.0000e+00
      997  1    1    2    0    0 -4.6663217535e+01 +2.3795688921e+01 +3.2258582183e+02 3.8315180168e+02 2.0000000000e+02 0.0000e+00 0.0000e+00
</event>
<event>
 5      1 +6.7420000e-10 2.44517400e+02 7.95774700e-02 4.39406900e-01
       13 -1    0    0    0    0 +0.0000000000e+00 +0.0000000000e+00 +4.9999998884e+02 5.0000000000e+02 1.0566000000e-01 0.0000e+00 1.0000e+00
      994 -1    0    0    0    0 -0.0000000000e+00 -0.0000000000e+00 +0.0000000000e+00 1.3100000000e+02 1.3100000000e+02 0.0000e+00 0.0000e+00
       13  1    1    2    0    0 +1.5195042225e+01 +2.8427884609e+00 -6.4099603303e+00 1.6735277408e+01 1.0566000000e-01 0.0000e+00 -1.0000e+00
      994  1    1    2    0    0 -2.7439857371e+01 -4.0484093982e+01 +1.6169787705e+02 2.1377350416e+02 1.3100000000e+02 0.0000e+00 0.0000e+00
      997  1    1    2    0    0 +1.2244815146e+01 +3.7641305521e+01 +3.4471207211e+02 4.0049121843e+02 2.0000000000e+02 0.0000e+00 0.0000e+00
</event>
<event>
 5      1 +6.7420000e-10 2.35350200e+02 7.95774700e-02 4.50278800e-01
       13 -1    0    0    0    0 +0.0000000000e+00 +0.0000000000e+00 +4.9999998884e+02 5.0000000000e+02 1.0566000000e-01 0.0000e+00 -1.0000e+00
      994 -1    0    0    0    0 -0.0000000000e+00 -0.0000000000e+00 +0.0000000000e+00 1.3100000000e+02 1.3100000000e+02 0.0000e+00 0.0000e+00
       13  1    1    2    0    0 -5.7849958234e+00 +1.9165134660e+01 +1.3803570713e+01 2.4317037066e+01 1.0566000000e-01 0.0000e+00 1.0000e+00
      994  1    1    2    0    0 +1.1510325209e+01 -3.0387071414e+01 +8.8636597824e+01 1.6147231394e+02 1.3100000000e+02 0.0000e+00 0.0000e+00
      997  1    1    2    0    0 -5.7253293853e+00 +1.1221936755e+01 +3.9755982030e+02 4.4521064899e+02 2.0000000000e+02 0.0000e+00 0.0000e+00
</event>
<event>
 5      1 +6.7420000e-10 2.43106200e+02 7.95774700e-02 4.41017200e-01
       13 -1    0    0    0    0 +0.0000000000e+00 +0.0000000000e+00 +4.9999998884e+02 5.0000000000e+02 1.0566000000e-01 0.0000e+00 -1.0000e+00
      994 -1    0    0    0    0 -0.0000000000e+00 -0.0000000000e+00 +0.0000000000e+00 1.3100000000e+02 1.3100000000e+02 0.0000e+00 0.0000e+00
       13  1    1    2    0    0 +2.7704027803e+01 -2.7028645814e+01 +6.4547065089e+01 7.5262179258e+01 1.0566000000e-01 0.0000e+00 1.0000e+00
      994  1    1    2    0    0 -3.6151664044e+01 +7.9006954357e+00 +1.1905005999e+02 1.8084048381e+02 1.3100000000e+02 0.0000e+00 0.0000e+00
      997  1    1    2    0    0 +8.4476362411e+00 +1.9127950378e+01 +3.1640286376e+02 3.7489733693e+02 2.0000000000e+02 0.0000e+00 0.0000e+00
</event>
<event>
 5      1 +6.7420000e-10 2.38416600e+02 7.95774700e-02 4.46531500e-01
       13 -1    0    0    0    0 +0.0000000000e+00 +0.0000000000e+00 +4.9999998884e+02 5.0000000000e+02 1.0566000000e-01 0.0000e+00 1.0000e+00
      994 -1    0    0    0    0 -0.0000000000e+00 -0.0000000000e+00 +0.0000000000e+00 1.3100000000e+02 1.3100000000e+02 0.0000e+00 0.0000e+00
       13  1    1    2    0    0 +1.5659055169e+01 -2.3375525575e-01 -3.4803432571e+00 1.6043210512e+01 1.0566000000e-01 0.0000e+00 -1.0000e+00
      994  1    1    2    0    0 -5.0313267497e+01 -4.0532023698e+01 +2.0878102330e+02 2.5480342525e+02 1.3100000000e+02 0.0000e+00 0.0000e+00
      997  1    1    2    0    0 +3.4654212328e+01 +4.0765778954e+01 +2.9469930880e+02 3.6015336424e+02 2.0000000000e+02 0.0000e+00 0.0000e+00
</event>
<event>
 5      1 +6.7420000e-10 2.40943100e+02 7.95774700e-02 4.43529100e-01
       13 -1    0    0    0    0 +0.0000000000e+00 +0.0000000000e+00 +4.9999998884e+02 5.0000000000e+02 1.0566000000e-01 0.0000e+00 1.0000e+00
      994 -1    0    0    0    0 -0.0000000000e+00 -0.0000000000e+00 +0.0000000000e+00 1.3100000000e+02 1.3100000000e+02 0.0000e+00 0.0000e+00
       13  1    1    2    0    0 +2.1305669443e+01 -2.8746013680e+01 +3.6423876065e+01 5.1058542523e+01 1.0566000000e-01 0.0000e+00 -1.0000e+00
      994  1    1    2    0    0 -2.7834811313e+01 +4.0265881769e+01 +1.3091393454e+02 1.9156089427e+02 1.3100000000e+02 0.0000e+00 0.0000e+00
      997  1    1    2    0    0 +6.5291418696e+00 -1.1519868089e+01 +3.3266217823e+02 3.8838056321e+02 2.0000000000e+02 0.0000e+00 0.0000e+00
</event>
<event>
 5      1 +6.7420000e-10 2.45690700e+02 7.95774700e-02 4.38084500e-01
       13 -1    0    0    0    0 +0.0000000000e+00 +0.0000000000e+00 +4.9999998884e+02 5.0000000000e+02 1.0566000000e-01 0.0000e+00 -1.0000e+00
      994 -1    0    0    0    0 -0.0000000000e+00 -0.0000000000e+00 +0.0000000000e+00 1.3100000000e+02 1.3100000000e+02 0.0000e+00 0.0000e+00
       13  1    1    2    0    0 -9.7162998772e+00 +3.4253389944e+01 +2.6686519986e+01 4.4495873055e+01 1.0566000000e-01 0.0000e+00 1.0000e+00
      994  1    1    2    0    0 -4.0847128222e+00 -2.6746459189e+01 +1.1755539653e+02 1.7807955866e+02 1.3100000000e+02 0.0000e+00 0.0000e+00
      997  1    1    2    0    0 +1.3801012699e+01 -7.5069307546e+00 +3.5575807232e+02 4.0842456829e+02 2.0000000000e+02 0.0000e+00 0.0000e+00
</event>
<event>
 5      1 +6.7420000e-10 2.37979200e+02 7.95774700e-02 4.47058900e-01
       13 -1    0    0    0    0 +0.0000000000e+00 +0.0000000000e+00 +4.9999998884e+02 5.0000000000e+02 1.0566000000e-01 0.0000e+00 1.0000e+00
      994 -1    0    0    0    0 -0.0000000000e+00 -0.0000000000e+00 +0.0000000000e+00 1.3100000000e+02 1.3100000000e+02 0.0000e+00 0.0000e+00
       13  1    1    2    0    0 -9.5791286721e-01 +2.7421676597e+01 +3.5337687035e+01 4.4739571226e+01 1.0566000000e-01 0.0000e+00 -1.0000e+00
      994  1    1    2    0    0 +1.4597980795e+01 -1.5517068041e+01 +8.7504135871e+01 1.5897123714e+02 1.3100000000e+02 0.0000e+00 0.0000e+00
      997  1    1    2    0    0 -1.3640067928e+01 -1.1904608556e+01 +3.7715816593e+02 4.2728919163e+02 2.0000000000e+02 0.0000e+00 0.0000e+00
</event>
<event>
 5      1 +6.7420000e-10 2.41540300e+02 7.95774700e-02 4.42830200e-01
       13 -1    0    0    0    0 +0.0000000000e+00 +0.0000000000e+00 +4.9999998884e+02 5.0000000000e+02 1.0566000000e-01 0.0000e+00 -1.0000e+00
      994 -1    0    0    0    0 -0.0000000000e+00 -0.0000000000e+00 +0.0000000000e+00 1.3100000000e+02 1.3100000000e+02 0.0000e+00 0.0000e+00
       13  1    1    2    0    0 +2.7368781717e+01 +2.5653481288e+00 +2.3149969878e+01 3.5938329025e+01 1.0566000000e-01 0.0000e+00 1.0000e+00
      994  1    1    2    0    0 +1.1059804867e-01 +3.3255859409e+01 +1.0779804104e+02 1.7287967512e+02 1.3100000000e+02 0.0000e+00 0.0000e+00
      997  1    1    2    0    0 -2.7479379766e+01 -3.5821207538e+01 +3.6905197791e+02 4.2218199585e+02 2.0000000000e+02 0.0000e+00 0.0000e+00
</event>
<event>
 5      1 +6.7420000e-10 2.37997400e+02 7.95774700e-02 4.47036900e-01
       13 -1    0    0    0    0 +0.0000000000e+00 +0.0000000000e+00 +4.9999998884e+02 5.0000000000e+02 1.0566000000e-01 0.0000e+00 1.0000e+00
      994 -1    0    0    0    0 -0.0000000000e+00 -0.0000000000e+00 +0.0000000000e+00 1.3100000000e+02 1.3100000000e+02 0.0000e+00 0.0000e+00
       13  1    1    2    0    0 +1.9415931085e+01 -2.0592997359e+01 +7.8434405142e+01 8.3384752768e+01 1.0566000000e-01 0.0000e+00 -1.0000e+00
      994  1    1    2    0    0 -1.9166361145e+01 +5.3409651616e+01 +1.3395445202e+02 1.9576704396e+02 1.3100000000e+02 0.0000e+00 0.0000e+00
      997  1    1    2    0    0 -2.4956994018e-01 -3.2816654257e+01 +2.8761113168e+02 3.5184820327e+02 2.0000000000e+02 0.0000e+00 0.0000e+00
</event>
<event>
 5      1 +6.7420000e-10 2.34556400e+02 7.95774700e-02 4.51268000e-01
       13 -1    0    0    0    0 +0.0000000000e+00 +0.0000000000e+00 +4.9999998884e+02 5.0000000000e+02 1.0566000000e-01 0.0000e+00 -1.0000e+00
      994 -1    0    0    0    0 -0.0000000000e+00 -0.0000000000e+00 +0.0000000000e+00 1.3100000000e+02 1.3100000000e+02 0.0000e+00 0.0000e+00
       13  1    1    2    0    0 -1.5170344365e+01 -2.1381454591e+01 +3.7989483799e+01 4.6157534508e+01 1.0566000000e-01 0.0000e+00 1.0000e+00
      994  1    1    2    0    0 +5.5640220961e+01 +2.0710403652e+01 +1.2343736504e+02 1.8953241965e+02 1.3100000000e+02 0.0000e+00 0.0000e+00
      997  1    1    2    0    0 -4.0469876596e+01 +6.7105093866e-01 +3.3857313999e+02 3.9531004585e+02 2.0000000000e+02 0.0000e+00 0.0000e+00
</event>
<event>
 5      1 +6.7420000e-10 2.48066800e+02 7.95774700e-02 4.35451400e-01
       13 -1    0    0    0    0 +0.0000000000e+00 +0.0000000000e+00 +4.9999998884e+02 5.0000000000e+02 1.0566000000e-01 0.0000e+00 -1.0000e+00
      994 -1    0    0    0    0 -0.0000000000e+00 -0.0000000000e+00 +0.0000000000e+00 1.3100000000e+02 1.3100000000e+02 0.0000e+00 0.0000e+00
       13  1    1    2    0    0 -1.6181545274e+01 -1.8934876973e+01 +1.7842295553e+00 2.4971315796e+01 1.0566000000e-01 0.0000e+00 1.0000e+00
      994  1    1    2    0    0 -1.7205947115e+01 +2.7897466103e+01 +1.4138068888e+02 1.9550911083e+02 1.3100000000e+02 0.0000e+00 0.0000e+00
      997  1    1    2    0    0 +3.3387492389e+01 -8.9625891298e+00 +3.5683507040e+02 4.1051957337e+02 2.0000000000e+02 0.0000e+00 0.0000e+00
</event>
<event>
 5      1 +6.7420000e-10 2.38404300e+02 7.95774700e-02 4.46546300e-01
       13 -1    0    0    0    0 +0.0000000000e+00 +0.0000000000e+00 +4.9999998884e+02 5.0000000000e+02 1.0566000000e-01 0.0000e+00 -1.0000e+00
      994 -1    0    0    0    0 -0.0000000000e+00 -0.0000000000e+00 +0.0000000000e+00 1.3100000000e+02 1.3100000000e+02 0.0000e+00 0.0000e+00
       13  1    1    2    0    0 +2.9125010690e+01 +4.7731678038e+00 +6.9978338748e+01 7.5947537397e+01 1.0566000000e-01 0.0000e+00 1.0000e+00
      994  1    1    2    0    0 -2.5114115851e+01 -2.1099996509e+01 +9.7163976782e+01 1.6636636394e+02 1.3100000000e+02 0.0000e+00 0.0000e+00
      997  1    1    2    0    0 -4.0108948390e+00 +1.6326828706e+01 +3.3285767331e+02 3.8868609866e+02 2.0000000000e+02 0.0000e+00 0.0000e+00
</event>
<event>
 5      1 +6.7420000e-10 2.29405400e+02 7.95774700e-02 4.57888000e-01
       13 -1    0    0    0    0 +0.0000000000e+00 +0.0000000000e+00 +4.9999998884e+02 5.0000000000e+02 1.0566000000e-01 0.0000e+00 1.0000e+00
      994 -1    0    0    0    0 -0.0000000000e+00 -0.0000000000e+00 +0.0000000000e+00 1.3100000000e+02 1.3100000000e+02 0.0000e+00 0.0000e+00
       13  1    1    2    0    0 +9.8174582201e+00 -3.9717163198e+00 +8.0404145478e+00 1.3297234546e+01 1.0566000000e-01 0.0000e+00 -1.0000e+00
      994  1    1    2    0    0 -1.9480800931e+01 -1.5369805739e+01 +7.0788745184e+01 1.5095621543e+02 1.3100000000e+02 0.0000e+00 0.0000e+00
      997  1    1    2    0    0 +9.6633427112e+00 +1.9341522059e+01 +4.2117082910e+02 4.6674655002e+02 2.0000000000e+02 0.0000e+00 0.0000e+00
</event>
<event>
 5      1 +6.7420000e-10 2.35331700e+02 7.95774700e-02 4.50301800e-01
       13 -1    0    0    0    0 +0.0000000000e+00 +0.0000000000e+00 +4.9999998884e+02 5.0000000000e+02 1.0566000000e-01 0.0000e+00 -1.0000e+00
      994 -1    0    0    0    0 -0.0000000000e+00 -0.0000000000e+00 +0.0000000000e+00 1.3100000000e+02 1.3100000000e+02 0.0000e+00 0.0000e+00
       13  1    1    2    0    0 -1.3984884190e+01 +5.7125100579e+00 +7.6927456637e+00 1.6952853945e+01 1.0566000000e-01 0.0000e+00 1.0000e+00
      994  1    1    2    0    0 -1.0359989712e+01 +1.6823897158e+01 +8.0445535051e+01 1.5499308698e+02 1.3100000000e+02 0.0000e+00 0.0000e+00
      997  1    1    2    0    0 +2.4344873903e+01 -2.2536407216e+01 +4.1186170812e+02 4.5905405907e+02 2.0000000000e+02 0.0000e+00 0.0000e+00
</event>
<event>
 5      1 +6.7420000e-10 2.29700400e+02 7.95774700e-02 4.57499200e-01
       13 -1    0    0    0    0 +0.0000000000e+00 +0.0000000000e+00 +4.9999998884e+02 5.0000000000e+02 1.0566000000e-01 0.0000e+00 -1.0000e+00
      994 -1    0    0    0    0 -0.0000000000e+00 -0.0000000000e+00 +0.0000000000e+00 1.3100000000e+02 1.3100000000e+02 0.0000e+00 0.0000e+00
       13  1    1    2    0    0 -3.1810184253e+00 -9.8568496179e+00 +6.0289416095e+00 1.1984809701e+01 1.0566000000e-01 0.0000e+00 1.0000e+00
      994  1    1    2    0    0 -1.0260182466e+00 +2.5571498316e+01 +7.1752772401e+01 1.5154014183e+02 1.3100000000e+02 0.0000e+00 0.0000e+00
      997  1    1    2    0    0 +4.2070366720e+00 -1.5714648698e+01 +4.2221827483e+02 4.6747504847e+02 2.0000000000e+02 0.0000e+00 0.0000e+00
</event>
<event>
 5      1 +6.7420000e-10 2.30710400e+02 7.95774700e-02 4.56177100e-01
       13 -1    0    0    0    0 +0.0000000000e+00 +0.0000000000e+00 +4.9999998884e+02 5.0000000000e+02 1.0566000000e-01 0.0000e+00 1.0000e+00
      994 -1    0    0    0    0 -0.0000000000e+00 -0.0000000000e+00 +0.0000000000e+00 1.3100000000e+02 1.3100000000e+02 0.0000e+00 0.0000e+00
       13  1    1    2    0    0 -7.3248732212e+00 -1.2850579846e+01 +1.4362967930e+01 2.0617885000e+01 1.0566000000e-01 0.0000e+00 -1.0000e+00
      994  1    1    2    0    0 -3.6412112691e+00 +3.5236162511e+01 +8.0251396555e+01 1.5765827672e+02 1.3100000000e+02 0.0000e+00 0.0000e+00
      997  1    1    2    0    0 +1.0966084490e+01 -2.2385582666e+01 +4.0538562435e+02 4.5272383828e+02 2.0000000000e+02 0.0000e+00 0.0000e+00
</event>
<event>
 5      1 +6.7420000e-10 2.40529200e+02 7.95774700e-02 4.44015800e-01
       13 -1    0    0    0    0 +0.0000000000e+00 +0.0000000000e+00 +4.9999998884e+02 5.0000000000e+02 1.0566000000e-01 0.0000e+00 -1.0000e+00
      994 -1    0    0    0    0 -0.0000000000e+00 -0.0000000000e+00 +0.0000000000e+00 1.3100000000e+02 1.3100000000e+02 0.0000e+00 0.0000e+00
       13  1    1    2    0    0 +5.9220012315e+00 -1.5478606112e+01 +1.2842097016e+00 1.6622806753e+01 1.0566000000e-01 0.0000e+00 1.0000e+00
      994  1    1    2    0    0 +9.4851531582e+00 +1.6207308478e+01 +9.2899244543e+01 1.6169079941e+02 1.3100000000e+02 0.0000e+00 0.0000e+00
      997  1    1    2    0    0 -1.5407154390e+01 -7.2870236580e-01 +4.0581653459e+02 4.5268639383e+02 2.0000000000e+02 0.0000e+00 0.0000e+00
</event>
<event>
 5      1 +6.7420000e-10 2.37008500e+02 7.95774700e-02 4.48237900e-01
       13 -1    0    0    0    0 +0.0000000000e+00 +0.0000000000e+00 +4.9999998884e+02 5.0000000000e+02 1.0566000000e-01 0.0000e+00 1.0000e+00
      994 -1    0    0    0    0 -0.0000000000e+00 -0.0000000000e+00 +0.0000000000e+00 1.3100000000e+02 1.3100000000e+02 0.0000e+00 0.0000e+00
       13  1    1    2    0    0 -4.8337010892e+00 +2.1128247224e+01 +1.1134083983e+01 2.4366913780e+01 1.0566000000e-01 0.0000e+00 -1.0000e+00
      994  1    1    2    0    0 +2.7482235151e+01 -3.9500295750e+01 +1.1181469487e+02 1.7882693478e+02 1.3100000000e+02 0.0000e+00 0.0000e+00
      997  1    1    2    0    0 -2.2648534062e+01 +1.8372048526e+01 +3.7705120998e+02 4.2780615144e+02 2.0000000000e+02 0.0000e+00 0.0000e+00
</event>
<event>
 5      1 +6.7420000e-10 2.45504700e+02 7.95774700e-02 4.38293100e-01
       13 -1    0    0    0    0 +0.0000000000e+00 +0.0000000000e+00 +4.9999998884e+02 5.0000000000e+02 1.0566000000e-01 0.0000e+00 -1.0000e+00
      994 -1    0    0    0    0 -0.0000000000e+00 -0.0000000000e+00 +0.0000000000e+00 1.3100000000e+02 1.3100000000e+02 0.0000e+00 0.0000e+00
       13  1    1    2    0    0 -6.5752394491e+00 -2.9356549085e+01 +1.4281677454e+01 3.3301925213e+01 1.0566000000e-01 0.0000e+00 1.0000e+00
      994  1    1    2    0    0 -9.1070113116e+00 +2.4056691288e+01 +1.1525363549e+02 1.7636910881e+02 1.3100000000e+02 0.0000e+00 0.0000e+00
      997  1    1    2    0    0 +1.5682250761e+01 +5.2998577964e+00 +3.7046467590e+02 4.2132896597e+02 2.0000000000e+02 0.0000e+00 0.0000e+00
</event>
<event>
 5      1 +6.7420000e-10 2.46249500e+02 7.95774700e-02 4.37459900e-01
       13 -1    0    0    0    0 +0.0000000000e+00 +0.0000000000e+00 +4.9999998884e+02 5.0000000000e+02 1.0566000000e-01 0.0000e+00 1.0000e+00
      994 -1    0    0    0    0 -0.0000000000e+00 -0.0000000000e+00 +0.0000000000e+00 1.3100000000e+02 1.3100000000e+02 0.0000e+00 0.0000e+00
       13  1    1    2    0    0 -2.7891030160e+01 +3.0501709737e+01 +6.9893475851e+01 8.1199587381e+01 1.0566000000e-01 0.0000e+00 -1.0000e+00
      994  1    1    2    0    0 -5.2350022689e-01 -2.6754431183e+01 +1.1985895261e+02 1.7956403360e+02 1.3100000000e+02 0.0000e+00 0.0000e+00
      997  1    1    2    0    0 +2.8414530387e+01 -3.7472785542e+00 +3.1024756037e+02 3.7023637902e+02 2.0000000000e+02 0.0000e+00 0.0000e+00
</event>
<event>
 5      1 +6.7420000e-10 2.48282000e+02 7.95774700e-02 4.35215900e-01
       13 -1    0    0    0    0 +0.0000000000e+00 +0.0000000000e+00 +4.9999998884e+02 5.0000000000e+02 1.0566000000e-01 0.0000e+00 -1.0000e+00
      994 -1    0    0    0    0 -0.0000000000e+00 -0.0000000000e+00 +0.0000000000e+00 1.3100000000e+02 1.3100000000e+02 0.0000e+00 0.0000e+00
       13  1    1    2    0    0 +1.8688054044e-01 -1.8794561349e+01 -3.8235004730e+00 1.9180739833e+01 1.0566000000e-01 0.0000e+00 1.0000e+00
      994  1    1    2    0    0 -2.6073021587e+01 -1.0492050687e+01 +1.3355373402e+02 1.8917580567e+02 1.3100000000e+02 0.0000e+00 0.0000e+00
      997  1    1    2    0    0 +2.5886141047e+01 +2.9286612036e+01 +3.7026975529e+02 4.2264345449e+02 2.0000000000e+02 0.0000e+00 0.0000e+00
</event>
<event>
 5      1 +6.7420000e-10 2.29802200e+02 7.95774700e-02 4.57365300e-01
       13 -1    0    0    0    0 +0.0000000000e+00 +0.0000000000e+00 +4.9999998884e+02 5.0000000000e+02 1.0566000000e-01 0.0000e+00 -1.0000e+00
      994 -1    0    0    0    0 -0.0000000000e+00 -0.0000000000e+00 +0.0000000000e+00 1.3100000000e+02 1.3100000000e+02 0.0000e+00 0.0000e+00
       13  1    1    2    0    0 -5.4554180529e-01 -1.0568351218e+01 +5.0668684114e+00 1.1733370482e+01 1.0566000000e-01 0.0000e+00 1.0000e+00
      994  1    1    2    0    0 -1.2814779276e+01 +4.2341368705e+01 +8.6241884744e+01 1.6295911376e+02 1.3100000000e+02 0.0000e+00 0.0000e+00
      997  1    1    2    0    0 +1.3360321081e+01 -3.1773017487e+01 +4.0869123568e+02 4.5630751576e+02 2.0000000000e+02 0.0000e+00 0.0000e+00
</event>
<event>
 5      1 +6.7420000e-10 2.51927500e+02 7.95774700e-02 4.31296900e-01
       13 -1    0    0    0    0 +0.0000000000e+00 +0.0000000000e+00 +4.9999998884e+02 5.0000000000e+02 1.0566000000e-01 0.0000e+00 -1.0000e+00
      994 -1    0    0    0    0 -0.0000000000e+00 -0.0000000000e+00 +0.0000000000e+00 1.3100000000e+02 1.3100000000e+02 0.0000e+00 0.0000e+00
       13  1    1    2    0    0 -5.2748907695e+00 +3.6449282718e+01 +1.6937456271e+01 4.0537183822e+01 1.0566000000e-01 0.0000e+00 1.0000e+00
      994  1    1    2    0    0 -1.1189561102e+01 -6.9488225653e+00 +1.4200844029e+02 1.9365146404e+02 1.3100000000e+02 0.0000e+00 0.0000e+00
      997  1    1    2    0    0 +1.6464451872e+01 -2.9500460152e+01 +3.4105409228e+02 3.9681135214e+02 2.0000000000e+02 0.0000e+00 0.0000e+00
</event>
<event>
 5      1 +6.7420000e-10 2.37256400e+02 7.95774700e-02 4.47935700e-01
       13 -1    0    0    0    0 +0.0000000000e+00 +0.0000000000e+00 +4.9999998884e+02 5.0000000000e+02 1.0566000000e-01 0.0000e+00 -1.0000e+00
      994 -1    0    0    0    0 -0.0000000000e+00 -0.0000000000e+00 +0.0000000000e+00 1.3100000000e+02 1.3100000000e+02 0.0000e+00 0.0000e+00
       13  1    1    2    0    0 -9.3689345468e+00 +1.9503762639e+01 +2.3198659851e+01 3.1723219801e+01 1.0566000000e-01 0.0000e+00 1.0000e+00
      994  1    1    2    0    0 +3.6445169335e+01 +4.4036856696e+01 +1.3101828080e+02 1.9389245736e+02 1.3100000000e+02 0.0000e+00 0.0000e+00
      997  1    1    2    0    0 -2.7076234789e+01 -6.3540619335e+01 +3.4578304818e+02 4.0538432284e+02 2.0000000000e+02 0.0000e+00 0.0000e+00
</event>
<event>
 5      1 +6.7420000e-10 2.29592500e+02 7.95774700e-02 4.57641200e-01
       13 -1    0    0    0    0 +0.0000000000e+00 +0.0000000000e+00 +4.9999998884e+02 5.0000000000e+02 1.0566000000e-01 0.0000e+00 1.0000e+00
      994 -1    0    0    0    0 -0.0000000000e+00 -0.0000000000e+00 +0.0000000000e+00 1.3100000000e+02 1.3100000000e+02 0.0000e+00 0.0000e+00
       13  1    1    2    0    0 +1.1802328450e+01 +8.9953574420e+00 +3.8561516118e+01 4.1318435373e+01 1.0566000000e-01 0.0000e+00 -1.0000e+00
      994  1    1    2    0    0 -2.9276099177e+01 -1.0206034906e+01 +7.4746717198e+01 1.5397832595e+02 1.3100000000e+02 0.0000e+00 0.0000e+00
      997  1    1    2    0    0 +1.7473770727e+01 +1.2106774640e+00 +3.8669175552e+02 4.3570323867e+02 2.0000000000e+02 0.0000e+00 0.0000e+00
</event>
<event>
 5      1 +6.7420000e-10 2.40685300e+02 7.95774700e-02 4.43832100e-01
       13 -1    0    0    0    0 +0.0000000000e+00 +0.0000000000e+00 +4.9999998884e+02 5.0000000000e+02 1.0566000000e-01 0.0000e+00 1.0000e+00
      994 -1    0    0    0    0 -0.0000000000e+00 -0.0000000000e+00 +0.0000000000e+00 1.3100000000e+02 1.3100000000e+02 0.0000e+00 0.0000e+00
       13  1    1    2    0    0 +3.2561748042e+01 -3.5363189815e+00 +2.3471669981e+01 4.0295203725e+01 1.0566000000e-01 0.0000e+00 -1.0000e+00
      994  1    1    2    0    0 -5.4629405274e+01 -2.2712434916e+00 +1.4548803720e+02 2.0326657235e+02 1.3100000000e+02 0.0000e+00 0.0000e+00
      997  1    1    2    0    0 +2.2067657232e+01 +5.8075624732e+00 +3.3104028166e+02 3.8743822392e+02 2.0000000000e+02 0.0000e+00 0.0000e+00
</event>
<event>
 5      1 +6.7420000e-10 2.32064400e+02 7.95774700e-02 4.54426500e-01
       13 -1    0    0    0    0 +0.0000000000e+00 +0.0000000000e+00 +4.9999998884e+02 5.0000000000e+02 1.0566000000e-01 0.0000e+00 1.0000e+00
      994 -1    0    0    0    0 -0.0000000000e+00 -0.0000000000e+00 +0.0000000000e+00 1.3100000000e+02 1.3100000000e+02 0.0000e+00 0.0000e+00
       13  1    1    2    0    0 +1.0781015611e+01 -1.3662076066e+01 +3.2077575339e+01 3.6494720491e+01 1.0566000000e-01 0.0000e+00 -1.0000e+00
      994  1    1    2    0    0 +1.1353597290e+01 +7.9962877441e+00 +7.1465572183e+01 1.4987052010e+02 1.3100000000e+02 0.0000e+00 0.0000e+00
      997  1    1    2    0    0 -2.2134612901e+01 +5.6657883218e+00 +3.9645684131e+02 4.4463475940e+02 2.0000000000e+02 0.0000e+00 0.0000e+00
</event>
<event>
 5      1 +6.7420000e-10 2.47984600e+02 7.95774700e-02 4.35541600e-01
       13 -1    0    0    0    0 +0.0000000000e+00 +0.0000000000e+00 +4.9999998884e+02 5.0000000000e+02 1.0566000000e-01 0.0000e+00 1.0000e+00
      994 -1    0    0    0    0 -0.0000000000e+00 -0.0000000000e+00 +0.0000000000e+00 1.3100000000e+02 1.3100000000e+02 0.0000e+00 0.0000e+00
       13  1    1    2    0    0 +1.4222550548e+01 +1.1903253438e+01 -3.3724673795e+00 1.8850811302e+01 1.0566000000e-01 0.0000e+00 -1.0000e+00
      994  1    1    2    0    0 -4.5814551600e+00 +9.9242497919e+00 +1.1502080978e+02 1.7467188425e+02 1.3100000000e+02 0.0000e+00 0.0000e+00
      997  1    1    2    0    0 -9.6410953878e+00 -2.1827503230e+01 +3.8835164643e+02 4.3747730444e+02 2.0000000000e+02 0.0000e+00 0.0000e+00
</event>
<event>
 5      1 +6.7420000e-10 2.48200600e+02 7.95774700e-02 4.35304900e-01
       13 -1    0    0    0    0 +0.0000000000e+00 +0.0000000000e+00 +4.9999998884e+02 5.0000000000e+02 1.0566000000e-01 0.0000e+00 1.0000e+00
      994 -1    0    0    0    0 -0.0000000000e+00 -0.0000000000e+00 +0.0000000000e+00 1.3100000000e+02 1.3100000000e+02 0.0000e+00 0.0000e+00
       13  1    1    2    0    0 +1.6860022943e+01 +2.4017315320e+01 +1.1955125012e+02 1.2309997716e+02 1.0566000000e-01 0.0000e+00 -1.0000e+00
      994  1    1    2    0    0 -1.2417167291e+01 -3.4838337693e+01 +1.5669816021e+02 2.0756495183e+02 1.3100000000e+02 0.0000e+00 0.0000e+00
      997  1    1    2    0    0 -4.4428556524e+00 +1.0821022373e+01 +2.2375057851e+02 3.0033507101e+02 2.0000000000e+02 0.0000e+00 0.0000e+00
</event>
<event>
 5      1 +6.7420000e-10 2.39956500e+02 7.95774700e-02 4.44692600e-01
       13 -1    0    0    0    0 +0.0000000000e+00 +0.0000000000e+00 +4.9999998884e+02 5.0000000000e+02 1.0566000000e-01 0.0000e+00 1.0000e+00
      994 -1    0    0    0    0 -0.0000000000e+00 -0.0000000000e+00 +0.0000000000e+00 1.3100000000e+02 1.3100000000e+02 0.0000e+00 0.0000e+00
       13  1    1    2    0    0 +1.2003962320e+01 -6.4300096364e-01 -2.5381517812e+00 1.2286656995e+01 1.0566000000e-01 0.0000e+00 -1.0000e+00
      994  1    1    2    0    0 -8.6387981472e-01 -1.9540810614e+00 +8.6611099525e+01 1.5705746490e+02 1.3100000000e+02 0.0000e+00 0.0000e+00
      997  1    1    2    0    0 -1.1140082505e+01 +2.5970820251e+00 +4.1592704109e+02 4.6165587810e+02 2.0000000000e+02 0.0000e+00 0.0000e+00
</event>
<event>
 5      1 +6.7420000e-10 2.46789800e+02 7.95774700e-02 4.36859100e-01
       13 -1    0    0    0    0 +0.0000000000e+00 +0.0000000000e+00 +4.9999998884e+02 5.0000000000e+02 1.0566000000e-01 0.0000e+00 1.0000e+00
      994 -1    0    0    0    0 -0.0000000000e+00 -0.0000000000e+00 +0.0000000000e+00 1.3100000000e+02 1.3100000000e+02 0.0000e+00 0.0000e+00
       13  1    1    2    0    0 +1.0976803572e+01 -1.0460227083e+01 -1.0944969080e+01 1.8700536877e+01 1.0566000000e-01 0.0000e+00 -1.0000e+00
      994  1    1    2    0    0 +1.1144561841e+01 +2.5116203556e+01 +2.3533110392e+02 2.7073373158e+02 1.3100000000e+02 0.0000e+00 0.0000e+00
      997  1    1    2    0    0 -2.2121365413e+01 -1.4655976473e+01 +2.7561385399e+02 3.4156573155e+02 2.0000000000e+02 0.0000e+00 0.0000e+00
</event>
<event>
 5      1 +6.7420000e-10 2.48125900e+02 7.95774700e-02 4.35386700e-01
       13 -1    0    0    0    0 +0.0000000000e+00 +0.0000000000e+00 +4.9999998884e+02 5.0000000000e+02 1.0566000000e-01 0.0000e+00 -1.0000e+00
      994 -1    0    0    0    0 -0.0000000000e+00 -0.0000000000e+00 +0.0000000000e+00 1.3100000000e+02 1.3100000000e+02 0.0000e+00 0.0000e+00
       13  1    1    2    0    0 +9.4288820287e+00 +1.6621185334e+01 -4.1571621950e+00 1.9556604505e+01 1.0566000000e-01 0.0000e+00 1.0000e+00
      994  1    1    2    0    0 +3.8091258725e+01 +6.3597109358e+00 +1.6505529559e+02 2.1423267845e+02 1.3100000000e+02 0.0000e+00 0.0000e+00
      997  1    1    2    0    0 -4.7520140754e+01 -2.2980896269e+01 +3.3910185544e+02 3.9721071704e+02 2.0000000000e+02 0.0000e+00 0.0000e+00
</event>
<event>
 5      1 +6.7420000e-10 2.39890700e+02 7.95774700e-02 4.44770600e-01
       13 -1    0    0    0    0 +0.0000000000e+00 +0.0000000000e+00 +4.9999998884e+02 5.0000000000e+02 1.0566000000e-01 0.0000e+00 1.0000e+00
      994 -1    0    0    0    0 -0.0000000000e+00 -0.0000000000e+00 +0.0000000000e+00 1.3100000000e+02 1.3100000000e+02 0.0000e+00 0.0000e+00
       13  1    1    2    0    0 +1.4184349970e+01 -1.4183819976e+01 +2.9643457141e+00 2.0277451584e+01 1.0566000000e-01 0.0000e+00 -1.0000e+00
      994  1    1    2    0    0 -2.4250777180e+01 +4.4813529891e+01 +1.2984552273e+02 1.9135624481e+02 1.3100000000e+02 0.0000e+00 0.0000e+00
      997  1    1    2    0    0 +1.0066427210e+01 -3.0629709915e+01 +3.6719012039e+02 4.1936630360e+02 2.0000000000e+02 0.0000e+00 0.0000e+00
</event>
<event>
 5      1 +6.7420000e-10 2.46851500e+02 7.95774700e-02 4.36790800e-01
       13 -1    0    0    0    0 +0.0000000000e+00 +0.0000000000e+00 +4.9999998884e+02 5.0000000000e+02 1.0566000000e-01 0.0000e+00 -1.0000e+00
      994 -1    0    0    0    0 -0.0000000000e+00 -0.0000000000e+00 +0.0000000000e+00 1.3100000000e+02 1.3100000000e+02 0.0000e+00 0.0000e+00
       13  1    1    2    0    0 +1.8689500631e+01 +2.0124227412e+01 +1.8939736119e+00 2.7529625186e+01 1.0566000000e-01 0.0000e+00 1.0000e+00
      994  1    1    2    0    0 -4.1050374402e+01 -1.4627293593e+01 +1.7704302579e+02 2.2450907318e+02 1.3100000000e+02 0.0000e+00 0.0000e+00
      997  1    1    2    0    0 +2.2360873771e+01 -5.4969338199e+00 +3.2106298943e+02 3.7896130164e+02 2.0000000000e+02 0.0000e+00 0.0000e+00
</event>
<event>
 5      1 +6.7420000e-10 2.38024800e+02 7.95774700e-02 4.47003800e-01
       13 -1    0    0    0    0 +0.0000000000e+00 +0.0000000000e+00 +4.9999998884e+02 5.0000000000e+02 1.0566000000e-01 0.0000e+00 -1.0000e+00
      994 -1    0    0    0    0 -0.0000000000e+00 -0.0000000000e+00 +0.0000000000e+00 1.3100000000e+02 1.3100000000e+02 0.0000e+00 0.0000e+00
       13  1    1    2    0    0 -9.6423748903e+00 -5.1069021781e+00 -1.6280059420e+00 1.1032561387e+01 1.0566000000e-01 0.0000e+00 1.0000e+00
      994  1    1    2    0    0 -4.2585143147e+01 -1.9565441207e+01 +1.1357097330e+02 1.7959862717e+02 1.3100000000e+02 0.0000e+00 0.0000e+00
      997  1    1    2    0    0 +5.2227518037e+01 +2.4672343386e+01 +3.8805702148e+02 4.4036881144e+02 2.0000000000e+02 0.0000e+00 0.0000e+00
</event>
<event>
 5      1 +6.7420000e-10 2.34642600e+02 7.95774700e-02 4.51160300e-01
       13 -1    0    0    0    0 +0.0000000000e+00 +0.0000000000e+00 +4.9999998884e+02 5.0000000000e+02 1.0566000000e-01 0.0000e+00 1.0000e+00
      994 -1    0    0    0    0 -0.0000000000e+00 -0.0000000000e+00 +0.0000000000e+00 1.3100000000e+02 1.3100000000e+02 0.0000e+00 0.0000e+00
       13  1    1    2    0    0 -1.5385998673e+01 +1.3346888673e+01 +2.1759629408e+01 2.9805385896e+01 1.0566000000e-01 0.0000e+00 -1.0000e+00
      994  1    1    2    0    0 -1.8992560521e+00 -1.9480125257e+01 +7.8843550612e+01 1.5414404927e+02 1.3100000000e+02 0.0000e+00 0.0000e+00
      997  1    1    2    0    0 +1.7285254725e+01 +6.1332365838e+00 +3.9939680882e+02 4.4705056483e+02 2.0000000000e+02 0.0000e+00 0.0000e+00
</event>
<event>
 5      1 +6.7420000e-10 2.51998700e+02 7.95774700e-02 4.31221700e-01
       13 -1    0    0    0    0 +0.0000000000e+00 +0.0000000000e+00 +4.9999998884e+02 5.0000000000e+02 1.0566000000e-01 0.0000e+00 1.0000e+00
      994 -1    0    0    0    0 -0.0000000000e+00 -0.0000000000e+00 +0.0000000000e+00 1.3100000000e+02 1.3100000000e+02 0.0000e+00 0.0000e+00
       13  1    1    2    0    0 -2.6802770075e+01 +2.1411395464e+00 +9.5537627008e-01 2.6905331630e+01 1.0566000000e-01 0.0000e+00 -1.0000e+00
      994  1    1    2    0    0 +1.3614376411e+00 +6.3144514006e+00 +1.3732621931e+02 1.8989791025e+02 1.3100000000e+02 0.0000e+00 0.0000e+00
      997  1    1    2    0    0 +2.5441332434e+01 -8.4555909471e+00 +3.6171839325e+02 4.1419675812e+02 2.0000000000e+02 0.0000e+00 0.0000e+00
</event>
<event>
 5      1 +6.7420000e-10 2.37702300e+02 7.95774700e-02 4.47394100e-01
       13 -1    0    0    0    0 +0.0000000000e+00 +0.0000000000e+00 +4.9999998884e+02 5.0000000000e+02 1.0566000000e-01 0.0000e+00 1.0000e+00
      994 -1    0    0    0    0 -0.0000000000e+00 -0.0000000000e+00 +0.0000000000e+00 1.3100000000e+02 1.3100000000e+02 0.0000e+00 0.0000e+00
       13  1    1    2    0    0 -2.1326396998e+01 +8.7598285423e+00 +6.8676993473e+00 2.4056730105e+01 1.0566000000e-01 0.0000e+00 -1.0000e+00
      994  1    1    2    0    0 +2.8007300292e+01 +3.6406973046e+01 +2.7155980476e+02 3.0498459652e+02 1.3100000000e+02 0.0000e+00 0.0000e+00
      997  1    1    2    0    0 -6.6809032941e+00 -4.5166801588e+01 +2.2157248473e+02 3.0195867337e+02 2.0000000000e+02 0.0000e+00 0.0000e+00
</event>
<event>
 5      1 +6.7420000e-10 2.49414600e+02 7.95774700e-02 4.33984000e-01
       13 -1    0    0    0    0 +0.0000000000e+00 +0.0000000000e+00 +4.9999998884e+02 5.0000000000e+02 1.0566000000e-01 0.0000e+00 1.0000e+00
      994 -1    0    0    0    0 -0.0000000000e+00 -0.0000000000e+00 +0.0000000000e+00 1.3100000000e+02 1.3100000000e+02 0.0000e+00 0.0000e+00
       13  1    1    2    0    0 -9.0155361444e+00 -2.7192436932e+01 +5.9284571278e+00 2.9255192466e+01 1.0566000000e-01 0.0000e+00 -1.0000e+00
      994  1    1    2    0    0 -2.8678518307e+01 -1.7103766485e+01 +1.9111737387e+02 2.3409794282e+02 1.3100000000e+02 0.0000e+00 0.0000e+00
      997  1    1    2    0    0 +3.7694054451e+01 +4.4296203417e+01 +3.0295415784e+02 3.6764686471e+02 2.0000000000e+02 0.0000e+00 0.0000e+00
</event>
<event>
 5      1 +6.7420000e-10 2.34377800e+02 7.95774700e-02 4.51491700e-01
       13 -1    0    0    0    0 +0.0000000000e+00 +0.0000000000e+00 +4.9999998884e+02 5.0000000000e+02 1.0566000000e-01 0.0000e+00 1.0000e+00
      994 -1    0    0    0    0 -0.0000000000e+00 -0.0000000000e+00 +0.0000000000e+00 1.3100000000e+02 1.3100000000e+02 0.0000e+00 0.0000e+00
       13  1    1    2    0    0 -1.3615740115e+01 +1.5004081256e+01 +3.6710398563e+01 4.1930601712e+01 1.0566000000e-01 0.0000e+00 -1.0000e+00
      994  1    1    2    0    0 -4.1234395866e+01 -5.8891089989e+01 +2.2544326701e+02 2.7047015089e+02 1.3100000000e+02 0.0000e+00 0.0000e+00
      997  1    1    2    0    0 +5.4850135981e+01 +4.3887008733e+01 +2.3784632326e+02 3.1859924740e+02 2.0000000000e+02 0.0000e+00 0.0000e+00
</event>
<event>
 5      1 +6.7420000e-10 2.41642000e+02 7.95774700e-02 4.42711600e-01
       13 -1    0    0    0    0 +0.0000000000e+00 +0.0000000000e+00 +4.9999998884e+02 5.0000000000e+02 1.0566000000e-01 0.0000e+00 1.0000e+00
      994 -1    0    0    0    0 -0.0000000000e+00 -0.0000000000e+00 +0.0000000000e+00 1.3100000000e+02 1.3100000000e+02 0.0000e+00 0.0000e+00
       13  1    1    2    0    0 -2.6291736870e+01 -2.5070374854e+01 +6.2351916147e+01 7.2163368368e+01 1.0566000000e-01 0.0000e+00 -1.0000e+00
      994  1    1    2    0    0 +1.1669675253e+01 +3.1743319783e+01 +1.0882222193e+02 1.7362919011e+02 1.3100000000e+02 0.0000e+00 0.0000e+00
      997  1    1    2    0    0 +1.4622061617e+01 -6.6729449284e+00 +3.2882585075e+02 3.8520744152e+02 2.0000000000e+02 0.0000e+00 0.0000e+00
</event>
<event>
 5      1 +6.7420000e-10 2.31745300e+02 7.95774700e-02 4.54836800e-01
       13 -1    0    0    0    0 +0.0000000000e+00 +0.0000000000e+00 +4.9999998884e+02 5.0000000000e+02 1.0566000000e-01 0.0000e+00 -1.0000e+00
      994 -1    0    0    0    0 -0.0000000000e+00 -0.0000000000e+00 +0.0000000000e+00 1.3100000000e+02 1.3100000000e+02 0.0000e+00 0.0000e+00
       13  1    1    2    0    0 -4.8161980776e+00 +1.3096161166e+01 +5.8540663066e+00 1.5132298489e+01 1.0566000000e-01 0.0000e+00 1.0000e+00
      994  1    1    2    0    0 +4.7341574261e+01 -4.1439782750e+01 +1.1963285586e+02 1.8823257010e+02 1.3100000000e+02 0.0000e+00 0.0000e+00
      997  1    1    2    0    0 -4.2525376183e+01 +2.8343621584e+01 +3.7451306667e+02 4.2763513141e+02 2.0000000000e+02 0.0000e+00 0.0000e+00
</event>
<event>
 5      1 +6.7420000e-10 2.41081400e+02 7.95774700e-02 4.43366900e-01
       13 -1    0    0    0    0 +0.0000000000e+00 +0.0000000000e+00 +4.9999998884e+02 5.0000000000e+02 1.0566000000e-01 0.0000e+00 -1.0000e+00
      994 -1    0    0    0    0 -0.0000000000e+00 -0.0000000000e+00 +0.0000000000e+00 1.3100000000e+02 1.3100000000e+02 0.0000e+00 0.0000e+00
       13  1    1    2    0    0 +2.4751661181e+01 -1.4469874022e+01 +3.2771456982e+01 4.3543099823e+01 1.0566000000e-01 0.0000e+00 1.0000e+00
      994  1    1    2    0    0 +3.9359242040e+01 +3.8864762933e+01 +2.2230474022e+02 2.6389395078e+02 1.3100000000e+02 0.0000e+00 0.0000e+00
      997  1    1    2    0    0 -6.4110903220e+01 -2.4394888912e+01 +2.4492379163e+02 3.2356294940e+02 2.0000000000e+02 0.0000e+00 0.0000e+00
</event>
<event>
 5      1 +6.7420000e-10 2.29056600e+02 7.95774700e-02 4.58349300e-01
       13 -1    0    0    0    0 +0.0000000000e+00 +0.0000000000e+00 +4.9999998884e+02 5.0000000000e+02 1.0566000000e-01 0.0000e+00 -1.0000e+00
      994 -1    0    0    0    0 -0.0000000000e+00 -0.0000000000e+00 +0.0000000000e+00 1.3100000000e+02 1.3100000000e+02 0.0000e+00 0.0000e+00
       13  1    1    2    0    0 +1.3309027518e+01 +3.9013453484e+00 +3.8235245737e+01 4.0673036395e+01 1.0566000000e-01 0.0000e+00 1.0000e+00
      994  1    1    2    0    0 -3.1200477169e+01 -1.3152513082e+01 +7.5637993569e+01 1.5501149779e+02 1.3100000000e+02 0.0000e+00 0.0000e+00
      997  1    1    2    0    0 +1.7891449650e+01 +9.2511677333e+00 +3.8612674953e+02 4.3531546582e+02 2.0000000000e+02 0.0000e+00 0.0000e+00
</event>
<event>
 5      1 +6.7420000e-10 2.42613800e+02 7.95774700e-02 4.41584400e-01
       13 -1    0    0    0    0 +0.0000000000e+00 +0.0000000000e+00 +4.9999998884e+02 5.0000000000e+02 1.0566000000e-01 0.0000e+00 -1.0000e+00
      994 -1    0    0    0    0 -0.0000000000e+00 -0.0000000000e+00 +0.0000000000e+00 1.3100000000e+02 1.3100000000e+02 0.0000e+00 0.0000e+00
       13  1    1    2    0    0 +8.6884449092e+00 -3.2609034510e+01 +4.9422127464e+01 5.9844766302e+01 1.0566000000e-01 0.0000e+00 1.0000e+00
      994  1    1    2    0    0 -1.6527319858e+01 +6.8127347509e-01 +9.7864066104e+01 1.6435325330e+02 1.3100000000e+02 0.0000e+00 0.0000e+00
      997  1    1    2    0    0 +7.8388749492e+00 +3.1927761035e+01 +3.5271379527e+02 4.0680198040e+02 2.0000000000e+02 0.0000e+00 0.0000e+00
</event>
<event>
 5      1 +6.7420000e-10 2.42776400e+02 7.95774700e-02 4.41396800e-01
       13 -1    0    0    0    0 +0.0000000000e+00 +0.0000000000e+00 +4.9999998884e+02 5.0000000000e+02 1.0566000000e-01 0.0000e+00 -1.0000e+00
      994 -1    0    0    0    0 -0.0000000000e+00 -0.0000000000e+00 +0.0000000000e+00 1.3100000000e+02 1.3100000000e+02 0.0000e+00 0.0000e+00
       13  1    1    2    0    0 -2.0210523913e+01 +2.4301941134e+00 -2.5574610329e+00 2.0516405417e+01 1.0566000000e-01 0.0000e+00 1.0000e+00
      994  1    1    2    0    0 +5.0417787278e+01 -2.2322728889e+01 +1.8197056333e+02 2.3089942273e+02 1.3100000000e+02 0.0000e+00 0.0000e+00
      997  1    1    2    0    0 -3.0207263365e+01 +1.9892534775e+01 +3.2058688653e+02 3.7958417185e+02 2.0000000000e+02 0.0000e+00 0.0000e+00
</event>
<event>
 5      1 +6.7420000e-10 2.49312500e+02 7.95774700e-02 4.34094500e-01
       13 -1    0    0    0    0 +0.0000000000e+00 +0.0000000000e+00 +4.9999998884e+02 5.0000000000e+02 1.0566000000e-01 0.0000e+00 1.0000e+00
      994 -1    0    0    0    0 -0.0000000000e+00 -0.0000000000e+00 +0.0000000000e+00 1.3100000000e+02 1.3100000000e+02 0.0000e+00 0.0000e+00
       13  1    1    2    0    0 -7.7053013477e+00 -3.4101422318e+01 +1.6052135010e+01 3.8470259622e+01 1.0566000000e-01 0.0000e+00 -1.0000e+00
      994  1    1    2    0    0 +2.1030186567e+01 -1.7936450969e+01 +2.1144307527e+02 2.5026617650e+02 1.3100000000e+02 0.0000e+00 0.0000e+00
      997  1    1    2    0    0 -1.3324885219e+01 +5.2037873287e+01 +2.7250477855e+02 3.4226356387e+02 2.0000000000e+02 0.0000e+00 0.0000e+00
</event>
<event>
 5      1 +6.7420000e-10 2.29556800e+02 7.95774700e-02 4.57688300e-01
       13 -1    0    0    0    0 +0.0000000000e+00 +0.0000000000e+00 +4.9999998884e+02 5.0000000000e+02 1.0566000000e-01 0.0000e+00 -1.0000e+00
      994 -1    0    0    0    0 -0.0000000000e+00 -0.0000000000e+00 +0.0000000000e+00 1.3100000000e+02 1.3100000000e+02 0.0000e+00 0.0000e+00
       13  1    1    2    0    0 +7.4076194637e+00 -9.0664038243e+00 +1.2558526030e+01 1.7169747945e+01 1.0566000000e-01 0.0000e+00 1.0000e+00
      994  1    1    2    0    0 +3.8338374171e+01 +2.8427703544e+01 +8.9450500485e+01 1.6565131240e+02 1.3100000000e+02 0.0000e+00 0.0000e+00
      997  1    1    2    0    0 -4.5745993635e+01 -1.9361299720e+01 +3.9799096232e+02 4.4817893965e+02 2.0000000000e+02 0.0000e+00 0.0000e+00
</event>
<event>
 5      1 +6.7420000e-10 2.32949700e+02 7.95774700e-02 4.53295200e-01
       13 -1    0    0    0    0 +0.0000000000e+00 +0.0000000000e+00 +4.9999998884e+02 5.0000000000e+02 1.0566000000e-01 0.0000e+00 1.0000e+00
      994 -1    0    0    0    0 -0.0000000000e+00 -0.0000000000e+00 +0.0000000000e+00 1.3100000000e+02 1.3100000000e+02 0.0000e+00 0.0000e+00
       13  1    1    2    0    0 +1.2547408062e+01 -1.3111525352e+01 +2.2608427139e+01 2.8991407139e+01 1.0566000000e-01 0.0000e+00 -1.0000e+00
      994  1    1    2    0    0 -1.2694718209e+00 +7.1327390813e+00 +7.1692175289e+01 1.4951005158e+02 1.3100000000e+02 0.0000e+00 0.0000e+00
      997  1    1    2    0    0 -1.1277936241e+01 +5.9787862710e+00 +4.0569938641e+02 4.5249854128e+02 2.0000000000e+02 0.0000e+00 0.0000e+00
</event>
<event>
 5      1 +6.7420000e-10 2.35784900e+02 7.95774700e-02 4.49740500e-01
       13 -1    0    0    0    0 +0.0000000000e+00 +0.0000000000e+00 +4.9999998884e+02 5.0000000000e+02 1.0566000000e-01 0.0000e+00 1.0000e+00
      994 -1    0    0    0    0 -0.0000000000e+00 -0.0000000000e+00 +0.0000000000e+00 1.3100000000e+02 1.3100000000e+02 0.0000e+00 0.0000e+00
       13  1    1    2    0    0 -1.0695556027e+01 -1.2004616805e+01 +6.6890613264e+00 1.7414374776e+01 1.0566000000e-01 0.0000e+00 -1.0000e+00
      994  1    1    2    0    0 +8.4198686562e+00 +1.2256706053e+01 +7.9457791605e+01 1.5393395232e+02 1.3100000000e+02 0.0000e+00 0.0000e+00
      997  1    1    2    0    0 +2.2756873707e+00 -2.5208924762e-01 +4.1385313590e+02 4.5965167290e+02 2.0000000000e+02 0.0000e+00 0.0000e+00
</event>
<event>
 5      1 +6.7420000e-10 2.44903000e+02 7.95774700e-02 4.38970600e-01
       13 -1    0    0    0    0 +0.0000000000e+00 +0.0000000000e+00 +4.9999998884e+02 5.0000000000e+02 1.0566000000e-01 0.0000e+00 1.0000e+00
      994 -1    0    0    0    0 -0.0000000000e+00 -0.0000000000e+00 +0.0000000000e+00 1.3100000000e+02 1.3100000000e+02 0.0000e+00 0.0000e+00
       13  1    1    2    0    0 +8.8284766283e+00 +2.9774154790e+01 +1.8025735654e+01 3.5907946236e+01 1.0566000000e-01 0.0000e+00 -1.0000e+00
      994  1    1    2    0    0 -9.2961969536e+00 -1.9810612727e+01 +1.0922557096e+02 1.7195960283e+02 1.3100000000e+02 0.0000e+00 0.0000e+00
      997  1    1    2    0    0 +4.6772032522e-01 -9.9635420624e+00 +3.7274868223e+02 4.2313245093e+02 2.0000000000e+02 0.0000e+00 0.0000e+00
</event>
<event>
 5      1 +6.7420000e-10 2.42087200e+02 7.95774700e-02 4.42193900e-01
       13 -1    0    0    0    0 +0.0000000000e+00 +0.0000000000e+00 +4.9999998884e+02 5.0000000000e+02 1.0566000000e-01 0.0000e+00 1.0000e+00
      994 -1    0    0    0    0 -0.0000000000e+00 -0.0000000000e+00 +0.0000000000e+00 1.3100000000e+02 1.3100000000e+02 0.0000e+00 0.0000e+00
       13  1    1    2    0    0 -2.6717154148e+00 -3.6800115359e+01 +3.1427362070e+01 4.8467275603e+01 1.0566000000e-01 0.0000e+00 -1.0000e+00
      994  1    1    2    0    0 +1.6669813577e+01 +5.0458084709e+01 +1.5212121959e+02 2.0766744195e+02 1.3100000000e+02 0.0000e+00 0.0000e+00
      997  1    1    2    0    0 -1.3998098162e+01 -1.3657969351e+01 +3.1645140718e+02 3.7486528245e+02 2.0000000000e+02 0.0000e+00 0.0000e+00
</event>
<event>
 5      1 +6.7420000e-10 2.34434100e+02 7.95774700e-02 4.51421200e-01
       13 -1    0    0    0    0 +0.0000000000e+00 +0.0000000000e+00 +4.9999998884e+02 5.0000000000e+02 1.0566000000e-01 0.0000e+00 1.0000e+00
      994 -1    0    0    0    0 -0.0000000000e+00 -0.0000000000e+00 +0.0000000000e+00 1.3100000000e+02 1.3100000000e+02 0.0000e+00 0.0000e+00
       13  1    1    2    0    0 -7.3037888170e+00 -2.1191074705e+01 +3.4259812074e+01 4.0940845932e+01 1.0566000000e-01 0.0000e+00 -1.0000e+00
      994  1    1    2    0    0 -1.4575830574e+01 +2.1870764130e+01 +8.1978730904e+01 1.5675553413e+02 1.3100000000e+02 0.0000e+00 0.0000e+00
      997  1    1    2    0    0 +2.1879619391e+01 -6.7968942567e-01 +3.8376144586e+02 4.3330361994e+02 2.0000000000e+02 0.0000e+00 0.0000e+00
</event>
<event>
 5      1 +6.7420000e-10 2.37390400e+02 7.95774700e-02 4.47772600e-01
       13 -1    0    0    0    0 +0.0000000000e+00 +0.0000000000e+00 +4.9999998884e+02 5.0000000000e+02 1.0566000000e-01 0.0000e+00 -1.0000e+00
      994 -1    0    0    0    0 -0.0000000000e+00 -0.0000000000e+00 +0.0000000000e+00 1.3100000000e+02 1.3100000000e+02 0.0000e+00 0.0000e+00
       13  1    1    2    0    0 -1.6509220758e+01 +2.3199291694e+01 +3.9709231973e+01 4.8863030739e+01 1.0566000000e-01 0.0000e+00 1.0000e+00
      994  1    1    2    0    0 -1.9520652747e+01 -4.9519708741e+01 +1.2266995630e+02 1.8719555448e+02 1.3100000000e+02 0.0000e+00 0.0000e+00
      997  1    1    2    0    0 +3.6029873505e+01 +2.6320417047e+01 +3.3762080056e+02 3.9494141478e+02 2.0000000000e+02 0.0000e+00 0.0000e+00
</event>
<event>
 5      1 +6.7420000e-10 2.37987300e+02 7.95774700e-02 4.47049200e-01
       13 -1    0    0    0    0 +0.0000000000e+00 +0.0000000000e+00 +4.9999998884e+02 5.0000000000e+02 1.0566000000e-01 0.0000e+00 -1.0000e+00
      994 -1    0    0    0    0 -0.0000000000e+00 -0.0000000000e+00 +0.0000000000e+00 1.3100000000e+02 1.3100000000e+02 0.0000e+00 0.0000e+00
       13  1    1    2    0    0 +1.8809817881e+01 +1.2378610831e+01 +1.0109352345e+01 2.4682978420e+01 1.0566000000e-01 0.0000e+00 1.0000e+00
      994  1    1    2    0    0 -5.6679555730e+01 +1.3864047451e+01 +1.3843856290e+02 1.9932641457e+02 1.3100000000e+02 0.0000e+00 0.0000e+00
      997  1    1    2    0    0 +3.7869737849e+01 -2.6242658282e+01 +3.5145207359e+02 4.0699060701e+02 2.0000000000e+02 0.0000e+00 0.0000e+00
</event>
<event>
 5      1 +6.7420000e-10 2.39743400e+02 7.95774700e-02 4.44945300e-01
       13 -1    0    0    0    0 +0.0000000000e+00 +0.0000000000e+00 +4.9999998884e+02 5.0000000000e+02 1.0566000000e-01 0.0000e+00 1.0000e+00
      994 -1    0    0    0    0 -0.0000000000e+00 -0.0000000000e+00 +0.0000000000e+00 1.3100000000e+02 1.3100000000e+02 0.0000e+00 0.0000e+00
       13  1    1    2    0    0 +3.0815389259e+01 -5.6348877885e+00 +2.0249218498e+01 3.7301235762e+01 1.0566000000e-01 0.0000e+00 -1.0000e+00
      994  1    1    2    0    0 -5.5487928413e+01 -2.8856120726e+01 +1.9129751508e+02 2.4014021983e+02 1.3100000000e+02 0.0000e+00 0.0000e+00
      997  1    1    2    0    0 +2.4672539154e+01 +3.4491008515e+01 +2.8845325525e+02 3.5355854441e+02 2.0000000000e+02 0.0000e+00 0.0000e+00
</event>
<event>
 5      1 +6.7420000e-10 2.52042400e+02 7.95774700e-02 4.31175500e-01
       13 -1    0    0    0    0 +0.0000000000e+00 +0.0000000000e+00 +4.9999998884e+02 5.0000000000e+02 1.0566000000e-01 0.0000e+00 1.0000e+00
      994 -1    0    0    0    0 -0.0000000000e+00 -0.0000000000e+00 +0.0000000000e+00 1.3100000000e+02 1.3100000000e+02 0.0000e+00 0.0000e+00
       13  1    1    2    0    0 +1.1706512489e+01 +3.3804644610e+01 +1.3085311571e+01 3.8092426739e+01 1.0566000000e-01 0.0000e+00 -1.0000e+00
      994  1    1    2    0    0 +4.7094017822e+00 -1.3777864907e+01 +1.4504296971e+02 1.9598589513e+02 1.3100000000e+02 0.0000e+00 0.0000e+00
      997  1    1    2    0    0 -1.6415914272e+01 -2.0026779704e+01 +3.4187170755e+02 3.9692167813e+02 2.0000000000e+02 0.0000e+00 0.0000e+00
</event>
<event>
 5      1 +6.7420000e-10 2.48847200e+02 7.95774700e-02 4.34599500e-01
       13 -1    0    0    0    0 +0.0000000000e+00 +0.0000000000e+00 +4.9999998884e+02 5.0000000000e+02 1.0566000000e-01 0.0000e+00 -1.0000e+00
      994 -1    0    0    0    0 -0.0000000000e+00 -0.0000000000e+00 +0.0000000000e+00 1.3100000000e+02 1.3100000000e+02 0.0000e+00 0.0000e+00
       13  1    1    2    0    0 +4.2254516737e+00 +2.2412224269e+01 +4.4729427614e-01 2.2811696007e+01 1.0566000000e-01 0.0000e+00 1.0000e+00
      994  1    1    2    0    0 +2.3445519642e+01 +2.0566226671e+01 +1.4474147455e+02 1.9769612168e+02 1.3100000000e+02 0.0000e+00 0.0000e+00
      997  1    1    2    0    0 -2.7670971315e+01 -4.2978450940e+01 +3.5481122001e+02 4.1049218231e+02 2.0000000000e+02 0.0000e+00 0.0000e+00
</event>
<event>
 5      1 +6.7420000e-10 2.41271900e+02 7.95774700e-02 4.43143800e-01
       13 -1    0    0    0    0 +0.0000000000e+00 +0.0000000000e+00 +4.9999998884e+02 5.0000000000e+02 1.0566000000e-01 0.0000e+00 1.0000e+00
      994 -1    0    0    0    0 -0.0000000000e+00 -0.0000000000e+00 +0.0000000000e+00 1.3100000000e+02 1.3100000000e+02 0.0000e+00 0.0000e+00
       13  1    1    2    0    0 -1.4741139435e+01 -1.5142882490e+00 -4.7201523480e+00 1.5552660961e+01 1.0566000000e-01 0.0000e+00 -1.0000e+00
      994  1    1    2    0    0 +5.5302800710e+01 -5.7868622870e+00 +1.5459446079e+02 2.1012456984e+02 1.3100000000e+02 0.0000e+00 0.0000e+00
      997  1    1    2    0    0 -4.0561661275e+01 +7.3011505360e+00 +3.5012568039e+02 4.0532276920e+02 2.0000000000e+02 0.0000e+00 0.0000e+00
</event>
<event>
 5      1 +6.7420000e-10 2.29824200e+02 7.95774700e-02 4.57336400e-01
       13 -1    0    0    0    0 +0.0000000000e+00 +0.0000000000e+00 +4.9999998884e+02 5.0000000000e+02 1.0566000000e-01 0.0000e+00 1.0000e+00
      994 -1    0    0    0    0 -0.0000000000e+00 -0.0000000000e+00 +0.0000000000e+00 1.3100000000e+02 1.3100000000e+02 0.0000e+00 0.0000e+00
       13  1    1    2    0    0 +1.4809456406e+01 +4.5561134215e+00 +4.4973200195e+01 4.7567615752e+01 1.0566000000e-01 0.0000e+00 -1.0000e+00
      994  1    1    2    0    0 -6.0239056322e+01 -4.3547657095e+01 +1.4083872485e+02 2.0620787754e+02 1.3100000000e+02 0.0000e+00 0.0000e+00
      997  1    1    2    0    0 +4.5429599916e+01 +3.8991543673e+01 +3.1418806380e+02 3.7722450670e+02 2.0000000000e+02 0.0000e+00 0.0000e+00
</event>
<event>
 5      1 +6.7420000e-10 2.40487900e+02 7.95774700e-02 4.44064500e-01
       13 -1    0    0    0    0 +0.0000000000e+00 +0.0000000000e+00 +4.9999998884e+02 5.0000000000e+02 1.0566000000e-01 0.0000e+00 1.0000e+00
      994 -1    0    0    0    0 -0.0000000000e+00 -0.0000000000e+00 +0.0000000000e+00 1.3100000000e+02 1.3100000000e+02 0.0000e+00 0.0000e+00
       13  1    1    2    0    0 -3.7747103947e+00 -2.1665584976e+01 +4.6917352063e+00 2.2487097505e+01 1.0566000000e-01 0.0000e+00 -1.0000e+00
      994  1    1    2    0    0 +5.0701491906e+00 +4.9358175952e+01 +1.2995875771e+02 1.9108169627e+02 1.3100000000e+02 0.0000e+00 0.0000e+00
      997  1    1    2    0    0 -1.2954387959e+00 -2.7692590976e+01 +3.6534949592e+02 4.1743120622e+02 2.0000000000e+02 0.0000e+00 0.0000e+00
</event>
<event>
 5      1 +6.7420000e-10 2.27126100e+02 7.95774700e-02 4.60933700e-01
       13 -1    0    0    0    0 +0.0000000000e+00 +0.0000000000e+00 +4.9999998884e+02 5.0000000000e+02 1.0566000000e-01 0.0000e+00 1.0000e+00
      994 -1    0    0    0    0 -0.0000000000e+00 -0.0000000000e+00 +0.0000000000e+00 1.3100000000e+02 1.3100000000e+02 0.0000e+00 0.0000e+00
       13  1    1    2    0    0 -1.0134682106e+01 +2.9741644548e+00 +2.3861063160e+01 2.6094423442e+01 1.0566000000e-01 0.0000e+00 -1.0000e+00
      994  1    1    2    0    0 +5.7246162916e+01 +3.8375889042e+01 +1.1537154465e+02 1.8767372044e+02 1.3100000000e+02 0.0000e+00 0.0000e+00
      997  1    1    2    0    0 -4.7111480810e+01 -4.1350053497e+01 +3.6076738103e+02 4.1723185612e+02 2.0000000000e+02 0.0000e+00 0.0000e+00
</event>
<event>
 5      1 +6.7420000e-10 2.30972800e+02 7.95774700e-02 4.55835900e-01
       13 -1    0    0    0    0 +0.0000000000e+00 +0.0000000000e+00 +4.9999998884e+02 5.0000000000e+02 1.0566000000e-01 0.0000e+00 -1.0000e+00
      994 -1    0    0    0    0 -0.0000000000e+00 -0.0000000000e+00 +0.0000000000e+00 1.3100000000e+02 1.3100000000e+02 0.0000e+00 0.0000e+00
       13  1    1    2    0    0 -3.4415054939e+00 +9.9692782970e+00 +5.8245444666e+00 1.2048524893e+01 1.0566000000e-01 0.0000e+00 1.0000e+00
      994  1    1    2    0    0 -7.5841147705e+00 +7.5901739035e+00 +6.8593417178e+01 1.4826053560e+02 1.3100000000e+02 0.0000e+00 0.0000e+00
      997  1    1    2    0    0 +1.1025620264e+01 -1.7559452200e+01 +4.2558202719e+02 4.7069093950e+02 2.0000000000e+02 0.0000e+00 0.0000e+00
</event>
<event>
 5      1 +6.7420000e-10 2.29739700e+02 7.95774700e-02 4.57447500e-01
       13 -1    0    0    0    0 +0.0000000000e+00 +0.0000000000e+00 +4.9999998884e+02 5.0000000000e+02 1.0566000000e-01 0.0000e+00 1.0000e+00
      994 -1    0    0    0    0 -0.0000000000e+00 -0.0000000000e+00 +0.0000000000e+00 1.3100000000e+02 1.3100000000e+02 0.0000e+00 0.0000e+00
       13  1    1    2    0    0 -1.1335353486e+01 -1.6610143694e+00 +6.9542098573e+00 1.3402291079e+01 1.0566000000e-01 0.0000e+00 -1.0000e+00
      994  1    1    2    0    0 +2.5217967699e+01 +5.5965329114e+01 +1.0955286709e+02 1.8146871533e+02 1.3100000000e+02 0.0000e+00 0.0000e+00
      997  1    1    2    0    0 -1.3882614214e+01 -5.4304314745e+01 +3.8349291189e+02 4.3612899359e+02 2.0000000000e+02 0.0000e+00 0.0000e+00
</event>
<event>
 5      1 +6.7420000e-10 2.30276700e+02 7.95774700e-02 4.56743000e-01
       13 -1    0    0    0    0 +0.0000000000e+00 +0.0000000000e+00 +4.9999998884e+02 5.0000000000e+02 1.0566000000e-01 0.0000e+00 -1.0000e+00
      994 -1    0    0    0    0 -0.0000000000e+00 -0.0000000000e+00 +0.0000000000e+00 1.3100000000e+02 1.3100000000e+02 0.0000e+00 0.0000e+00
       13  1    1    2    0    0 +9.9325054798e+00 -1.6419614862e+01 +1.8050858797e+01 2.6345836192e+01 1.0566000000e-01 0.0000e+00 1.0000e+00
      994  1    1    2    0    0 -5.6817480920e+01 +5.6530321443e+01 +1.7115505459e+02 2.2995424783e+02 1.3100000000e+02 0.0000e+00 0.0000e+00
      997  1    1    2    0    0 +4.6884975440e+01 -4.0110706582e+01 +3.1079407545e+02 3.7469991598e+02 2.0000000000e+02 0.0000e+00 0.0000e+00
</event>
<event>
 5      1 +6.7420000e-10 2.43384300e+02 7.95774700e-02 4.40698200e-01
       13 -1    0    0    0    0 +0.0000000000e+00 +0.0000000000e+00 +4.9999998884e+02 5.0000000000e+02 1.0566000000e-01 0.0000e+00 -1.0000e+00
      994 -1    0    0    0    0 -0.0000000000e+00 -0.0000000000e+00 +0.0000000000e+00 1.3100000000e+02 1.3100000000e+02 0.0000e+00 0.0000e+00
       13  1    1    2    0    0 +2.8054268776e+01 -1.9988462252e+01 +7.6969312762e+01 8.4325956211e+01 1.0566000000e-01 0.0000e+00 1.0000e+00
      994  1    1    2    0    0 +8.7731952972e+00 +4.1521399487e+01 +1.3023766134e+02 1.8953586469e+02 1.3100000000e+02 0.0000e+00 0.0000e+00
      997  1    1    2    0    0 -3.6827464073e+01 -2.1532937235e+01 +2.9279301473e+02 3.5713817910e+02 2.0000000000e+02 0.0000e+00 0.0000e+00
</event>
<event>
 5      1 +6.7420000e-10 2.40141100e+02 7.95774700e-02 4.44474000e-01
       13 -1    0    0    0    0 +0.0000000000e+00 +0.0000000000e+00 +4.9999998884e+02 5.0000000000e+02 1.0566000000e-01 0.0000e+00 1.0000e+00
      994 -1    0    0    0    0 -0.0000000000e+00 -0.0000000000e+00 +0.0000000000e+00 1.3100000000e+02 1.3100000000e+02 0.0000e+00 0.0000e+00
       13  1    1    2    0    0 -1.9155774329e+01 -2.5756319682e+01 +4.0743543038e+01 5.1868865006e+01 1.0566000000e-01 0.0000e+00 -1.0000e+00
      994  1    1    2    0    0 -1.2405937376e+01 +4.0344227684e+01 +1.1442936749e+02 1.7898783236e+02 1.3100000000e+02 0.0000e+00 0.0000e+00
      997  1    1    2    0    0 +3.1561711706e+01 -1.4587908002e+01 +3.4482707831e+02 4.0014330263e+02 2.0000000000e+02 0.0000e+00 0.0000e+00
</event>
<event>
 5      1 +6.7420000e-10 2.50695600e+02 7.95774700e-02 4.32606300e-01
       13 -1    0    0    0    0 +0.0000000000e+00 +0.0000000000e+00 +4.9999998884e+02 5.0000000000e+02 1.0566000000e-01 0.0000e+00 1.0000e+00
      994 -1    0    0    0    0 -0.0000000000e+00 -0.0000000000e+00 +0.0000000000e+00 1.3100000000e+02 1.3100000000e+02 0.0000e+00 0.0000e+00
       13  1    1    2    0    0 +2.0674843403e+01 +4.2245130122e+01 +6.3729224492e+01 7.9205589368e+01 1.0566000000e-01 0.0000e+00 -1.0000e+00
      994  1    1    2    0    0 -2.3218205317e+01 -6.9779667113e+00 +1.4758594136e+02 1.9882250166e+02 1.3100000000e+02 0.0000e+00 0.0000e+00
      997  1    1    2    0    0 +2.5433619138e+00 -3.5267163411e+01 +2.8868482298e+02 3.5297190897e+02 2.0000000000e+02 0.0000e+00 0.0000e+00
</event>
<event>
 5      1 +6.7420000e-10 2.35149500e+02 7.95774700e-02 4.50528200e-01
       13 -1    0    0    0    0 +0.0000000000e+00 +0.0000000000e+00 +4.9999998884e+02 5.0000000000e+02 1.0566000000e-01 0.0000e+00 1.0000e+00
      994 -1    0    0    0    0 -0.0000000000e+00 -0.0000000000e+00 +0.0000000000e+00 1.3100000000e+02 1.3100000000e+02 0.0000e+00 0.0000e+00
       13  1    1    2    0    0 -2.4114118366e+01 -7.0123788105e+00 +4.0015334710e+01 4.7243013633e+01 1.0566000000e-01 0.0000e+00 -1.0000e+00
      994  1    1    2    0    0 +3.3325812179e+01 -1.3520319939e+01 +9.1179073368e+01 1.6360938918e+02 1.3100000000e+02 0.0000e+00 0.0000e+00
      997  1    1    2    0    0 -9.2116938133e+00 +2.0532698750e+01 +3.6880558076e+02 4.2014759718e+02 2.0000000000e+02 0.0000e+00 0.0000e+00
</event>
<event>
 5      1 +6.7420000e-10 2.28075400e+02 7.95774700e-02 4.59656100e-01
       13 -1    0    0    0    0 +0.0000000000e+00 +0.0000000000e+00 +4.9999998884e+02 5.0000000000e+02 1.0566000000e-01 0.0000e+00 1.0000e+00
      994 -1    0    0    0    0 -0.0000000000e+00 -0.0000000000e+00 +0.0000000000e+00 1.3100000000e+02 1.3100000000e+02 0.0000e+00 0.0000e+00
       13  1    1    2    0    0 +8.7200747478e-01 -1.4422162011e+01 +1.6865976701e+01 2.2208815552e+01 1.0566000000e-01 0.0000e+00 -1.0000e+00
      994  1    1    2    0    0 -3.9063233615e+01 +6.4672219683e+01 +2.7191479147e+02 3.1113837121e+02 1.3100000000e+02 0.0000e+00 0.0000e+00
      997  1    1    2    0    0 +3.8191226140e+01 -5.0250057672e+01 +2.1121922067e+02 2.9765281324e+02 2.0000000000e+02 0.0000e+00 0.0000e+00
</event>
<event>
 5      1 +6.7420000e-10 2.45284200e+02 7.95774700e-02 4.38540900e-01
       13 -1    0    0    0    0 +0.0000000000e+00 +0.0000000000e+00 +4.9999998884e+02 5.0000000000e+02 1.0566000000e-01 0.0000e+00 -1.0000e+00
      994 -1    0    0    0    0 -0.0000000000e+00 -0.0000000000e+00 +0.0000000000e+00 1.3100000000e+02 1.3100000000e+02 0.0000e+00 0.0000e+00
       13  1    1    2    0    0 +7.9462525273e+00 -3.6661820291e+01 +9.0068327708e+01 9.7568164974e+01 1.0566000000e-01 0.0000e+00 1.0000e+00
      994  1    1    2    0    0 -2.4010322884e+01 +1.7160830138e+01 +1.1862855377e+02 1.7917791009e+02 1.3100000000e+02 0.0000e+00 0.0000e+00
      997  1    1    2    0    0 +1.6064070356e+01 +1.9500990153e+01 +2.9130310736e+02 3.5425392493e+02 2.0000000000e+02 0.0000e+00 0.0000e+00
</event>
<event>
 5      1 +6.7420000e-10 2.46790200e+02 7.95774700e-02 4.36858700e-01
       13 -1    0    0    0    0 +0.0000000000e+00 +0.0000000000e+00 +4.9999998884e+02 5.0000000000e+02 1.0566000000e-01 0.0000e+00 1.0000e+00
      994 -1    0    0    0    0 -0.0000000000e+00 -0.0000000000e+00 +0.0000000000e+00 1.3100000000e+02 1.3100000000e+02 0.0000e+00 0.0000e+00
       13  1    1    2    0    0 +5.9254390225e+00 +3.4389320398e+01 +2.4047993555e+01 4.2379869551e+01 1.0566000000e-01 0.0000e+00 -1.0000e+00
      994  1    1    2    0    0 -1.6955923252e+01 -1.2811330749e+01 +1.1664964611e+02 1.7669118106e+02 1.3100000000e+02 0.0000e+00 0.0000e+00
      997  1    1    2    0    0 +1.1030484230e+01 -2.1577989649e+01 +3.5930234917e+02 4.1192894939e+02 2.0000000000e+02 0.0000e+00 0.0000e+00
</event>
<event>
 5      1 +6.7420000e-10 2.37646400e+02 7.95774700e-02 4.47461800e-01
       13 -1    0    0    0    0 +0.0000000000e+00 +0.0000000000e+00 +4.9999998884e+02 5.0000000000e+02 1.0566000000e-01 0.0000e+00 -1.0000e+00
      994 -1    0    0    0    0 -0.0000000000e+00 -0.0000000000e+00 +0.0000000000e+00 1.3100000000e+02 1.3100000000e+02 0.0000e+00 0.0000e+00
       13  1    1    2    0    0 -1.0954035191e+01 +2.3383717126e+01 +2.7987489170e+01 3.8080176309e+01 1.0566000000e-01 0.0000e+00 1.0000e+00
      994  1    1    2    0    0 +5.7398188854e+01 +1.2383628752e+01 +1.3743607499e+02 1.9873998353e+02 1.3100000000e+02 0.0000e+00 0.0000e+00
      997  1    1    2    0    0 -4.6444153663e+01 -3.5767345878e+01 +3.3457642468e+02 3.9417984016e+02 2.0000000000e+02 0.0000e+00 0.0000e+00
</event>
<event>
 5      1 +6.7420000e-10 2.36865100e+02 7.95774700e-02 4.48413100e-01
       13 -1    0    0    0    0 +0.0000000000e+00 +0.0000000000e+00 +4.9999998884e+02 5.0000000000e+02 1.0566000000e-01 0.0000e+00 -1.0000e+00
      994 -1    0    0    0    0 -0.0000000000e+00 -0.0000000000e+00 +0.0000000000e+00 1.3100000000e+02 1.3100000000e+02 0.0000e+00 0.0000e+00
       13  1    1    2    0    0 +9.8512649621e+00 +2.2798211977e+01 +2.5336783237e+01 3.5479143726e+01 1.0566000000e-01 0.0000e+00 1.0000e+00
      994  1    1    2    0    0 -6.5746298321e+01 +1.1441724583e+01 +1.6369392163e+02 2.2002315511e+02 1.3100000000e+02 0.0000e+00 0.0000e+00
      997  1    1    2    0    0 +5.5895033359e+01 -3.4239936560e+01 +3.1096928397e+02 3.7549770116e+02 2.0000000000e+02 0.0000e+00 0.0000e+00
</event>
<event>
 5      1 +6.7420000e-10 2.33194500e+02 7.95774700e-02 4.52984100e-01
       13 -1    0    0    0    0 +0.0000000000e+00 +0.0000000000e+00 +4.9999998884e+02 5.0000000000e+02 1.0566000000e-01 0.0000e+00 1.0000e+00
      994 -1    0    0    0    0 -0.0000000000e+00 -0.0000000000e+00 +0.0000000000e+00 1.3100000000e+02 1.3100000000e+02 0.0000e+00 0.0000e+00
       13  1    1    2    0    0 -1.8813419532e+01 +3.0433932964e+00 +3.4498021442e+01 3.9412328588e+01 1.0566000000e-01 0.0000e+00 -1.0000e+00
      994  1    1    2    0    0 -5.3582088248e+00 -2.0775264278e+01 +7.6638308262e+01 1.5327998010e+02 1.3100000000e+02 0.0000e+00 0.0000e+00
      997  1    1    2    0    0 +2.4171628357e+01 +1.7731870982e+01 +3.8886365913e+02 4.3830769131e+02 2.0000000000e+02 0.0000e+00 0.0000e+00
</event>
<event>
 5      1 +6.7420000e-10 2.39080300e+02 7.95774700e-02 4.45735400e-01
       13 -1    0    0    0    0 +0.0000000000e+00 +0.0000000000e+00 +4.9999998884e+02 5.0000000000e+02 1.0566000000e-01 0.0000e+00 1.0000e+00
      994 -1    0    0    0    0 -0.0000000000e+00 -0.0000000000e+00 +0.0000000000e+00 1.3100000000e+02 1.3100000000e+02 0.0000e+00 0.0000e+00
       13  1    1    2    0    0 +1.5942834882e+01 -1.7590832872e+01 +1.5705528230e+01 2.8465525925e+01 1.0566000000e-01 0.0000e+00 -1.0000e+00
      994  1    1    2    0    0 +2.9933641207e+00 +2.6008516983e+01 +9.3543878357e+01 1.6308543884e+02 1.3100000000e+02 0.0000e+00 0.0000e+00
      997  1    1    2    0    0 -1.8936199003e+01 -8.4176841119e+00 +3.9075058225e+02 4.3944903523e+02 2.0000000000e+02 0.0000e+00 0.0000e+00
</event>
<event>
 5      1 +6.7420000e-10 2.32172300e+02 7.95774700e-02 4.54288000e-01
       13 -1    0    0    0    0 +0.0000000000e+00 +0.0000000000e+00 +4.9999998884e+02 5.0000000000e+02 1.0566000000e-01 0.0000e+00 -1.0000e+00
      994 -1    0    0    0    0 -0.0000000000e+00 -0.0000000000e+00 +0.0000000000e+00 1.3100000000e+02 1.3100000000e+02 0.0000e+00 0.0000e+00
       13  1    1    2    0    0 +1.0137579762e+01 -1.6178100548e+01 +5.3594973641e+01 5.6894057901e+01 1.0566000000e-01 0.0000e+00 1.0000e+00
      994  1    1    2    0    0 -4.5130886682e+01 +1.9125049670e+01 +9.7793532282e+01 1.7066674958e+02 1.3100000000e+02 0.0000e+00 0.0000e+00
      997  1    1    2    0    0 +3.4993306920e+01 -2.9469491216e+00 +3.4861148291e+02 4.0343919251e+02 2.0000000000e+02 0.0000e+00 0.0000e+00
</event>
<event>
 5      1 +6.7420000e-10 2.28864000e+02 7.95774700e-02 4.58604700e-01
       13 -1    0    0    0    0 +0.0000000000e+00 +0.0000000000e+00 +4.9999998884e+02 5.0000000000e+02 1.0566000000e-01 0.0000e+00 1.0000e+00
      994 -1    0    0    0    0 -0.0000000000e+00 -0.0000000000e+00 +0.0000000000e+00 1.3100000000e+02 1.3100000000e+02 0.0000e+00 0.0000e+00
       13  1    1    2    0    0 +1.2767796799e+01 +4.2458628310e+00 +1.9395495643e+01 2.3605939963e+01 1.0566000000e-01 0.0000e+00 -1.0000e+00
      994  1    1    2    0    0 -2.5619377787e+01 -1.9016315000e+01 +7.3905953255e+01 1.5375650452e+02 1.3100000000e+02 0.0000e+00 0.0000e+00
      997  1    1    2    0    0 +1.2851580988e+01 +1.4770452169e+01 +4.0669853994e+02 4.5363755552e+02 2.0000000000e+02 0.0000e+00 0.0000e+00
</event>
<event>
 5      1 +6.7420000e-10 2.32988000e+02 7.95774700e-02 4.53246400e-01
       13 -1    0    0    0    0 +0.0000000000e+00 +0.0000000000e+00 +4.9999998884e+02 5.0000000000e+02 1.0566000000e-01 0.0000e+00 1.0000e+00
      994 -1    0    0    0    0 -0.0000000000e+00 -0.0000000000e+00 +0.0000000000e+00 1.3100000000e+02 1.3100000000e+02 0.0000e+00 0.0000e+00
       13  1    1    2    0    0 +2.0455474407e+00 +1.9003020292e+01 +2.5657672992e+01 3.1994161841e+01 1.0566000000e-01 0.0000e+00 -1.0000e+00
      994  1    1    2    0    0 -3.4273701136e+01 -8.9084554629e+00 +8.5358235075e+01 1.6031554966e+02 1.3100000000e+02 0.0000e+00 0.0000e+00
      997  1    1    2    0    0 +3.2228153695e+01 -1.0094564829e+01 +3.8898408077e+02 4.3869028850e+02 2.0000000000e+02 0.0000e+00 0.0000e+00
</event>
<event>
 5      1 +6.7420000e-10 2.37888300e+02 7.95774700e-02 4.47168800e-01
       13 -1    0    0    0    0 +0.0000000000e+00 +0.0000000000e+00 +4.9999998884e+02 5.0000000000e+02 1.0566000000e-01 0.0000e+00 -1.0000e+00
      994 -1    0    0    0    0 -0.0000000000e+00 -0.0000000000e+00 +0.0000000000e+00 1.3100000000e+02 1.3100000000e+02 0.0000e+00 0.0000e+00
       13  1    1    2    0    0 +2.1542465842e+01 -1.6671190471e+01 +4.0938708915e+01 4.9173117432e+01 1.0566000000e-01 0.0000e+00 1.0000e+00
      994  1    1    2    0    0 +7.5563289576e+00 +2.5363954794e+01 +9.0520456084e+01 1.6141679367e+02 1.3100000000e+02 0.0000e+00 0.0000e+00
      997  1    1    2    0    0 -2.9098794800e+01 -8.6927643232e+00 +3.6854082384e+02 4.2041008890e+02 2.0000000000e+02 0.0000e+00 0.0000e+00
</event>
<event>
 5      1 +6.7420000e-10 2.49210600e+02 7.95774700e-02 4.34204900e-01
       13 -1    0    0    0    0 +0.0000000000e+00 +0.0000000000e+00 +4.9999998884e+02 5.0000000000e+02 1.0566000000e-01 0.0000e+00 -1.0000e+00
      994 -1    0    0    0    0 -0.0000000000e+00 -0.0000000000e+00 +0.0000000000e+00 1.3100000000e+02 1.3100000000e+02 0.0000e+00 0.0000e+00
       13  1    1    2    0    0 +2.7383491039e+00 -1.9428926187e+01 -6.8065380211e+00 2.0768289589e+01 1.0566000000e-01 0.0000e+00 1.0000e+00
      994  1    1    2    0    0 -3.9095618831e+00 -2.8261992653e+01 +2.1071246148e+02 2.4974940706e+02 1.3100000000e+02 0.0000e+00 0.0000e+00
      997  1    1    2    0    0 +1.1712127792e+00 +4.7690918840e+01 +2.9609406537e+02 3.6048230335e+02 2.0000000000e+02 0.0000e+00 0.0000e+00
</event>
<event>
 5      1 +6.7420000e-10 2.34843700e+02 7.95774700e-02 4.50909200e-01
       13 -1    0    0    0    0 +0.0000000000e+00 +0.0000000000e+00 +4.9999998884e+02 5.0000000000e+02 1.0566000000e-01 0.0000e+00 -1.0000e+00
      994 -1    0    0    0    0 -0.0000000000e+00 -0.0000000000e+00 +0.0000000000e+00 1.3100000000e+02 1.3100000000e+02 0.0000e+00 0.0000e+00
       13  1    1    2    0    0 -1.7979620513e+01 +1.8491489280e+00 +9.8463804758e+00 2.0582722805e+01 1.0566000000e-01 0.0000e+00 1.0000e+00
      994  1    1    2    0    0 +3.8553276731e+01 +6.8584673195e+00 +9.3522149886e+01 1.6565260710e+02 1.3100000000e+02 0.0000e+00 0.0000e+00
      997  1    1    2    0    0 -2.0573656217e+01 -8.7076162475e+00 +3.9663145847e+02 4.4476467009e+02 2.0000000000e+02 0.0000e+00 0.0000e+00
</event>
<event>
 5      1 +6.7420000e-10 2.30532700e+02 7.95774700e-02 4.56408700e-01
       13 -1    0    0    0    0 +0.0000000000e+00 +0.0000000000e+00 +4.9999998884e+02 5.0000000000e+02 1.0566000000e-01 0.0000e+00 1.0000e+00
      994 -1    0    0    0    0 -0.0000000000e+00 -0.0000000000e+00 +0.0000000000e+00 1.3100000000e+02 1.3100000000e+02 0.0000e+00 0.0000e+00
       13  1    1    2    0    0 +9.9668464524e-01 -1.4705517050e+01 +2.3162761377e+01 2.7454877356e+01 1.0566000000e-01 0.0000e+00 -1.0000e+00
      994  1    1    2    0    0 -4.8710916288e+00 +7.0773750487e-01 +6.6867661274e+01 1.4716151858e+02 1.3100000000e+02 0.0000e+00 0.0000e+00
      997  1    1    2    0    0 +3.8744069836e+00 +1.3997779546e+01 +4.0996956619e+02 4.5638360407e+02 2.0000000000e+02 0.0000e+00 0.0000e+00
</event>
<event>
 5      1 +6.7420000e-10 2.36047200e+02 7.95774700e-02 4.49416800e-01
       13 -1    0    0    0    0 +0.0000000000e+00 +0.0000000000e+00 +4.9999998884e+02 5.0000000000e+02 1.0566000000e-01 0.0000e+00 1.0000e+00
      994 -1    0    0    0    0 -0.0000000000e+00 -0.0000000000e+00 +0.0000000000e+00 1.3100000000e+02 1.3100000000e+02 0.0000e+00 0.0000e+00
       13  1    1    2    0    0 +3.5005992127e+00 +2.3294336495e+01 +2.9075108688e+01 3.7419960139e+01 1.0566000000e-01 0.0000e+00 -1.0000e+00
      994  1    1    2    0    0 +2.1650192183e+01 -1.4772159189e+01 +8.5704112775e+01 1.5872347796e+02 1.3100000000e+02 0.0000e+00 0.0000e+00
      997  1    1    2    0    0 -2.5150791396e+01 -8.5221773054e+00 +3.8522076737e+02 4.3485656190e+02 2.0000000000e+02 0.0000e+00 0.0000e+00
</event>
<event>
 5      1 +6.7420000e-10 2.42419900e+02 7.95774700e-02 4.41808500e-01
       13 -1    0    0    0    0 +0.0000000000e+00 +0.0000000000e+00 +4.9999998884e+02 5.0000000000e+02 1.0566000000e-01 0.0000e+00 1.0000e+00
      994 -1    0    0    0    0 -0.0000000000e+00 -0.0000000000e+00 +0.0000000000e+00 1.3100000000e+02 1.3100000000e+02 0.0000e+00 0.0000e+00
       13  1    1    2    0    0 +1.1633096942e+01 +1.3610702099e+01 +6.3239102525e-01 1.7916228356e+01 1.0566000000e-01 0.0000e+00 -1.0000e+00
      994  1    1    2    0    0 -1.3866614212e+01 -9.9665657647e+00 +9.7542914265e+01 1.6421703793e+02 1.3100000000e+02 0.0000e+00 0.0000e+00
      997  1    1    2    0    0 +2.2335172705e+00 -3.6441363342e+00 +4.0182468355e+02 4.4886673371e+02 2.0000000000e+02 0.0000e+00 0.0000e+00
</event>
<event>
 5      1 +6.7420000e-10 2.33349000e+02 7.95774700e-02 4.52788200e-01
       13 -1    0    0    0    0 +0.0000000000e+00 +0.0000000000e+00 +4.9999998884e+02 5.0000000000e+02 1.0566000000e-01 0.0000e+00 -1.0000e+00
      994 -1    0    0    0    0 -0.0000000000e+00 -0.0000000000e+00 +0.0000000000e+00 1.3100000000e+02 1.3100000000e+02 0.0000e+00 0.0000e+00
       13  1    1    2    0    0 +5.4522691795e+00 -1.7529760203e+01 +2.1824327474e+01 2.8518979043e+01 1.0566000000e-01 0.0000e+00 1.0000e+00
      994  1    1    2    0    0 -4.0945573977e+01 -9.6073247649e+00 +9.2648930002e+01 1.6587243577e+02 1.3100000000e+02 0.0000e+00 0.0000e+00
      997  1    1    2    0    0 +3.5493304797e+01 +2.7137084968e+01 +3.8552673136e+02 4.3660858519e+02 2.0000000000e+02 0.0000e+00 0.0000e+00
</event>
<event>
 5      1 +6.7420000e-10 2.48327100e+02 7.95774700e-02 4.35166600e-01
       13 -1    0    0    0    0 +0.0000000000e+00 +0.0000000000e+00 +4.9999998884e+02 5.0000000000e+02 1.0566000000e-01 0.0000e+00 -1.0000e+00
      994 -1    0    0    0    0 -0.0000000000e+00 -0.0000000000e+00 +0.0000000000e+00 1.3100000000e+02 1.3100000000e+02 0.0000e+00 0.0000e+00
       13  1    1    2    0    0 -3.1216178836e+00 -4.0172069402e+01 +2.9403904650e+01 4.9881263325e+01 1.0566000000e-01 0.0000e+00 1.0000e+00
      994  1    1    2    0    0 +8.0754676394e+00 +2.8130975072e+01 +1.3598185882e+02 1.9107231841e+02 1.3100000000e+02 0.0000e+00 0.0000e+00
      997  1    1    2    0    0 -4.9538497557e+00 +1.2041094330e+01 +3.3461422537e+02 3.9004641826e+02 2.0000000000e+02 0.0000e+00 0.0000e+00
</event>
<event>
 5      1 +6.7420000e-10 2.41568800e+02 7.95774700e-02 4.42797100e-01
       13 -1    0    0    0    0 +0.0000000000e+00 +0.0000000000e+00 +4.9999998884e+02 5.0000000000e+02 1.0566000000e-01 0.0000e+00 1.0000e+00
      994 -1    0    0    0    0 -0.0000000000e+00 -0.0000000000e+00 +0.0000000000e+00 1.3100000000e+02 1.3100000000e+02 0.0000e+00 0.0000e+00
       13  1    1    2    0    0 +2.0622982722e+01 -2.5730262113e+01 +5.4419444055e+01 6.3630502591e+01 1.0566000000e-01 0.0000e+00 -1.0000e+00
      994  1    1    2    0    0 -1.4548664714e+01 -1.2291970590e+00 +9.3843044957e+01 1.6180448590e+02 1.3100000000e+02 0.0000e+00 0.0000e+00
      997  1    1    2    0    0 -6.0743180085e+00 +2.6959459172e+01 +3.5173749982e+02 4.0556501151e+02 2.0000000000e+02 0.0000e+00 0.0000e+00
</event>
<event>
 5      1 +6.7420000e-10 2.45580100e+02 7.95774700e-02 4.38208500e-01
       13 -1    0    0    0    0 +0.0000000000e+00 +0.0000000000e+00 +4.9999998884e+02 5.0000000000e+02 1.0566000000e-01 0.0000e+00 -1.0000e+00
      994 -1    0    0    0    0 -0.0000000000e+00 -0.0000000000e+00 +0.0000000000e+00 1.3100000000e+02 1.3100000000e+02 0.0000e+00 0.0000e+00
       13  1    1    2    0    0 -3.1394601867e+01 -1.6570702766e+01 +8.0661852826e+01 8.8128059560e+01 1.0566000000e-01 0.0000e+00 1.0000e+00
      994  1    1    2    0    0 +1.1375221927e+00 -8.7183567483e+00 +1.0451814933e+02 1.6781640933e+02 1.3100000000e+02 0.0000e+00 0.0000e+00
      997  1    1    2    0    0 +3.0257079675e+01 +2.5289059515e+01 +3.1481998668e+02 3.7505553111e+02 2.0000000000e+02 0.0000e+00 0.0000e+00
</event>
<event>
 5      1 +6.7420000e-10 2.39374800e+02 7.95774700e-02 4.45383900e-01
       13 -1    0    0    0    0 +0.0000000000e+00 +0.0000000000e+00 +4.9999998884e+02 5.0000000000e+02 1.0566000000e-01 0.0000e+00 -1.0000e+00
      994 -1    0    0    0    0 -0.0000000000e+00 -0.0000000000e+00 +0.0000000000e+00 1.3100000000e+02 1.3100000000e+02 0.0000e+00 0.0000e+00
       13  1    1    2    0    0 +5.7275407314e+00 -2.4996124666e+01 +1.6291318693e+01 3.0381395622e+01 1.0566000000e-01 0.0000e+00 1.0000e+00
      994  1    1    2    0    0 -4.2416083059e+01 +2.0600681952e+01 +1.1954526334e+02 1.8350907930e+02 1.3100000000e+02 0.0000e+00 0.0000e+00
      997  1    1    2    0    0 +3.6688542328e+01 +4.3954427149e+00 +3.6416340680e+02 4.1710952508e+02 2.0000000000e+02 0.0000e+00 0.0000e+00
</event>
<event>
 5      1 +6.7420000e-10 2.29915100e+02 7.95774700e-02 4.57216900e-01
       13 -1    0    0    0    0 +0.0000000000e+00 +0.0000000000e+00 +4.9999998884e+02 5.0000000000e+02 1.0566000000e-01 0.0000e+00 1.0000e+00
      994 -1    0    0    0    0 -0.0000000000e+00 -0.0000000000e+00 +0.0000000000e+00 1.3100000000e+02 1.3100000000e+02 0.0000e+00 0.0000e+00
       13  1    1    2    0    0 -7.6246884873e+00 +1.2818575626e+01 +3.4761773792e+01 3.7826496491e+01 1.0566000000e-01 0.0000e+00 -1.0000e+00
      994  1    1    2    0    0 -1.5846766372e+01 -3.2074282137e+01 +7.8837397834e+01 1.5702297563e+02 1.3100000000e+02 0.0000e+00 0.0000e+00
      997  1    1    2    0    0 +2.3471454860e+01 +1.9255706510e+01 +3.8640081721e+02 4.3615052788e+02 2.0000000000e+02 0.0000e+00 0.0000e+00
</event>
<event>
 5      1 +6.7420000e-10 2.40453400e+02 7.95774700e-02 4.44105100e-01
       13 -1    0    0    0    0 +0.0000000000e+00 +0.0000000000e+00 +4.9999998884e+02 5.0000000000e+02 1.0566000000e-01 0.0000e+00 -1.0000e+00
      994 -1    0    0    0    0 -0.0000000000e+00 -0.0000000000e+00 +0.0000000000e+00 1.3100000000e+02 1.3100000000e+02 0.0000e+00 0.0000e+00
       13  1    1    2    0    0 -2.8387852353e+01 -7.0358150590e+00 +2.3703378829e+01 3.7646170943e+01 1.0566000000e-01 0.0000e+00 1.0000e+00
      994  1    1    2    0    0 +3.0867487762e+01 -5.0644772327e+01 +1.6499976018e+02 2.1886894623e+02 1.3100000000e+02 0.0000e+00 0.0000e+00
      997  1    1    2    0    0 -2.4796354097e+00 +5.7680587386e+01 +3.1129684982e+02 3.7448488282e+02 2.0000000000e+02 0.0000e+00 0.0000e+00
</event>
<event>
 5      1 +6.7420000e-10 2.47787800e+02 7.95774700e-02 4.35757600e-01
       13 -1    0    0    0    0 +0.0000000000e+00 +0.0000000000e+00 +4.9999998884e+02 5.0000000000e+02 1.0566000000e-01 0.0000e+00 -1.0000e+00
      994 -1    0    0    0    0 -0.0000000000e+00 -0.0000000000e+00 +0.0000000000e+00 1.3100000000e+02 1.3100000000e+02 0.0000e+00 0.0000e+00
       13  1    1    2    0    0 +2.8587461374e+01 +9.7613105566e+00 +1.2350321948e+01 3.2635375712e+01 1.0566000000e-01 0.0000e+00 1.0000e+00
      994  1    1    2    0    0 -7.6810814864e-01 -1.8489816509e+01 +1.1900065607e+02 1.7794555193e+02 1.3100000000e+02 0.0000e+00 0.0000e+00
      997  1    1    2    0    0 -2.7819353226e+01 +8.7285059526e+00 +3.6864901082e+02 4.2041907236e+02 2.0000000000e+02 0.0000e+00 0.0000e+00
</event>
<event>
 5      1 +6.7420000e-10 2.34035200e+02 7.95774700e-02 4.51922000e-01
       13 -1    0    0    0    0 +0.0000000000e+00 +0.0000000000e+00 +4.9999998884e+02 5.0000000000e+02 1.0566000000e-01 0.0000e+00 -1.0000e+00
      994 -1    0    0    0    0 -0.0000000000e+00 -0.0000000000e+00 +0.0000000000e+00 1.3100000000e+02 1.3100000000e+02 0.0000e+00 0.0000e+00
       13  1    1    2    0    0 +4.7944227018e+00 -1.8353745270e+01 +3.1784095690e+01 3.7014677593e+01 1.0566000000e-01 0.0000e+00 1.0000e+00
      994  1    1    2    0    0 -1.0368599145e+00 -1.8652287337e+01 +7.7152930023e+01 1.5317492456e+02 1.3100000000e+02 0.0000e+00 0.0000e+00
      997  1    1    2    0    0 -3.7575627873e+00 +3.7006032606e+01 +3.9106296312e+02 4.4081039785e+02 2.0000000000e+02 0.0000e+00 0.0000e+00
</event>
<event>
 5      1 +6.7420000e-10 2.30822400e+02 7.95774700e-02 4.56031300e-01
       13 -1    0    0    0    0 +0.0000000000e+00 +0.0000000000e+00 +4.9999998884e+02 5.0000000000e+02 1.0566000000e-01 0.0000e+00 -1.0000e+00
      994 -1    0    0    0    0 -0.0000000000e+00 -0.0000000000e+00 +0.0000000000e+00 1.3100000000e+02 1.3100000000e+02 0.0000e+00 0.0000e+00
       13  1    1    2    0    0 +1.8847186577e+01 -8.5727985906e+00 +2.9997480249e+01 3.6449544618e+01 1.0566000000e-01 0.0000e+00 1.0000e+00
      994  1    1    2    0    0 -7.7548936818e+01 -6.2135687087e+00 +1.6236671426e+02 2.2265757552e+02 1.3100000000e+02 0.0000e+00 0.0000e+00
      997  1    1    2    0    0 +5.8701750242e+01 +1.4786367299e+01 +3.0763579433e+02 3.7189287986e+02 2.0000000000e+02 0.0000e+00 0.0000e+00
</event>
<event>
 5      1 +6.7420000e-10 2.27962600e+02 7.95774700e-02 4.59807400e-01
       13 -1    0    0    0    0 +0.0000000000e+00 +0.0000000000e+00 +4.9999998884e+02 5.0000000000e+02 1.0566000000e-01 0.0000e+00 -1.0000e+00
      994 -1    0    0    0    0 -0.0000000000e+00 -0.0000000000e+00 +0.0000000000e+00 1.3100000000e+02 1.3100000000e+02 0.0000e+00 0.0000e+00
       13  1    1    2    0    0 +6.8825351519e-01 -1.0207229275e+01 +1.7821468459e+01 2.0549382581e+01 1.0566000000e-01 0.0000e+00 1.0000e+00
      994  1    1    2    0    0 -2.6773977876e+01 -6.8149212025e+00 +6.9593255297e+01 1.5088906596e+02 1.3100000000e+02 0.0000e+00 0.0000e+00
      997  1    1    2    0    0 +2.6085724361e+01 +1.7022150477e+01 +4.1258526508e+02 4.5956155146e+02 2.0000000000e+02 0.0000e+00 0.0000e+00
</event>
<event>
 5      1 +6.7420000e-10 2.46830600e+02 7.95774700e-02 4.36813900e-01
       13 -1    0    0    0    0 +0.0000000000e+00 +0.0000000000e+00 +4.9999998884e+02 5.0000000000e+02 1.0566000000e-01 0.0000e+00 -1.0000e+00
      994 -1    0    0    0    0 -0.0000000000e+00 -0.0000000000e+00 +0.0000000000e+00 1.3100000000e+02 1.3100000000e+02 0.0000e+00 0.0000e+00
       13  1    1    2    0    0 -3.9287162956e+01 -2.0477799564e+01 +4.8387524623e+01 6.5606288961e+01 1.0566000000e-01 0.0000e+00 1.0000e+00
      994  1    1    2    0    0 +1.7945412955e+01 +3.9806797270e+01 +1.8009420037e+02 2.2693950727e+02 1.3100000000e+02 0.0000e+00 0.0000e+00
      997  1    1    2    0    0 +2.1341750001e+01 -1.9328997706e+01 +2.7151826385e+02 3.3845420377e+02 2.0000000000e+02 0.0000e+00 0.0000e+00
</event>
<event>
 5      1 +6.7420000e-10 2.49189700e+02 7.95774700e-02 4.34227500e-01
       13 -1    0    0    0    0 +0.0000000000e+00 +0.0000000000e+00 +4.9999998884e+02 5.0000000000e+02 1.0566000000e-01 0.0000e+00 1.0000e+00
      994 -1    0    0    0    0 -0.0000000000e+00 -0.0000000000e+00 +0.0000000000e+00 1.3100000000e+02 1.3100000000e+02 0.0000e+00 0.0000e+00
       13  1    1    2    0    0 -2.8786302190e+00 -2.0345057529e+01 -2.2192652085e+00 2.0667466703e+01 1.0566000000e-01 0.0000e+00 -1.0000e+00
      994  1    1    2    0    0 -6.5989402124e+00 -1.1414783553e+01 +1.2225900242e+02 1.7967222091e+02 1.3100000000e+02 0.0000e+00 0.0000e+00
      997  1    1    2    0    0 +9.4775704314e+00 +3.1759841082e+01 +3.7996025163e+02 4.3066031239e+02 2.0000000000e+02 0.0000e+00 0.0000e+00
</event>
<event>
 5      1 +6.7420000e-10 2.40451900e+02 7.95774700e-02 4.44106900e-01
       13 -1    0    0    0    0 +0.0000000000e+00 +0.0000000000e+00 +4.9999998884e+02 5.0000000000e+02 1.0566000000e-01 0.0000e+00 1.0000e+00
      994 -1    0    0    0    0 -0.0000000000e+00 -0.0000000000e+00 +0.0000000000e+00 1.3100000000e+02 1.3100000000e+02 0.0000e+00 0.0000e+00
       13  1    1    2    0    0 +2.7896490691e+01 +7.4349599598e+00 +6.4909545137e+01 7.1040502789e+01 1.0566000000e-01 0.0000e+00 -1.0000e+00
      994  1    1    2    0    0 -1.0675073231e+01 +3.7789500410e+01 +1.1134327527e+02 1.7635285220e+02 1.3100000000e+02 0.0000e+00 0.0000e+00
      997  1    1    2    0    0 -1.7221417460e+01 -4.5224460369e+01 +3.2374716843e+02 3.8360664501e+02 2.0000000000e+02 0.0000e+00 0.0000e+00
</event>
<event>
 5      1 +6.7420000e-10 2.33187300e+02 7.95774700e-02 4.52993200e-01
       13 -1    0    0    0    0 +0.0000000000e+00 +0.0000000000e+00 +4.9999998884e+02 5.0000000000e+02 1.0566000000e-01 0.0000e+00 1.0000e+00
      994 -1    0    0    0    0 -0.0000000000e+00 -0.0000000000e+00 +0.0000000000e+00 1.3100000000e+02 1.3100000000e+02 0.0000e+00 0.0000e+00
       13  1    1    2    0    0 -1.4663738302e+01 -1.3556359441e+01 +2.2476655283e+01 3.0066780656e+01 1.0566000000e-01 0.0000e+00 -1.0000e+00
      994  1    1    2    0    0 +2.3957415499e+01 +1.7139061621e+01 +8.1256246044e+01 1.5694356537e+02 1.3100000000e+02 0.0000e+00 0.0000e+00
      997  1    1    2    0    0 -9.2936771969e+00 -3.5827021807e+00 +3.9626708751e+02 4.4398965397e+02 2.0000000000e+02 0.0000e+00 0.0000e+00
</event>
<event>
 5      1 +6.7420000e-10 2.32021800e+02 7.95774700e-02 4.54481100e-01
       13 -1    0    0    0    0 +0.0000000000e+00 +0.0000000000e+00 +4.9999998884e+02 5.0000000000e+02 1.0566000000e-01 0.0000e+00 1.0000e+00
      994 -1    0    0    0    0 -0.0000000000e+00 -0.0000000000e+00 +0.0000000000e+00 1.3100000000e+02 1.3100000000e+02 0.0000e+00 0.0000e+00
       13  1    1    2    0    0 -8.4533158858e+00 -1.0835576864e+01 +1.0881296514e+01 1.7529462437e+01 1.0566000000e-01 0.0000e+00 -1.0000e+00
      994  1    1    2    0    0 -6.0849036661e+00 +1.6503382163e+00 +6.9776574147e+01 1.4855813666e+02 1.3100000000e+02 0.0000e+00 0.0000e+00
      997  1    1    2    0    0 +1.4538219552e+01 +9.1852386479e+00 +4.1934211817e+02 4.6491240090e+02 2.0000000000e+02 0.0000e+00 0.0000e+00
</event>
<event>
 5      1 +6.7420000e-10 2.43943000e+02 7.95774700e-02 4.40059700e-01
       13 -1    0    0    0    0 +0.0000000000e+00 +0.0000000000e+00 +4.9999998884e+02 5.0000000000e+02 1.0566000000e-01 0.0000e+00 -1.0000e+00
      994 -1    0    0    0    0 -0.0000000000e+00 -0.0000000000e+00 +0.0000000000e+00 1.3100000000e+02 1.3100000000e+02 0.0000e+00 0.0000e+00
       13  1    1    2    0    0 +1.1255007991e+01 -1.6507384686e+01 +2.1140956310e+00 2.0091030796e+01 1.0566000000e-01 0.0000e+00 1.0000e+00
      994  1    1    2    0    0 +3.6000704098e+01 +1.1209943925e+01 +1.2422291198e+02 1.8442897115e+02 1.3100000000e+02 0.0000e+00 0.0000e+00
      997  1    1    2    0    0 -4.7255712089e+01 +5.2974407618e+00 +3.7366298122e+02 4.2647999805e+02 2.0000000000e+02 0.0000e+00 0.0000e+00
</event>
<event>
 5      1 +6.7420000e-10 2.35642800e+02 7.95774700e-02 4.49916200e-01
       13 -1    0    0    0    0 +0.0000000000e+00 +0.0000000000e+00 +4.9999998884e+02 5.0000000000e+02 1.0566000000e-01 0.0000e+00 -1.0000e+00
      994 -1    0    0    0    0 -0.0000000000e+00 -0.0000000000e+00 +0.0000000000e+00 1.3100000000e+02 1.3100000000e+02 0.0000e+00 0.0000e+00
       13  1    1    2    0    0 -1.7749172984e+01 -6.2949899548e+00 +7.6630576769e+01 7.8910813582e+01 1.0566000000e-01 0.0000e+00 1.0000e+00
      994  1    1    2    0    0 +1.2632141083e+01 +3.9258020449e+01 +9.8022073447e+01 1.6873082125e+02 1.3100000000e+02 0.0000e+00 0.0000e+00
      997  1    1    2    0    0 +5.1170319013e+00 -3.2963030495e+01 +3.2534733862e+02 3.8335836516e+02 2.0000000000e+02 0.0000e+00 0.0000e+00
</event>
<event>
 5      1 +6.7420000e-10 2.32288700e+02 7.95774700e-02 4.54138900e-01
       13 -1    0    0    0    0 +0.0000000000e+00 +0.0000000000e+00 +4.9999998884e+02 5.0000000000e+02 1.0566000000e-01 0.0000e+00 -1.0000e+00
      994 -1    0    0    0    0 -0.0000000000e+00 -0.0000000000e+00 +0.0000000000e+00 1.3100000000e+02 1.3100000000e+02 0.0000e+00 0.0000e+00
       13  1    1    2    0    0 +1.0012365564e+01 -1.2231935138e+01 +6.2117067993e+01 6.4096872010e+01 1.0566000000e-01 0.0000e+00 1.0000e+00
      994  1    1    2    0    0 -6.7349025359e+00 +2.6202549445e+01 +7.7769462557e+01 1.5472886549e+02 1.3100000000e+02 0.0000e+00 0.0000e+00
      997  1    1    2    0    0 -3.2774630277e+00 -1.3970614307e+01 +3.6011345829e+02 4.1217426250e+02 2.0000000000e+02 0.0000e+00 0.0000e+00
</event>
<event>
 5      1 +6.7420000e-10 2.48259900e+02 7.95774700e-02 4.35240100e-01
       13 -1    0    0    0    0 +0.0000000000e+00 +0.0000000000e+00 +4.9999998884e+02 5.0000000000e+02 1.0566000000e-01 0.0000e+00 1.0000e+00
      994 -1    0    0    0    0 -0.0000000000e+00 -0.0000000000e+00 +0.0000000000e+00 1.3100000000e+02 1.3100000000e+02 0.0000e+00 0.0000e+00
       13  1    1    2    0    0 -3.4178492395e+01 +1.6491469821e+01 +5.8815085221e+01 6.9995452230e+01 1.0566000000e-01 0.0000e+00 -1.0000e+00
      994  1    1    2    0    0 -1.4053912952e+00 +3.5277463658e+01 +1.5069529773e+02 2.0277215619e+02 1.3100000000e+02 0.0000e+00 0.0000e+00
      997  1    1    2    0    0 +3.5583883690e+01 -5.1768933480e+01 +2.9048960589e+02 3.5823239158e+02 2.0000000000e+02 0.0000e+00 0.0000e+00
</event>
<event>
 5      1 +6.7420000e-10 2.36847100e+02 7.95774700e-02 4.48435100e-01
       13 -1    0    0    0    0 +0.0000000000e+00 +0.0000000000e+00 +4.9999998884e+02 5.0000000000e+02 1.0566000000e-01 0.0000e+00 -1.0000e+00
      994 -1    0    0    0    0 -0.0000000000e+00 -0.0000000000e+00 +0.0000000000e+00 1.3100000000e+02 1.3100000000e+02 0.0000e+00 0.0000e+00
       13  1    1    2    0    0 +2.3099037559e+01 +2.0590061297e+01 +4.0388243354e+01 5.0879637632e+01 1.0566000000e-01 0.0000e+00 1.0000e+00
      994  1    1    2    0    0 -2.1051685281e+01 -5.6943546463e+01 +1.3851823588e+02 2.0008508842e+02 1.3100000000e+02 0.0000e+00 0.0000e+00
      997  1    1    2    0    0 -2.0473522779e+00 +3.6353485167e+01 +3.2109350960e+02 3.8003527395e+02 2.0000000000e+02 0.0000e+00 0.0000e+00
</event>
<event>
 5      1 +6.7420000e-10 2.29793700e+02 7.95774700e-02 4.57376500e-01
       13 -1    0    0    0    0 +0.0000000000e+00 +0.0000000000e+00 +4.9999998884e+02 5.0000000000e+02 1.0566000000e-01 0.0000e+00 1.0000e+00
      994 -1    0    0    0    0 -0.0000000000e+00 -0.0000000000e+00 +0.0000000000e+00 1.3100000000e+02 1.3100000000e+02 0.0000e+00 0.0000e+00
       13  1    1    2    0    0 -8.8721828408e+00 +1.0133260649e+01 +1.4008887626e+01 1.9433442729e+01 1.0566000000e-01 0.0000e+00 -1.0000e+00
      994  1    1    2    0    0 +4.1210198300e+01 +1.3533898023e+00 +8.3265758109e+01 1.6060603532e+02 1.3100000000e+02 0.0000e+00 0.0000e+00
      997  1    1    2    0    0 -3.2338015459e+01 -1.1486650451e+01 +4.0272534310e+02 4.5096052195e+02 2.0000000000e+02 0.0000e+00 0.0000e+00
</event>
<event>
 5      1 +6.7420000e-10 2.43493800e+02 7.95774700e-02 4.40572700e-01
       13 -1    0    0    0    0 +0.0000000000e+00 +0.0000000000e+00 +4.9999998884e+02 5.0000000000e+02 1.0566000000e-01 0.0000e+00 1.0000e+00
      994 -1    0    0    0    0 -0.0000000000e+00 -0.0000000000e+00 +0.0000000000e+00 1.3100000000e+02 1.3100000000e+02 0.0000e+00 0.0000e+00
       13  1    1    2    0    0 +1.7365399602e+01 +2.5916566150e+01 +5.4324446409e+01 6.2644889225e+01 1.0566000000e-01 0.0000e+00 -1.0000e+00
      994  1    1    2    0    0 +1.4480714019e+01 +1.9819291162e+01 +1.0617161378e+02 1.7039925749e+02 1.3100000000e+02 0.0000e+00 0.0000e+00
      997  1    1    2    0    0 -3.1846113621e+01 -4.5735857312e+01 +3.3950392865e+02 3.9795585328e+02 2.0000000000e+02 0.0000e+00 0.0000e+00
</event>
<event>
 5      1 +6.7420000e-10 2.39317700e+02 7.95774700e-02 4.45452000e-01
       13 -1    0    0    0    0 +0.0000000000e+00 +0.0000000000e+00 +4.9999998884e+02 5.0000000000e+02 1.0566000000e-01 0.0000e+00 1.0000e+00
      994 -1    0    0    0    0 -0.0000000000e+00 -0.0000000000e+00 +0.0000000000e+00 1.3100000000e+02 1.3100000000e+02 0.0000e+00 0.0000e+00
       13  1    1    2    0    0 +9.2291606496e+00 -2.6359284769e+01 +3.2329785748e+01 4.2722541010e+01 1.0566000000e-01 0.0000e+00 -1.0000e+00
      994  1    1    2    0    0 -1.0416048634e+01 +5.7951639878e+00 +8.6807384939e+01 1.5760266519e+02 1.3100000000e+02 0.0000e+00 0.0000e+00
      997  1    1    2    0    0 +1.1868879843e+00 +2.0564120781e+01 +3.8086281815e+02 4.3067479380e+02 2.0000000000e+02 0.0000e+00 0.0000e+00
</event>
<event>
 5      1 +6.7420000e-10 2.43007700e+02 7.95774700e-02 4.41130500e-01
       13 -1    0    0    0    0 +0.0000000000e+00 +0.0000000000e+00 +4.9999998884e+02 5.0000000000e+02 1.0566000000e-01 0.0000e+00 -1.0000e+00
      994 -1    0    0    0    0 -0.0000000000e+00 -0.0000000000e+00 +0.0000000000e+00 1.3100000000e+02 1.3100000000e+02 0.0000e+00 0.0000e+00
       13  1    1    2    0    0 +8.4569179362e+00 -2.4726461894e+01 +1.2085283248e+01 2.8792058175e+01 1.0566000000e-01 0.0000e+00 1.0000e+00
      994  1    1    2    0    0 -2.0087323677e+01 +1.2601613919e+01 +1.0377868494e+02 1.6879963475e+02 1.3100000000e+02 0.0000e+00 0.0000e+00
      997  1    1    2    0    0 +1.1630405740e+01 +1.2124847974e+01 +3.8413602065e+02 4.3340830707e+02 2.0000000000e+02 0.0000e+00 0.0000e+00
</event>
<event>
 5      1 +6.7420000e-10 2.42389300e+02 7.95774700e-02 4.41843900e-01
       13 -1    0    0    0    0 +0.0000000000e+00 +0.0000000000e+00 +4.9999998884e+02 5.0000000000e+02 1.0566000000e-01 0.0000e+00 -1.0000e+00
      994 -1    0    0    0    0 -0.0000000000e+00 -0.0000000000e+00 +0.0000000000e+00 1.3100000000e+02 1.3100000000e+02 0.0000e+00 0.0000e+00
       13  1    1    2    0    0 +1.3525465088e+01 -2.5516025342e+01 +5.7052092027e+01 6.3944961676e+01 1.0566000000e-01 0.0000e+00 1.0000e+00
      994  1    1    2    0    0 -1.3605419843e+01 -3.7361125781e+01 +1.2014119326e+02 1.8214243736e+02 1.3100000000e+02 0.0000e+00 0.0000e+00
      997  1    1    2    0    0 +7.9954755749e-02 +6.2877151123e+01 +3.2280670355e+02 3.8491260097e+02 2.0000000000e+02 0.0000e+00 0.0000e+00
</event>
<event>
 5      1 +6.7420000e-10 2.40182700e+02 7.95774700e-02 4.44424900e-01
       13 -1    0    0    0    0 +0.0000000000e+00 +0.0000000000e+00 +4.9999998884e+02 5.0000000000e+02 1.0566000000e-01 0.0000e+00 -1.0000e+00
      994 -1    0    0    0    0 -0.0000000000e+00 -0.0000000000e+00 +0.0000000000e+00 1.3100000000e+02 1.3100000000e+02 0.0000e+00 0.0000e+00
       13  1    1    2    0    0 -1.5857942557e+01 -1.3955899886e+01 +6.3502813263e+00 2.2058529433e+01 1.0566000000e-01 0.0000e+00 1.0000e+00
      994  1    1    2    0    0 +3.1469693920e+01 +1.3445412372e+01 +1.0416330232e+02 1.7082773282e+02 1.3100000000e+02 0.0000e+00 0.0000e+00
      997  1    1    2    0    0 -1.5611751362e+01 +5.1048751389e-01 +3.8948640519e+02 4.3811373775e+02 2.0000000000e+02 0.0000e+00 0.0000e+00
</event>
<event>
 5      1 +6.7420000e-10 2.30328200e+02 7.95774700e-02 4.56675800e-01
       13 -1    0    0    0    0 +0.0000000000e+00 +0.0000000000e+00 +4.9999998884e+02 5.0000000000e+02 1.0566000000e-01 0.0000e+00 1.0000e+00
      994 -1    0    0    0    0 -0.0000000000e+00 -0.0000000000e+00 +0.0000000000e+00 1.3100000000e+02 1.3100000000e+02 0.0000e+00 0.0000e+00
       13  1    1    2    0    0 -8.5912806911e+00 +5.4844942798e+00 +6.4154886623e+00 1.2044062447e+01 1.0566000000e-01 0.0000e+00 -1.0000e+00
      994  1    1    2    0    0 -1.2409551183e+01 +1.1740451906e+00 +6.7818177600e+01 1.4803945608e+02 1.3100000000e+02 0.0000e+00 0.0000e+00
      997  1    1    2    0    0 +2.1000831874e+01 -6.6585394705e+00 +4.2576632257e+02 4.7091648148e+02 2.0000000000e+02 0.0000e+00 0.0000e+00
</event>
<event>
 5      1 +6.7420000e-10 2.49581300e+02 7.95774700e-02 4.33803800e-01
       13 -1    0    0    0    0 +0.0000000000e+00 +0.0000000000e+00 +4.9999998884e+02 5.0000000000e+02 1.0566000000e-01 0.0000e+00 1.0000e+00
      994 -1    0    0    0    0 -0.0000000000e+00 -0.0000000000e+00 +0.0000000000e+00 1.3100000000e+02 1.3100000000e+02 0.0000e+00 0.0000e+00
       13  1    1    2    0    0 +3.4015953489e+01 -1.2960289690e+01 +2.9642602416e+01 4.6944107646e+01 1.0566000000e-01 0.0000e+00 -1.0000e+00
      994  1    1    2    0    0 +2.5267876072e+01 +1.0580962390e+01 +1.4283673524e+02 1.9573899780e+02 1.3100000000e+02 0.0000e+00 0.0000e+00
      997  1    1    2    0    0 -5.9283829561e+01 +2.3793273000e+00 +3.2752065118e+02 3.8831689455e+02 2.0000000000e+02 0.0000e+00 0.0000e+00
</event>
<event>
 5      1 +6.7420000e-10 2.38896900e+02 7.95774700e-02 4.45954900e-01
       13 -1    0    0    0    0 +0.0000000000e+00 +0.0000000000e+00 +4.9999998884e+02 5.0000000000e+02 1.0566000000e-01 0.0000e+00 1.0000e+00
      994 -1    0    0    0    0 -0.0000000000e+00 -0.0000000000e+00 +0.0000000000e+00 1.3100000000e+02 1.3100000000e+02 0.0000e+00 0.0000e+00
       13  1    1    2    0    0 +9.5356522105e+00 -2.8463857082e+01 +1.4177865278e+01 3.3198536880e+01 1.0566000000e-01 0.0000e+00 -1.0000e+00
      994  1    1    2    0    0 -2.1510782887e+01 +5.9533840725e+01 +2.1001112618e+02 2.5548515631e+02 1.3100000000e+02 0.0000e+00 0.0000e+00
      997  1    1    2    0    0 +1.1975130676e+01 -3.1069983643e+01 +2.7581099737e+02 3.4231630681e+02 2.0000000000e+02 0.0000e+00 0.0000e+00
</event>
<event>
 5      1 +6.7420000e-10 2.36871200e+02 7.95774700e-02 4.48405500e-01
       13 -1    0    0    0    0 +0.0000000000e+00 +0.0000000000e+00 +4.9999998884e+02 5.0000000000e+02 1.0566000000e-01 0.0000e+00 1.0000e+00
      994 -1    0    0    0    0 -0.0000000000e+00 -0.0000000000e+00 +0.0000000000e+00 1.3100000000e+02 1.3100000000e+02 0.0000e+00 0.0000e+00
       13  1    1    2    0    0 -6.0271453341e-01 +1.5316434721e+01 +6.3723653946e+00 1.6600441023e+01 1.0566000000e-01 0.0000e+00 -1.0000e+00
      994  1    1    2    0    0 +2.6170507076e+01 +5.3426815498e+01 +1.3511563597e+02 1.9737415013e+02 1.3100000000e+02 0.0000e+00 0.0000e+00
      997  1    1    2    0    0 -2.5567792543e+01 -6.8743250219e+01 +3.5851198747e+02 4.1702540885e+02 2.0000000000e+02 0.0000e+00 0.0000e+00
</event>
<event>
 5      1 +6.7420000e-10 2.34168400e+02 7.95774700e-02 4.51754500e-01
       13 -1    0    0    0    0 +0.0000000000e+00 +0.0000000000e+00 +4.9999998884e+02 5.0000000000e+02 1.0566000000e-01 0.0000e+00 1.0000e+00
      994 -1    0    0    0    0 -0.0000000000e+00 -0.0000000000e+00 +0.0000000000e+00 1.3100000000e+02 1.3100000000e+02 0.0000e+00 0.0000e+00
       13  1    1    2    0    0 +1.5561243761e+00 -1.7629386689e+01 +1.4579214349e+01 2.2929924840e+01 1.0566000000e-01 0.0000e+00 -1.0000e+00
      994  1    1    2    0    0 -9.3817324336e+00 +8.5208120653e+00 +7.5316020000e+01 1.5163813508e+02 1.3100000000e+02 0.0000e+00 0.0000e+00
      997  1    1    2    0    0 +7.8256080575e+00 +9.1085746233e+00 +4.1010475449e+02 4.5643194008e+02 2.0000000000e+02 0.0000e+00 0.0000e+00
</event>
<event>
 5      1 +6.7420000e-10 2.41189200e+02 7.95774700e-02 4.43240600e-01
       13 -1    0    0    0    0 +0.0000000000e+00 +0.0000000000e+00 +4.9999998884e+02 5.0000000000e+02 1.0566000000e-01 0.0000e+00 1.0000e+00
      994 -1    0    0    0    0 -0.0000000000e+00 -0.0000000000e+00 +0.0000000000e+00 1.3100000000e+02 1.3100000000e+02 0.0000e+00 0.0000e+00
       13  1    1    2    0    0 +3.8445578373e+01 -1.1924562420e+00 +5.3245970852e+01 6.5685835797e+01 1.0566000000e-01 0.0000e+00 -1.0000e+00
      994  1    1    2    0    0 -4.8760310398e+01 +1.7611083071e+01 +1.4007457021e+02 1.9866958332e+02 1.3100000000e+02 0.0000e+00 0.0000e+00
      997  1    1    2    0    0 +1.0314732025e+01 -1.6418626829e+01 +3.0667944777e+02 3.6664458088e+02 2.0000000000e+02 0.0000e+00 0.0000e+00
</event>
<event>
 5      1 +6.7420000e-10 2.43333400e+02 7.95774700e-02 4.40756600e-01
       13 -1    0    0    0    0 +0.0000000000e+00 +0.0000000000e+00 +4.9999998884e+02 5.0000000000e+02 1.0566000000e-01 0.0000e+00 1.0000e+00
      994 -1    0    0    0    0 -0.0000000000e+00 -0.0000000000e+00 +0.0000000000e+00 1.3100000000e+02 1.3100000000e+02 0.0000e+00 0.0000e+00
       13  1    1    2    0    0 +1.1924557773e+01 +2.1011925512e+01 +1.1500638636e+01 2.6757652081e+01 1.0566000000e-01 0.0000e+00 -1.0000e+00
      994  1    1    2    0    0 -1.3035862979e+01 +5.0107696648e+01 +1.6048985430e+02 2.1353854060e+02 1.3100000000e+02 0.0000e+00 0.0000e+00
      997  1    1    2    0    0 +1.1113052065e+00 -7.1119622160e+01 +3.2800949590e+02 3.9070380732e+02 2.0000000000e+02 0.0000e+00 0.0000e+00
</event>
<event>
 5      1 +6.7420000e-10 2.37707200e+02 7.95774700e-02 4.47388100e-01
       13 -1    0    0    0    0 +0.0000000000e+00 +0.0000000000e+00 +4.9999998884e+02 5.0000000000e+02 1.0566000000e-01 0.0000e+00 1.0000e+00
      994 -1    0    0    0    0 -0.0000000000e+00 -0.0000000000e+00 +0.0000000000e+00 1.3100000000e+02 1.3100000000e+02 0.0000e+00 0.0000e+00
       13  1    1    2    0    0 -9.4509796592e+00 +1.1334834196e+01 +8.4243495188e-01 1.4782433610e+01 1.0566000000e-01 0.0000e+00 -1.0000e+00
      994  1    1    2    0    0 +4.4098674798e+01 +1.0283782624e+00 +1.0821528668e+02 1.7554856579e+02 1.3100000000e+02 0.0000e+00 0.0000e+00
      997  1    1    2    0    0 -3.4647695139e+01 -1.2363212458e+01 +3.9094226720e+02 4.4066900059e+02 2.0000000000e+02 0.0000e+00 0.0000e+00
</event>
<event>
 5      1 +6.7420000e-10 2.42165400e+02 7.95774700e-02 4.42103200e-01
       13 -1    0    0    0    0 +0.0000000000e+00 +0.0000000000e+00 +4.9999998884e+02 5.0000000000e+02 1.0566000000e-01 0.0000e+00 -1.0000e+00
      994 -1    0    0    0    0 -0.0000000000e+00 -0.0000000000e+00 +0.0000000000e+00 1.3100000000e+02 1.3100000000e+02 0.0000e+00 0.0000e+00
       13  1    1    2    0    0 +2.1836214038e+01 -1.9372603286e+01 +2.6386848528e+01 3.9349649819e+01 1.0566000000e-01 0.0000e+00 1.0000e+00
      994  1    1    2    0    0 +2.0479078910e+01 +2.2268551723e+01 +1.0678363586e+02 1.7169457172e+02 1.3100000000e+02 0.0000e+00 0.0000e+00
      997  1    1    2    0    0 -4.2315292948e+01 -2.8959484377e+00 +3.6682950445e+02 4.1995577846e+02 2.0000000000e+02 0.0000e+00 0.0000e+00
</event>
<event>
 5      1 +6.7420000e-10 2.42135100e+02 7.95774700e-02 4.42138400e-01
       13 -1    0    0    0    0 +0.0000000000e+00 +0.0000000000e+00 +4.9999998884e+02 5.0000000000e+02 1.0566000000e-01 0.0000e+00 1.0000e+00
      994 -1    0    0    0    0 -0.0000000000e+00 -0.0000000000e+00 +0.0000000000e+00 1.3100000000e+02 1.3100000000e+02 0.0000e+00 0.0000e+00
       13  1    1    2    0    0 +2.8461810552e+01 +2.0964861221e+01 +3.4424633086e+01 4.9342340774e+01 1.0566000000e-01 0.0000e+00 -1.0000e+00
      994  1    1    2    0    0 -3.3660744227e+01 -1.9764667591e+01 +1.1784125773e+02 1.8047506701e+02 1.3100000000e+02 0.0000e+00 0.0000e+00
      997  1    1    2    0    0 +5.1989336747e+00 -1.2001936293e+00 +3.4773409802e+02 4.0118259222e+02 2.0000000000e+02 0.0000e+00 0.0000e+00
</event>
<event>
 5      1 +6.7420000e-10 2.34370500e+02 7.95774700e-02 4.51500800e-01
       13 -1    0    0    0    0 +0.0000000000e+00 +0.0000000000e+00 +4.9999998884e+02 5.0000000000e+02 1.0566000000e-01 0.0000e+00 -1.0000e+00
      994 -1    0    0    0    0 -0.0000000000e+00 -0.0000000000e+00 +0.0000000000e+00 1.3100000000e+02 1.3100000000e+02 0.0000e+00 0.0000e+00
       13  1    1    2    0    0 -1.8317571606e+01 -2.2942906707e-01 +6.7523318650e+01 6.9964246532e+01 1.0566000000e-01 0.0000e+00 1.0000e+00
      994  1    1    2    0    0 +1.1737164216e+01 +2.0888650959e+01 +8.0464576244e+01 1.5559448831e+02 1.3100000000e+02 0.0000e+00 0.0000e+00
      997  1    1    2    0    0 +6.5804073897e+00 -2.0659221892e+01 +3.5201209394e+02 4.0544126516e+02 2.0000000000e+02 0.0000e+00 0.0000e+00
</event>
<event>
 5      1 +6.7420000e-10 2.30804400e+02 7.95774700e-02 4.56054700e-01
       13 -1    0    0    0    0 +0.0000000000e+00 +0.0000000000e+00 +4.9999998884e+02 5.0000000000e+02 1.0566000000e-01 0.0000e+00 -1.0000e+00
      994 -1    0    0    0    0 -0.0000000000e+00 -0.0000000000e+00 +0.0000000000e+00 1.3100000000e+02 1.3100000000e+02 0.0000e+00 0.0000e+00
       13  1    1    2    0    0 +8.0855608053e+00 +1.3350925791e+01 +2.9360917699e+01 3.3252040016e+01 1.0566000000e-01 0.0000e+00 1.0000e+00
      994  1    1    2    0    0 +6.1567885256e+00 -6.7033807891e+00 +6.7954269501e+01 1.4785676888e+02 1.3100000000e+02 0.0000e+00 0.0000e+00
      997  1    1    2    0    0 -1.4242349331e+01 -6.6475450021e+00 +4.0268480164e+02 4.4989119111e+02 2.0000000000e+02 0.0000e+00 0.0000e+00
</event>
<event>
 5      1 +6.7420000e-10 2.40462200e+02 7.95774700e-02 4.44094800e-01
       13 -1    0    0    0    0 +0.0000000000e+00 +0.0000000000e+00 +4.9999998884e+02 5.0000000000e+02 1.0566000000e-01 0.0000e+00 -1.0000e+00
      994 -1    0    0    0    0 -0.0000000000e+00 -0.0000000000e+00 +0.0000000000e+00 1.3100000000e+02 1.3100000000e+02 0.0000e+00 0.0000e+00
       13  1    1    2    0    0 -3.2197446907e+00 +2.6963324129e+01 +3.9629940321e+01 4.8040929819e+01 1.0566000000e-01 0.0000e+00 1.0000e+00
      994  1    1    2    0    0 -4.9954668055e+01 +9.3654791958e+00 +2.4257859331e+02 2.8033650314e+02 1.3100000000e+02 0.0000e+00 0.0000e+00
      997  1    1    2    0    0 +5.3174412746e+01 -3.6328803325e+01 +2.1779145521e+02 3.0262256704e+02 2.0000000000e+02 0.0000e+00 0.0000e+00
</event>
<event>
 5      1 +6.7420000e-10 2.33465000e+02 7.95774700e-02 4.52641300e-01
       13 -1    0    0    0    0 +0.0000000000e+00 +0.0000000000e+00 +4.9999998884e+02 5.0000000000e+02 1.0566000000e-01 0.0000e+00 1.0000e+00
      994 -1    0    0    0    0 -0.0000000000e+00 -0.0000000000e+00 +0.0000000000e+00 1.3100000000e+02 1.3100000000e+02 0.0000e+00 0.0000e+00
       13  1    1    2    0    0 +1.4255194232e+01 -1.1411728066e+01 +3.2610076230e+01 3.7374675060e+01 1.0566000000e-01 0.0000e+00 -1.0000e+00
      994  1    1    2    0    0 -1.1271313694e+01 -3.7680302346e+01 +9.0116952297e+01 1.6379533812e+02 1.3100000000e+02 0.0000e+00 0.0000e+00
      997  1    1    2    0    0 -2.9838805383e+00 +4.9092030412e+01 +3.7727296031e+02 4.2982998682e+02 2.0000000000e+02 0.0000e+00 0.0000e+00
</event>
<event>
 5      1 +6.7420000e-10 2.31950600e+02 7.95774700e-02 4.54572700e-01
       13 -1    0    0    0    0 +0.0000000000e+00 +0.0000000000e+00 +4.9999998884e+02 5.0000000000e+02 1.0566000000e-01 0.0000e+00 -1.0000e+00
      994 -1    0    0    0    0 -0.0000000000e+00 -0.0000000000e+00 +0.0000000000e+00 1.3100000000e+02 1.3100000000e+02 0.0000e+00 0.0000e+00
       13  1    1    2    0    0 +5.5940877994e+00 +1.9468821284e+01 +2.9468555735e+01 3.5759415006e+01 1.0566000000e-01 0.0000e+00 1.0000e+00
      994  1    1    2    0    0 -2.3759963954e+01 -3.4913400542e+01 +8.9292779402e+01 1.6406608997e+02 1.3100000000e+02 0.0000e+00 0.0000e+00
      997  1    1    2    0    0 +1.8165876155e+01 +1.5444579258e+01 +3.8123865370e+02 4.3117449502e+02 2.0000000000e+02 0.0000e+00 0.0000e+00
</event>
<event>
 5      1 +6.7420000e-10 2.33042600e+02 7.95774700e-02 4.53176900e-01
       13 -1    0    0    0    0 +0.0000000000e+00 +0.0000000000e+00 +4.9999998884e+02 5.0000000000e+02 1.0566000000e-01 0.0000e+00 1.0000e+00
      994 -1    0    0    0    0 -0.0000000000e+00 -0.0000000000e+00 +0.0000000000e+00 1.3100000000e+02 1.3100000000e+02 0.0000e+00 0.0000e+00
       13  1    1    2    0    0 +1.9139254545e+01 +4.0078707573e+00 +3.2369141685e+01 3.7817278987e+01 1.0566000000e-01 0.0000e+00 -1.0000e+00
      994  1    1    2    0    0 -1.1568236025e+01 +1.6666019360e+01 +7.5782099035e+01 1.5269416105e+02 1.3100000000e+02 0.0000e+00 0.0000e+00
      997  1    1    2    0    0 -7.5710185199e+00 -2.0673890117e+01 +3.9184874812e+02 4.4048855996e+02 2.0000000000e+02 0.0000e+00 0.0000e+00
</event>
<event>
 5      1 +6.7420000e-10 2.32644200e+02 7.95774700e-02 4.53684300e-01
       13 -1    0    0    0    0 +0.0000000000e+00 +0.0000000000e+00 +4.9999998884e+02 5.0000000000e+02 1.0566000000e-01 0.0000e+00 1.0000e+00
      994 -1    0    0    0    0 -0.0000000000e+00 -0.0000000000e+00 +0.0000000000e+00 1.3100000000e+02 1.3100000000e+02 0.0000e+00 0.0000e+00
       13  1    1    2    0    0 -1.0516246731e+01 +1.9746132064e+01 +4.6131436624e+01 5.1270086657e+01 1.0566000000e-01 0.0000e+00 -1.0000e+00
      994  1    1    2    0    0 +1.1107714894e+01 -4.4715408880e+01 +9.5383293652e+01 1.6846905303e+02 1.3100000000e+02 0.0000e+00 0.0000e+00
      997  1    1    2    0    0 -5.9146816283e-01 +2.4969276816e+01 +3.5848525856e+02 4.1126086031e+02 2.0000000000e+02 0.0000e+00 0.0000e+00
</event>
<event>
 5      1 +6.7420000e-10 2.46520200e+02 7.95774700e-02 4.37158500e-01
       13 -1    0    0    0    0 +0.0000000000e+00 +0.0000000000e+00 +4.9999998884e+02 5.0000000000e+02 1.0566000000e-01 0.0000e+00 1.0000e+00
      994 -1    0    0    0    0 -0.0000000000e+00 -0.0000000000e+00 +0.0000000000e+00 1.3100000000e+02 1.3100000000e+02 0.0000e+00 0.0000e+00
       13  1    1    2    0    0 -3.8627569190e+01 -4.4228577502e+00 +3.6226986594e+01 5.3141852563e+01 1.0566000000e-01 0.0000e+00 -1.0000e+00
      994  1    1    2    0    0 +1.3574814177e+01 +3.6974559139e+01 +1.4533915924e+02 1.9958924022e+02 1.3100000000e+02 0.0000e+00 0.0000e+00
      997  1    1    2    0    0 +2.5052755013e+01 -3.2551701389e+01 +3.1843384300e+02 3.7826890721e+02 2.0000000000e+02 0.0000e+00 0.0000e+00
</event>
<event>
 5      1 +6.7420000e-10 2.37727700e+02 7.95774700e-02 4.47363300e-01
       13 -1    0    0    0    0 +0.0000000000e+00 +0.0000000000e+00 +4.9999998884e+02 5.0000000000e+02 1.0566000000e-01 0.0000e+00 -1.0000e+00
      994 -1    0    0    0    0 -0.0000000000e+00 -0.0000000000e+00 +0.0000000000e+00 1.3100000000e+02 1.3100000000e+02 0.0000e+00 0.0000e+00
       13  1    1    2    0    0 -1.1052384625e+01 +3.9109221206e+00 -1.3197181368e+00 1.1798446411e+01 1.0566000000e-01 0.0000e+00 1.0000e+00
      994  1    1    2    0    0 +1.1533927728e+01 -6.1164595345e+00 +8.3284535020e+01 1.5578111676e+02 1.3100000000e+02 0.0000e+00 0.0000e+00
      997  1    1    2    0    0 -4.8154310296e-01 +2.2055374139e+00 +4.1803517195e+02 4.6342043683e+02 2.0000000000e+02 0.0000e+00 0.0000e+00
</event>
<event>
 5      1 +6.7420000e-10 2.51360800e+02 7.95774700e-02 4.31897400e-01
       13 -1    0    0    0    0 +0.0000000000e+00 +0.0000000000e+00 +4.9999998884e+02 5.0000000000e+02 1.0566000000e-01 0.0000e+00 -1.0000e+00
      994 -1    0    0    0    0 -0.0000000000e+00 -0.0000000000e+00 +0.0000000000e+00 1.3100000000e+02 1.3100000000e+02 0.0000e+00 0.0000e+00
       13  1    1    2    0    0 -3.2712387617e+00 -9.7385061423e+00 -1.5204320425e+01 1.8349987154e+01 1.0566000000e-01 0.0000e+00 1.0000e+00
      994  1    1    2    0    0 -3.0894010727e+00 +4.0067103008e+00 +2.1530201098e+02 2.5207450101e+02 1.3100000000e+02 0.0000e+00 0.0000e+00
      997  1    1    2    0    0 +6.3606398344e+00 +5.7317958415e+00 +2.9990229828e+02 3.6057551184e+02 2.0000000000e+02 0.0000e+00 0.0000e+00
</event>
<event>
 5      1 +6.7420000e-10 2.29163400e+02 7.95774700e-02 4.58207900e-01
       13 -1    0    0    0    0 +0.0000000000e+00 +0.0000000000e+00 +4.9999998884e+02 5.0000000000e+02 1.0566000000e-01 0.0000e+00 1.0000e+00
      994 -1    0    0    0    0 -0.0000000000e+00 -0.0000000000e+00 +0.0000000000e+00 1.3100000000e+02 1.3100000000e+02 0.0000e+00 0.0000e+00
       13  1    1    2    0    0 -1.1503914443e+01 -3.6630015876e+00 +4.5605172505e+01 4.7176271063e+01 1.0566000000e-01 0.0000e+00 -1.0000e+00
      994  1    1    2    0    0 +2.8948284968e+01 +1.9842452754e+01 +7.6761626071e+01 1.5583668814e+02 1.3100000000e+02 0.0000e+00 0.0000e+00
      997  1    1    2    0    0 -1.7444370525e+01 -1.6179451166e+01 +3.7763319026e+02 4.2798704080e+02 2.0000000000e+02 0.0000e+00 0.0000e+00
</event>
<event>
 5      1 +6.7420000e-10 2.30298900e+02 7.95774700e-02 4.56714000e-01
       13 -1    0    0    0    0 +0.0000000000e+00 +0.0000000000e+00 +4.9999998884e+02 5.0000000000e+02 1.0566000000e-01 0.0000e+00 -1.0000e+00
      994 -1    0    0    0    0 -0.0000000000e+00 -0.0000000000e+00 +0.0000000000e+00 1.3100000000e+02 1.3100000000e+02 0.0000e+00 0.0000e+00
       13  1    1    2    0    0 +1.0014049087e+01 -6.8215615059e+00 +1.7297818761e+01 2.1119672782e+01 1.0566000000e-01 0.0000e+00 1.0000e+00
      994  1    1    2    0    0 +1.0783746335e+01 -4.4317007827e+01 +8.8874186687e+01 1.6474194192e+02 1.3100000000e+02 0.0000e+00 0.0000e+00
      997  1    1    2    0    0 -2.0797795422e+01 +5.1138569332e+01 +3.9382798339e+02 4.4513838530e+02 2.0000000000e+02 0.0000e+00 0.0000e+00
</event>
<event>
 5      1 +6.7420000e-10 2.51624600e+02 7.95774700e-02 4.31617500e-01
       13 -1    0    0    0    0 +0.0000000000e+00 +0.0000000000e+00 +4.9999998884e+02 5.0000000000e+02 1.0566000000e-01 0.0000e+00 -1.0000e+00
      994 -1    0    0    0    0 -0.0000000000e+00 -0.0000000000e+00 +0.0000000000e+00 1.3100000000e+02 1.3100000000e+02 0.0000e+00 0.0000e+00
       13  1    1    2    0    0 -7.7262030349e+00 -8.1401476633e+00 -1.3702093932e+01 1.7711994791e+01 1.0566000000e-01 0.0000e+00 1.0000e+00
      994  1    1    2    0    0 -1.9313342505e+01 +1.0765576817e+01 +1.9087154378e+02 2.3255504524e+02 1.3100000000e+02 0.0000e+00 0.0000e+00
      997  1    1    2    0    0 +2.7039545540e+01 -2.6254291541e+00 +3.2283053899e+02 3.8073295997e+02 2.0000000000e+02 0.0000e+00 0.0000e+00
</event>
<event>
 5      1 +6.7420000e-10 2.30427200e+02 7.95774700e-02 4.56546300e-01
       13 -1    0    0    0    0 +0.0000000000e+00 +0.0000000000e+00 +4.9999998884e+02 5.0000000000e+02 1.0566000000e-01 0.0000e+00 -1.0000e+00
      994 -1    0    0    0    0 -0.0000000000e+00 -0.0000000000e+00 +0.0000000000e+00 1.3100000000e+02 1.3100000000e+02 0.0000e+00 0.0000e+00
       13  1    1    2    0    0 +1.8690732991e+01 -7.4029350952e+00 +2.1556216591e+01 2.9475898384e+01 1.0566000000e-01 0.0000e+00 1.0000e+00
      994  1    1    2    0    0 -6.5440899109e+01 +4.4228258106e+01 +1.6523799460e+02 2.2517381054e+02 1.3100000000e+02 0.0000e+00 0.0000e+00
      997  1    1    2    0    0 +4.6750166118e+01 -3.6825323011e+01 +3.1320577764e+02 3.7635029108e+02 2.0000000000e+02 0.0000e+00 0.0000e+00
</event>
<event>
 5      1 +6.7420000e-10 2.47418700e+02 7.95774700e-02 4.36163700e-01
       13 -1    0    0    0    0 +0.0000000000e+00 +0.0000000000e+00 +4.9999998884e+02 5.0000000000e+02 1.0566000000e-01 0.0000e+00 1.0000e+00
      994 -1    0    0    0    0 -0.0000000000e+00 -0.0000000000e+00 +0.0000000000e+00 1.3100000000e+02 1.3100000000e+02 0.0000e+00 0.0000e+00
       13  1    1    2    0    0 -9.4164205545e+00 +3.4611827121e+01 +3.0594175153e+01 4.7145119260e+01 1.0566000000e-01 0.0000e+00 -1.0000e+00
      994  1    1    2    0    0 +5.5992005033e+00 +1.1677613738e+00 +1.1077808408e+02 1.7165517360e+02 1.3100000000e+02 0.0000e+00 0.0000e+00
      997  1    1    2    0    0 +3.8172200512e+00 -3.5779588495e+01 +3.5862772960e+02 4.1219970714e+02 2.0000000000e+02 0.0000e+00 0.0000e+00
</event>
<event>
 5      1 +6.7420000e-10 2.36766000e+02 7.95774700e-02 4.48534200e-01
       13 -1    0    0    0    0 +0.0000000000e+00 +0.0000000000e+00 +4.9999998884e+02 5.0000000000e+02 1.0566000000e-01 0.0000e+00 -1.0000e+00
      994 -1    0    0    0    0 -0.0000000000e+00 -0.0000000000e+00 +0.0000000000e+00 1.3100000000e+02 1.3100000000e+02 0.0000e+00 0.0000e+00
       13  1    1    2    0    0 -9.2492707303e+00 +1.0226089227e+01 +1.4120764808e+00 1.3860989645e+01 1.0566000000e-01 0.0000e+00 1.0000e+00
      994  1    1    2    0    0 +2.8970789929e+01 -2.6844320651e+00 +8.9531186335e+01 1.6131753213e+02 1.3100000000e+02 0.0000e+00 0.0000e+00
      997  1    1    2    0    0 -1.9721519199e+01 -7.5416571621e+00 +4.0905672602e+02 4.5582147823e+02 2.0000000000e+02 0.0000e+00 0.0000e+00
</event>
<event>
 5      1 +6.7420000e-10 2.37885300e+02 7.95774700e-02 4.47172500e-01
       13 -1    0    0    0    0 +0.0000000000e+00 +0.0000000000e+00 +4.9999998884e+02 5.0000000000e+02 1.0566000000e-01 0.0000e+00 1.0000e+00
      994 -1    0    0    0    0 -0.0000000000e+00 -0.0000000000e+00 +0.0000000000e+00 1.3100000000e+02 1.3100000000e+02 0.0000e+00 0.0000e+00
       13  1    1    2    0    0 +1.5110081908e+01 -1.4084995824e+01 +8.1586080924e+00 2.2209811631e+01 1.0566000000e-01 0.0000e+00 -1.0000e+00
      994  1    1    2    0    0 -3.2854139311e+01 +2.6718020535e+01 +1.0637915186e+02 1.7398497361e+02 1.3100000000e+02 0.0000e+00 0.0000e+00
      997  1    1    2    0    0 +1.7744057404e+01 -1.2633024711e+01 +3.8546222889e+02 4.3480521476e+02 2.0000000000e+02 0.0000e+00 0.0000e+00
</event>
<event>
 5      1 +6.7420000e-10 2.41633900e+02 7.95774700e-02 4.42721100e-01
       13 -1    0    0    0    0 +0.0000000000e+00 +0.0000000000e+00 +4.9999998884e+02 5.0000000000e+02 1.0566000000e-01 0.0000e+00 1.0000e+00
      994 -1    0    0    0    0 -0.0000000000e+00 -0.0000000000e+00 +0.0000000000e+00 1.3100000000e+02 1.3100000000e+02 0.0000e+00 0.0000e+00
       13  1    1    2    0    0 +2.6685715048e+01 +9.6413146824e+00 +9.2959019875e+01 9.7192967218e+01 1.0566000000e-01 0.0000e+00 -1.0000e+00
      994  1    1    2    0    0 -1.5228642470e+01 +5.2945214796e+00 +9.4715462222e+01 1.6245603188e+02 1.3100000000e+02 0.0000e+00 0.0000e+00
      997  1    1    2    0    0 -1.1457072578e+01 -1.4935836162e+01 +3.1232550674e+02 3.7135100091e+02 2.0000000000e+02 0.0000e+00 0.0000e+00
</event>
<event>
 5      1 +6.7420000e-10 2.32430900e+02 7.95774700e-02 4.53956900e-01
       13 -1    0    0    0    0 +0.0000000000e+00 +0.0000000000e+00 +4.9999998884e+02 5.0000000000e+02 1.0566000000e-01 0.0000e+00 -1.0000e+00
      994 -1    0    0    0    0 -0.0000000000e+00 -0.0000000000e+00 +0.0000000000e+00 1.3100000000e+02 1.3100000000e+02 0.0000e+00 0.0000e+00
       13  1    1    2    0    0 +1.4923401906e+01 +1.2056039455e+01 +2.8509943764e+01 3.4363993791e+01 1.0566000000e-01 0.0000e+00 1.0000e+00
      994  1    1    2    0    0 -6.4940078549e+01 +3.2299863519e+01 +2.4531886945e+02 2.8740710272e+02 1.3100000000e+02 0.0000e+00 0.0000e+00
      997  1    1    2    0    0 +5.0016676643e+01 -4.4355902974e+01 +2.2617117562e+02 3.0922890349e+02 2.0000000000e+02 0.0000e+00 0.0000e+00
</event>
<event>
 5      1 +6.7420000e-10 2.50030300e+02 7.95774700e-02 4.33319800e-01
       13 -1    0    0    0    0 +0.0000000000e+00 +0.0000000000e+00 +4.9999998884e+02 5.0000000000e+02 1.0566000000e-01 0.0000e+00 -1.0000e+00
      994 -1    0    0    0    0 -0.0000000000e+00 -0.0000000000e+00 +0.0000000000e+00 1.3100000000e+02 1.3100000000e+02 0.0000e+00 0.0000e+00
       13  1    1    2    0    0 +1.3720750222e+01 +2.8983954297e+01 +1.1786218272e+01 3.4165109374e+01 1.0566000000e-01 0.0000e+00 1.0000e+00
      994  1    1    2    0    0 -1.5150359568e+01 +2.8290792996e+01 +1.7827470407e+02 2.2354590686e+02 1.3100000000e+02 0.0000e+00 0.0000e+00
      997  1    1    2    0    0 +1.4296093455e+00 -5.7274747293e+01 +3.0993906650e+02 3.7328898377e+02 2.0000000000e+02 0.0000e+00 0.0000e+00
</event>
<event>
 5      1 +6.7420000e-10 2.41561600e+02 7.95774700e-02 4.42805400e-01
       13 -1    0    0    0    0 +0.0000000000e+00 +0.0000000000e+00 +4.9999998884e+02 5.0000000000e+02 1.0566000000e-01 0.0000e+00 -1.0000e+00
      994 -1    0    0    0    0 -0.0000000000e+00 -0.0000000000e+00 +0.0000000000e+00 1.3100000000e+02 1.3100000000e+02 0.0000e+00 0.0000e+00
       13  1    1    2    0    0 -3.1201550430e+00 -3.7562337048e+01 +7.3534733906e+01 8.2631911431e+01 1.0566000000e-01 0.0000e+00 1.0000e+00
      994  1    1    2    0    0 -1.5813359956e+01 +5.4658010408e+01 +1.6599378220e+02 2.1898058404e+02 1.3100000000e+02 0.0000e+00 0.0000e+00
      997  1    1    2    0    0 +1.8933514999e+01 -1.7095673360e+01 +2.6047147273e+02 3.2938750453e+02 2.0000000000e+02 0.0000e+00 0.0000e+00
</event>
<event>
 5      1 +6.7420000e-10 2.48236800e+02 7.95774700e-02 4.35265300e-01
       13 -1    0    0    0    0 +0.0000000000e+00 +0.0000000000e+00 +4.9999998884e+02 5.0000000000e+02 1.0566000000e-01 0.0000e+00 -1.0000e+00
      994 -1    0    0    0    0 -0.0000000000e+00 -0.0000000000e+00 +0.0000000000e+00 1.3100000000e+02 1.3100000000e+02 0.0000e+00 0.0000e+00
       13  1    1    2    0    0 +1.5882722525e+01 -5.6971117297e+00 -6.7218068573e+00 1.8163474567e+01 1.0566000000e-01 0.0000e+00 1.0000e+00
      994  1    1    2    0    0 -6.2153161994e+00 +3.1427591648e+01 +1.4110490708e+02 1.9518688090e+02 1.3100000000e+02 0.0000e+00 0.0000e+00
      997  1    1    2    0    0 -9.6674063259e+00 -2.5730479919e+01 +3.6561688861e+02 4.1764964454e+02 2.0000000000e+02 0.0000e+00 0.0000e+00
</event>
<event>
 5      1 +6.7420000e-10 2.43957600e+02 7.95774700e-02 4.40043100e-01
       13 -1    0    0    0    0 +0.0000000000e+00 +0.0000000000e+00 +4.9999998884e+02 5.0000000000e+02 1.0566000000e-01 0.0000e+00 -1.0000e+00
      994 -1    0    0    0    0 -0.0000000000e+00 -0.0000000000e+00 +0.0000000000e+00 1.3100000000e+02 1.3100000000e+02 0.0000e+00 0.0000e+00
       13  1    1    2    0    0 +1.1313177779e+01 +3.1680074223e+01 +3.9671689795e+01 5.2014125287e+01 1.0566000000e-01 0.0000e+00 1.0000e+00
      994  1    1    2    0    0 +1.3075631277e+01 -3.2076174879e+00 +1.0069204566e+02 1.6577439188e+02 1.3100000000e+02 0.0000e+00 0.0000e+00
      997  1    1    2    0    0 -2.4388809057e+01 -2.8472456735e+01 +3.5963625338e+02 4.1321148284e+02 2.0000000000e+02 0.0000e+00 0.0000e+00
</event>
<event>
 5      1 +6.7420000e-10 2.48019300e+02 7.95774700e-02 4.35503500e-01
       13 -1    0    0    0    0 +0.0000000000e+00 +0.0000000000e+00 +4.9999998884e+02 5.0000000000e+02 1.0566000000e-01 0.0000e+00 -1.0000e+00
      994 -1    0    0    0    0 -0.0000000000e+00 -0.0000000000e+00 +0.0000000000e+00 1.3100000000e+02 1.3100000000e+02 0.0000e+00 0.0000e+00
       13  1    1    2    0    0 -1.8032852570e+01 +1.0030737857e+01 -5.6258196914e+00 2.1388325905e+01 1.0566000000e-01 0.0000e+00 1.0000e+00
      994  1    1    2    0    0 +2.2842056149e+00 +3.2752728349e+01 +2.1455670086e+02 2.5352226075e+02 1.3100000000e+02 0.0000e+00 0.0000e+00
      997  1    1    2    0    0 +1.5748646955e+01 -4.2783466206e+01 +2.9106910767e+02 3.5608941335e+02 2.0000000000e+02 0.0000e+00 0.0000e+00
</event>
<event>
 5      1 +6.7420000e-10 2.28726500e+02 7.95774700e-02 4.58787500e-01
       13 -1    0    0    0    0 +0.0000000000e+00 +0.0000000000e+00 +4.9999998884e+02 5.0000000000e+02 1.0566000000e-01 0.0000e+00 -1.0000e+00
      994 -1    0    0    0    0 -0.0000000000e+00 -0.0000000000e+00 +0.0000000000e+00 1.3100000000e+02 1.3100000000e+02 0.0000e+00 0.0000e+00
       13  1    1    2    0    0 -9.9504216335e+00 +7.9797158315e+00 +2.8402955024e+01 3.1135602990e+01 1.0566000000e-01 0.0000e+00 1.0000e+00
      994  1    1    2    0    0 +1.7942042440e+01 -9.8276594540e-01 +6.6602788454e+01 1.4805341653e+02 1.3100000000e+02 0.0000e+00 0.0000e+00
      997  1    1    2    0    0 -7.9916208061e+00 -6.9969498861e+00 +4.0499424536e+02 4.5181098048e+02 2.0000000000e+02 0.0000e+00 0.0000e+00
</event>
<event>
 5      1 +6.7420000e-10 2.30863600e+02 7.95774700e-02 4.55977800e-01
       13 -1    0    0    0    0 +0.0000000000e+00 +0.0000000000e+00 +4.9999998884e+02 5.0000000000e+02 1.0566000000e-01 0.0000e+00 1.0000e+00
      994 -1    0    0    0    0 -0.0000000000e+00 -0.0000000000e+00 +0.0000000000e+00 1.3100000000e+02 1.3100000000e+02 0.0000e+00 0.0000e+00
       13  1    1    2    0    0 +1.2975909402e+01 -3.6611596390e+00 +7.9452911910e+00 1.5649828461e+01 1.0566000000e-01 0.0000e+00 -1.0000e+00
      994  1    1    2    0    0 +1.8628950175e+01 +7.6594823132e+01 +2.3111327756e+02 2.7710675159e+02 1.3100000000e+02 0.0000e+00 0.0000e+00
      997  1    1    2    0    0 -3.1604859577e+01 -7.2933663493e+01 +2.6094142009e+02 3.3824341995e+02 2.0000000000e+02 0.0000e+00 0.0000e+00
</event>
<event>
 5      1 +6.7420000e-10 2.51188500e+02 7.95774700e-02 4.32080700e-01
       13 -1    0    0    0    0 +0.0000000000e+00 +0.0000000000e+00 +4.9999998884e+02 5.0000000000e+02 1.0566000000e-01 0.0000e+00 -1.0000e+00
      994 -1    0    0    0    0 -0.0000000000e+00 -0.0000000000e+00 +0.0000000000e+00 1.3100000000e+02 1.3100000000e+02 0.0000e+00 0.0000e+00
       13  1    1    2    0    0 -2.6739199634e+01 -2.7679556624e+01 +1.8114848988e+01 4.2535885671e+01 1.0566000000e-01 0.0000e+00 1.0000e+00
      994  1    1    2    0    0 -1.5337110108e+01 +1.4793562494e+01 +2.0055831155e+02 2.4049680407e+02 1.3100000000e+02 0.0000e+00 0.0000e+00
      997  1    1    2    0    0 +4.2076309742e+01 +1.2885994129e+01 +2.8132682830e+02 3.4796731026e+02 2.0000000000e+02 0.0000e+00 0.0000e+00
</event>
<event>
 5      1 +6.7420000e-10 2.39640200e+02 7.95774700e-02 4.45068000e-01
       13 -1    0    0    0    0 +0.0000000000e+00 +0.0000000000e+00 +4.9999998884e+02 5.0000000000e+02 1.0566000000e-01 0.0000e+00 -1.0000e+00
      994 -1    0    0    0    0 -0.0000000000e+00 -0.0000000000e+00 +0.0000000000e+00 1.3100000000e+02 1.3100000000e+02 0.0000e+00 0.0000e+00
       13  1    1    2    0    0 +2.9171345990e+01 +2.9132393219e+00 +4.4248686133e+01 5.3079297082e+01 1.0566000000e-01 0.0000e+00 1.0000e+00
      994  1    1    2    0    0 -2.5077603543e+00 -1.5397798862e+01 +8.8983535471e+01 1.5913029459e+02 1.3100000000e+02 0.0000e+00 0.0000e+00
      997  1    1    2    0    0 -2.6663585636e+01 +1.2484559540e+01 +3.6676776723e+02 4.1879040833e+02 2.0000000000e+02 0.0000e+00 0.0000e+00
</event>
<event>
 5      1 +6.7420000e-10 2.36715900e+02 7.95774700e-02 4.48595600e-01
       13 -1    0    0    0    0 +0.0000000000e+00 +0.0000000000e+00 +4.9999998884e+02 5.0000000000e+02 1.0566000000e-01 0.0000e+00 1.0000e+00
      994 -1    0    0    0    0 -0.0000000000e+00 -0.0000000000e+00 +0.0000000000e+00 1.3100000000e+02 1.3100000000e+02 0.0000e+00 0.0000e+00
       13  1    1    2    0    0 -1.7717762817e+01 -1.5631742907e+01 +5.1256368822e+01 5.6440207427e+01 1.0566000000e-01 0.0000e+00 -1.0000e+00
      994  1    1    2    0    0 -3.7922811987e+00 -9.1153124113e+00 +8.0064004091e+01 1.5384640089e+02 1.3100000000e+02 0.0000e+00 0.0000e+00
      997  1    1    2    0    0 +2.1510044016e+01 +2.4747055318e+01 +3.6867961592e+02 4.2071339168e+02 2.0000000000e+02 0.0000e+00 0.0000e+00
</event>
<event>
 5      1 +6.7420000e-10 2.38510300e+02 7.95774700e-02 4.46418700e-01
       13 -1    0    0    0    0 +0.0000000000e+00 +0.0000000000e+00 +4.9999998884e+02 5.0000000000e+02 1.0566000000e-01 0.0000e+00 -1.0000e+00
      994 -1    0    0    0    0 -0.0000000000e+00 -0.0000000000e+00 +0.0000000000e+00 1.3100000000e+02 1.3100000000e+02 0.0000e+00 0.0000e+00
       13  1    1    2    0    0 +2.0611925622e+01 -2.2283157118e+01 +3.8611913720e+01 4.9114983601e+01 1.0566000000e-01 0.0000e+00 1.0000e+00
      994  1    1    2    0    0 -4.7104376773e+01 -6.2427416035e-01 +1.1587176493e+02 1.8112558610e+02 1.3100000000e+02 0.0000e+00 0.0000e+00
      997  1    1    2    0    0 +2.6492451151e+01 +2.2907431278e+01 +3.4551631018e+02 4.0075943030e+02 2.0000000000e+02 0.0000e+00 0.0000e+00
</event>
<event>
 5      1 +6.7420000e-10 2.47314200e+02 7.95774700e-02 4.36279000e-01
       13 -1    0    0    0    0 +0.0000000000e+00 +0.0000000000e+00 +4.9999998884e+02 5.0000000000e+02 1.0566000000e-01 0.0000e+00 1.0000e+00
      994 -1    0    0    0    0 -0.0000000000e+00 -0.0000000000e+00 +0.0000000000e+00 1.3100000000e+02 1.3100000000e+02 0.0000e+00 0.0000e+00
       13  1    1    2    0    0 +2.8302643169e+00 +3.1737443801e+01 +2.4613562496e+01 4.0263064437e+01 1.0566000000e-01 0.0000e+00 -1.0000e+00
      994  1    1    2    0    0 -1.5498993670e+01 +3.7710701060e+01 +1.6145790322e+02 2.1187725289e+02 1.3100000000e+02 0.0000e+00 0.0000e+00
      997  1    1    2    0    0 +1.2668729353e+01 -6.9448144861e+01 +3.1392852312e+02 3.7885968267e+02 2.0000000000e+02 0.0000e+00 0.0000e+00
</event>
<event>
 5      1 +6.7420000e-10 2.38514200e+02 7.95774700e-02 4.46414100e-01
       13 -1    0    0    0    0 +0.0000000000e+00 +0.0000000000e+00 +4.9999998884e+02 5.0000000000e+02 1.0566000000e-01 0.0000e+00 -1.0000e+00
      994 -1    0    0    0    0 -0.0000000000e+00 -0.0000000000e+00 +0.0000000000e+00 1.3100000000e+02 1.3100000000e+02 0.0000e+00 0.0000e+00
       13  1    1    2    0    0 -1.4694850487e+01 -6.2697193417e+00 +2.6115030689e+00 1.6188858013e+01 1.0566000000e-01 0.0000e+00 1.0000e+00
      994  1    1    2    0    0 +1.9002729424e+01 -3.2906189379e+00 +8.7788495600e+01 1.5887023591e+02 1.3100000000e+02 0.0000e+00 0.0000e+00
      997  1    1    2    0    0 -4.3078789372e+00 +9.5603382797e+00 +4.0959999017e+02 4.5594090608e+02 2.0000000000e+02 0.0000e+00 0.0000e+00
</event>
<event>
 5      1 +6.7420000e-10 2.33651300e+02 7.95774700e-02 4.52405800e-01
       13 -1    0    0    0    0 +0.0000000000e+00 +0.0000000000e+00 +4.9999998884e+02 5.0000000000e+02 1.0566000000e-01 0.0000e+00 1.0000e+00
      994 -1    0    0    0    0 -0.0000000000e+00 -0.0000000000e+00 +0.0000000000e+00 1.3100000000e+02 1.3100000000e+02 0.0000e+00 0.0000e+00
       13  1    1    2    0    0 +9.8435552736e+00 +1.1510727202e+01 +6.4650325365e+00 1.6468158090e+01 1.0566000000e-01 0.0000e+00 -1.0000e+00
      994  1    1    2    0    0 -1.4959914738e+01 -3.8648366942e+01 +9.2775769417e+01 1.6578853611e+02 1.3100000000e+02 0.0000e+00 0.0000e+00
      997  1    1    2    0    0 +5.1163594642e+00 +2.7137639739e+01 +4.0075918688e+02 4.4874330579e+02 2.0000000000e+02 0.0000e+00 0.0000e+00
</event>
<event>
 5      1 +6.7420000e-10 2.27854600e+02 7.95774700e-02 4.59952200e-01
       13 -1    0    0    0    0 +0.0000000000e+00 +0.0000000000e+00 +4.9999998884e+02 5.0000000000e+02 1.0566000000e-01 0.0000e+00 -1.0000e+00
      994 -1    0    0    0    0 -0.0000000000e+00 -0.0000000000e+00 +0.0000000000e+00 1.3100000000e+02 1.3100000000e+02 0.0000e+00 0.0000e+00
       13  1    1    2    0    0 -8.1313837524e+00 +6.6108054075e+00 +1.3450207915e+01 1.7051140925e+01 1.0566000000e-01 0.0000e+00 1.0000e+00
      994  1    1    2    0    0 -1.4439356333e+01 -4.6522968196e+01 +8.6553132234e+01 1.6439381461e+02 1.3100000000e+02 0.0000e+00 0.0000e+00
      997  1    1    2    0    0 +2.2570740085e+01 +3.9912162789e+01 +3.9999664869e+02 4.4955504447e+02 2.0000000000e+02 0.0000e+00 0.0000e+00
</event>
<event>
 5      1 +6.7420000e-10 2.36995800e+02 7.95774700e-02 4.48253300e-01
       13 -1    0    0    0    0 +0.0000000000e+00 +0.0000000000e+00 +4.9999998884e+02 5.0000000000e+02 1.0566000000e-01 0.0000e+00 -1.0000e+00
      994 -1    0    0    0    0 -0.0000000000e+00 -0.0000000000e+00 +0.0000000000e+00 1.3100000000e+02 1.3100000000e+02 0.0000e+00 0.0000e+00
       13  1    1    2    0    0 +1.6405114781e+01 -2.1861328937e+01 +3.8450499140e+01 4.7175179300e+01 1.0566000000e-01 0.0000e+00 1.0000e+00
      994  1    1    2    0    0 -2.9986422605e+01 +7.6769261757e+00 +9.1605553993e+01 1.6282106208e+02 1.3100000000e+02 0.0000e+00 0.0000e+00
      997  1    1    2    0    0 +1.3581307823e+01 +1.4184402762e+01 +3.6994393570e+02 4.2100375861e+02 2.0000000000e+02 0.0000e+00 0.0000e+00
</event>
<event>
 5      1 +6.7420000e-10 2.37590200e+02 7.95774700e-02 4.47530000e-01
       13 -1    0    0    0    0 +0.0000000000e+00 +0.0000000000e+00 +4.9999998884e+02 5.0000000000e+02 1.0566000000e-01 0.0000e+00 1.0000e+00
      994 -1    0    0    0    0 -0.0000000000e+00 -0.0000000000e+00 +0.0000000000e+00 1.3100000000e+02 1.3100000000e+02 0.0000e+00 0.0000e+00
       13  1    1    2    0    0 +2.8645487967e+01 -6.6841837842e+00 +1.5293455892e+01 3.3153329409e+01 1.0566000000e-01 0.0000e+00 -1.0000e+00
      994  1    1    2    0    0 -4.8113031227e+01 +2.9301254774e+01 +2.5206757083e+02 2.8960747154e+02 1.3100000000e+02 0.0000e+00 0.0000e+00
      997  1    1    2    0    0 +1.9467543260e+01 -2.2617070989e+01 +2.3263896211e+02 3.0823919905e+02 2.0000000000e+02 0.0000e+00 0.0000e+00
</event>
<event>
 5      1 +6.7420000e-10 2.46732500e+02 7.95774700e-02 4.36922700e-01
       13 -1    0    0    0    0 +0.0000000000e+00 +0.0000000000e+00 +4.9999998884e+02 5.0000000000e+02 1.0566000000e-01 0.0000e+00 1.0000e+00
      994 -1    0    0    0    0 -0.0000000000e+00 -0.0000000000e+00 +0.0000000000e+00 1.3100000000e+02 1.3100000000e+02 0.0000e+00 0.0000e+00
       13  1    1    2    0    0 -1.4581378364e+01 -7.4979729054e+00 -5.3559121388e+00 1.7249149300e+01 1.0566000000e-01 0.0000e+00 -1.0000e+00
      994  1    1    2    0    0 -1.9580184628e+01 +3.1663827162e+01 +1.4112526085e+02 1.9612067925e+02 1.3100000000e+02 0.0000e+00 0.0000e+00
      997  1    1    2    0    0 +3.4161562992e+01 -2.4165854256e+01 +3.6423064012e+02 4.1763017145e+02 2.0000000000e+02 0.0000e+00 0.0000e+00
</event>
<event>
 5      1 +6.7420000e-10 2.36741500e+02 7.95774700e-02 4.48564100e-01
       13 -1    0    0    0    0 +0.0000000000e+00 +0.0000000000e+00 +4.9999998884e+02 5.0000000000e+02 1.0566000000e-01 0.0000e+00 -1.0000e+00
      994 -1    0    0    0    0 -0.0000000000e+00 -0.0000000000e+00 +0.0000000000e+00 1.3100000000e+02 1.3100000000e+02 0.0000e+00 0.0000e+00
       13  1    1    2    0    0 +1.9234563735e+01 +1.3961895989e+00 +1.0515605632e+01 2.1966040001e+01 1.0566000000e-01 0.0000e+00 1.0000e+00
      994  1    1    2    0    0 -1.9975011999e+01 +2.7736506618e+01 +9.3755207930e+01 1.6467954918e+02 1.3100000000e+02 0.0000e+00 0.0000e+00
      997  1    1    2    0    0 +7.4044826383e-01 -2.9132696216e+01 +3.9572917527e+02 4.4435441082e+02 2.0000000000e+02 0.0000e+00 0.0000e+00
</event>
<event>
 5      1 +6.7420000e-10 2.33327800e+02 7.95774700e-02 4.52815000e-01
       13 -1    0    0    0    0 +0.0000000000e+00 +0.0000000000e+00 +4.9999998884e+02 5.0000000000e+02 1.0566000000e-01 0.0000e+00 -1.0000e+00
      994 -1    0    0    0    0 -0.0000000000e+00 -0.0000000000e+00 +0.0000000000e+00 1.3100000000e+02 1.3100000000e+02 0.0000e+00 0.0000e+00
       13  1    1    2    0    0 -1.4548513814e+01 -9.1128868873e+00 +2.8481354469e+01 3.3255115066e+01 1.0566000000e-01 0.0000e+00 1.0000e+00
      994  1    1    2    0    0 -1.4807927033e+01 -2.7611388030e+01 +8.2904427182e+01 1.5816386281e+02 1.3100000000e+02 0.0000e+00 0.0000e+00
      997  1    1    2    0    0 +2.9356440847e+01 +3.6724274918e+01 +3.8861420719e+02 4.3958102213e+02 2.0000000000e+02 0.0000e+00 0.0000e+00
</event>
<event>
 5      1 +6.7420000e-10 2.31979300e+02 7.95774700e-02 4.54535800e-01
       13 -1    0    0    0    0 +0.0000000000e+00 +0.0000000000e+00 +4.9999998884e+02 5.0000000000e+02 1.0566000000e-01 0.0000e+00 1.0000e+00
      994 -1    0    0    0    0 -0.0000000000e+00 -0.0000000000e+00 +0.0000000000e+00 1.3100000000e+02 1.3100000000e+02 0.0000e+00 0.0000e+00
       13  1    1    2    0    0 +1.7325583039e+01 -4.1596017297e+00 +2.7826135496e+01 3.3042141197e+01 1.0566000000e-01 0.0000e+00 -1.0000e+00
      994  1    1    2    0    0 -4.8539412291e+00 +2.4489824679e+01 +7.5926743862e+01 1.5345742957e+02 1.3100000000e+02 0.0000e+00 0.0000e+00
      997  1    1    2    0    0 -1.2471641810e+01 -2.0330222949e+01 +3.9624710948e+02 4.4450042923e+02 2.0000000000e+02 0.0000e+00 0.0000e+00
</event>
<event>
 5      1 +6.7420000e-10 2.38005900e+02 7.95774700e-02 4.47026600e-01
       13 -1    0    0    0    0 +0.0000000000e+00 +0.0000000000e+00 +4.9999998884e+02 5.0000000000e+02 1.0566000000e-01 0.0000e+00 1.0000e+00
      994 -1    0    0    0    0 -0.0000000000e+00 -0.0000000000e+00 +0.0000000000e+00 1.3100000000e+02 1.3100000000e+02 0.0000e+00 0.0000e+00
       13  1    1    2    0    0 -1.0561079117e+01 +1.4782423450e+01 +7.7893947764e+00 1.9767201881e+01 1.0566000000e-01 0.0000e+00 -1.0000e+00
      994  1    1    2    0    0 -1.4103309698e+01 -1.1284028428e+01 +8.5923650920e+01 1.5770258853e+02 1.3100000000e+02 0.0000e+00 0.0000e+00
      997  1    1    2    0    0 +2.4664388816e+01 -3.4983950215e+00 +4.0628694314e+02 4.5353020959e+02 2.0000000000e+02 0.0000e+00 0.0000e+00
</event>
<event>
 5      1 +6.7420000e-10 2.33747700e+02 7.95774700e-02 4.52284100e-01
       13 -1    0    0    0    0 +0.0000000000e+00 +0.0000000000e+00 +4.9999998884e+02 5.0000000000e+02 1.0566000000e-01 0.0000e+00 1.0000e+00
      994 -1    0    0    0    0 -0.0000000000e+00 -0.0000000000e+00 +0.0000000000e+00 1.3100000000e+02 1.3100000000e+02 0.0000e+00 0.0000e+00
       13  1    1    2    0    0 -7.6017830306e+00 -1.5281939380e+01 +1.6978824394e+01 2.4075224159e+01 1.0566000000e-01 0.0000e+00 -1.0000e+00
      994  1    1    2    0    0 +2.6805748568e+01 -2.4886912321e+01 +8.8205775468e+01 1.6210849881e+02 1.3100000000e+02 0.0000e+00 0.0000e+00
      997  1    1    2    0    0 -1.9203965537e+01 +4.0168851701e+01 +3.9481538897e+02 4.4481627703e+02 2.0000000000e+02 0.0000e+00 0.0000e+00
</event>
<event>
 5      1 +6.7420000e-10 2.29561600e+02 7.95774700e-02 4.57681900e-01
       13 -1    0    0    0    0 +0.0000000000e+00 +0.0000000000e+00 +4.9999998884e+02 5.0000000000e+02 1.0566000000e-01 0.0000e+00 -1.0000e+00
      994 -1    0    0    0    0 -0.0000000000e+00 -0.0000000000e+00 +0.0000000000e+00 1.3100000000e+02 1.3100000000e+02 0.0000e+00 0.0000e+00
       13  1    1    2    0    0 +7.7451623095e+00 -1.2735367739e+01 +2.3694931279e+01 2.7993536093e+01 1.0566000000e-01 0.0000e+00 1.0000e+00
      994  1    1    2    0    0 -1.7473554890e+01 +2.1681016571e+01 +7.2735700075e+01 1.5240365371e+02 1.3100000000e+02 0.0000e+00 0.0000e+00
      997  1    1    2    0    0 +9.7283925802e+00 -8.9456488319e+00 +4.0356935748e+02 4.5060281019e+02 2.0000000000e+02 0.0000e+00 0.0000e+00
</event>
<event>
 5      1 +6.7420000e-10 2.35687800e+02 7.95774700e-02 4.49860600e-01
       13 -1    0    0    0    0 +0.0000000000e+00 +0.0000000000e+00 +4.9999998884e+02 5.0000000000e+02 1.0566000000e-01 0.0000e+00 -1.0000e+00
      994 -1    0    0    0    0 -0.0000000000e+00 -0.0000000000e+00 +0.0000000000e+00 1.3100000000e+02 1.3100000000e+02 0.0000e+00 0.0000e+00
       13  1    1    2    0    0 -2.6031165367e+01 -2.1701826647e+00 +2.9225910526e+01 3.9198166708e+01 1.0566000000e-01 0.0000e+00 1.0000e+00
      994  1    1    2    0    0 +3.8998782333e+01 +4.1826284329e+01 +1.2356551279e+02 1.8894385154e+02 1.3100000000e+02 0.0000e+00 0.0000e+00
      997  1    1    2    0    0 -1.2967616966e+01 -3.9656101665e+01 +3.4720856552e+02 4.0285798175e+02 2.0000000000e+02 0.0000e+00 0.0000e+00
</event>
<event>
 5      1 +6.7420000e-10 2.35251300e+02 7.95774700e-02 4.50401600e-01
       13 -1    0    0    0    0 +0.0000000000e+00 +0.0000000000e+00 +4.9999998884e+02 5.0000000000e+02 1.0566000000e-01 0.0000e+00 1.0000e+00
      994 -1    0    0    0    0 -0.0000000000e+00 -0.0000000000e+00 +0.0000000000e+00 1.3100000000e+02 1.3100000000e+02 0.0000e+00 0.0000e+00
       13  1    1    2    0    0 +6.2792573776e+00 +2.2291928394e+01 +2.7929271981e+01 3.6282427457e+01 1.0566000000e-01 0.0000e+00 -1.0000e+00
      994  1    1    2    0    0 +1.9880112351e+01 -2.7636876263e+01 +8.9704823827e+01 1.6237909722e+02 1.3100000000e+02 0.0000e+00 0.0000e+00
      997  1    1    2    0    0 -2.6159369729e+01 +5.3449478689e+00 +3.8236589303e+02 4.3233847532e+02 2.0000000000e+02 0.0000e+00 0.0000e+00
</event>
<event>
 5      1 +6.7420000e-10 2.35675700e+02 7.95774700e-02 4.49875500e-01
       13 -1    0    0    0    0 +0.0000000000e+00 +0.0000000000e+00 +4.9999998884e+02 5.0000000000e+02 1.0566000000e-01 0.0000e+00 1.0000e+00
      994 -1    0    0    0    0 -0.0000000000e+00 -0.0000000000e+00 +0.0000000000e+00 1.3100000000e+02 1.3100000000e+02 0.0000e+00 0.0000e+00
       13  1    1    2    0    0 -1.3417783510e+01 +2.0451374917e+01 +3.9659414366e+01 4.6595879241e+01 1.0566000000e-01 0.0000e+00 -1.0000e+00
      994  1    1    2    0    0 -1.7253637207e-01 -1.6399672576e+01 +7.9779424457e+01 1.5425542323e+02 1.3100000000e+02 0.0000e+00 0.0000e+00
      997  1    1    2    0    0 +1.3590319882e+01 -4.0517023414e+00 +3.8056115001e+02 4.3014869753e+02 2.0000000000e+02 0.0000e+00 0.0000e+00
</event>
<event>
 5      1 +6.7420000e-10 2.41944400e+02 7.95774700e-02 4.42359800e-01
       13 -1    0    0    0    0 +0.0000000000e+00 +0.0000000000e+00 +4.9999998884e+02 5.0000000000e+02 1.0566000000e-01 0.0000e+00 -1.0000e+00
      994 -1    0    0    0    0 -0.0000000000e+00 -0.0000000000e+00 +0.0000000000e+00 1.3100000000e+02 1.3100000000e+02 0.0000e+00 0.0000e+00
       13  1    1    2    0    0 +1.1822460305e+01 -2.1914317653e+01 +2.0657831435e+01 3.2353748616e+01 1.0566000000e-01 0.0000e+00 1.0000e+00
      994  1    1    2    0    0 +2.5836428267e+01 -4.9544512289e+01 +2.0632231985e+02 2.5070316989e+02 1.3100000000e+02 0.0000e+00 0.0000e+00
      997  1    1    2    0    0 -3.7658888571e+01 +7.1458829941e+01 +2.7301983755e+02 3.4794308150e+02 2.0000000000e+02 0.0000e+00 0.0000e+00
</event>
<event>
 5      1 +6.7420000e-10 2.34635900e+02 7.95774700e-02 4.51168700e-01
       13 -1    0    0    0    0 +0.0000000000e+00 +0.0000000000e+00 +4.9999998884e+02 5.0000000000e+02 1.0566000000e-01 0.0000e+00 -1.0000e+00
      994 -1    0    0    0    0 -0.0000000000e+00 -0.0000000000e+00 +0.0000000000e+00 1.3100000000e+02 1.3100000000e+02 0.0000e+00 0.0000e+00
       13  1    1    2    0    0 -7.8613250088e+00 -2.2095152298e+01 +2.5725757997e+01 3.4811233453e+01 1.0566000000e-01 0.0000e+00 1.0000e+00
      994  1    1    2    0    0 +8.0069428225e+00 +3.8906240860e+01 +9.3553917072e+01 1.6580452983e+02 1.3100000000e+02 0.0000e+00 0.0000e+00
      997  1    1    2    0    0 -1.4561781367e-01 -1.6811088562e+01 +3.8072031377e+02 4.3038423672e+02 2.0000000000e+02 0.0000e+00 0.0000e+00
</event>
<event>
 5      1 +6.7420000e-10 2.42399500e+02 7.95774700e-02 4.41832100e-01
       13 -1    0    0    0    0 +0.0000000000e+00 +0.0000000000e+00 +4.9999998884e+02 5.0000000000e+02 1.0566000000e-01 0.0000e+00 1.0000e+00
      994 -1    0    0    0    0 -0.0000000000e+00 -0.0000000000e+00 +0.0000000000e+00 1.3100000000e+02 1.3100000000e+02 0.0000e+00 0.0000e+00
       13  1    1    2    0    0 -1.9798957580e+01 -2.3942770374e+01 +6.3198074247e+01 7.0422032966e+01 1.0566000000e-01 0.0000e+00 -1.0000e+00
      994  1    1    2    0    0 +4.9171787464e+01 -1.9379138363e+01 +2.1609219822e+02 2.5816710445e+02 1.3100000000e+02 0.0000e+00 0.0000e+00
      997  1    1    2    0    0 -2.9372829883e+01 +4.3321908737e+01 +2.2070971636e+02 3.0241086259e+02 2.0000000000e+02 0.0000e+00 0.0000e+00
</event>
<event>
 5      1 +6.7420000e-10 2.34083500e+02 7.95774700e-02 4.51861200e-01
       13 -1    0    0    0    0 +0.0000000000e+00 +0.0000000000e+00 +4.9999998884e+02 5.0000000000e+02 1.0566000000e-01 0.0000e+00 1.0000e+00
      994 -1    0    0    0    0 -0.0000000000e+00 -0.0000000000e+00 +0.0000000000e+00 1.3100000000e+02 1.3100000000e+02 0.0000e+00 0.0000e+00
       13  1    1    2    0    0 -2.3346154620e+01 +4.7773842346e-01 +3.5760905432e+01 4.2709772780e+01 1.0566000000e-01 0.0000e+00 -1.0000e+00
      994  1    1    2    0    0 +2.9804772316e+01 -3.4827527777e+00 +8.3672468096e+01 1.5831151549e+02 1.3100000000e+02 0.0000e+00 0.0000e+00
      997  1    1    2    0    0 -6.4586176961e+00 +3.0050143542e+00 +3.8056661531e+02 4.2997871173e+02 2.0000000000e+02 0.0000e+00 0.0000e+00
</event>
<event>
 5      1 +6.7420000e-10 2.38849100e+02 7.95774700e-02 4.46012100e-01
       13 -1    0    0    0    0 +0.0000000000e+00 +0.0000000000e+00 +4.9999998884e+02 5.0000000000e+02 1.0566000000e-01 0.0000e+00 -1.0000e+00
      994 -1    0    0    0    0 -0.0000000000e+00 -0.0000000000e+00 +0.0000000000e+00 1.3100000000e+02 1.3100000000e+02 0.0000e+00 0.0000e+00
       13  1    1    2    0    0 +2.3731745195e+01 +1.6316458721e+01 +2.3066397576e+01 3.6898406691e+01 1.0566000000e-01 0.0000e+00 1.0000e+00
      994  1    1    2    0    0 -3.7057492284e+01 -2.6752548908e+01 +1.1487022870e+02 1.8012530652e+02 1.3100000000e+02 0.0000e+00 0.0000e+00
      997  1    1    2    0    0 +1.3325747089e+01 +1.0436090187e+01 +3.6206336256e+02 4.1397628679e+02 2.0000000000e+02 0.0000e+00 0.0000e+00
</event>
<event>
 5      1 +6.7420000e-10 2.29521500e+02 7.95774700e-02 4.57734900e-01
       13 -1    0    0    0    0 +0.0000000000e+00 +0.0000000000e+00 +4.9999998884e+02 5.0000000000e+02 1.0566000000e-01 0.0000e+00 -1.0000e+00
      994 -1    0    0    0    0 -0.0000000000e+00 -0.0000000000e+00 +0.0000000000e+00 1.3100000000e+02 1.3100000000e+02 0.0000e+00 0.0000e+00
       13  1    1    2    0    0 +1.1986497326e+01 -1.0095716004e+01 +2.1836156419e+01 2.6878029894e+01 1.0566000000e-01 0.0000e+00 1.0000e+00
      994  1    1    2    0    0 -3.9831159435e+01 +2.1456249287e+01 +8.6638139141e+01 1.6344436071e+02 1.3100000000e+02 0.0000e+00 0.0000e+00
      997  1    1    2    0    0 +2.7844662109e+01 -1.1360533283e+01 +3.9152569328e+02 4.4067760939e+02 2.0000000000e+02 0.0000e+00 0.0000e+00
</event>
<event>
 5      1 +6.7420000e-10 2.46116100e+02 7.95774700e-02 4.37608700e-01
       13 -1    0    0    0    0 +0.0000000000e+00 +0.0000000000e+00 +4.9999998884e+02 5.0000000000e+02 1.0566000000e-01 0.0000e+00 1.0000e+00
      994 -1    0    0    0    0 -0.0000000000e+00 -0.0000000000e+00 +0.0000000000e+00 1.3100000000e+02 1.3100000000e+02 0.0000e+00 0.0000e+00
       13  1    1    2    0    0 -2.6411786790e+01 -3.4719304327e+01 +5.2371575622e+01 6.8160147238e+01 1.0566000000e-01 0.0000e+00 -1.0000e+00
      994  1    1    2    0    0 +2.1727304127e+01 +2.9463332972e+01 +1.3497355961e+02 1.9162209040e+02 1.3100000000e+02 0.0000e+00 0.0000e+00
      997  1    1    2    0    0 +4.6844826626e+00 +5.2559713544e+00 +3.1265485361e+02 3.7121776237e+02 2.0000000000e+02 0.0000e+00 0.0000e+00
</event>
<event>
 5      1 +6.7420000e-10 2.44128300e+02 7.95774700e-02 4.39848700e-01
       13 -1    0    0    0    0 +0.0000000000e+00 +0.0000000000e+00 +4.9999998884e+02 5.0000000000e+02 1.0566000000e-01 0.0000e+00 1.0000e+00
      994 -1    0    0    0    0 -0.0000000000e+00 -0.0000000000e+00 +0.0000000000e+00 1.3100000000e+02 1.3100000000e+02 0.0000e+00 0.0000e+00
       13  1    1    2    0    0 -2.4346905730e+01 -2.1576586467e+01 +9.3646256825e+01 9.9136035243e+01 1.0566000000e-01 0.0000e+00 -1.0000e+00
      994  1    1    2    0    0 +2.7498758418e+01 +4.3455302062e+01 +1.8941555425e+02 2.3597414516e+02 1.3100000000e+02 0.0000e+00 0.0000e+00
      997  1    1    2    0    0 -3.1518526877e+00 -2.1878715595e+01 +2.1693817776e+02 2.9588981959e+02 2.0000000000e+02 0.0000e+00 0.0000e+00
</event>
<event>
 5      1 +6.7420000e-10 2.34535800e+02 7.95774700e-02 4.51293800e-01
       13 -1    0    0    0    0 +0.0000000000e+00 +0.0000000000e+00 +4.9999998884e+02 5.0000000000e+02 1.0566000000e-01 0.0000e+00 1.0000e+00
      994 -1    0    0    0    0 -0.0000000000e+00 -0.0000000000e+00 +0.0000000000e+00 1.3100000000e+02 1.3100000000e+02 0.0000e+00 0.0000e+00
       13  1    1    2    0    0 -1.7580813918e+01 +7.6772259632e+00 +1.0366035190e+01 2.1805748464e+01 1.0566000000e-01 0.0000e+00 -1.0000e+00
      994  1    1    2    0    0 +4.9531210474e+01 -2.0200588908e+01 +1.1188097303e+02 1.8038779540e+02 1.3100000000e+02 0.0000e+00 0.0000e+00
      997  1    1    2    0    0 -3.1950396556e+01 +1.2523362945e+01 +3.7775298061e+02 4.2880645613e+02 2.0000000000e+02 0.0000e+00 0.0000e+00
</event>
<event>
 5      1 +6.7420000e-10 2.34211900e+02 7.95774700e-02 4.51699900e-01
       13 -1    0    0    0    0 +0.0000000000e+00 +0.0000000000e+00 +4.9999998884e+02 5.0000000000e+02 1.0566000000e-01 0.0000e+00 1.0000e+00
      994 -1    0    0    0    0 -0.0000000000e+00 -0.0000000000e+00 +0.0000000000e+00 1.3100000000e+02 1.3100000000e+02 0.0000e+00 0.0000e+00
       13  1    1    2    0    0 +1.3318840164e+01 -1.1763184141e+01 +1.1250715433e+01 2.1032207831e+01 1.0566000000e-01 0.0000e+00 -1.0000e+00
      994  1    1    2    0    0 -4.5395787538e+01 -7.1192883601e+00 +9.9621221855e+01 1.7087085660e+02 1.3100000000e+02 0.0000e+00 0.0000e+00
      997  1    1    2    0    0 +3.2076947374e+01 +1.8882472502e+01 +3.8912805155e+02 4.3909693556e+02 2.0000000000e+02 0.0000e+00 0.0000e+00
</event>
<event>
 5      1 +6.7420000e-10 2.39165000e+02 7.95774700e-02 4.45634200e-01
       13 -1    0    0    0    0 +0.0000000000e+00 +0.0000000000e+00 +4.9999998884e+02 5.0000000000e+02 1.0566000000e-01 0.0000e+00 1.0000e+00
      994 -1    0    0    0    0 -0.0000000000e+00 -0.0000000000e+00 +0.0000000000e+00 1.3100000000e+02 1.3100000000e+02 0.0000e+00 0.0000e+00
       13  1    1    2    0    0 -1.1676701408e+01 +2.1982237580e+01 +2.5841460314e+01 3.5879748606e+01 1.0566000000e-01 0.0000e+00 -1.0000e+00
      994  1    1    2    0    0 +3.1689229261e+01 +3.1673005921e+01 +1.1465069513e+02 1.7975863943e+02 1.3100000000e+02 0.0000e+00 0.0000e+00
      997  1    1    2    0    0 -2.0012527853e+01 -5.3655243501e+01 +3.5950783339e+02 4.1536161196e+02 2.0000000000e+02 0.0000e+00 0.0000e+00
</event>
<event>
 5      1 +6.7420000e-10 2.34024400e+02 7.95774700e-02 4.51935500e-01
       13 -1    0    0    0    0 +0.0000000000e+00 +0.0000000000e+00 +4.9999998884e+02 5.0000000000e+02 1.0566000000e-01 0.0000e+00 -1.0000e+00
      994 -1    0    0    0    0 -0.0000000000e+00 -0.0000000000e+00 +0.0000000000e+00 1.3100000000e+02 1.3100000000e+02 0.0000e+00 0.0000e+00
       13  1    1    2    0    0 +2.1127681669e+00 +1.6017752292e+01 +1.0408213684e+01 1.9219111684e+01 1.0566000000e-01 0.0000e+00 1.0000e+00
      994  1    1    2    0    0 +1.0220276408e+01 -1.4132151562e+01 +7.6624671202e+01 1.5276292742e+02 1.3100000000e+02 0.0000e+00 0.0000e+00
      997  1    1    2    0    0 -1.2333044575e+01 -1.8856007296e+00 +4.1296710395e+02 4.5901796089e+02 2.0000000000e+02 0.0000e+00 0.0000e+00
</event>
<event>
 5      1 +6.7420000e-10 2.41719600e+02 7.95774700e-02 4.42621300e-01
       13 -1    0    0    0    0 +0.0000000000e+00 +0.0000000000e+00 +4.9999998884e+02 5.0000000000e+02 1.0566000000e-01 0.0000e+00 1.0000e+00
      994 -1    0    0    0    0 -0.0000000000e+00 -0.0000000000e+00 +0.0000000000e+00 1.3100000000e+02 1.3100000000e+02 0.0000e+00 0.0000e+00
       13  1    1    2    0    0 +9.0579236486e+00 -2.5902064018e+01 +1.1922163463e+01 2.9918423202e+01 1.0566000000e-01 0.0000e+00 -1.0000e+00
      994  1    1    2    0    0 +7.9126763442e+00 +4.8043886143e+01 +1.3485858579e+02 1.9421293367e+02 1.3100000000e+02 0.0000e+00 0.0000e+00
      997  1    1    2    0    0 -1.6970599993e+01 -2.2141822126e+01 +3.5321923958e+02 4.0686864313e+02 2.0000000000e+02 0.0000e+00 0.0000e+00
</event>
<event>
 5      1 +6.7420000e-10 2.42987700e+02 7.95774700e-02 4.41153600e-01
       13 -1    0    0    0    0 +0.0000000000e+00 +0.0000000000e+00 +4.9999998884e+02 5.0000000000e+02 1.0566000000e-01 0.0000e+00 -1.0000e+00
      994 -1    0    0    0    0 -0.0000000000e+00 -0.0000000000e+00 +0.0000000000e+00 1.3100000000e+02 1.3100000000e+02 0.0000e+00 0.0000e+00
       13  1    1    2    0    0 -3.1855106956e+01 -7.6710380264e+00 +1.5202190897e+01 3.6120775680e+01 1.0566000000e-01 0.0000e+00 1.0000e+00
      994  1    1    2    0    0 +9.9332030743e+00 +2.3281840933e+01 +2.6370015985e+02 2.9553254803e+02 1.3100000000e+02 0.0000e+00 0.0000e+00
      997  1    1    2    0    0 +2.1921903882e+01 -1.5610802906e+01 +2.2109763809e+02 2.9934667629e+02 2.0000000000e+02 0.0000e+00 0.0000e+00
</event>
<event>
 5      1 +6.7420000e-10 2.48216400e+02 7.95774700e-02 4.35287600e-01
       13 -1    0    0    0    0 +0.0000000000e+00 +0.0000000000e+00 +4.9999998884e+02 5.0000000000e+02 1.0566000000e-01 0.0000e+00 -1.0000e+00
      994 -1    0    0    0    0 -0.0000000000e+00 -0.0000000000e+00 +0.0000000000e+00 1.3100000000e+02 1.3100000000e+02 0.0000e+00 0.0000e+00
       13  1    1    2    0    0 +1.1377498447e+01 -2.6544548154e+01 +1.1248142430e+01 3.0993424783e+01 1.0566000000e-01 0.0000e+00 1.0000e+00
      994  1    1    2    0    0 +1.3506846079e+01 -4.1301328674e+00 +1.1786519844e+02 1.7678432592e+02 1.3100000000e+02 0.0000e+00 0.0000e+00
      997  1    1    2    0    0 -2.4884344526e+01 +3.0674681021e+01 +3.7088664797e+02 4.2322224930e+02 2.0000000000e+02 0.0000e+00 0.0000e+00
</event>
<event>
 5      1 +6.7420000e-10 2.47891200e+02 7.95774700e-02 4.35644000e-01
       13 -1    0    0    0    0 +0.0000000000e+00 +0.0000000000e+00 +4.9999998884e+02 5.0000000000e+02 1.0566000000e-01 0.0000e+00 1.0000e+00
      994 -1    0    0    0    0 -0.0000000000e+00 -0.0000000000e+00 +0.0000000000e+00 1.3100000000e+02 1.3100000000e+02 0.0000e+00 0.0000e+00
       13  1    1    2    0    0 +1.1867434589e+01 -6.7468928419e+00 -8.3449701242e+00 1.6000195535e+01 1.0566000000e-01 0.0000e+00 -1.0000e+00
      994  1    1    2    0    0 +2.8736243723e+01 -2.7476151293e+01 +1.6838837254e+02 2.1701694542e+02 1.3100000000e+02 0.0000e+00 0.0000e+00
      997  1    1    2    0    0 -4.0603678312e+01 +3.4223044135e+01 +3.3995658642e+02 3.9798285905e+02 2.0000000000e+02 0.0000e+00 0.0000e+00
</event>
<event>
 5      1 +6.7420000e-10 2.33979900e+02 7.95774700e-02 4.51991500e-01
       13 -1    0    0    0    0 +0.0000000000e+00 +0.0000000000e+00 +4.9999998884e+02 5.0000000000e+02 1.0566000000e-01 0.0000e+00 -1.0000e+00
      994 -1    0    0    0    0 -0.0000000000e+00 -0.0000000000e+00 +0.0000000000e+00 1.3100000000e+02 1.3100000000e+02 0.0000e+00 0.0000e+00
       13  1    1    2    0    0 -2.1336046144e+01 +1.0722539950e+00 +4.7734419978e+01 5.2296869968e+01 1.0566000000e-01 0.0000e+00 1.0000e+00
      994  1    1    2    0    0 +1.1150925850e+01 -2.3659083553e+01 +8.0881327713e+01 1.5616300636e+02 1.3100000000e+02 0.0000e+00 0.0000e+00
      997  1    1    2    0    0 +1.0185120295e+01 +2.2586829558e+01 +3.7138424114e+02 4.2254012368e+02 2.0000000000e+02 0.0000e+00 0.0000e+00
</event>
<event>
 5      1 +6.7420000e-10 2.53035900e+02 7.95774700e-02 4.30131300e-01
       13 -1    0    0    0    0 +0.0000000000e+00 +0.0000000000e+00 +4.9999998884e+02 5.0000000000e+02 1.0566000000e-01 0.0000e+00 1.0000e+00
      994 -1    0    0    0    0 -0.0000000000e+00 -0.0000000000e+00 +0.0000000000e+00 1.3100000000e+02 1.3100000000e+02 0.0000e+00 0.0000e+00
       13  1    1    2    0    0 +8.1325747365e+00 +3.6260619066e+01 +1.3898998989e+01 3.9675743268e+01 1.0566000000e-01 0.0000e+00 -1.0000e+00
      994  1    1    2    0    0 -1.4790811701e+01 +7.8286609205e-01 +1.6558463604e+02 2.1165692212e+02 1.3100000000e+02 0.0000e+00 0.0000e+00
      997  1    1    2    0    0 +6.6582369647e+00 -3.7043485158e+01 +3.2051635380e+02 3.7966733461e+02 2.0000000000e+02 0.0000e+00 0.0000e+00
</event>
<event>
 5      1 +6.7420000e-10 2.38698200e+02 7.95774700e-02 4.46193100e-01
       13 -1    0    0    0    0 +0.0000000000e+00 +0.0000000000e+00 +4.9999998884e+02 5.0000000000e+02 1.0566000000e-01 0.0000e+00 -1.0000e+00
      994 -1    0    0    0    0 -0.0000000000e+00 -0.0000000000e+00 +0.0000000000e+00 1.3100000000e+02 1.3100000000e+02 0.0000e+00 0.0000e+00
       13  1    1    2    0    0 +2.1683032241e+01 -2.6311183561e+01 +2.6247235096e+01 4.3027442194e+01 1.0566000000e-01 0.0000e+00 1.0000e+00
      994  1    1    2    0    0 -4.6409894966e+01 +4.3532724889e+01 +2.1130528210e+02 2.5663183499e+02 1.3100000000e+02 0.0000e+00 0.0000e+00
      997  1    1    2    0    0 +2.4726862726e+01 -1.7221541328e+01 +2.6244747165e+02 3.3134072282e+02 2.0000000000e+02 0.0000e+00 0.0000e+00
</event>
<event>
 5      1 +6.7420000e-10 2.51443300e+02 7.95774700e-02 4.31809700e-01
       13 -1    0    0    0    0 +0.0000000000e+00 +0.0000000000e+00 +4.9999998884e+02 5.0000000000e+02 1.0566000000e-01 0.0000e+00 1.0000e+00
      994 -1    0    0    0    0 -0.0000000000e+00 -0.0000000000e+00 +0.0000000000e+00 1.3100000000e+02 1.3100000000e+02 0.0000e+00 0.0000e+00
       13  1    1    2    0    0 -1.8923616728e+01 -5.5753113258e-01 -7.9969814284e+00 2.0551812257e+01 1.0566000000e-01 0.0000e+00 -1.0000e+00
      994  1    1    2    0    0 +2.0439628302e+01 +4.0424585412e+00 +1.4906101645e+02 1.9953522622e+02 1.3100000000e+02 0.0000e+00 0.0000e+00
      997  1    1    2    0    0 -1.5160115742e+00 -3.4849274086e+00 +3.5893595381e+02 4.1091296152e+02 2.0000000000e+02 0.0000e+00 0.0000e+00
</event>
<event>
 5      1 +6.7420000e-10 2.41942300e+02 7.95774700e-02 4.42362200e-01
       13 -1    0    0    0    0 +0.0000000000e+00 +0.0000000000e+00 +4.9999998884e+02 5.0000000000e+02 1.0566000000e-01 0.0000e+00 -1.0000e+00
      994 -1    0    0    0    0 -0.0000000000e+00 -0.0000000000e+00 +0.0000000000e+00 1.3100000000e+02 1.3100000000e+02 0.0000e+00 0.0000e+00
       13  1    1    2    0    0 -1.5138535975e+01 -1.0987961184e+01 +2.8310936754e+00 1.8919218215e+01 1.0566000000e-01 0.0000e+00 1.0000e+00
      994  1    1    2    0    0 -6.9258125032e+00 +1.6175667729e+01 +9.6365789369e+01 1.6357562308e+02 1.3100000000e+02 0.0000e+00 0.0000e+00
      997  1    1    2    0    0 +2.2064348478e+01 -5.1877065449e+00 +4.0080310579e+02 4.4850515870e+02 2.0000000000e+02 0.0000e+00 0.0000e+00
</event>
<event>
 5      1 +6.7420000e-10 2.48874200e+02 7.95774700e-02 4.34570100e-01
       13 -1    0    0    0    0 +0.0000000000e+00 +0.0000000000e+00 +4.9999998884e+02 5.0000000000e+02 1.0566000000e-01 0.0000e+00 1.0000e+00
      994 -1    0    0    0    0 -0.0000000000e+00 -0.0000000000e+00 +0.0000000000e+00 1.3100000000e+02 1.3100000000e+02 0.0000e+00 0.0000e+00
       13  1    1    2    0    0 -3.4629435360e+01 +2.4284225802e+00 +1.7790776610e+01 3.9007921323e+01 1.0566000000e-01 0.0000e+00 -1.0000e+00
      994  1    1    2    0    0 -4.7655184377e+00 -3.6292429487e+01 +1.7245721971e+02 2.1964139691e+02 1.3100000000e+02 0.0000e+00 0.0000e+00
      997  1    1    2    0    0 +3.9394953797e+01 +3.3864006906e+01 +3.0975199252e+02 3.7235068177e+02 2.0000000000e+02 0.0000e+00 0.0000e+00
</event>
<event>
 5      1 +6.7420000e-10 2.36865500e+02 7.95774700e-02 4.48412500e-01
       13 -1    0    0    0    0 +0.0000000000e+00 +0.0000000000e+00 +4.9999998884e+02 5.0000000000e+02 1.0566000000e-01 0.0000e+00 -1.0000e+00
      994 -1    0    0    0    0 -0.0000000000e+00 -0.0000000000e+00 +0.0000000000e+00 1.3100000000e+02 1.3100000000e+02 0.0000e+00 0.0000e+00
       13  1    1    2    0    0 +2.3069237857e+00 +1.7725546810e+01 +1.2524905661e+01 2.1826619824e+01 1.0566000000e-01 0.0000e+00 1.0000e+00
      994  1    1    2    0    0 +4.4196632368e+00 +3.1853688355e+01 +9.2277300607e+01 1.6343283358e+02 1.3100000000e+02 0.0000e+00 0.0000e+00
      997  1    1    2    0    0 -6.7265870225e+00 -4.9579235165e+01 +3.9519778257e+02 4.4574054660e+02 2.0000000000e+02 0.0000e+00 0.0000e+00
</event>
<event>
 5      1 +6.7420000e-10 2.43087600e+02 7.95774700e-02 4.41038600e-01
       13 -1    0    0    0    0 +0.0000000000e+00 +0.0000000000e+00 +4.9999998884e+02 5.0000000000e+02 1.0566000000e-01 0.0000e+00 1.0000e+00
      994 -1    0    0    0    0 -0.0000000000e+00 -0.0000000000e+00 +0.0000000000e+00 1.3100000000e+02 1.3100000000e+02 0.0000e+00 0.0000e+00
       13  1    1    2    0    0 -2.6205132774e+01 +1.7827174563e+01 +5.7342405444e+01 6.5518545182e+01 1.0566000000e-01 0.0000e+00 -1.0000e+00
      994  1    1    2    0    0 -1.0400724490e+01 +1.4107269371e+01 +9.9886940475e+01 1.6566710898e+02 1.3100000000e+02 0.0000e+00 0.0000e+00
      997  1    1    2    0    0 +3.6605857264e+01 -3.1934443934e+01 +3.4277064292e+02 3.9981434584e+02 2.0000000000e+02 0.0000e+00 0.0000e+00
</event>
<event>
 5      1 +6.7420000e-10 2.48428800e+02 7.95774700e-02 4.35055500e-01
       13 -1    0    0    0    0 +0.0000000000e+00 +0.0000000000e+00 +4.9999998884e+02 5.0000000000e+02 1.0566000000e-01 0.0000e+00 1.0000e+00
      994 -1    0    0    0    0 -0.0000000000e+00 -0.0000000000e+00 +0.0000000000e+00 1.3100000000e+02 1.3100000000e+02 0.0000e+00 0.0000e+00
       13  1    1    2    0    0 +5.5325061956e+00 -3.3560704989e+01 +2.3059091402e+01 4.1093337714e+01 1.0566000000e-01 0.0000e+00 -1.0000e+00
      994  1    1    2    0    0 -1.3455173822e+01 -1.1128453298e+01 +1.2138763452e+02 1.7944593054e+02 1.3100000000e+02 0.0000e+00 0.0000e+00
      997  1    1    2    0    0 +7.9226676266e+00 +4.4689158287e+01 +3.5555326292e+02 4.1046073174e+02 2.0000000000e+02 0.0000e+00 0.0000e+00
</event>
<event>
 5      1 +6.7420000e-10 2.44511300e+02 7.95774700e-02 4.39413800e-01
       13 -1    0    0    0    0 +0.0000000000e+00 +0.0000000000e+00 +4.9999998884e+02 5.0000000000e+02 1.0566000000e-01 0.0000e+00 1.0000e+00
      994 -1    0    0    0    0 -0.0000000000e+00 -0.0000000000e+00 +0.0000000000e+00 1.3100000000e+02 1.3100000000e+02 0.0000e+00 0.0000e+00
       13  1    1    2    0    0 -1.9894314364e+01 +2.5484678841e+01 +2.4843227530e+01 4.0773149471e+01 1.0566000000e-01 0.0000e+00 -1.0000e+00
      994  1    1    2    0    0 +3.7790467684e+01 +2.5446965134e+01 +1.4657879556e+02 2.0179695436e+02 1.3100000000e+02 0.0000e+00 0.0000e+00
      997  1    1    2    0    0 -1.7896153320e+01 -5.0931643975e+01 +3.2857796575e+02 3.8842989617e+02 2.0000000000e+02 0.0000e+00 0.0000e+00
</event>
<event>
 5      1 +6.7420000e-10 2.47352100e+02 7.95774700e-02 4.36237200e-01
       13 -1    0    0    0    0 +0.0000000000e+00 +0.0000000000e+00 +4.9999998884e+02 5.0000000000e+02 1.0566000000e-01 0.0000e+00 -1.0000e+00
      994 -1    0    0    0    0 -0.0000000000e+00 -0.0000000000e+00 +0.0000000000e+00 1.3100000000e+02 1.3100000000e+02 0.0000e+00 0.0000e+00
       13  1    1    2    0    0 +2.4527205214e+01 -2.0886866248e+01 +2.1011867471e+01 3.8462380529e+01 1.0566000000e-01 0.0000e+00 1.0000e+00
      994  1    1    2    0    0 +7.3378881447e+00 -2.1345427054e+00 +1.1101081437e+02 1.7188019601e+02 1.3100000000e+02 0.0000e+00 0.0000e+00
      997  1    1    2    0    0 -3.1865093359e+01 +2.3021408954e+01 +3.6797730700e+02 4.2065742346e+02 2.0000000000e+02 0.0000e+00 0.0000e+00
</event>
<event>
 5      1 +6.7420000e-10 2.37710600e+02 7.95774700e-02 4.47384000e-01
       13 -1    0    0    0    0 +0.0000000000e+00 +0.0000000000e+00 +4.9999998884e+02 5.0000000000e+02 1.0566000000e-01 0.0000e+00 -1.0000e+00
      994 -1    0    0    0    0 -0.0000000000e+00 -0.0000000000e+00 +0.0000000000e+00 1.3100000000e+02 1.3100000000e+02 0.0000e+00 0.0000e+00
       13  1    1    2    0    0 +7.6860221081e+00 +2.9513526060e+01 +5.0127209421e+01 5.8675986952e+01 1.0566000000e-01 0.0000e+00 1.0000e+00
      994  1    1    2    0    0 +2.9706630159e+01 -4.7219032730e+01 +1.2995575365e+02 1.9277349101e+02 1.3100000000e+02 0.0000e+00 0.0000e+00
      997  1    1    2    0    0 -3.7392652268e+01 +1.7705506670e+01 +3.1991702576e+02 3.7955052204e+02 2.0000000000e+02 0.0000e+00 0.0000e+00
</event>
<event>
 5      1 +6.7420000e-10 2.37878700e+02 7.95774700e-02 4.47180500e-01
       13 -1    0    0    0    0 +0.0000000000e+00 +0.0000000000e+00 +4.9999998884e+02 5.0000000000e+02 1.0566000000e-01 0.0000e+00 -1.0000e+00
      994 -1    0    0    0    0 -0.0000000000e+00 -0.0000000000e+00 +0.0000000000e+00 1.3100000000e+02 1.3100000000e+02 0.0000e+00 0.0000e+00
       13  1    1    2    0    0 +2.5601169126e+01 +5.0108016722e+00 +4.2833926783e+01 5.0152611514e+01 1.0566000000e-01 0.0000e+00 1.0000e+00
      994  1    1    2    0    0 -1.1553150312e+00 +1.9113717741e+01 +8.6127778033e+01 1.5794196120e+02 1.3100000000e+02 0.0000e+00 0.0000e+00
      997  1    1    2    0    0 -2.4445854095e+01 -2.4124519413e+01 +3.7103828402e+02 4.2290542729e+02 2.0000000000e+02 0.0000e+00 0.0000e+00
</event>
<event>
 5      1 +6.7420000e-10 2.34584200e+02 7.95774700e-02 4.51233300e-01
       13 -1    0    0    0    0 +0.0000000000e+00 +0.0000000000e+00 +4.9999998884e+02 5.0000000000e+02 1.0566000000e-01 0.0000e+00 -1.0000e+00
      994 -1    0    0    0    0 -0.0000000000e+00 -0.0000000000e+00 +0.0000000000e+00 1.3100000000e+02 1.3100000000e+02 0.0000e+00 0.0000e+00
       13  1    1    2    0    0 +5.0203500872e+00 -1.3511243462e+01 +5.3973151658e+00 1.5391549302e+01 1.0566000000e-01 0.0000e+00 1.0000e+00
      994  1    1    2    0    0 -4.3658986167e+01 -6.0155916189e+00 +9.8342960174e+01 1.6963087051e+02 1.3100000000e+02 0.0000e+00 0.0000e+00
      997  1    1    2    0    0 +3.8638636079e+01 +1.9526835081e+01 +3.9625971350e+02 4.4597758018e+02 2.0000000000e+02 0.0000e+00 0.0000e+00
</event>
<event>
 5      1 +6.7420000e-10 2.33233500e+02 7.95774700e-02 4.52934600e-01
       13 -1    0    0    0    0 +0.0000000000e+00 +0.0000000000e+00 +4.9999998884e+02 5.0000000000e+02 1.0566000000e-01 0.0000e+00 1.0000e+00
      994 -1    0    0    0    0 -0.0000000000e+00 -0.0000000000e+00 +0.0000000000e+00 1.3100000000e+02 1.3100000000e+02 0.0000e+00 0.0000e+00
       13  1    1    2    0    0 -8.2346503721e-01 -1.7875096534e+01 +2.8255297767e+01 3.3445032318e+01 1.0566000000e-01 0.0000e+00 -1.0000e+00
      994  1    1    2    0    0 +2.0066898645e+01 -1.5244731304e+01 +7.8687601237e+01 1.5488002080e+02 1.3100000000e+02 0.0000e+00 0.0000e+00
      997  1    1    2    0    0 -1.9243433607e+01 +3.3119827838e+01 +3.9305708983e+02 4.4267494688e+02 2.0000000000e+02 0.0000e+00 0.0000e+00
</event>
<event>
 5      1 +6.7420000e-10 2.32846500e+02 7.95774700e-02 4.53426400e-01
       13 -1    0    0    0    0 +0.0000000000e+00 +0.0000000000e+00 +4.9999998884e+02 5.0000000000e+02 1.0566000000e-01 0.0000e+00 1.0000e+00
      994 -1    0    0    0    0 -0.0000000000e+00 -0.0000000000e+00 +0.0000000000e+00 1.3100000000e+02 1.3100000000e+02 0.0000e+00 0.0000e+00
       13  1    1    2    0    0 +2.0949174084e+00 +1.9298427021e+01 +2.6854620840e+01 3.3136079866e+01 1.0566000000e-01 0.0000e+00 -1.0000e+00
      994  1    1    2    0    0 -9.6963948251e+00 -1.5827468205e+01 +7.4644152453e+01 1.5191207430e+02 1.3100000000e+02 0.0000e+00 0.0000e+00
      997  1    1    2    0    0 +7.6014774168e+00 -3.4709588163e+00 +3.9850121554e+02 4.4595184583e+02 2.0000000000e+02 0.0000e+00 0.0000e+00
</event>
<event>
 5      1 +6.7420000e-10 2.36757000e+02 7.95774700e-02 4.48545200e-01
       13 -1    0    0    0    0 +0.0000000000e+00 +0.0000000000e+00 +4.9999998884e+02 5.0000000000e+02 1.0566000000e-01 0.0000e+00 1.0000e+00
      994 -1    0    0    0    0 -0.0000000000e+00 -0.0000000000e+00 +0.0000000000e+00 1.3100000000e+02 1.3100000000e+02 0.0000e+00 0.0000e+00
       13  1    1    2    0    0 -1.8975249917e+01 -1.0409951483e+01 +2.1205140383e+01 3.0300104653e+01 1.0566000000e-01 0.0000e+00 -1.0000e+00
      994  1    1    2    0    0 -1.2375308053e+01 +1.4199647048e+01 +8.3278350811e+01 1.5636835338e+02 1.3100000000e+02 0.0000e+00 0.0000e+00
      997  1    1    2    0    0 +3.1350557970e+01 -3.7896955656e+00 +3.9551649764e+02 4.4433154196e+02 2.0000000000e+02 0.0000e+00 0.0000e+00
</event>
<event>
 5      1 +6.7420000e-10 2.36741400e+02 7.95774700e-02 4.48564300e-01
       13 -1    0    0    0    0 +0.0000000000e+00 +0.0000000000e+00 +4.9999998884e+02 5.0000000000e+02 1.0566000000e-01 0.0000e+00 -1.0000e+00
      994 -1    0    0    0    0 -0.0000000000e+00 -0.0000000000e+00 +0.0000000000e+00 1.3100000000e+02 1.3100000000e+02 0.0000e+00 0.0000e+00
       13  1    1    2    0    0 +1.6659282015e+01 +3.0464524363e-01 +8.1261810805e+01 8.2952501742e+01 1.0566000000e-01 0.0000e+00 1.0000e+00
      994  1    1    2    0    0 -2.6806369654e+01 +4.5321105436e+01 +1.1875560392e+02 1.8448977618e+02 1.3100000000e+02 0.0000e+00 0.0000e+00
      997  1    1    2    0    0 +1.0147087639e+01 -4.5625750680e+01 +2.9998257412e+02 3.6355772208e+02 2.0000000000e+02 0.0000e+00 0.0000e+00
</event>
<event>
 5      1 +6.7420000e-10 2.36626500e+02 7.95774700e-02 4.48705000e-01
       13 -1    0    0    0    0 +0.0000000000e+00 +0.0000000000e+00 +4.9999998884e+02 5.0000000000e+02 1.0566000000e-01 0.0000e+00 1.0000e+00
      994 -1    0    0    0    0 -0.0000000000e+00 -0.0000000000e+00 +0.0000000000e+00 1.3100000000e+02 1.3100000000e+02 0.0000e+00 0.0000e+00
       13  1    1    2    0    0 +1.3918834447e+01 +2.2924217484e+01 +4.0873515344e+01 4.8886696761e+01 1.0566000000e-01 0.0000e+00 -1.0000e+00
      994  1    1    2    0    0 +2.0376595287e+01 -3.9967979725e+01 +1.0562846152e+02 1.7415802285e+02 1.3100000000e+02 0.0000e+00 0.0000e+00
      997  1    1    2    0    0 -3.4295429734e+01 +1.7043762242e+01 +3.5349801197e+02 4.0795528039e+02 2.0000000000e+02 0.0000e+00 0.0000e+00
</event>
<event>
 5      1 +6.7420000e-10 2.45325000e+02 7.95774700e-02 4.38495000e-01
       13 -1    0    0    0    0 +0.0000000000e+00 +0.0000000000e+00 +4.9999998884e+02 5.0000000000e+02 1.0566000000e-01 0.0000e+00 1.0000e+00
      994 -1    0    0    0    0 -0.0000000000e+00 -0.0000000000e+00 +0.0000000000e+00 1.3100000000e+02 1.3100000000e+02 0.0000e+00 0.0000e+00
       13  1    1    2    0    0 +1.6718090846e+01 +2.0588755857e+01 +1.0008175862e+01 2.8347242854e+01 1.0566000000e-01 0.0000e+00 -1.0000e+00
      994  1    1    2    0    0 -1.0750218517e+01 -2.8795098212e+00 +1.0441860557e+02 1.6789313257e+02 1.3100000000e+02 0.0000e+00 0.0000e+00
      997  1    1    2    0    0 -5.9678723294e+00 -1.7709246036e+01 +3.8557320740e+02 4.3475962457e+02 2.0000000000e+02 0.0000e+00 0.0000e+00
</event>
<event>
 5      1 +6.7420000e-10 2.37867300e+02 7.95774700e-02 4.47194200e-01
       13 -1    0    0    0    0 +0.0000000000e+00 +0.0000000000e+00 +4.9999998884e+02 5.0000000000e+02 1.0566000000e-01 0.0000e+00 1.0000e+00
      994 -1    0    0    0    0 -0.0000000000e+00 -0.0000000000e+00 +0.0000000000e+00 1.3100000000e+02 1.3100000000e+02 0.0000e+00 0.0000e+00
       13  1    1    2    0    0 -1.6983871102e+01 -5.6900108987e+00 +5.2264905546e+00 1.8658924652e+01 1.0566000000e-01 0.0000e+00 -1.0000e+00
      994  1    1    2    0    0 +3.2776966198e+01 -9.8097503899e+00 +9.6957222112e+01 1.6653006826e+02 1.3100000000e+02 0.0000e+00 0.0000e+00
      997  1    1    2    0    0 -1.5793095097e+01 +1.5499761289e+01 +3.9781627617e+02 4.4581100709e+02 2.0000000000e+02 0.0000e+00 0.0000e+00
</event>
<event>
 5      1 +6.7420000e-10 2.40541400e+02 7.95774700e-02 4.44001400e-01
       13 -1    0    0    0    0 +0.0000000000e+00 +0.0000000000e+00 +4.9999998884e+02 5.0000000000e+02 1.0566000000e-01 0.0000e+00 1.0000e+00
      994 -1    0    0    0    0 -0.0000000000e+00 -0.0000000000e+00 +0.0000000000e+00 1.3100000000e+02 1.3100000000e+02 0.0000e+00 0.0000e+00
       13  1    1    2    0    0 +1.1679599261e+01 +1.2116442501e+01 +2.1017930841e+00 1.6960245162e+01 1.0566000000e-01 0.0000e+00 -1.0000e+00
      994  1    1    2    0    0 +6.6216661024e-01 -6.0019175752e+00 +8.8544795237e+01 1.5823287346e+02 1.3100000000e+02 0.0000e+00 0.0000e+00
      997  1    1    2    0    0 -1.2341765871e+01 -6.1145249255e+00 +4.0935340052e+02 4.5580688138e+02 2.0000000000e+02 0.0000e+00 0.0000e+00
</event>
<event>
 5      1 +6.7420000e-10 2.29577500e+02 7.95774700e-02 4.57661100e-01
       13 -1    0    0    0    0 +0.0000000000e+00 +0.0000000000e+00 +4.9999998884e+02 5.0000000000e+02 1.0566000000e-01 0.0000e+00 -1.0000e+00
      994 -1    0    0    0    0 -0.0000000000e+00 -0.0000000000e+00 +0.0000000000e+00 1.3100000000e+02 1.3100000000e+02 0.0000e+00 0.0000e+00
       13  1    1    2    0    0 +8.2252352213e+00 -8.2870736300e+00 +1.2778645751e+01 1.7309969239e+01 1.0566000000e-01 0.0000e+00 1.0000e+00
      994  1    1    2    0    0 +3.2667206712e+01 +2.5989139326e+01 +8.3266663471e+01 1.6073866679e+02 1.3100000000e+02 0.0000e+00 0.0000e+00
      997  1    1    2    0    0 -4.0892441933e+01 -1.7702065696e+01 +4.0395467961e+02 4.5295136397e+02 2.0000000000e+02 0.0000e+00 0.0000e+00
</event>
<event>
 5      1 +6.7420000e-10 2.38368100e+02 7.95774700e-02 4.46589800e-01
       13 -1    0    0    0    0 +0.0000000000e+00 +0.0000000000e+00 +4.9999998884e+02 5.0000000000e+02 1.0566000000e-01 0.0000e+00 -1.0000e+00
      994 -1    0    0    0    0 -0.0000000000e+00 -0.0000000000e+00 +0.0000000000e+00 1.3100000000e+02 1.3100000000e+02 0.0000e+00 0.0000e+00
       13  1    1    2    0    0 +1.0208339985e+01 +1.6238799599e+01 +3.7611402152e+00 1.9546512666e+01 1.0566000000e-01 0.0000e+00 1.0000e+00
      994  1    1    2    0    0 -1.6630554306e+01 -4.9851706094e+01 +1.2574583453e+02 1.8903645902e+02 1.3100000000e+02 0.0000e+00 0.0000e+00
      997  1    1    2    0    0 +6.4222143211e+00 +3.3612906495e+01 +3.7049301409e+02 4.2241702831e+02 2.0000000000e+02 0.0000e+00 0.0000e+00
</event>
<event>
 5      1 +6.7420000e-10 2.32134700e+02 7.95774700e-02 4.54336300e-01
       13 -1    0    0    0    0 +0.0000000000e+00 +0.0000000000e+00 +4.9999998884e+02 5.0000000000e+02 1.0566000000e-01 0.0000e+00 -1.0000e+00
      994 -1    0    0    0    0 -0.0000000000e+00 -0.0000000000e+00 +0.0000000000e+00 1.3100000000e+02 1.3100000000e+02 0.0000e+00 0.0000e+00
       13  1    1    2    0    0 +3.6688833271e+00 -1.3010270103e+01 +5.2741258043e+00 1.4510527215e+01 1.0566000000e-01 0.0000e+00 1.0000e+00
      994  1    1    2    0    0 -3.8397489259e+01 +3.9327873962e+01 +1.0630378512e+02 1.7743320880e+02 1.3100000000e+02 0.0000e+00 0.0000e+00
      997  1    1    2    0    0 +3.4728605932e+01 -2.6317603860e+01 +3.8842207791e+02 4.3905626399e+02 2.0000000000e+02 0.0000e+00 0.0000e+00
</event>
<event>
 5      1 +6.7420000e-10 2.39047400e+02 7.95774700e-02 4.45774800e-01
       13 -1    0    0    0    0 +0.0000000000e+00 +0.0000000000e+00 +4.9999998884e+02 5.0000000000e+02 1.0566000000e-01 0.0000e+00 -1.0000e+00
      994 -1    0    0    0    0 -0.0000000000e+00 -0.0000000000e+00 +0.0000000000e+00 1.3100000000e+02 1.3100000000e+02 0.0000e+00 0.0000e+00
       13  1    1    2    0    0 -3.6072342480e+01 -5.4808409306e+00 +3.9982947726e+01 5.4128557917e+01 1.0566000000e-01 0.0000e+00 1.0000e+00
      994  1    1    2    0    0 +6.2967298607e+01 +9.2091708770e+00 +1.7604112703e+02 2.2847574910e+02 1.3100000000e+02 0.0000e+00 0.0000e+00
      997  1    1    2    0    0 -2.6894956127e+01 -3.7283299464e+00 +2.8397591408e+02 3.4839569298e+02 2.0000000000e+02 0.0000e+00 0.0000e+00
</event>
<event>
 5      1 +6.7420000e-10 2.43583900e+02 7.95774700e-02 4.40469600e-01
       13 -1    0    0    0    0 +0.0000000000e+00 +0.0000000000e+00 +4.9999998884e+02 5.0000000000e+02 1.0566000000e-01 0.0000e+00 -1.0000e+00
      994 -1    0    0    0    0 -0.0000000000e+00 -0.0000000000e+00 +0.0000000000e+00 1.3100000000e+02 1.3100000000e+02 0.0000e+00 0.0000e+00
       13  1    1    2    0    0 -1.8806708817e+01 -1.8899464304e+01 +1.6098237540e+01 3.1145568921e+01 1.0566000000e-01 0.0000e+00 1.0000e+00
      994  1    1    2    0    0 -1.2686768477e+01 +2.4286100621e+00 +9.9245416890e+01 1.6485601298e+02 1.3100000000e+02 0.0000e+00 0.0000e+00
      997  1    1    2    0    0 +3.1493477294e+01 +1.6470854242e+01 +3.8465633441e+02 4.3499841810e+02 2.0000000000e+02 0.0000e+00 0.0000e+00
</event>
<event>
 5      1 +6.7420000e-10 2.30282500e+02 7.95774700e-02 4.56735500e-01
       13 -1    0    0    0    0 +0.0000000000e+00 +0.0000000000e+00 +4.9999998884e+02 5.0000000000e+02 1.0566000000e-01 0.0000e+00 -1.0000e+00
      994 -1    0    0    0    0 -0.0000000000e+00 -0.0000000000e+00 +0.0000000000e+00 1.3100000000e+02 1.3100000000e+02 0.0000e+00 0.0000e+00
       13  1    1    2    0    0 -8.3439664974e+00 -1.0211919914e+01 +1.9028970421e+01 2.3152061777e+01 1.0566000000e-01 0.0000e+00 1.0000e+00
      994  1    1    2    0    0 +2.7428443847e+01 -3.8755756688e+01 +9.0941849633e+01 1.6639034895e+02 1.3100000000e+02 0.0000e+00 0.0000e+00
      997  1    1    2    0    0 -1.9084477349e+01 +4.8967676602e+01 +3.9002916878e+02 4.4145758927e+02 2.0000000000e+02 0.0000e+00 0.0000e+00
</event>
<event>
 5      1 +6.7420000e-10 2.48258500e+02 7.95774700e-02 4.35241600e-01
       13 -1    0    0    0    0 +0.0000000000e+00 +0.0000000000e+00 +4.9999998884e+02 5.0000000000e+02 1.0566000000e-01 0.0000e+00 1.0000e+00
      994 -1    0    0    0    0 -0.0000000000e+00 -0.0000000000e+00 +0.0000000000e+00 1.3100000000e+02 1.3100000000e+02 0.0000e+00 0.0000e+00
       13  1    1    2    0    0 -2.9508581684e+00 +2.8617315302e+01 +5.4790490764e+00 2.9286335411e+01 1.0566000000e-01 0.0000e+00 -1.0000e+00
      994  1    1    2    0    0 -7.4485239320e+00 +2.5164259064e+01 +2.2462545424e+02 2.6135476873e+02 1.3100000000e+02 0.0000e+00 0.0000e+00
      997  1    1    2    0    0 +1.0399382100e+01 -5.3781574366e+01 +2.6989548552e+02 3.4035889586e+02 2.0000000000e+02 0.0000e+00 0.0000e+00
</event>
<event>
 5      1 +6.7420000e-10 2.41641900e+02 7.95774700e-02 4.42711900e-01
       13 -1    0    0    0    0 +0.0000000000e+00 +0.0000000000e+00 +4.9999998884e+02 5.0000000000e+02 1.0566000000e-01 0.0000e+00 -1.0000e+00
      994 -1    0    0    0    0 -0.0000000000e+00 -0.0000000000e+00 +0.0000000000e+00 1.3100000000e+02 1.3100000000e+02 0.0000e+00 0.0000e+00
       13  1    1    2    0    0 +1.0908033814e+01 +1.0371988109e+01 -3.9667167450e-01 1.5057617723e+01 1.0566000000e-01 0.0000e+00 1.0000e+00
      994  1    1    2    0    0 +1.2702522546e+01 +2.8519853492e+01 +1.0593593005e+02 1.7134222305e+02 1.3100000000e+02 0.0000e+00 0.0000e+00
      997  1    1    2    0    0 -2.3610556360e+01 -3.8891841602e+01 +3.9446073046e+02 4.4460015923e+02 2.0000000000e+02 0.0000e+00 0.0000e+00
</event>
<event>
 5      1 +6.7420000e-10 2.32699300e+02 7.95774700e-02 4.53614000e-01
       13 -1    0    0    0    0 +0.0000000000e+00 +0.0000000000e+00 +4.9999998884e+02 5.0000000000e+02 1.0566000000e-01 0.0000e+00 1.0000e+00
      994 -1    0    0    0    0 -0.0000000000e+00 -0.0000000000e+00 +0.0000000000e+00 1.3100000000e+02 1.3100000000e+02 0.0000e+00 0.0000e+00
       13  1    1    2    0    0 +8.2396573405e+00 -1.5177870496e+01 +1.3799788205e+01 2.2106673753e+01 1.0566000000e-01 0.0000e+00 -1.0000e+00
      994  1    1    2    0    0 -4.9343925100e+01 +9.5446626887e+00 +1.0097682042e+02 1.7286770026e+02 1.3100000000e+02 0.0000e+00 0.0000e+00
      997  1    1    2    0    0 +4.1104267760e+01 +5.6332078074e+00 +3.8522338021e+02 4.3602562599e+02 2.0000000000e+02 0.0000e+00 0.0000e+00
</event>
<event>
 5      1 +6.7420000e-10 2.42091900e+02 7.95774700e-02 4.42188400e-01
       13 -1    0    0    0    0 +0.0000000000e+00 +0.0000000000e+00 +4.9999998884e+02 5.0000000000e+02 1.0566000000e-01 0.0000e+00 -1.0000e+00
      994 -1    0    0    0    0 -0.0000000000e+00 -0.0000000000e+00 +0.0000000000e+00 1.3100000000e+02 1.3100000000e+02 0.0000e+00 0.0000e+00
       13  1    1    2    0    0 +1.3095326681e+01 +8.8383142495e+00 -5.8571197630e+00 1.6849937555e+01 1.0566000000e-01 0.0000e+00 1.0000e+00
      994  1    1    2    0    0 -5.6377595965e+01 +5.8767652986e+00 +1.9372306810e+02 2.4062958424e+02 1.3100000000e+02 0.0000e+00 0.0000e+00
      997  1    1    2    0    0 +4.3282269284e+01 -1.4715079548e+01 +3.1213404050e+02 3.7352047821e+02 2.0000000000e+02 0.0000e+00 0.0000e+00
</event>
<event>
 5      1 +6.7420000e-10 2.38546000e+02 7.95774700e-02 4.46375800e-01
       13 -1    0    0    0    0 +0.0000000000e+00 +0.0000000000e+00 +4.9999998884e+02 5.0000000000e+02 1.0566000000e-01 0.0000e+00 1.0000e+00
      994 -1    0    0    0    0 -0.0000000000e+00 -0.0000000000e+00 +0.0000000000e+00 1.3100000000e+02 1.3100000000e+02 0.0000e+00 0.0000e+00
       13  1    1    2    0    0 +1.2687044614e+01 -9.8636009102e+00 +2.1970078909e+00 1.6220041050e+01 1.0566000000e-01 0.0000e+00 -1.0000e+00
      994  1    1    2    0    0 +6.0127366600e+01 -1.9136498012e+01 +2.1765792738e+02 2.6175843658e+02 1.3100000000e+02 0.0000e+00 0.0000e+00
      997  1    1    2    0    0 -7.2814411214e+01 +2.9000098922e+01 +2.8014505356e+02 3.5302152237e+02 2.0000000000e+02 0.0000e+00 0.0000e+00
</event>
<event>
 5      1 +6.7420000e-10 2.47510700e+02 7.95774700e-02 4.36062400e-01
       13 -1    0    0    0    0 +0.0000000000e+00 +0.0000000000e+00 +4.9999998884e+02 5.0000000000e+02 1.0566000000e-01 0.0000e+00 -1.0000e+00
      994 -1    0    0    0    0 -0.0000000000e+00 -0.0000000000e+00 +0.0000000000e+00 1.3100000000e+02 1.3100000000e+02 0.0000e+00 0.0000e+00
       13  1    1    2    0    0 +2.7678360019e+01 +1.3985784524e+01 +1.6635470026e+01 3.5191530361e+01 1.0566000000e-01 0.0000e+00 1.0000e+00
      994  1    1    2    0    0 +1.0053917595e+01 +4.0229169483e+01 +1.7851163070e+02 2.2527065861e+02 1.3100000000e+02 0.0000e+00 0.0000e+00
      997  1    1    2    0    0 -3.7732277614e+01 -5.4214954007e+01 +3.0485288811e+02 3.7053781103e+02 2.0000000000e+02 0.0000e+00 0.0000e+00
</event>
<event>
 5      1 +6.7420000e-10 2.31512400e+02 7.95774700e-02 4.55137200e-01
       13 -1    0    0    0    0 +0.0000000000e+00 +0.0000000000e+00 +4.9999998884e+02 5.0000000000e+02 1.0566000000e-01 0.0000e+00 1.0000e+00
      994 -1    0    0    0    0 -0.0000000000e+00 -0.0000000000e+00 +0.0000000000e+00 1.3100000000e+02 1.3100000000e+02 0.0000e+00 0.0000e+00
       13  1    1    2    0    0 +1.2025522187e+01 -1.0062267609e+01 +5.1854422658e+01 5.4173376547e+01 1.0566000000e-01 0.0000e+00 -1.0000e+00
      994  1    1    2    0    0 -3.7228917840e+01 -1.1409803027e+01 +8.5036778466e+01 1.6096095682e+02 1.3100000000e+02 0.0000e+00 0.0000e+00
      997  1    1    2    0    0 +2.5203395653e+01 +2.1472070636e+01 +3.6310878771e+02 4.1586566663e+02 2.0000000000e+02 0.0000e+00 0.0000e+00
</event>
<event>
 5      1 +6.7420000e-10 2.46588900e+02 7.95774700e-02 4.37082200e-01
       13 -1    0    0    0    0 +0.0000000000e+00 +0.0000000000e+00 +4.9999998884e+02 5.0000000000e+02 1.0566000000e-01 0.0000e+00 -1.0000e+00
      994 -1    0    0    0    0 -0.0000000000e+00 -0.0000000000e+00 +0.0000000000e+00 1.3100000000e+02 1.3100000000e+02 0.0000e+00 0.0000e+00
       13  1    1    2    0    0 -2.0990785027e+01 +2.0556535769e+01 +1.1300582868e+01 3.1478541200e+01 1.0566000000e-01 0.0000e+00 1.0000e+00
      994  1    1    2    0    0 +2.2826077004e+01 -2.9001573663e+00 +1.1738720497e+02 1.7739841204e+02 1.3100000000e+02 0.0000e+00 0.0000e+00
      997  1    1    2    0    0 -1.8352919775e+00 -1.7656378403e+01 +3.7131220100e+02 4.2212304676e+02 2.0000000000e+02 0.0000e+00 0.0000e+00
</event>
<event>
 5      1 +6.7420000e-10 2.38517500e+02 7.95774700e-02 4.46410100e-01
       13 -1    0    0    0    0 +0.0000000000e+00 +0.0000000000e+00 +4.9999998884e+02 5.0000000000e+02 1.0566000000e-01 0.0000e+00 1.0000e+00
      994 -1    0    0    0    0 -0.0000000000e+00 -0.0000000000e+00 +0.0000000000e+00 1.3100000000e+02 1.3100000000e+02 0.0000e+00 0.0000e+00
       13  1    1    2    0    0 +9.1664229028e+00 +1.3538719797e+01 -1.3073393507e+00 1.6402455389e+01 1.0566000000e-01 0.0000e+00 -1.0000e+00
      994  1    1    2    0    0 -6.2515531972e+01 -1.5205612334e+01 +1.7130821841e+02 2.2504867935e+02 1.3100000000e+02 0.0000e+00 0.0000e+00
      997  1    1    2    0    0 +5.3349109069e+01 +1.6668925370e+00 +3.2999910978e+02 3.8954886526e+02 2.0000000000e+02 0.0000e+00 0.0000e+00
</event>
<event>
 5      1 +6.7420000e-10 2.45578200e+02 7.95774700e-02 4.38210600e-01
       13 -1    0    0    0    0 +0.0000000000e+00 +0.0000000000e+00 +4.9999998884e+02 5.0000000000e+02 1.0566000000e-01 0.0000e+00 -1.0000e+00
      994 -1    0    0    0    0 -0.0000000000e+00 -0.0000000000e+00 +0.0000000000e+00 1.3100000000e+02 1.3100000000e+02 0.0000e+00 0.0000e+00
       13  1    1    2    0    0 -4.0879673841e+00 -1.2659189758e+01 -6.8568001898e+00 1.4966410242e+01 1.0566000000e-01 0.0000e+00 1.0000e+00
      994  1    1    2    0    0 -4.2066504563e+01 +2.2954740507e+00 +1.4510496475e+02 1.9997827583e+02 1.3100000000e+02 0.0000e+00 0.0000e+00
      997  1    1    2    0    0 +4.6154471947e+01 +1.0363715707e+01 +3.6175182427e+02 4.1605531393e+02 2.0000000000e+02 0.0000e+00 0.0000e+00
</event>
<event>
 5      1 +6.7420000e-10 2.32170200e+02 7.95774700e-02 4.54290700e-01
       13 -1    0    0    0    0 +0.0000000000e+00 +0.0000000000e+00 +4.9999998884e+02 5.0000000000e+02 1.0566000000e-01 0.0000e+00 1.0000e+00
      994 -1    0    0    0    0 -0.0000000000e+00 -0.0000000000e+00 +0.0000000000e+00 1.3100000000e+02 1.3100000000e+02 0.0000e+00 0.0000e+00
       13  1    1    2    0    0 +1.3610714786e+01 -9.7831720691e-01 +8.7619475040e+00 1.6217014203e+01 1.0566000000e-01 0.0000e+00 -1.0000e+00
      994  1    1    2    0    0 -1.3484423092e+01 -1.5085409477e+00 +7.1577810479e+01 1.4989492425e+02 1.3100000000e+02 0.0000e+00 0.0000e+00
      997  1    1    2    0    0 -1.2629169412e-01 +2.4868581546e+00 +4.1966023085e+02 4.6488806155e+02 2.0000000000e+02 0.0000e+00 0.0000e+00
</event>
<event>
 5      1 +6.7420000e-10 2.35848300e+02 7.95774700e-02 4.49662100e-01
       13 -1    0    0    0    0 +0.0000000000e+00 +0.0000000000e+00 +4.9999998884e+02 5.0000000000e+02 1.0566000000e-01 0.0000e+00 1.0000e+00
      994 -1    0    0    0    0 -0.0000000000e+00 -0.0000000000e+00 +0.0000000000e+00 1.3100000000e+02 1.3100000000e+02 0.0000e+00 0.0000e+00
       13  1    1    2    0    0 +7.4360908890e+00 -1.1341757060e+01 +4.7402680026e+00 1.4367052783e+01 1.0566000000e-01 0.0000e+00 -1.0000e+00
      994  1    1    2    0    0 +2.0338502285e+01 -3.3832637641e+01 +9.6624627034e+01 1.6749812117e+02 1.3100000000e+02 0.0000e+00 0.0000e+00
      997  1    1    2    0    0 -2.7774593174e+01 +4.5174394700e+01 +3.9863509380e+02 4.4913482605e+02 2.0000000000e+02 0.0000e+00 0.0000e+00
</event>
<event>
 5      1 +6.7420000e-10 2.38804100e+02 7.95774700e-02 4.46066100e-01
       13 -1    0    0    0    0 +0.0000000000e+00 +0.0000000000e+00 +4.9999998884e+02 5.0000000000e+02 1.0566000000e-01 0.0000e+00 1.0000e+00
      994 -1    0    0    0    0 -0.0000000000e+00 -0.0000000000e+00 +0.0000000000e+00 1.3100000000e+02 1.3100000000e+02 0.0000e+00 0.0000e+00
       13  1    1    2    0    0 -2.2337137154e+01 -1.7487427557e+01 +8.5895937922e+01 9.0459278873e+01 1.0566000000e-01 0.0000e+00 -1.0000e+00
      994  1    1    2    0    0 +3.3643907807e+01 +2.6959319342e+01 +1.1068092747e+02 1.7683321277e+02 1.3100000000e+02 0.0000e+00 0.0000e+00
      997  1    1    2    0    0 -1.1306770653e+01 -9.4718917853e+00 +3.0342312344e+02 3.6370750836e+02 2.0000000000e+02 0.0000e+00 0.0000e+00
</event>
<event>
 5      1 +6.7420000e-10 2.33672700e+02 7.95774700e-02 4.52378800e-01
       13 -1    0    0    0    0 +0.0000000000e+00 +0.0000000000e+00 +4.9999998884e+02 5.0000000000e+02 1.0566000000e-01 0.0000e+00 1.0000e+00
      994 -1    0    0    0    0 -0.0000000000e+00 -0.0000000000e+00 +0.0000000000e+00 1.3100000000e+02 1.3100000000e+02 0.0000e+00 0.0000e+00
       13  1    1    2    0    0 -1.0629594013e+01 +7.1772316661e+00 +4.2303698761e+00 1.3505854901e+01 1.0566000000e-01 0.0000e+00 -1.0000e+00
      994  1    1    2    0    0 +2.2744684226e+01 +4.6909307505e+00 +7.8541184966e+01 1.5449609454e+02 1.3100000000e+02 0.0000e+00 0.0000e+00
      997  1    1    2    0    0 -1.2115090213e+01 -1.1868162417e+01 +4.1722843399e+02 4.6299805056e+02 2.0000000000e+02 0.0000e+00 0.0000e+00
</event>
<event>
 5      1 +6.7420000e-10 2.28946800e+02 7.95774700e-02 4.58494900e-01
       13 -1    0    0    0    0 +0.0000000000e+00 +0.0000000000e+00 +4.9999998884e+02 5.0000000000e+02 1.0566000000e-01 0.0000e+00 1.0000e+00
      994 -1    0    0    0    0 -0.0000000000e+00 -0.0000000000e+00 +0.0000000000e+00 1.3100000000e+02 1.3100000000e+02 0.0000e+00 0.0000e+00
       13  1    1    2    0    0 -3.1985591774e+00 -1.0652292608e+01 +1.7944148868e+01 2.1111744629e+01 1.0566000000e-01 0.0000e+00 -1.0000e+00
      994  1    1    2    0    0 -4.4385565027e+01 -3.7475626106e+00 +8.4599618207e+01 1.6217958567e+02 1.3100000000e+02 0.0000e+00 0.0000e+00
      997  1    1    2    0    0 +4.7584124205e+01 +1.4399855219e+01 +3.9745622176e+02 4.4770866970e+02 2.0000000000e+02 0.0000e+00 0.0000e+00
</event>
<event>
 5      1 +6.7420000e-10 2.41408300e+02 7.95774700e-02 4.42984300e-01
       13 -1    0    0    0    0 +0.0000000000e+00 +0.0000000000e+00 +4.9999998884e+02 5.0000000000e+02 1.0566000000e-01 0.0000e+00 1.0000e+00
      994 -1    0    0    0    0 -0.0000000000e+00 -0.0000000000e+00 +0.0000000000e+00 1.3100000000e+02 1.3100000000e+02 0.0000e+00 0.0000e+00
       13  1    1    2    0    0 -1.4826658568e+01 +8.2052977017e+00 +1.8183766240e+00 1.7043308723e+01 1.0566000000e-01 0.0000e+00 -1.0000e+00
      994  1    1    2    0    0 -4.3169358087e+00 +9.6874764038e+00 +9.1941228069e+01 1.6039536325e+02 1.3100000000e+02 0.0000e+00 0.0000e+00
      997  1    1    2    0    0 +1.9143594377e+01 -1.7892774106e+01 +4.0624038414e+02 4.5356132802e+02 2.0000000000e+02 0.0000e+00 0.0000e+00
</event>
<event>
 5      1 +6.7420000e-10 2.36956400e+02 7.95774700e-02 4.48301400e-01
       13 -1    0    0    0    0 +0.0000000000e+00 +0.0000000000e+00 +4.9999998884e+02 5.0000000000e+02 1.0566000000e-01 0.0000e+00 -1.0000e+00
      994 -1    0    0    0    0 -0.0000000000e+00 -0.0000000000e+00 +0.0000000000e+00 1.3100000000e+02 1.3100000000e+02 0.0000e+00 0.0000e+00
       13  1    1    2    0    0 +3.9087407752e+00 -9.3055796945e+00 -1.7779056670e+00 1.0249106327e+01 1.0566000000e-01 0.0000e+00 1.0000e+00
      994  1    1    2    0    0 -6.5107554547e+00 -1.1972168476e+01 +8.1673873855e+01 1.5497530263e+02 1.3100000000e+02 0.0000e+00 0.0000e+00
      997  1    1    2    0    0 +2.6020146795e+00 +2.1277748170e+01 +4.2010402065e+02 4.6577559104e+02 2.0000000000e+02 0.0000e+00 0.0000e+00
</event>
<event>
 5      1 +6.7420000e-10 2.39337200e+02 7.95774700e-02 4.45428700e-01
       13 -1    0    0    0    0 +0.0000000000e+00 +0.0000000000e+00 +4.9999998884e+02 5.0000000000e+02 1.0566000000e-01 0.0000e+00 -1.0000e+00
      994 -1    0    0    0    0 -0.0000000000e+00 -0.0000000000e+00 +0.0000000000e+00 1.3100000000e+02 1.3100000000e+02 0.0000e+00 0.0000e+00
       13  1    1    2    0    0 -8.0883162079e+00 -8.2040217686e+00 -3.8502414257e+00 1.2147524659e+01 1.0566000000e-01 0.0000e+00 1.0000e+00
      994  1    1    2    0    0 -5.7718699629e+01 +2.0695922892e+01 +1.6203561966e+02 2.1720108552e+02 1.3100000000e+02 0.0000e+00 0.0000e+00
      997  1    1    2    0    0 +6.5807015837e+01 -1.2491901123e+01 +3.4181461060e+02 4.0165138982e+02 2.0000000000e+02 0.0000e+00 0.0000e+00
</event>
<event>
 5      1 +6.7420000e-10 2.52810700e+02 7.95774700e-02 4.30367200e-01
       13 -1    0    0    0    0 +0.0000000000e+00 +0.0000000000e+00 +4.9999998884e+02 5.0000000000e+02 1.0566000000e-01 0.0000e+00 -1.0000e+00
      994 -1    0    0    0    0 -0.0000000000e+00 -0.0000000000e+00 +0.0000000000e+00 1.3100000000e+02 1.3100000000e+02 0.0000e+00 0.0000e+00
       13  1    1    2    0    0 +1.0406222327e+01 -8.1101556175e-02 -1.3576343113e+01 1.7106264844e+01 1.0566000000e-01 0.0000e+00 1.0000e+00
      994  1    1    2    0    0 -1.3822981611e+01 -4.0403130897e+00 +1.5661134317e+02 2.0468393137e+02 1.3100000000e+02 0.0000e+00 0.0000e+00
      997  1    1    2    0    0 +3.4167592843e+00 +4.1214146459e+00 +3.5696498878e+02 4.0920980379e+02 2.0000000000e+02 0.0000e+00 0.0000e+00
</event>
<event>
 5      1 +6.7420000e-10 2.35324400e+02 7.95774700e-02 4.50310800e-01
       13 -1    0    0    0    0 +0.0000000000e+00 +0.0000000000e+00 +4.9999998884e+02 5.0000000000e+02 1.0566000000e-01 0.0000e+00 1.0000e+00
      994 -1    0    0    0    0 -0.0000000000e+00 -0.0000000000e+00 +0.0000000000e+00 1.3100000000e+02 1.3100000000e+02 0.0000e+00 0.0000e+00
       13  1    1    2    0    0 -1.0831764176e+01 +2.1645300470e+01 +3.7761147525e+01 4.4852665183e+01 1.0566000000e-01 0.0000e+00 -1.0000e+00
      994  1    1    2    0    0 -1.3546838570e+00 -2.0427548372e+01 +8.0769058721e+01 1.5525385904e+02 1.3100000000e+02 0.0000e+00 0.0000e+00
      997  1    1    2    0    0 +1.2186448033e+01 -1.2177520971e+00 +3.8146978259e+02 4.3089347577e+02 2.0000000000e+02 0.0000e+00 0.0000e+00
</event>
<event>
 5      1 +6.7420000e-10 2.37954600e+02 7.95774700e-02 4.47088600e-01
       13 -1    0    0    0    0 +0.0000000000e+00 +0.0000000000e+00 +4.9999998884e+02 5.0000000000e+02 1.0566000000e-01 0.0000e+00 1.0000e+00
      994 -1    0    0    0    0 -0.0000000000e+00 -0.0000000000e+00 +0.0000000000e+00 1.3100000000e+02 1.3100000000e+02 0.0000e+00 0.0000e+00
       13  1    1    2    0    0 +2.5697701498e+01 +3.0107740004e+00 +2.6502829012e+01 3.7038462873e+01 1.0566000000e-01 0.0000e+00 -1.0000e+00
      994  1    1    2    0    0 -2.0010040566e+01 +3.9791261985e+01 +1.0970701350e+02 1.7657965643e+02 1.3100000000e+02 0.0000e+00 0.0000e+00
      997  1    1    2    0    0 -5.6876609313e+00 -4.2802035985e+01 +3.6379014633e+02 4.1738188070e+02 2.0000000000e+02 0.0000e+00 0.0000e+00
</event>
<event>
 5      1 +6.7420000e-10 2.45147100e+02 7.95774700e-02 4.38695300e-01
       13 -1    0    0    0    0 +0.0000000000e+00 +0.0000000000e+00 +4.9999998884e+02 5.0000000000e+02 1.0566000000e-01 0.0000e+00 -1.0000e+00
      994 -1    0    0    0    0 -0.0000000000e+00 -0.0000000000e+00 +0.0000000000e+00 1.3100000000e+02 1.3100000000e+02 0.0000e+00 0.0000e+00
       13  1    1    2    0    0 +2.1843072757e+01 -3.4858978474e+00 +1.1590334790e+02 1.1799520554e+02 1.0566000000e-01 0.0000e+00 1.0000e+00
      994  1    1    2    0    0 -1.1903323708e+00 +2.4967348934e+01 +1.1298476942e+02 1.7478942624e+02 1.3100000000e+02 0.0000e+00 0.0000e+00
      997  1    1    2    0    0 -2.0652740386e+01 -2.1481451086e+01 +2.7111187151e+02 3.3821536822e+02 2.0000000000e+02 0.0000e+00 0.0000e+00
</event>
<event>
 5      1 +6.7420000e-10 2.46932500e+02 7.95774700e-02 4.36700900e-01
       13 -1    0    0    0    0 +0.0000000000e+00 +0.0000000000e+00 +4.9999998884e+02 5.0000000000e+02 1.0566000000e-01 0.0000e+00 -1.0000e+00
      994 -1    0    0    0    0 -0.0000000000e+00 -0.0000000000e+00 +0.0000000000e+00 1.3100000000e+02 1.3100000000e+02 0.0000e+00 0.0000e+00
       13  1    1    2    0    0 -4.4968169077e+01 -3.7259256916e+00 +5.7198030378e+01 7.2853583272e+01 1.0566000000e-01 0.0000e+00 1.0000e+00
      994  1    1    2    0    0 +3.6857367777e+01 -1.2023137961e+01 +1.4746606953e+02 2.0102304114e+02 1.3100000000e+02 0.0000e+00 0.0000e+00
      997  1    1    2    0    0 +8.1108013004e+00 +1.5749063652e+01 +2.9533588893e+02 3.5712337559e+02 2.0000000000e+02 0.0000e+00 0.0000e+00
</event>
<event>
 5      1 +6.7420000e-10 2.41245500e+02 7.95774700e-02 4.43174700e-01
       13 -1    0    0    0    0 +0.0000000000e+00 +0.0000000000e+00 +4.9999998884e+02 5.0000000000e+02 1.0566000000e-01 0.0000e+00 1.0000e+00
      994 -1    0    0    0    0 -0.0000000000e+00 -0.0000000000e+00 +0.0000000000e+00 1.3100000000e+02 1.3100000000e+02 0.0000e+00 0.0000e+00
       13  1    1    2    0    0 +5.7244125202e-01 -3.0387838500e+01 +3.7054041136e+01 4.7924540125e+01 1.0566000000e-01 0.0000e+00 -1.0000e+00
      994  1    1    2    0    0 +9.7329060736e+00 +2.4746788615e+00 +9.1325789516e+01 1.6000704149e+02 1.3100000000e+02 0.0000e+00 0.0000e+00
      997  1    1    2    0    0 -1.0305347326e+01 +2.7913159638e+01 +3.7162015818e+02 4.2306841838e+02 2.0000000000e+02 0.0000e+00 0.0000e+00
</event>
<event>
 5      1 +6.7420000e-10 2.33786200e+02 7.95774700e-02 4.52235500e-01
       13 -1    0    0    0    0 +0.0000000000e+00 +0.0000000000e+00 +4.9999998884e+02 5.0000000000e+02 1.0566000000e-01 0.0000e+00 -1.0000e+00
      994 -1    0    0    0    0 -0.0000000000e+00 -0.0000000000e+00 +0.0000000000e+00 1.3100000000e+02 1.3100000000e+02 0.0000e+00 0.0000e+00
       13  1    1    2    0    0 -1.1745511239e+01 +8.2695963389e+00 +3.9925997760e+00 1.4909569909e+01 1.0566000000e-01 0.0000e+00 1.0000e+00
      994  1    1    2    0    0 +2.4877463872e+01 -4.7868925032e+01 +1.1005074134e+02 1.7939478215e+02 1.3100000000e+02 0.0000e+00 0.0000e+00
      997  1    1    2    0    0 -1.3131952633e+01 +3.9599328693e+01 +3.8595664772e+02 4.3669564794e+02 2.0000000000e+02 0.0000e+00 0.0000e+00
</event>
<event>
 5      1 +6.7420000e-10 2.45879900e+02 7.95774700e-02 4.37872700e-01
       13 -1    0    0    0    0 +0.0000000000e+00 +0.0000000000e+00 +4.9999998884e+02 5.0000000000e+02 1.0566000000e-01 0.0000e+00 -1.0000e+00
      994 -1    0    0    0    0 -0.0000000000e+00 -0.0000000000e+00 +0.0000000000e+00 1.3100000000e+02 1.3100000000e+02 0.0000e+00 0.0000e+00
       13  1    1    2    0    0 -1.4435003535e+01 -2.5893144112e+01 +8.9024939340e+00 3.0953025722e+01 1.0566000000e-01 0.0000e+00 1.0000e+00
      994  1    1    2    0    0 +4.0142967146e+01 -1.8286965817e+01 +2.0516467035e+02 2.4738515091e+02 1.3100000000e+02 0.0000e+00 0.0000e+00
      997  1    1    2    0    0 -2.5707963611e+01 +4.4180109929e+01 +2.8593282455e+02 3.5266182337e+02 2.0000000000e+02 0.0000e+00 0.0000e+00
</event>
<event>
 5      1 +6.7420000e-10 2.31334300e+02 7.95774700e-02 4.55367400e-01
       13 -1    0    0    0    0 +0.0000000000e+00 +0.0000000000e+00 +4.9999998884e+02 5.0000000000e+02 1.0566000000e-01 0.0000e+00 -1.0000e+00
      994 -1    0    0    0    0 -0.0000000000e+00 -0.0000000000e+00 +0.0000000000e+00 1.3100000000e+02 1.3100000000e+02 0.0000e+00 0.0000e+00
       13  1    1    2    0    0 +1.0462652876e+01 +7.0651143138e-01 +5.9625748140e+00 1.2063570204e+01 1.0566000000e-01 0.0000e+00 1.0000e+00
      994  1    1    2    0    0 +4.3803487629e+01 +4.9389219349e+01 +1.2494221790e+02 1.9269042096e+02 1.3100000000e+02 0.0000e+00 0.0000e+00
      997  1    1    2    0    0 -5.4266140505e+01 -5.0095730780e+01 +3.6909519612e+02 4.2624600884e+02 2.0000000000e+02 0.0000e+00 0.0000e+00
</event>
<event>
 5      1 +6.7420000e-10 2.38777500e+02 7.95774700e-02 4.46097900e-01
       13 -1    0    0    0    0 +0.0000000000e+00 +0.0000000000e+00 +4.9999998884e+02 5.0000000000e+02 1.0566000000e-01 0.0000e+00 -1.0000e+00
      994 -1    0    0    0    0 -0.0000000000e+00 -0.0000000000e+00 +0.0000000000e+00 1.3100000000e+02 1.3100000000e+02 0.0000e+00 0.0000e+00
       13  1    1    2    0    0 +2.0629225866e+01 -5.9541818365e+00 +1.1195015857e+01 2.4214805084e+01 1.0566000000e-01 0.0000e+00 1.0000e+00
      994  1    1    2    0    0 -2.2732671235e+01 -2.7098834577e+01 +1.0087633884e+02 1.6908032681e+02 1.3100000000e+02 0.0000e+00 0.0000e+00
      997  1    1    2    0    0 +2.1034453691e+00 +3.3053016414e+01 +3.8792863414e+02 4.3770486811e+02 2.0000000000e+02 0.0000e+00 0.0000e+00
</event>
<event>
 5      1 +6.7420000e-10 2.42140100e+02 7.95774700e-02 4.42132600e-01
       13 -1    0    0    0    0 +0.0000000000e+00 +0.0000000000e+00 +4.9999998884e+02 5.0000000000e+02 1.0566000000e-01 0.0000e+00 -1.0000e+00
      994 -1    0    0    0    0 -0.0000000000e+00 -0.0000000000e+00 +0.0000000000e+00 1.3100000000e+02 1.3100000000e+02 0.0000e+00 0.0000e+00
       13  1    1    2    0    0 +2.1579428768e+00 +3.3212126243e+01 +4.1630014705e+01 5.3298886812e+01 1.0566000000e-01 0.0000e+00 1.0000e+00
      994  1    1    2    0    0 -9.7902484369e+00 -1.1794386417e+01 +9.5836348371e+01 1.6303546297e+02 1.3100000000e+02 0.0000e+00 0.0000e+00
      997  1    1    2    0    0 +7.6323055601e+00 -2.1417739825e+01 +3.6253362576e+02 4.1466565022e+02 2.0000000000e+02 0.0000e+00 0.0000e+00
</event>
<event>
 5      1 +6.7420000e-10 2.38253800e+02 7.95774700e-02 4.46727500e-01
       13 -1    0    0    0    0 +0.0000000000e+00 +0.0000000000e+00 +4.9999998884e+02 5.0000000000e+02 1.0566000000e-01 0.0000e+00 -1.0000e+00
      994 -1    0    0    0    0 -0.0000000000e+00 -0.0000000000e+00 +0.0000000000e+00 1.3100000000e+02 1.3100000000e+02 0.0000e+00 0.0000e+00
       13  1    1    2    0    0 -1.5889984206e+01 -1.0424779800e+01 +9.6277333567e+01 9.8135130074e+01 1.0566000000e-01 0.0000e+00 1.0000e+00
      994  1    1    2    0    0 +2.1533210588e+01 +2.8003056892e+01 +9.9221626949e+01 1.6808861237e+02 1.3100000000e+02 0.0000e+00 0.0000e+00
      997  1    1    2    0    0 -5.6432263827e+00 -1.7578277091e+01 +3.0450102832e+02 3.6477625756e+02 2.0000000000e+02 0.0000e+00 0.0000e+00
</event>
<event>
 5      1 +6.7420000e-10 2.49275100e+02 7.95774700e-02 4.34135000e-01
       13 -1    0    0    0    0 +0.0000000000e+00 +0.0000000000e+00 +4.9999998884e+02 5.0000000000e+02 1.0566000000e-01 0.0000e+00 1.0000e+00
      994 -1    0    0    0    0 -0.0000000000e+00 -0.0000000000e+00 +0.0000000000e+00 1.3100000000e+02 1.3100000000e+02 0.0000e+00 0.0000e+00
       13  1    1    2    0    0 -3.7388190583e+01 -1.1069795724e+01 +5.8620622347e+01 7.0404585794e+01 1.0566000000e-01 0.0000e+00 -1.0000e+00
      994  1    1    2    0    0 -6.6056307495e+00 -3.1472600852e+01 +1.9958385618e+02 2.4089183176e+02 1.3100000000e+02 0.0000e+00 0.0000e+00
      997  1    1    2    0    0 +4.3993821333e+01 +4.2542396576e+01 +2.4179551031e+02 3.1970358244e+02 2.0000000000e+02 0.0000e+00 0.0000e+00
</event>
<event>
 5      1 +6.7420000e-10 2.28841300e+02 7.95774700e-02 4.58634900e-01
       13 -1    0    0    0    0 +0.0000000000e+00 +0.0000000000e+00 +4.9999998884e+02 5.0000000000e+02 1.0566000000e-01 0.0000e+00 -1.0000e+00
      994 -1    0    0    0    0 -0.0000000000e+00 -0.0000000000e+00 +0.0000000000e+00 1.3100000000e+02 1.3100000000e+02 0.0000e+00 0.0000e+00
       13  1    1    2    0    0 -1.5629453677e+01 +4.8906392324e+00 +2.2224948392e+01 2.7607203216e+01 1.0566000000e-01 0.0000e+00 1.0000e+00
      994  1    1    2    0    0 +5.3953945760e+01 -6.4493253453e+01 +1.8417940613e+02 2.4115028851e+02 1.3100000000e+02 0.0000e+00 0.0000e+00
      997  1    1    2    0    0 -3.8324492083e+01 +5.9602614221e+01 +2.9359563431e+02 3.6224250828e+02 2.0000000000e+02 0.0000e+00 0.0000e+00
</event>
<event>
 5      1 +6.7420000e-10 2.33672000e+02 7.95774700e-02 4.52379600e-01
       13 -1    0    0    0    0 +0.0000000000e+00 +0.0000000000e+00 +4.9999998884e+02 5.0000000000e+02 1.0566000000e-01 0.0000e+00 -1.0000e+00
      994 -1    0    0    0    0 -0.0000000000e+00 -0.0000000000e+00 +0.0000000000e+00 1.3100000000e+02 1.3100000000e+02 0.0000e+00 0.0000e+00
       13  1    1    2    0    0 -7.8759658629e+00 +1.3742794188e+01 +2.1169581600e+01 2.6439697039e+01 1.0566000000e-01 0.0000e+00 1.0000e+00
      994  1    1    2    0    0 -5.7690764571e+01 +2.2066829976e+01 +1.2503007537e+02 1.9133397254e+02 1.3100000000e+02 0.0000e+00 0.0000e+00
      997  1    1    2    0    0 +6.5566730434e+01 -3.5809624163e+01 +3.5380033187e+02 4.1322633042e+02 2.0000000000e+02 0.0000e+00 0.0000e+00
</event>
<event>
 5      1 +6.7420000e-10 2.30699400e+02 7.95774700e-02 4.56191400e-01
       13 -1    0    0    0    0 +0.0000000000e+00 +0.0000000000e+00 +4.9999998884e+02 5.0000000000e+02 1.0566000000e-01 0.0000e+00 1.0000e+00
      994 -1    0    0    0    0 -0.0000000000e+00 -0.0000000000e+00 +0.0000000000e+00 1.3100000000e+02 1.3100000000e+02 0.0000e+00 0.0000e+00
       13  1    1    2    0    0 +1.2689918063e+01 +1.0581514810e+01 +2.8202416189e+01 3.2686234397e+01 1.0566000000e-01 0.0000e+00 -1.0000e+00
      994  1    1    2    0    0 -1.7047093696e+01 -9.0019801806e+00 +7.0722386014e+01 1.5011427292e+02 1.3100000000e+02 0.0000e+00 0.0000e+00
      997  1    1    2    0    0 +4.3571756324e+00 -1.5795346294e+00 +4.0107518663e+02 4.4819949268e+02 2.0000000000e+02 0.0000e+00 0.0000e+00
</event>
<event>
 5      1 +6.7420000e-10 2.41335500e+02 7.95774700e-02 4.43069500e-01
       13 -1    0    0    0    0 +0.0000000000e+00 +0.0000000000e+00 +4.9999998884e+02 5.0000000000e+02 1.0566000000e-01 0.0000e+00 1.0000e+00
      994 -1    0    0    0    0 -0.0000000000e+00 -0.0000000000e+00 +0.0000000000e+00 1.3100000000e+02 1.3100000000e+02 0.0000e+00 0.0000e+00
       13  1    1    2    0    0 -2.8083661145e+01 -9.4481751637e+00 +2.4844291670e+01 3.8667945768e+01 1.0566000000e-01 0.0000e+00 -1.0000e+00
      994  1    1    2    0    0 +2.7007687715e+01 -1.9267799867e+01 +1.0697403903e+02 1.7235169954e+02 1.3100000000e+02 0.0000e+00 0.0000e+00
      997  1    1    2    0    0 +1.0759734305e+00 +2.8715975031e+01 +3.6818165814e+02 4.1998035470e+02 2.0000000000e+02 0.0000e+00 0.0000e+00
</event>
<event>
 5      1 +6.7420000e-10 2.46970400e+02 7.95774700e-02 4.36659100e-01
       13 -1    0    0    0    0 +0.0000000000e+00 +0.0000000000e+00 +4.9999998884e+02 5.0000000000e+02 1.0566000000e-01 0.0000e+00 1.0000e+00
      994 -1    0    0    0    0 -0.0000000000e+00 -0.0000000000e+00 +0.0000000000e+00 1.3100000000e+02 1.3100000000e+02 0.0000e+00 0.0000e+00
       13  1    1    2    0    0 +2.8340548263e+01 +2.4877539620e+00 +9.5523009526e+00 3.0010551697e+01 1.0566000000e-01 0.0000e+00 -1.0000e+00
      994  1    1    2    0    0 -1.2857245260e+01 +2.4063955584e+01 +1.2423351476e+02 1.8259065941e+02 1.3100000000e+02 0.0000e+00 0.0000e+00
      997  1    1    2    0    0 -1.5483303003e+01 -2.6551709546e+01 +3.6621417312e+02 4.1839878889e+02 2.0000000000e+02 0.0000e+00 0.0000e+00
</event>
<event>
 5      1 +6.7420000e-10 2.31052300e+02 7.95774700e-02 4.55732700e-01
       13 -1    0    0    0    0 +0.0000000000e+00 +0.0000000000e+00 +4.9999998884e+02 5.0000000000e+02 1.0566000000e-01 0.0000e+00 -1.0000e+00
      994 -1    0    0    0    0 -0.0000000000e+00 -0.0000000000e+00 +0.0000000000e+00 1.3100000000e+02 1.3100000000e+02 0.0000e+00 0.0000e+00
       13  1    1    2    0    0 +1.8629651995e+01 -6.3115710069e+00 +1.8981966367e+01 2.7335436218e+01 1.0566000000e-01 0.0000e+00 1.0000e+00
      994  1    1    2    0    0 -6.5243277815e+01 +2.7688231300e+01 +1.3658918437e+02 2.0209138710e+02 1.3100000000e+02 0.0000e+00 0.0000e+00
      997  1    1    2    0    0 +4.6613625820e+01 -2.1376660293e+01 +3.4442883810e+02 4.0157317669e+02 2.0000000000e+02 0.0000e+00 0.0000e+00
</event>
<event>
 5      1 +6.7420000e-10 2.52098400e+02 7.95774700e-02 4.31116400e-01
       13 -1    0    0    0    0 +0.0000000000e+00 +0.0000000000e+00 +4.9999998884e+02 5.0000000000e+02 1.0566000000e-01 0.0000e+00 1.0000e+00
      994 -1    0    0    0    0 -0.0000000000e+00 -0.0000000000e+00 +0.0000000000e+00 1.3100000000e+02 1.3100000000e+02 0.0000e+00 0.0000e+00
       13  1    1    2    0    0 -2.1215607615e+01 +1.7993151219e+01 +5.6237760496e-01 2.7824142932e+01 1.0566000000e-01 0.0000e+00 -1.0000e+00
      994  1    1    2    0    0 +1.5969599332e+01 +2.1375666551e+00 +1.4820543592e+02 1.9845767441e+02 1.3100000000e+02 0.0000e+00 0.0000e+00
      997  1    1    2    0    0 +5.2460082834e+00 -2.0130717874e+01 +3.5123217531e+02 4.0471818266e+02 2.0000000000e+02 0.0000e+00 0.0000e+00
</event>
<event>
 5      1 +6.7420000e-10 2.29347400e+02 7.95774700e-02 4.57964500e-01
       13 -1    0    0    0    0 +0.0000000000e+00 +0.0000000000e+00 +4.9999998884e+02 5.0000000000e+02 1.0566000000e-01 0.0000e+00 1.0000e+00
      994 -1    0    0    0    0 -0.0000000000e+00 -0.0000000000e+00 +0.0000000000e+00 1.3100000000e+02 1.3100000000e+02 0.0000e+00 0.0000e+00
       13  1    1    2    0    0 +7.0784391606e+00 +9.4868802649e+00 +5.4892477138e+00 1.3047919474e+01 1.0566000000e-01 0.0000e+00 -1.0000e+00
      994  1    1    2    0    0 -3.4754886230e+01 -6.2530980052e+01 +1.3019784334e+02 1.9806691797e+02 1.3100000000e+02 0.0000e+00 0.0000e+00
      997  1    1    2    0    0 +2.7676447070e+01 +5.3044099787e+01 +3.6431289779e+02 4.1988516256e+02 2.0000000000e+02 0.0000e+00 0.0000e+00
</event>
<event>
 5      1 +6.7420000e-10 2.29936300e+02 7.95774700e-02 4.57189100e-01
       13 -1    0    0    0    0 +0.0000000000e+00 +0.0000000000e+00 +4.9999998884e+02 5.0000000000e+02 1.0566000000e-01 0.0000e+00 -1.0000e+00
      994 -1    0    0    0    0 -0.0000000000e+00 -0.0000000000e+00 +0.0000000000e+00 1.3100000000e+02 1.3100000000e+02 0.0000e+00 0.0000e+00
       13  1    1    2    0    0 -5.8010414498e+00 -1.2392657249e+01 +3.6305448623e+01 3.8798541201e+01 1.0566000000e-01 0.0000e+00 1.0000e+00
      994  1    1    2    0    0 +1.4983843873e+01 -4.3566063704e+00 +6.7992320751e+01 1.4841647913e+02 1.3100000000e+02 0.0000e+00 0.0000e+00
      997  1    1    2    0    0 -9.1828024233e+00 +1.6749263619e+01 +3.9570221946e+02 4.4378497967e+02 2.0000000000e+02 0.0000e+00 0.0000e+00
</event>
<event>
 5      1 +6.7420000e-10 2.41858800e+02 7.95774700e-02 4.42459300e-01
       13 -1    0    0    0    0 +0.0000000000e+00 +0.0000000000e+00 +4.9999998884e+02 5.0000000000e+02 1.0566000000e-01 0.0000e+00 -1.0000e+00
      994 -1    0    0    0    0 -0.0000000000e+00 -0.0000000000e+00 +0.0000000000e+00 1.3100000000e+02 1.3100000000e+02 0.0000e+00 0.0000e+00
       13  1    1    2    0    0 +1.7714287900e+01 -1.3146387294e+01 +1.2186555774e+01 2.5202118966e+01 1.0566000000e-01 0.0000e+00 1.0000e+00
      994  1    1    2    0    0 +3.2730977833e+01 -2.7567494788e+01 +1.2290628843e+02 1.8465708601e+02 1.3100000000e+02 0.0000e+00 0.0000e+00
      997  1    1    2    0    0 -5.0445265733e+01 +4.0713882082e+01 +3.6490714463e+02 4.2114079502e+02 2.0000000000e+02 0.0000e+00 0.0000e+00
</event>
<event>
 5      1 +6.7420000e-10 2.29490600e+02 7.95774700e-02 4.57775600e-01
       13 -1    0    0    0    0 +0.0000000000e+00 +0.0000000000e+00 +4.9999998884e+02 5.0000000000e+02 1.0566000000e-01 0.0000e+00 1.0000e+00
      994 -1    0    0    0    0 -0.0000000000e+00 -0.0000000000e+00 +0.0000000000e+00 1.3100000000e+02 1.3100000000e+02 0.0000e+00 0.0000e+00
       13  1    1    2    0    0 +1.8121789049e+00 +1.4361022751e+01 +2.0683149779e+01 2.5245332552e+01 1.0566000000e-01 0.0000e+00 -1.0000e+00
      994  1    1    2    0    0 -3.0305944625e+01 -2.5057938811e+01 +8.0875140327e+01 1.5889662961e+02 1.3100000000e+02 0.0000e+00 0.0000e+00
      997  1    1    2    0    0 +2.8493765720e+01 +1.0696916060e+01 +3.9844169873e+02 4.4685803784e+02 2.0000000000e+02 0.0000e+00 0.0000e+00
</event>
<event>
 5      1 +6.7420000e-10 2.41945700e+02 7.95774700e-02 4.42358200e-01
       13 -1    0    0    0    0 +0.0000000000e+00 +0.0000000000e+00 +4.9999998884e+02 5.0000000000e+02 1.0566000000e-01 0.0000e+00 1.0000e+00
      994 -1    0    0    0    0 -0.0000000000e+00 -0.0000000000e+00 +0.0000000000e+00 1.3100000000e+02 1.3100000000e+02 0.0000e+00 0.0000e+00
       13  1    1    2    0    0 -1.5931200844e+01 +9.1393812088e+00 +2.5116727347e+00 1.8537829246e+01 1.0566000000e-01 0.0000e+00 -1.0000e+00
      994  1    1    2    0    0 -1.3253932330e+01 -2.0038048661e+01 +1.0049525991e+02 1.6684569932e+02 1.3100000000e+02 0.0000e+00 0.0000e+00
      997  1    1    2    0    0 +2.9185133174e+01 +1.0898667452e+01 +3.9699305619e+02 4.4561647144e+02 2.0000000000e+02 0.0000e+00 0.0000e+00
</event>
<event>
 5      1 +6.7420000e-10 2.39464100e+02 7.95774700e-02 4.45277500e-01
       13 -1    0    0    0    0 +0.0000000000e+00 +0.0000000000e+00 +4.9999998884e+02 5.0000000000e+02 1.0566000000e-01 0.0000e+00 -1.0000e+00
      994 -1    0    0    0    0 -0.0000000000e+00 -0.0000000000e+00 +0.0000000000e+00 1.3100000000e+02 1.3100000000e+02 0.0000e+00 0.0000e+00
       13  1    1    2    0    0 -2.7393417674e+01 +4.4832735906e+00 +5.0957361908e+01 5.8027260582e+01 1.0566000000e-01 0.0000e+00 1.0000e+00
      994  1    1    2    0    0 +7.8908066027e+00 +5.2864640301e+01 +1.3362562693e+02 1.9461177558e+02 1.3100000000e+02 0.0000e+00 0.0000e+00
      997  1    1    2    0    0 +1.9502611071e+01 -5.7347913892e+01 +3.1541700000e+02 3.7836096384e+02 2.0000000000e+02 0.0000e+00 0.0000e+00
</event>
<event>
 5      1 +6.7420000e-10 2.39298000e+02 7.95774700e-02 4.45475500e-01
       13 -1    0    0    0    0 +0.0000000000e+00 +0.0000000000e+00 +4.9999998884e+02 5.0000000000e+02 1.0566000000e-01 0.0000e+00 -1.0000e+00
      994 -1    0    0    0    0 -0.0000000000e+00 -0.0000000000e+00 +0.0000000000e+00 1.3100000000e+02 1.3100000000e+02 0.0000e+00 0.0000e+00
       13  1    1    2    0    0 -1.0182402522e+01 +3.2105161779e+01 +6.5596042862e+01 7.3737878578e+01 1.0566000000e-01 0.0000e+00 1.0000e+00
      994  1    1    2    0    0 +4.7509761876e+01 -3.8765900135e+01 +1.6153496988e+02 2.1682831683e+02 1.3100000000e+02 0.0000e+00 0.0000e+00
      997  1    1    2    0    0 -3.7327359354e+01 +6.6607383550e+00 +2.7286897610e+02 3.4043380459e+02 2.0000000000e+02 0.0000e+00 0.0000e+00
</event>
<event>
 5      1 +6.7420000e-10 2.33710200e+02 7.95774700e-02 4.52331400e-01
       13 -1    0    0    0    0 +0.0000000000e+00 +0.0000000000e+00 +4.9999998884e+02 5.0000000000e+02 1.0566000000e-01 0.0000e+00 1.0000e+00
      994 -1    0    0    0    0 -0.0000000000e+00 -0.0000000000e+00 +0.0000000000e+00 1.3100000000e+02 1.3100000000e+02 0.0000e+00 0.0000e+00
       13  1    1    2    0    0 +1.5919445544e+01 -8.9937381756e+00 +6.8382155998e+01 7.0784507456e+01 1.0566000000e-01 0.0000e+00 -1.0000e+00
      994  1    1    2    0    0 -4.8306494940e+01 -3.9493724883e+00 +1.0148516845e+02 1.7265385722e+02 1.3100000000e+02 0.0000e+00 0.0000e+00
      997  1    1    2    0    0 +3.2387049396e+01 +1.2943110664e+01 +3.3013266439e+02 3.8756163533e+02 2.0000000000e+02 0.0000e+00 0.0000e+00
</event>
<event>
 5      1 +6.7420000e-10 2.29065600e+02 7.95774700e-02 4.58337400e-01
       13 -1    0    0    0    0 +0.0000000000e+00 +0.0000000000e+00 +4.9999998884e+02 5.0000000000e+02 1.0566000000e-01 0.0000e+00 1.0000e+00
      994 -1    0    0    0    0 -0.0000000000e+00 -0.0000000000e+00 +0.0000000000e+00 1.3100000000e+02 1.3100000000e+02 0.0000e+00 0.0000e+00
       13  1    1    2    0    0 +5.0676859473e+00 +1.1691231328e+01 +1.5558792163e+01 2.0111029522e+01 1.0566000000e-01 0.0000e+00 -1.0000e+00
      994  1    1    2    0    0 -2.2316858801e+01 -1.6027386076e+01 +7.1572512962e+01 1.5178453117e+02 1.3100000000e+02 0.0000e+00 0.0000e+00
      997  1    1    2    0    0 +1.7249172854e+01 +4.3361547476e+00 +4.1286868371e+02 4.5910443931e+02 2.0000000000e+02 0.0000e+00 0.0000e+00
</event>
<event>
 5      1 +6.7420000e-10 2.44187500e+02 7.95774700e-02 4.39781400e-01
       13 -1    0    0    0    0 +0.0000000000e+00 +0.0000000000e+00 +4.9999998884e+02 5.0000000000e+02 1.0566000000e-01 0.0000e+00 1.0000e+00
      994 -1    0    0    0    0 -0.0000000000e+00 -0.0000000000e+00 +0.0000000000e+00 1.3100000000e+02 1.3100000000e+02 0.0000e+00 0.0000e+00
       13  1    1    2    0    0 +5.8665263795e+00 +1.7593439082e+01 -3.2114958710e+00 1.8822064187e+01 1.0566000000e-01 0.0000e+00 -1.0000e+00
      994  1    1    2    0    0 +4.8296157881e+01 -1.7603035432e+01 +1.8472987147e+02 2.3222513028e+02 1.3100000000e+02 0.0000e+00 0.0000e+00
      997  1    1    2    0    0 -5.4162684261e+01 +9.5963496879e-03 +3.1848161324e+02 3.7995280553e+02 2.0000000000e+02 0.0000e+00 0.0000e+00
</event>
<event>
 5      1 +6.7420000e-10 2.37554200e+02 7.95774700e-02 4.47573700e-01
       13 -1    0    0    0    0 +0.0000000000e+00 +0.0000000000e+00 +4.9999998884e+02 5.0000000000e+02 1.0566000000e-01 0.0000e+00 1.0000e+00
      994 -1    0    0    0    0 -0.0000000000e+00 -0.0000000000e+00 +0.0000000000e+00 1.3100000000e+02 1.3100000000e+02 0.0000e+00 0.0000e+00
       13  1    1    2    0    0 +3.0455868353e+01 -1.6726800879e+01 +4.3104104524e+01 5.5365339118e+01 1.0566000000e-01 0.0000e+00 -1.0000e+00
      994  1    1    2    0    0 -6.0118496090e+01 +2.9835580148e+01 +1.7978673169e+02 2.3235460896e+02 1.3100000000e+02 0.0000e+00 0.0000e+00
      997  1    1    2    0    0 +2.9662627736e+01 -1.3108779268e+01 +2.7710915262e+02 3.4328005192e+02 2.0000000000e+02 0.0000e+00 0.0000e+00
</event>
<event>
 5      1 +6.7420000e-10 2.42321700e+02 7.95774700e-02 4.41922100e-01
       13 -1    0    0    0    0 +0.0000000000e+00 +0.0000000000e+00 +4.9999998884e+02 5.0000000000e+02 1.0566000000e-01 0.0000e+00 -1.0000e+00
      994 -1    0    0    0    0 -0.0000000000e+00 -0.0000000000e+00 +0.0000000000e+00 1.3100000000e+02 1.3100000000e+02 0.0000e+00 0.0000e+00
       13  1    1    2    0    0 -6.0700553732e+00 +2.2647199811e+01 +6.8254594778e+00 2.4420059226e+01 1.0566000000e-01 0.0000e+00 1.0000e+00
      994  1    1    2    0    0 -3.6315740466e+01 -2.8890974060e+01 +1.3290220567e+02 1.9229539168e+02 1.3100000000e+02 0.0000e+00 0.0000e+00
      997  1    1    2    0    0 +4.2385795839e+01 +6.2437742491e+00 +3.6027232369e+02 4.1428454910e+02 2.0000000000e+02 0.0000e+00 0.0000e+00
</event>
<event>
 5      1 +6.7420000e-10 2.47326300e+02 7.95774700e-02 4.36265600e-01
       13 -1    0    0    0    0 +0.0000000000e+00 +0.0000000000e+00 +4.9999998884e+02 5.0000000000e+02 1.0566000000e-01 0.0000e+00 1.0000e+00
      994 -1    0    0    0    0 -0.0000000000e+00 -0.0000000000e+00 +0.0000000000e+00 1.3100000000e+02 1.3100000000e+02 0.0000e+00 0.0000e+00
       13  1    1    2    0    0 +2.0569982744e+01 +1.5348867358e+01 +5.8449523231e+00 2.6322738287e+01 1.0566000000e-01 0.0000e+00 -1.0000e+00
      994  1    1    2    0    0 +1.5088908707e+01 -1.7559205667e+01 +1.2113751116e+02 1.7992025311e+02 1.3100000000e+02 0.0000e+00 0.0000e+00
      997  1    1    2    0    0 -3.5658891451e+01 +2.2103383095e+00 +3.7301752536e+02 4.2475700860e+02 2.0000000000e+02 0.0000e+00 0.0000e+00
</event>
<event>
 5      1 +6.7420000e-10 2.44534000e+02 7.95774700e-02 4.39388100e-01
       13 -1    0    0    0    0 +0.0000000000e+00 +0.0000000000e+00 +4.9999998884e+02 5.0000000000e+02 1.0566000000e-01 0.0000e+00 1.0000e+00
      994 -1    0    0    0    0 -0.0000000000e+00 -0.0000000000e+00 +0.0000000000e+00 1.3100000000e+02 1.3100000000e+02 0.0000e+00 0.0000e+00
       13  1    1    2    0    0 +2.3482938491e+00 -3.3832930200e+01 +3.9796348071e+01 5.2287112501e+01 1.0566000000e-01 0.0000e+00 -1.0000e+00
      994  1    1    2    0    0 -3.1228915920e+00 -5.2956366661e+00 +1.0024870718e+02 1.6507149818e+02 1.3100000000e+02 0.0000e+00 0.0000e+00
      997  1    1    2    0    0 +7.7459774285e-01 +3.9128566866e+01 +3.5995493359e+02 4.1364138932e+02 2.0000000000e+02 0.0000e+00 0.0000e+00
</event>
<event>
 5      1 +6.7420000e-10 2.47305000e+02 7.95774700e-02 4.36289200e-01
       13 -1    0    0    0    0 +0.0000000000e+00 +0.0000000000e+00 +4.9999998884e+02 5.0000000000e+02 1.0566000000e-01 0.0000e+00 -1.0000e+00
      994 -1    0    0    0    0 -0.0000000000e+00 -0.0000000000e+00 +0.0000000000e+00 1.3100000000e+02 1.3100000000e+02 0.0000e+00 0.0000e+00
       13  1    1    2    0    0 +2.7660024327e+01 +3.7315609058e+01 +5.9000858243e+01 7.5090905326e+01 1.0566000000e-01 0.0000e+00 1.0000e+00
      994  1    1    2    0    0 -1.1273673370e+01 -3.9961182393e+01 +1.6692906108e+02 2.1621818435e+02 1.3100000000e+02 0.0000e+00 0.0000e+00
      997  1    1    2    0    0 -1.6386350957e+01 +2.6455733353e+00 +2.7407006952e+02 3.3969091033e+02 2.0000000000e+02 0.0000e+00 0.0000e+00
</event>
<event>
 5      1 +6.7420000e-10 2.34173000e+02 7.95774700e-02 4.51748800e-01
       13 -1    0    0    0    0 +0.0000000000e+00 +0.0000000000e+00 +4.9999998884e+02 5.0000000000e+02 1.0566000000e-01 0.0000e+00 -1.0000e+00
      994 -1    0    0    0    0 -0.0000000000e+00 -0.0000000000e+00 +0.0000000000e+00 1.3100000000e+02 1.3100000000e+02 0.0000e+00 0.0000e+00
       13  1    1    2    0    0 +1.1199337714e+01 +2.7170443942e+00 -1.7912684031e+00 1.1663074294e+01 1.0566000000e-01 0.0000e+00 1.0000e+00
      994  1    1    2    0    0 +2.7236760655e+01 +5.2035798756e+01 +2.7117151720e+02 3.0682985061e+02 1.3100000000e+02 0.0000e+00 0.0000e+00
      997  1    1    2    0    0 -3.8436098369e+01 -5.4752843150e+01 +2.3061974004e+02 3.1250707510e+02 2.0000000000e+02 0.0000e+00 0.0000e+00
</event>
<event>
 5      1 +6.7420000e-10 2.41181700e+02 7.95774700e-02 4.43249400e-01
       13 -1    0    0    0    0 +0.0000000000e+00 +0.0000000000e+00 +4.9999998884e+02 5.0000000000e+02 1.0566000000e-01 0.0000e+00 1.0000e+00
      994 -1    0    0    0    0 -0.0000000000e+00 -0.0000000000e+00 +0.0000000000e+00 1.3100000000e+02 1.3100000000e+02 0.0000e+00 0.0000e+00
       13  1    1    2    0    0 -2.4474999902e+01 +1.9358136148e+01 +7.9623687701e+01 8.5520207334e+01 1.0566000000e-01 0.0000e+00 -1.0000e+00
      994  1    1    2    0    0 +9.7476438676e+00 -8.9246583029e+00 +9.2194021957e+01 1.6073395339e+02 1.3100000000e+02 0.0000e+00 0.0000e+00
      997  1    1    2    0    0 +1.4727356035e+01 -1.0433477846e+01 +3.2818227918e+02 3.8474583928e+02 2.0000000000e+02 0.0000e+00 0.0000e+00
</event>
<event>
 5      1 +6.7420000e-10 2.50935300e+02 7.95774700e-02 4.32350400e-01
       13 -1    0    0    0    0 +0.0000000000e+00 +0.0000000000e+00 +4.9999998884e+02 5.0000000000e+02 1.0566000000e-01 0.0000e+00 -1.0000e+00
      994 -1    0    0    0    0 -0.0000000000e+00 -0.0000000000e+00 +0.0000000000e+00 1.3100000000e+02 1.3100000000e+02 0.0000e+00 0.0000e+00
       13  1    1    2    0    0 +5.2757079838e+00 +2.8897784192e+01 +5.0053219689e+00 2.9798983841e+01 1.0566000000e-01 0.0000e+00 1.0000e+00
      994  1    1    2    0    0 +2.5558929538e+01 -9.6200138697e-01 +1.5493061443e+02 2.0449616039e+02 1.3100000000e+02 0.0000e+00 0.0000e+00
      997  1    1    2    0    0 -3.0834637521e+01 -2.7935782805e+01 +3.4006405244e+02 3.9670485577e+02 2.0000000000e+02 0.0000e+00 0.0000e+00
</event>
<event>
 5      1 +6.7420000e-10 2.43707400e+02 7.95774700e-02 4.40328500e-01
       13 -1    0    0    0    0 +0.0000000000e+00 +0.0000000000e+00 +4.9999998884e+02 5.0000000000e+02 1.0566000000e-01 0.0000e+00 1.0000e+00
      994 -1    0    0    0    0 -0.0000000000e+00 -0.0000000000e+00 +0.0000000000e+00 1.3100000000e+02 1.3100000000e+02 0.0000e+00 0.0000e+00
       13  1    1    2    0    0 -3.3049760503e+01 -2.2637567371e+00 +8.3056117160e+01 8.9418907540e+01 1.0566000000e-01 0.0000e+00 -1.0000e+00
      994  1    1    2    0    0 +2.9156685882e+00 -7.0469483798e+00 +9.7917182108e+01 1.6372823567e+02 1.3100000000e+02 0.0000e+00 0.0000e+00
      997  1    1    2    0    0 +3.0134091914e+01 +9.3107051169e+00 +3.1902668957e+02 3.7785285679e+02 2.0000000000e+02 0.0000e+00 0.0000e+00
</event>
<event>
 5      1 +6.7420000e-10 2.29358300e+02 7.95774700e-02 4.57950300e-01
       13 -1    0    0    0    0 +0.0000000000e+00 +0.0000000000e+00 +4.9999998884e+02 5.0000000000e+02 1.0566000000e-01 0.0000e+00 1.0000e+00
      994 -1    0    0    0    0 -0.0000000000e+00 -0.0000000000e+00 +0.0000000000e+00 1.3100000000e+02 1.3100000000e+02 0.0000e+00 0.0000e+00
       13  1    1    2    0    0 -1.2649850502e+01 -5.2339275641e+00 +1.0753014967e+01 1.7408366103e+01 1.0566000000e-01 0.0000e+00 -1.0000e+00
      994  1    1    2    0    0 +5.7413117495e+01 +2.2134452491e+01 +1.0859399506e+02 1.8094158121e+02 1.3100000000e+02 0.0000e+00 0.0000e+00
      997  1    1    2    0    0 -4.4763266994e+01 -1.6900524927e+01 +3.8065297881e+02 4.3265005269e+02 2.0000000000e+02 0.0000e+00 0.0000e+00
</event>
<event>
 5      1 +6.7420000e-10 2.32769400e+02 7.95774700e-02 4.53524700e-01
       13 -1    0    0    0    0 +0.0000000000e+00 +0.0000000000e+00 +4.9999998884e+02 5.0000000000e+02 1.0566000000e-01 0.0000e+00 -1.0000e+00
      994 -1    0    0    0    0 -0.0000000000e+00 -0.0000000000e+00 +0.0000000000e+00 1.3100000000e+02 1.3100000000e+02 0.0000e+00 0.0000e+00
       13  1    1    2    0    0 -1.8851417120e+01 -5.1978411075e+00 +2.7574044707e+01 3.3804327906e+01 1.0566000000e-01 0.0000e+00 1.0000e+00
      994  1    1    2    0    0 +1.1757987985e+01 +2.9235503889e+01 +8.1778969252e+01 1.5761270501e+02 1.3100000000e+02 0.0000e+00 0.0000e+00
      997  1    1    2    0    0 +7.0934291355e+00 -2.4037662782e+01 +3.9064697488e+02 4.3958296708e+02 2.0000000000e+02 0.0000e+00 0.0000e+00
</event>
<event>
 5      1 +6.7420000e-10 2.43303900e+02 7.95774700e-02 4.40790400e-01
       13 -1    0    0    0    0 +0.0000000000e+00 +0.0000000000e+00 +4.9999998884e+02 5.0000000000e+02 1.0566000000e-01 0.0000e+00 -1.0000e+00
      994 -1    0    0    0    0 -0.0000000000e+00 -0.0000000000e+00 +0.0000000000e+00 1.3100000000e+02 1.3100000000e+02 0.0000e+00 0.0000e+00
       13  1    1    2    0    0 -2.1817182247e+01 +5.0121161848e+00 +3.6439694100e+00 2.2680397416e+01 1.0566000000e-01 0.0000e+00 1.0000e+00
      994  1    1    2    0    0 +6.3327042484e+00 -4.6257659607e+01 +1.4016827172e+02 1.9745383919e+02 1.3100000000e+02 0.0000e+00 0.0000e+00
      997  1    1    2    0    0 +1.5484477998e+01 +4.1245543422e+01 +3.5618774770e+02 4.1086576339e+02 2.0000000000e+02 0.0000e+00 0.0000e+00
</event>
<event>
 5      1 +6.7420000e-10 2.30929800e+02 7.95774700e-02 4.55891700e-01
       13 -1    0    0    0    0 +0.0000000000e+00 +0.0000000000e+00 +4.9999998884e+02 5.0000000000e+02 1.0566000000e-01 0.0000e+00 -1.0000e+00
      994 -1    0    0    0    0 -0.0000000000e+00 -0.0000000000e+00 +0.0000000000e+00 1.3100000000e+02 1.3100000000e+02 0.0000e+00 0.0000e+00
       13  1    1    2    0    0 +6.2840713361e+00 +1.1076659700e+01 +8.3458391880e+00 1.5226494621e+01 1.0566000000e-01 0.0000e+00 1.0000e+00
      994  1    1    2    0    0 -2.2910004173e+01 -1.7120314351e+01 +7.5902606388e+01 1.5407848361e+02 1.3100000000e+02 0.0000e+00 0.0000e+00
      997  1    1    2    0    0 +1.6625932837e+01 +6.0436546512e+00 +4.1575154326e+02 4.6169502177e+02 2.0000000000e+02 0.0000e+00 0.0000e+00
</event>
<event>
 5      1 +6.7420000e-10 2.53221200e+02 7.95774700e-02 4.29937700e-01
       13 -1    0    0    0    0 +0.0000000000e+00 +0.0000000000e+00 +4.9999998884e+02 5.0000000000e+02 1.0566000000e-01 0.0000e+00 -1.0000e+00
      994 -1    0    0    0    0 -0.0000000000e+00 -0.0000000000e+00 +0.0000000000e+00 1.3100000000e+02 1.3100000000e+02 0.0000e+00 0.0000e+00
       13  1    1    2    0    0 +3.8283331386e+01 +2.5191741839e+01 +5.3590863661e+01 7.0514035133e+01 1.0566000000e-01 0.0000e+00 1.0000e+00
      994  1    1    2    0    0 +1.0606594052e+00 +9.9699278713e+00 +1.5620517718e+02 2.0411168961e+02 1.3100000000e+02 0.0000e+00 0.0000e+00
      997  1    1    2    0    0 -3.9343990791e+01 -3.5161669710e+01 +2.9020394800e+02 3.5637427525e+02 2.0000000000e+02 0.0000e+00 0.0000e+00
</event>
<event>
 5      1 +6.7420000e-10 2.37163900e+02 7.95774700e-02 4.48048400e-01
       13 -1    0    0    0    0 +0.0000000000e+00 +0.0000000000e+00 +4.9999998884e+02 5.0000000000e+02 1.0566000000e-01 0.0000e+00 -1.0000e+00
      994 -1    0    0    0    0 -0.0000000000e+00 -0.0000000000e+00 +0.0000000000e+00 1.3100000000e+02 1.3100000000e+02 0.0000e+00 0.0000e+00
       13  1    1    2    0    0 +1.1241445759e+01 +8.0747586533e+00 +9.2651993139e-01 1.3872326167e+01 1.0566000000e-01 0.0000e+00 1.0000e+00
      994  1    1    2    0    0 -3.5192900330e+01 +2.5229629719e+01 +1.0526353759e+02 1.7354102338e+02 1.3100000000e+02 0.0000e+00 0.0000e+00
      997  1    1    2    0    0 +2.3951454571e+01 -3.3304388372e+01 +3.9380993131e+02 4.4358665045e+02 2.0000000000e+02 0.0000e+00 0.0000e+00
</event>
<event>
 5      1 +6.7420000e-10 2.50672700e+02 7.95774700e-02 4.32630900e-01
       13 -1    0    0    0    0 +0.0000000000e+00 +0.0000000000e+00 +4.9999998884e+02 5.0000000000e+02 1.0566000000e-01 0.0000e+00 1.0000e+00
      994 -1    0    0    0    0 -0.0000000000e+00 -0.0000000000e+00 +0.0000000000e+00 1.3100000000e+02 1.3100000000e+02 0.0000e+00 0.0000e+00
       13  1    1    2    0    0 +3.1681404412e+01 +2.7345294968e+01 +5.0400925114e+01 6.5511380376e+01 1.0566000000e-01 0.0000e+00 -1.0000e+00
      994  1    1    2    0    0 +2.1635385852e+01 -9.1414365074e+00 +1.4557088832e+02 1.9723980153e+02 1.3100000000e+02 0.0000e+00 0.0000e+00
      997  1    1    2    0    0 -5.3316790265e+01 -1.8203858460e+01 +3.0402817541e+02 3.6824881809e+02 2.0000000000e+02 0.0000e+00 0.0000e+00
</event>
<event>
 5      1 +6.7420000e-10 2.31770400e+02 7.95774700e-02 4.54804500e-01
       13 -1    0    0    0    0 +0.0000000000e+00 +0.0000000000e+00 +4.9999998884e+02 5.0000000000e+02 1.0566000000e-01 0.0000e+00 1.0000e+00
      994 -1    0    0    0    0 -0.0000000000e+00 -0.0000000000e+00 +0.0000000000e+00 1.3100000000e+02 1.3100000000e+02 0.0000e+00 0.0000e+00
       13  1    1    2    0    0 +8.9210364501e+00 -1.6876406882e+01 +2.9330167278e+01 3.4995255066e+01 1.0566000000e-01 0.0000e+00 -1.0000e+00
      994  1    1    2    0    0 -6.9514274426e+00 +2.9592532276e+01 +7.8818263063e+01 1.5587610113e+02 1.3100000000e+02 0.0000e+00 0.0000e+00
      997  1    1    2    0    0 -1.9696090075e+00 -1.2716125395e+01 +3.9185155850e+02 4.4012864381e+02 2.0000000000e+02 0.0000e+00 0.0000e+00
</event>
<event>
 5      1 +6.7420000e-10 2.30574600e+02 7.95774700e-02 4.56354000e-01
       13 -1    0    0    0    0 +0.0000000000e+00 +0.0000000000e+00 +4.9999998884e+02 5.0000000000e+02 1.0566000000e-01 0.0000e+00 -1.0000e+00
      994 -1    0    0    0    0 -0.0000000000e+00 -0.0000000000e+00 +0.0000000000e+00 1.3100000000e+02 1.3100000000e+02 0.0000e+00 0.0000e+00
       13  1    1    2    0    0 +5.8090283839e+00 +1.4137698618e+01 +1.4274998261e+01 2.0914255243e+01 1.0566000000e-01 0.0000e+00 1.0000e+00
      994  1    1    2    0    0 -9.3343154855e+00 -4.1441385654e+01 +8.6251820078e+01 1.6249582874e+02 1.3100000000e+02 0.0000e+00 0.0000e+00
      997  1    1    2    0    0 +3.5252871016e+00 +2.7303687036e+01 +3.9947317050e+02 4.4758991602e+02 2.0000000000e+02 0.0000e+00 0.0000e+00
</event>
<event>
 5      1 +6.7420000e-10 2.28723300e+02 7.95774700e-02 4.58791700e-01
       13 -1    0    0    0    0 +0.0000000000e+00 +0.0000000000e+00 +4.9999998884e+02 5.0000000000e+02 1.0566000000e-01 0.0000e+00 -1.0000e+00
      994 -1    0    0    0    0 -0.0000000000e+00 -0.0000000000e+00 +0.0000000000e+00 1.3100000000e+02 1.3100000000e+02 0.0000e+00 0.0000e+00
       13  1    1    2    0    0 +9.9022962875e+00 -9.0920275941e+00 +1.9983252223e+01 2.4084475725e+01 1.0566000000e-01 0.0000e+00 1.0000e+00
      994  1    1    2    0    0 -2.1169494782e+01 +2.5143203908e+01 +7.4280942308e+01 1.5413950370e+02 1.3100000000e+02 0.0000e+00 0.0000e+00
      997  1    1    2    0    0 +1.1267198494e+01 -1.6051176314e+01 +4.0573579430e+02 4.5277602057e+02 2.0000000000e+02 0.0000e+00 0.0000e+00
</event>
<event>
 5      1 +6.7420000e-10 2.37799800e+02 7.95774700e-02 4.47276000e-01
       13 -1    0    0    0    0 +0.0000000000e+00 +0.0000000000e+00 +4.9999998884e+02 5.0000000000e+02 1.0566000000e-01 0.0000e+00 -1.0000e+00
      994 -1    0    0    0    0 -0.0000000000e+00 -0.0000000000e+00 +0.0000000000e+00 1.3100000000e+02 1.3100000000e+02 0.0000e+00 0.0000e+00
       13  1    1    2    0    0 +9.2129318600e+00 +2.2992477950e+01 +2.3169697138e+01 3.3917225494e+01 1.0566000000e-01 0.0000e+00 1.0000e+00
      994  1    1    2    0    0 -4.8260362615e+00 -1.6539461558e+01 +8.5045012743e+01 1.5713210559e+02 1.3100000000e+02 0.0000e+00 0.0000e+00
      997  1    1    2    0    0 -4.3868955984e+00 -6.4530163925e+00 +3.9178527896e+02 4.3995066892e+02 2.0000000000e+02 0.0000e+00 0.0000e+00
</event>
<event>
 5      1 +6.7420000e-10 2.44778600e+02 7.95774700e-02 4.39111200e-01
       13 -1    0    0    0    0 +0.0000000000e+00 +0.0000000000e+00 +4.9999998884e+02 5.0000000000e+02 1.0566000000e-01 0.0000e+00 -1.0000e+00
      994 -1    0    0    0    0 -0.0000000000e+00 -0.0000000000e+00 +0.0000000000e+00 1.3100000000e+02 1.3100000000e+02 0.0000e+00 0.0000e+00
       13  1    1    2    0    0 +2.2829723966e+01 +7.6743699205e+00 +1.3338673083e+00 2.4122243181e+01 1.0566000000e-01 0.0000e+00 1.0000e+00
      994  1    1    2    0    0 -4.6595321888e+01 +4.2903472800e+00 +1.5420638936e+02 2.0767797577e+02 1.3100000000e+02 0.0000e+00 0.0000e+00
      997  1    1    2    0    0 +2.3765597922e+01 -1.1964717201e+01 +3.4445973217e+02 3.9919978105e+02 2.0000000000e+02 0.0000e+00 0.0000e+00
</event>
<event>
 5      1 +6.7420000e-10 2.44861900e+02 7.95774700e-02 4.39017000e-01
       13 -1    0    0    0    0 +0.0000000000e+00 +0.0000000000e+00 +4.9999998884e+02 5.0000000000e+02 1.0566000000e-01 0.0000e+00 -1.0000e+00
      994 -1    0    0    0    0 -0.0000000000e+00 -0.0000000000e+00 +0.0000000000e+00 1.3100000000e+02 1.3100000000e+02 0.0000e+00 0.0000e+00
       13  1    1    2    0    0 +1.5734047007e+01 +3.9197846453e+01 +4.8847011224e+01 6.4576102944e+01 1.0566000000e-01 0.0000e+00 1.0000e+00
      994  1    1    2    0    0 -3.7738895846e+01 -2.8028888134e+01 +1.5629279295e+02 2.0928038599e+02 1.3100000000e+02 0.0000e+00 0.0000e+00
      997  1    1    2    0    0 +2.2004848838e+01 -1.1168958319e+01 +2.9486018466e+02 3.5714351107e+02 2.0000000000e+02 0.0000e+00 0.0000e+00
</event>
<event>
 5      1 +6.7420000e-10 2.33517100e+02 7.95774700e-02 4.52575400e-01
       13 -1    0    0    0    0 +0.0000000000e+00 +0.0000000000e+00 +4.9999998884e+02 5.0000000000e+02 1.0566000000e-01 0.0000e+00 1.0000e+00
      994 -1    0    0    0    0 -0.0000000000e+00 -0.0000000000e+00 +0.0000000000e+00 1.3100000000e+02 1.3100000000e+02 0.0000e+00 0.0000e+00
       13  1    1    2    0    0 +5.5905802312e-01 -2.0799713481e+01 +2.6251976889e+01 3.3498031008e+01 1.0566000000e-01 0.0000e+00 -1.0000e+00
      994  1    1    2    0    0 +1.5456609073e+01 +2.4885980919e+01 +8.1882202806e+01 1.5723839845e+02 1.3100000000e+02 0.0000e+00 0.0000e+00
      997  1    1    2    0    0 -1.6015667097e+01 -4.0862674383e+00 +3.9186580914e+02 4.4026357054e+02 2.0000000000e+02 0.0000e+00 0.0000e+00
</event>
<event>
 5      1 +6.7420000e-10 2.38554700e+02 7.95774700e-02 4.46365400e-01
       13 -1    0    0    0    0 +0.0000000000e+00 +0.0000000000e+00 +4.9999998884e+02 5.0000000000e+02 1.0566000000e-01 0.0000e+00 1.0000e+00
      994 -1    0    0    0    0 -0.0000000000e+00 -0.0000000000e+00 +0.0000000000e+00 1.3100000000e+02 1.3100000000e+02 0.0000e+00 0.0000e+00
       13  1    1    2    0    0 -1.1417219647e+01 -1.9516871960e+01 +2.3495398138e+01 3.2608374588e+01 1.0566000000e-01 0.0000e+00 -1.0000e+00
      994  1    1    2    0    0 -2.4728692949e+01 -1.7850157907e+01 +9.5512514053e+01 1.6496598659e+02 1.3100000000e+02 0.0000e+00 0.0000e+00
      997  1    1    2    0    0 +3.6145912596e+01 +3.7367029867e+01 +3.8099207664e+02 4.3342563882e+02 2.0000000000e+02 0.0000e+00 0.0000e+00
</event>
<event>
 5      1 +6.7420000e-10 2.31779000e+02 7.95774700e-02 4.54793400e-01
       13 -1    0    0    0    0 +0.0000000000e+00 +0.0000000000e+00 +4.9999998884e+02 5.0000000000e+02 1.0566000000e-01 0.0000e+00 -1.0000e+00
      994 -1    0    0    0    0 -0.0000000000e+00 -0.0000000000e+00 +0.0000000000e+00 1.3100000000e+02 1.3100000000e+02 0.0000e+00 0.0000e+00
       13  1    1    2    0    0 +6.2078538136e+00 +9.9059508443e+00 +4.7204095727e+01 4.8630269674e+01 1.0566000000e-01 0.0000e+00 1.0000e+00
      994  1    1    2    0    0 -4.6688079609e+01 +4.2556209781e+01 +1.2031468613e+02 1.8875230188e+02 1.3100000000e+02 0.0000e+00 0.0000e+00
      997  1    1    2    0    0 +4.0480225796e+01 -5.2462160625e+01 +3.3248120698e+02 3.9361742844e+02 2.0000000000e+02 0.0000e+00 0.0000e+00
</event>
<event>
 5      1 +6.7420000e-10 2.29347400e+02 7.95774700e-02 4.57964600e-01
       13 -1    0    0    0    0 +0.0000000000e+00 +0.0000000000e+00 +4.9999998884e+02 5.0000000000e+02 1.0566000000e-01 0.0000e+00 -1.0000e+00
      994 -1    0    0    0    0 -0.0000000000e+00 -0.0000000000e+00 +0.0000000000e+00 1.3100000000e+02 1.3100000000e+02 0.0000e+00 0.0000e+00
       13  1    1    2    0    0 -4.7407099530e+00 +1.6370137746e+01 +3.4420815710e+01 3.8409106457e+01 1.0566000000e-01 0.0000e+00 1.0000e+00
      994  1    1    2    0    0 +3.9567688490e+01 -5.4470208652e+01 +1.1998094770e+02 1.8997113837e+02 1.3100000000e+02 0.0000e+00 0.0000e+00
      997  1    1    2    0    0 -3.4826978537e+01 +3.8100070906e+01 +3.4559822542e+02 4.0261975517e+02 2.0000000000e+02 0.0000e+00 0.0000e+00
</event>
<event>
 5      1 +6.7420000e-10 2.31288100e+02 7.95774700e-02 4.55427200e-01
       13 -1    0    0    0    0 +0.0000000000e+00 +0.0000000000e+00 +4.9999998884e+02 5.0000000000e+02 1.0566000000e-01 0.0000e+00 1.0000e+00
      994 -1    0    0    0    0 -0.0000000000e+00 -0.0000000000e+00 +0.0000000000e+00 1.3100000000e+02 1.3100000000e+02 0.0000e+00 0.0000e+00
       13  1    1    2    0    0 -1.4222654272e+01 +8.8347983210e+00 +3.0461027222e+01 3.4759500850e+01 1.0566000000e-01 0.0000e+00 -1.0000e+00
      994  1    1    2    0    0 -2.7365363594e+00 -1.8891298586e+01 +7.1773865363e+01 1.5058837121e+02 1.3100000000e+02 0.0000e+00 0.0000e+00
      997  1    1    2    0    0 +1.6959190631e+01 +1.0056500265e+01 +3.9776509625e+02 4.4565212794e+02 2.0000000000e+02 0.0000e+00 0.0000e+00
</event>
<event>
 5      1 +6.7420000e-10 2.29076300e+02 7.95774700e-02 4.58323300e-01
       13 -1    0    0    0    0 +0.0000000000e+00 +0.0000000000e+00 +4.9999998884e+02 5.0000000000e+02 1.0566000000e-01 0.0000e+00 1.0000e+00
      994 -1    0    0    0    0 -0.0000000000e+00 -0.0000000000e+00 +0.0000000000e+00 1.3100000000e+02 1.3100000000e+02 0.0000e+00 0.0000e+00
       13  1    1    2    0    0 +2.0578845105e+00 +1.2094138512e+01 +1.1050312482e+01 1.6511318694e+01 1.0566000000e-01 0.0000e+00 -1.0000e+00
      994  1    1    2    0    0 +1.9418294649e+01 -4.2301877048e+01 +8.6995857186e+01 1.6399938456e+02 1.3100000000e+02 0.0000e+00 0.0000e+00
      997  1    1    2    0    0 -2.1476179159e+01 +3.0207738536e+01 +4.0195381917e+02 4.5048929675e+02 2.0000000000e+02 0.0000e+00 0.0000e+00
</event>
<event>
 5      1 +6.7420000e-10 2.35193500e+02 7.95774700e-02 4.50473500e-01
       13 -1    0    0    0    0 +0.0000000000e+00 +0.0000000000e+00 +4.9999998884e+02 5.0000000000e+02 1.0566000000e-01 0.0000e+00 1.0000e+00
      994 -1    0    0    0    0 -0.0000000000e+00 -0.0000000000e+00 +0.0000000000e+00 1.3100000000e+02 1.3100000000e+02 0.0000e+00 0.0000e+00
       13  1    1    2    0    0 -5.5096069994e+00 -2.3080535708e+01 +6.6493808421e+01 7.0601024215e+01 1.0566000000e-01 0.0000e+00 -1.0000e+00
      994  1    1    2    0    0 -2.0382818794e+01 +4.9554808679e+01 +1.1443026022e+02 1.8200665598e+02 1.3100000000e+02 0.0000e+00 0.0000e+00
      997  1    1    2    0    0 +2.5892425793e+01 -2.6474272971e+01 +3.1907592019e+02 3.7839231981e+02 2.0000000000e+02 0.0000e+00 0.0000e+00
</event>
<event>
 5      1 +6.7420000e-10 2.31342300e+02 7.95774700e-02 4.55357000e-01
       13 -1    0    0    0    0 +0.0000000000e+00 +0.0000000000e+00 +4.9999998884e+02 5.0000000000e+02 1.0566000000e-01 0.0000e+00 1.0000e+00
      994 -1    0    0    0    0 -0.0000000000e+00 -0.0000000000e+00 +0.0000000000e+00 1.3100000000e+02 1.3100000000e+02 0.0000e+00 0.0000e+00
       13  1    1    2    0    0 -1.5497760288e+01 +9.3908860163e+00 +3.4653964456e+01 3.9105980753e+01 1.0566000000e-01 0.0000e+00 -1.0000e+00
      994  1    1    2    0    0 -1.0831105613e+00 -6.1327519694e+01 +1.1491225379e+02 1.8473782469e+02 1.3100000000e+02 0.0000e+00 0.0000e+00
      997  1    1    2    0    0 +1.6580870849e+01 +5.1936633678e+01 +3.5043377059e+02 4.0715619456e+02 2.0000000000e+02 0.0000e+00 0.0000e+00
</event>
<event>
 5      1 +6.7420000e-10 2.35979100e+02 7.95774700e-02 4.49500700e-01
       13 -1    0    0    0    0 +0.0000000000e+00 +0.0000000000e+00 +4.9999998884e+02 5.0000000000e+02 1.0566000000e-01 0.0000e+00 1.0000e+00
      994 -1    0    0    0    0 -0.0000000000e+00 -0.0000000000e+00 +0.0000000000e+00 1.3100000000e+02 1.3100000000e+02 0.0000e+00 0.0000e+00
       13  1    1    2    0    0 +1.0084846313e+01 -2.3207884083e+01 +5.7300791917e+01 6.2639459825e+01 1.0566000000e-01 0.0000e+00 -1.0000e+00
      994  1    1    2    0    0 +1.5669788724e+01 +3.0834924931e+01 +9.2079781753e+01 1.6381703538e+02 1.3100000000e+02 0.0000e+00 0.0000e+00
      997  1    1    2    0    0 -2.5754635037e+01 -7.6270408480e+00 +3.5061941517e+02 4.0454350479e+02 2.0000000000e+02 0.0000e+00 0.0000e+00
</event>
<event>
 5      1 +6.7420000e-10 2.48853100e+02 7.95774700e-02 4.34593000e-01
       13 -1    0    0    0    0 +0.0000000000e+00 +0.0000000000e+00 +4.9999998884e+02 5.0000000000e+02 1.0566000000e-01 0.0000e+00 -1.0000e+00
      994 -1    0    0    0    0 -0.0000000000e+00 -0.0000000000e+00 +0.0000000000e+00 1.3100000000e+02 1.3100000000e+02 0.0000e+00 0.0000e+00
       13  1    1    2    0    0 +2.6772257145e+01 +1.9964394205e+01 +2.0765655559e+01 3.9326255904e+01 1.0566000000e-01 0.0000e+00 1.0000e+00
      994  1    1    2    0    0 +2.9972454960e+01 +1.7780260494e+01 +1.9599184192e+02 2.3830293288e+02 1.3100000000e+02 0.0000e+00 0.0000e+00
      997  1    1    2    0    0 -5.6744712105e+01 -3.7744654698e+01 +2.8324249136e+02 3.5337081122e+02 2.0000000000e+02 0.0000e+00 0.0000e+00
</event>
<event>
 5      1 +6.7420000e-10 2.48841300e+02 7.95774700e-02 4.34605900e-01
       13 -1    0    0    0    0 +0.0000000000e+00 +0.0000000000e+00 +4.9999998884e+02 5.0000000000e+02 1.0566000000e-01 0.0000e+00 1.0000e+00
      994 -1    0    0    0    0 -0.0000000000e+00 -0.0000000000e+00 +0.0000000000e+00 1.3100000000e+02 1.3100000000e+02 0.0000e+00 0.0000e+00
       13  1    1    2    0    0 -6.4320607481e+00 -2.1185360530e+01 -3.5432442776e-01 2.2143342478e+01 1.0566000000e-01 0.0000e+00 -1.0000e+00
      994  1    1    2    0    0 -2.3115739813e+01 -8.8305964750e+00 +1.3206775776e+02 1.8765715947e+02 1.3100000000e+02 0.0000e+00 0.0000e+00
      997  1    1    2    0    0 +2.9547800561e+01 +3.0015957005e+01 +3.6828655550e+02 4.2119949805e+02 2.0000000000e+02 0.0000e+00 0.0000e+00
</event>
<event>
 5      1 +6.7420000e-10 2.32210300e+02 7.95774700e-02 4.54239200e-01
       13 -1    0    0    0    0 +0.0000000000e+00 +0.0000000000e+00 +4.9999998884e+02 5.0000000000e+02 1.0566000000e-01 0.0000e+00 1.0000e+00
      994 -1    0    0    0    0 -0.0000000000e+00 -0.0000000000e+00 +0.0000000000e+00 1.3100000000e+02 1.3100000000e+02 0.0000e+00 0.0000e+00
       13  1    1    2    0    0 -4.4986837039e+00 +1.0440202547e+01 +5.0096939801e+00 1.2423533398e+01 1.0566000000e-01 0.0000e+00 -1.0000e+00
      994  1    1    2    0    0 -3.3685617543e+01 -4.6449403546e+00 +8.2422826324e+01 1.5846393470e+02 1.3100000000e+02 0.0000e+00 0.0000e+00
      997  1    1    2    0    0 +3.8184301247e+01 -5.7952621923e+00 +4.1256746853e+02 4.6011253191e+02 2.0000000000e+02 0.0000e+00 0.0000e+00
</event>
<event>
 5      1 +6.7420000e-10 2.44884400e+02 7.95774700e-02 4.38991600e-01
       13 -1    0    0    0    0 +0.0000000000e+00 +0.0000000000e+00 +4.9999998884e+02 5.0000000000e+02 1.0566000000e-01 0.0000e+00 -1.0000e+00
      994 -1    0    0    0    0 -0.0000000000e+00 -0.0000000000e+00 +0.0000000000e+00 1.3100000000e+02 1.3100000000e+02 0.0000e+00 0.0000e+00
       13  1    1    2    0    0 -1.2674529826e+00 -2.0823067453e+01 +1.7577534610e+00 2.0935793190e+01 1.0566000000e-01 0.0000e+00 1.0000e+00
      994  1    1    2    0    0 -1.9219520928e+01 +9.3444525130e+00 +1.0874537346e+02 1.7159039899e+02 1.3100000000e+02 0.0000e+00 0.0000e+00
      997  1    1    2    0    0 +2.0486973911e+01 +1.1478614940e+01 +3.8949686191e+02 4.3847380782e+02 2.0000000000e+02 0.0000e+00 0.0000e+00
</event>
<event>
 5      1 +6.7420000e-10 2.42524600e+02 7.95774700e-02 4.41687500e-01
       13 -1    0    0    0    0 +0.0000000000e+00 +0.0000000000e+00 +4.9999998884e+02 5.0000000000e+02 1.0566000000e-01 0.0000e+00 -1.0000e+00
      994 -1    0    0    0    0 -0.0000000000e+00 -0.0000000000e+00 +0.0000000000e+00 1.3100000000e+02 1.3100000000e+02 0.0000e+00 0.0000e+00
       13  1    1    2    0    0 -2.1212138234e+01 +1.0296078112e+01 +9.7003865954e+00 2.5496523235e+01 1.0566000000e-01 0.0000e+00 1.0000e+00
      994  1    1    2    0    0 +6.5323446904e+00 -4.0895702498e+00 +9.4354085871e+01 1.6162638904e+02 1.3100000000e+02 0.0000e+00 0.0000e+00
      997  1    1    2    0    0 +1.4679793543e+01 -6.2065078624e+00 +3.9594551637e+02 4.4387708773e+02 2.0000000000e+02 0.0000e+00 0.0000e+00
</event>
<event>
 5      1 +6.7420000e-10 2.39595300e+02 7.95774700e-02 4.45121300e-01
       13 -1    0    0    0    0 +0.0000000000e+00 +0.0000000000e+00 +4.9999998884e+02 5.0000000000e+02 1.0566000000e-01 0.0000e+00 1.0000e+00
      994 -1    0    0    0    0 -0.0000000000e+00 -0.0000000000e+00 +0.0000000000e+00 1.3100000000e+02 1.3100000000e+02 0.0000e+00 0.0000e+00
       13  1    1    2    0    0 -3.0276748341e+01 -3.7702562937e-01 +4.6301917510e+01 5.5323614918e+01 1.0566000000e-01 0.0000e+00 -1.0000e+00
      994  1    1    2    0    0 +1.1354750956e+01 +6.8107704569e+00 +8.7954977071e+01 1.5834265046e+02 1.3100000000e+02 0.0000e+00 0.0000e+00
      997  1    1    2    0    0 +1.8921997385e+01 -6.4337448275e+00 +3.6574309425e+02 4.1733373462e+02 2.0000000000e+02 0.0000e+00 0.0000e+00
</event>
<event>
 5      1 +6.7420000e-10 2.40407400e+02 7.95774700e-02 4.44159500e-01
       13 -1    0    0    0    0 +0.0000000000e+00 +0.0000000000e+00 +4.9999998884e+02 5.0000000000e+02 1.0566000000e-01 0.0000e+00 1.0000e+00
      994 -1    0    0    0    0 -0.0000000000e+00 -0.0000000000e+00 +0.0000000000e+00 1.3100000000e+02 1.3100000000e+02 0.0000e+00 0.0000e+00
       13  1    1    2    0    0 -1.4401840850e+01 -2.8279080390e+01 +4.0217545674e+01 5.1230670029e+01 1.0566000000e-01 0.0000e+00 -1.0000e+00
      994  1    1    2    0    0 -1.9451273881e+00 +2.3228597483e+01 +9.5291408291e+01 1.6366063594e+02 1.3100000000e+02 0.0000e+00 0.0000e+00
      997  1    1    2    0    0 +1.6346968238e+01 +5.0504829070e+00 +3.6449103487e+02 4.1610869403e+02 2.0000000000e+02 0.0000e+00 0.0000e+00
</event>
<event>
 5      1 +6.7420000e-10 2.46899400e+02 7.95774700e-02 4.36737700e-01
       13 -1    0    0    0    0 +0.0000000000e+00 +0.0000000000e+00 +4.9999998884e+02 5.0000000000e+02 1.0566000000e-01 0.0000e+00 -1.0000e+00
      994 -1    0    0    0    0 -0.0000000000e+00 -0.0000000000e+00 +0.0000000000e+00 1.3100000000e+02 1.3100000000e+02 0.0000e+00 0.0000e+00
       13  1    1    2    0    0 +1.6779792246e+01 +2.4044254579e+01 +1.6409283294e+01 3.3600049827e+01 1.0566000000e-01 0.0000e+00 1.0000e+00
      994  1    1    2    0    0 +2.5651433830e+01 +8.2215421659e+00 +1.2339510540e+02 1.8196961793e+02 1.3100000000e+02 0.0000e+00 0.0000e+00
      997  1    1    2    0    0 -4.2431226077e+01 -3.2265796745e+01 +3.6019560014e+02 4.1543033224e+02 2.0000000000e+02 0.0000e+00 0.0000e+00
</event>
<event>
 5      1 +6.7420000e-10 2.31620700e+02 7.95774700e-02 4.54997400e-01
       13 -1    0    0    0    0 +0.0000000000e+00 +0.0000000000e+00 +4.9999998884e+02 5.0000000000e+02 1.0566000000e-01 0.0000e+00 -1.0000e+00
      994 -1    0    0    0    0 -0.0000000000e+00 -0.0000000000e+00 +0.0000000000e+00 1.3100000000e+02 1.3100000000e+02 0.0000e+00 0.0000e+00
       13  1    1    2    0    0 +1.4807190353e+01 -5.3855874010e+00 +1.1542059316e+01 1.9531711013e+01 1.0566000000e-01 0.0000e+00 1.0000e+00
      994  1    1    2    0    0 -3.4089950931e+01 +3.5108428394e+01 +9.6178043593e+01 1.6972313504e+02 1.3100000000e+02 0.0000e+00 0.0000e+00
      997  1    1    2    0    0 +1.9282760578e+01 -2.9722840993e+01 +3.9227988593e+02 4.4174515395e+02 2.0000000000e+02 0.0000e+00 0.0000e+00
</event>
<event>
 5      1 +6.7420000e-10 2.48877100e+02 7.95774700e-02 4.34567000e-01
       13 -1    0    0    0    0 +0.0000000000e+00 +0.0000000000e+00 +4.9999998884e+02 5.0000000000e+02 1.0566000000e-01 0.0000e+00 -1.0000e+00
      994 -1    0    0    0    0 -0.0000000000e+00 -0.0000000000e+00 +0.0000000000e+00 1.3100000000e+02 1.3100000000e+02 0.0000e+00 0.0000e+00
       13  1    1    2    0    0 -1.5457596030e+01 +2.5514163752e+01 +8.2323187274e+00 3.0946600179e+01 1.0566000000e-01 0.0000e+00 1.0000e+00
      994  1    1    2    0    0 -2.6609456192e+01 -1.9667513949e+01 +1.5074377567e+02 2.0243408845e+02 1.3100000000e+02 0.0000e+00 0.0000e+00
      997  1    1    2    0    0 +4.2067052222e+01 -5.8466498030e+00 +3.4102389443e+02 3.9761931137e+02 2.0000000000e+02 0.0000e+00 0.0000e+00
</event>
<event>
 5      1 +6.7420000e-10 2.44063000e+02 7.95774700e-02 4.39923000e-01
       13 -1    0    0    0    0 +0.0000000000e+00 +0.0000000000e+00 +4.9999998884e+02 5.0000000000e+02 1.0566000000e-01 0.0000e+00 -1.0000e+00
      994 -1    0    0    0    0 -0.0000000000e+00 -0.0000000000e+00 +0.0000000000e+00 1.3100000000e+02 1.3100000000e+02 0.0000e+00 0.0000e+00
       13  1    1    2    0    0 +2.8600827857e+01 +1.9894692499e+01 +4.8578518704e+01 5.9780346162e+01 1.0566000000e-01 0.0000e+00 1.0000e+00
      994  1    1    2    0    0 +1.3969335215e+01 -1.9164716838e+01 +1.0755103078e+02 1.7114512239e+02 1.3100000000e+02 0.0000e+00 0.0000e+00
      997  1    1    2    0    0 -4.2570163072e+01 -7.2997566122e-01 +3.4387043936e+02 4.0007453144e+02 2.0000000000e+02 0.0000e+00 0.0000e+00
</event>
<event>
 5      1 +6.7420000e-10 2.27928300e+02 7.95774700e-02 4.59853300e-01
       13 -1    0    0    0    0 +0.0000000000e+00 +0.0000000000e+00 +4.9999998884e+02 5.0000000000e+02 1.0566000000e-01 0.0000e+00 -1.0000e+00
      994 -1    0    0    0    0 -0.0000000000e+00 -0.0000000000e+00 +0.0000000000e+00 1.3100000000e+02 1.3100000000e+02 0.0000e+00 0.0000e+00
       13  1    1    2    0    0 -1.0171713252e+01 +8.2873922947e+00 +2.1598021127e+01 2.5271135751e+01 1.0566000000e-01 0.0000e+00 1.0000e+00
      994  1    1    2    0    0 +5.8075823589e+01 -7.1573187867e+00 +9.9466143385e+01 1.7458104759e+02 1.3100000000e+02 0.0000e+00 0.0000e+00
      997  1    1    2    0    0 -4.7904110338e+01 -1.1300735081e+00 +3.7893582432e+02 4.3114781666e+02 2.0000000000e+02 0.0000e+00 0.0000e+00
</event>
<event>
 5      1 +6.7420000e-10 2.36761300e+02 7.95774700e-02 4.48540000e-01
       13 -1    0    0    0    0 +0.0000000000e+00 +0.0000000000e+00 +4.9999998884e+02 5.0000000000e+02 1.0566000000e-01 0.0000e+00 -1.0000e+00
      994 -1    0    0    0    0 -0.0000000000e+00 -0.0000000000e+00 +0.0000000000e+00 1.3100000000e+02 1.3100000000e+02 0.0000e+00 0.0000e+00
       13  1    1    2    0    0 +1.3969997421e+01 -1.0933119927e+01 +8.1472138941e+00 1.9521326737e+01 1.0566000000e-01 0.0000e+00 1.0000e+00
      994  1    1    2    0    0 -9.1080530351e+00 +1.1221184335e+01 +8.1507073263e+01 1.5496217151e+02 1.3100000000e+02 0.0000e+00 0.0000e+00
      997  1    1    2    0    0 -4.8619443861e+00 -2.8806440738e-01 +4.1034570168e+02 4.5651650175e+02 2.0000000000e+02 0.0000e+00 0.0000e+00
</event>
<event>
 5      1 +6.7420000e-10 2.52208800e+02 7.95774700e-02 4.31000000e-01
       13 -1    0    0    0    0 +0.0000000000e+00 +0.0000000000e+00 +4.9999998884e+02 5.0000000000e+02 1.0566000000e-01 0.0000e+00 -1.0000e+00
      994 -1    0    0    0    0 -0.0000000000e+00 -0.0000000000e+00 +0.0000000000e+00 1.3100000000e+02 1.3100000000e+02 0.0000e+00 0.0000e+00
       13  1    1    2    0    0 +6.9171482042e+00 -1.1941144744e+01 -1.3097021366e+01 1.9025798532e+01 1.0566000000e-01 0.0000e+00 1.0000e+00
      994  1    1    2    0    0 +5.8753079399e+00 +1.8489921896e+01 +1.8649167627e+02 2.2872809572e+02 1.3100000000e+02 0.0000e+00 0.0000e+00
      997  1    1    2    0    0 -1.2792456144e+01 -6.5487771521e+00 +3.2660533393e+02 3.8324610574e+02 2.0000000000e+02 0.0000e+00 0.0000e+00
</event>
<event>
 5      1 +6.7420000e-10 2.35863700e+02 7.95774700e-02 4.49643200e-01
       13 -1    0    0    0    0 +0.0000000000e+00 +0.0000000000e+00 +4.9999998884e+02 5.0000000000e+02 1.0566000000e-01 0.0000e+00 1.0000e+00
      994 -1    0    0    0    0 -0.0000000000e+00 -0.0000000000e+00 +0.0000000000e+00 1.3100000000e+02 1.3100000000e+02 0.0000e+00 0.0000e+00
       13  1    1    2    0    0 -8.1656724290e+00 -1.4003148027e+01 +7.0472164490e+00 1.7675994586e+01 1.0566000000e-01 0.0000e+00 -1.0000e+00
      994  1    1    2    0    0 +1.1561331232e+01 +6.4316899701e+00 +7.9089999519e+01 1.5359446292e+02 1.3100000000e+02 0.0000e+00 0.0000e+00
      997  1    1    2    0    0 -3.3956588031e+00 +7.5714580570e+00 +4.1386277287e+02 4.5972954249e+02 2.0000000000e+02 0.0000e+00 0.0000e+00
</event>
<event>
 5      1 +6.7420000e-10 2.41793700e+02 7.95774700e-02 4.42535100e-01
       13 -1    0    0    0    0 +0.0000000000e+00 +0.0000000000e+00 +4.9999998884e+02 5.0000000000e+02 1.0566000000e-01 0.0000e+00 1.0000e+00
      994 -1    0    0    0    0 -0.0000000000e+00 -0.0000000000e+00 +0.0000000000e+00 1.3100000000e+02 1.3100000000e+02 0.0000e+00 0.0000e+00
       13  1    1    2    0    0 -1.2177768683e+01 +3.2967535505e+01 +8.1713571265e+01 8.8950971553e+01 1.0566000000e-01 0.0000e+00 -1.0000e+00
      994  1    1    2    0    0 +1.7386249892e+01 -2.8778971707e+01 +1.0915060019e+02 1.7379690567e+02 1.3100000000e+02 0.0000e+00 0.0000e+00
      997  1    1    2    0    0 -5.2084812092e+00 -4.1885637987e+00 +3.0913581738e+02 3.6825212278e+02 2.0000000000e+02 0.0000e+00 0.0000e+00
</event>
<event>
 5      1 +6.7420000e-10 2.32673600e+02 7.95774700e-02 4.53646800e-01
       13 -1    0    0    0    0 +0.0000000000e+00 +0.0000000000e+00 +4.9999998884e+02 5.0000000000e+02 1.0566000000e-01 0.0000e+00 1.0000e+00
      994 -1    0    0    0    0 -0.0000000000e+00 -0.0000000000e+00 +0.0000000000e+00 1.3100000000e+02 1.3100000000e+02 0.0000e+00 0.0000e+00
       13  1    1    2    0    0 +1.2273696755e+01 +1.3185727859e+01 +2.4015019778e+01 3.0020649397e+01 1.0566000000e-01 0.0000e+00 -1.0000e+00
      994  1    1    2    0    0 -6.8692050193e+00 -1.4655688084e+00 +7.1122878624e+01 1.4922733574e+02 1.3100000000e+02 0.0000e+00 0.0000e+00
      997  1    1    2    0    0 -5.4044917359e+00 -1.1720159050e+01 +4.0486209043e+02 4.5175201486e+02 2.0000000000e+02 0.0000e+00 0.0000e+00
</event>
<event>
 5      1 +6.7420000e-10 2.50570200e+02 7.95774700e-02 4.32740500e-01
       13 -1    0    0    0    0 +0.0000000000e+00 +0.0000000000e+00 +4.9999998884e+02 5.0000000000e+02 1.0566000000e-01 0.0000e+00 -1.0000e+00
      994 -1    0    0    0    0 -0.0000000000e+00 -0.0000000000e+00 +0.0000000000e+00 1.3100000000e+02 1.3100000000e+02 0.0000e+00 0.0000e+00
       13  1    1    2    0    0 +2.4491988852e+01 +2.2944937047e+01 +1.5610056871e+01 3.7013682518e+01 1.0566000000e-01 0.0000e+00 1.0000e+00
      994  1    1    2    0    0 -1.4251450444e+00 +1.0040966529e+01 +1.2857848091e+02 1.8383763978e+02 1.3100000000e+02 0.0000e+00 0.0000e+00
      997  1    1    2    0    0 -2.3066843808e+01 -3.2985903576e+01 +3.5581145105e+02 4.1014867770e+02 2.0000000000e+02 0.0000e+00 0.0000e+00
</event>
<event>
 5      1 +6.7420000e-10 2.33030900e+02 7.95774700e-02 4.53191800e-01
       13 -1    0    0    0    0 +0.0000000000e+00 +0.0000000000e+00 +4.9999998884e+02 5.0000000000e+02 1.0566000000e-01 0.0000e+00 1.0000e+00
      994 -1    0    0    0    0 -0.0000000000e+00 -0.0000000000e+00 +0.0000000000e+00 1.3100000000e+02 1.3100000000e+02 0.0000e+00 0.0000e+00
       13  1    1    2    0    0 -1.5092329696e+00 -1.3644610658e+01 +8.6625680703e+00 1.6232819650e+01 1.0566000000e-01 0.0000e+00 -1.0000e+00
      994  1    1    2    0    0 -6.1621363277e+01 -1.6974717114e+01 +1.2730360503e+02 1.9352659064e+02 1.3100000000e+02 0.0000e+00 0.0000e+00
      997  1    1    2    0    0 +6.3130596246e+01 +3.0619327772e+01 +3.6403381574e+02 4.2124058971e+02 2.0000000000e+02 0.0000e+00 0.0000e+00
</event>
<event>
 5      1 +6.7420000e-10 2.34469900e+02 7.95774700e-02 4.51376400e-01
       13 -1    0    0    0    0 +0.0000000000e+00 +0.0000000000e+00 +4.9999998884e+02 5.0000000000e+02 1.0566000000e-01 0.0000e+00 1.0000e+00
      994 -1    0    0    0    0 -0.0000000000e+00 -0.0000000000e+00 +0.0000000000e+00 1.3100000000e+02 1.3100000000e+02 0.0000e+00 0.0000e+00
       13  1    1    2    0    0 -3.0996541865e+00 -1.9165011161e+01 +1.5100462035e+01 2.4595540786e+01 1.0566000000e-01 0.0000e+00 -1.0000e+00
      994  1    1    2    0    0 +6.1819496677e+01 +1.0158930265e+01 +1.3092022638e+02 1.9551460229e+02 1.3100000000e+02 0.0000e+00 0.0000e+00
      997  1    1    2    0    0 -5.8719842491e+01 +9.0060808961e+00 +3.5397930042e+02 4.1088985692e+02 2.0000000000e+02 0.0000e+00 0.0000e+00
</event>
<event>
 5      1 +6.7420000e-10 2.29974100e+02 7.95774700e-02 4.57139500e-01
       13 -1    0    0    0    0 +0.0000000000e+00 +0.0000000000e+00 +4.9999998884e+02 5.0000000000e+02 1.0566000000e-01 0.0000e+00 -1.0000e+00
      994 -1    0    0    0    0 -0.0000000000e+00 -0.0000000000e+00 +0.0000000000e+00 1.3100000000e+02 1.3100000000e+02 0.0000e+00 0.0000e+00
       13  1    1    2    0    0 -6.5706017158e+00 +7.8249842597e+00 +1.5230156289e+01 1.8340447382e+01 1.0566000000e-01 0.0000e+00 1.0000e+00
      994  1    1    2    0    0 -2.5012066076e+01 +5.4547622081e+01 +2.9465452800e+02 3.2799898993e+02 1.3100000000e+02 0.0000e+00 0.0000e+00
      997  1    1    2    0    0 +3.1582667792e+01 -6.2372606340e+01 +1.9011530455e+02 2.8466056269e+02 2.0000000000e+02 0.0000e+00 0.0000e+00
</event>
<event>
 5      1 +6.7420000e-10 2.30427100e+02 7.95774700e-02 4.56546500e-01
       13 -1    0    0    0    0 +0.0000000000e+00 +0.0000000000e+00 +4.9999998884e+02 5.0000000000e+02 1.0566000000e-01 0.0000e+00 1.0000e+00
      994 -1    0    0    0    0 -0.0000000000e+00 -0.0000000000e+00 +0.0000000000e+00 1.3100000000e+02 1.3100000000e+02 0.0000e+00 0.0000e+00
       13  1    1    2    0    0 +9.7627363545e+00 -9.1927215852e+00 +2.5115480529e+01 2.8471313238e+01 1.0566000000e-01 0.0000e+00 -1.0000e+00
      994  1    1    2    0    0 +4.2213303834e+01 +1.8561846052e+01 +8.9742619204e+01 1.6535187586e+02 1.3100000000e+02 0.0000e+00 0.0000e+00
      997  1    1    2    0    0 -5.1976040188e+01 -9.3691244669e+00 +3.8514188910e+02 4.3717681090e+02 2.0000000000e+02 0.0000e+00 0.0000e+00
</event>
<event>
 5      1 +6.7420000e-10 2.35448700e+02 7.95774700e-02 4.50156700e-01
       13 -1    0    0    0    0 +0.0000000000e+00 +0.0000000000e+00 +4.9999998884e+02 5.0000000000e+02 1.0566000000e-01 0.0000e+00 1.0000e+00
      994 -1    0    0    0    0 -0.0000000000e+00 -0.0000000000e+00 +0.0000000000e+00 1.3100000000e+02 1.3100000000e+02 0.0000e+00 0.0000e+00
       13  1    1    2    0    0 -3.3283500672e+00 -1.3092479322e+01 +2.2989011819e+00 1.3703541135e+01 1.0566000000e-01 0.0000e+00 -1.0000e+00
      994  1    1    2    0    0 -2.1516447243e+01 +3.0185222011e+01 +9.3027266689e+01 1.6489141117e+02 1.3100000000e+02 0.0000e+00 0.0000e+00
      997  1    1    2    0    0 +2.4844797311e+01 -1.7092742689e+01 +4.0467382096e+02 4.5240504770e+02 2.0000000000e+02 0.0000e+00 0.0000e+00
</event>
<event>
 5      1 +6.7420000e-10 2.36007900e+02 7.95774700e-02 4.49465200e-01
       13 -1    0    0    0    0 +0.0000000000e+00 +0.0000000000e+00 +4.9999998884e+02 5.0000000000e+02 1.0566000000e-01 0.0000e+00 -1.0000e+00
      994 -1    0    0    0    0 -0.0000000000e+00 -0.0000000000e+00 +0.0000000000e+00 1.3100000000e+02 1.3100000000e+02 0.0000e+00 0.0000e+00
       13  1    1    2    0    0 +2.0929880982e+01 -9.9920532690e-01 +6.3142296936e+01 6.6528333480e+01 1.0566000000e-01 0.0000e+00 1.0000e+00
      994  1    1    2    0    0 -5.8261572454e+01 +3.8130347840e+01 +2.1445859497e+02 2.6077159203e+02 1.3100000000e+02 0.0000e+00 0.0000e+00
      997  1    1    2    0    0 +3.7331691472e+01 -3.7131142513e+01 +2.2239909693e+02 3.0370007449e+02 2.0000000000e+02 0.0000e+00 0.0000e+00
</event>
<event>
 5      1 +6.7420000e-10 2.33158500e+02 7.95774700e-02 4.53029800e-01
       13 -1    0    0    0    0 +0.0000000000e+00 +0.0000000000e+00 +4.9999998884e+02 5.0000000000e+02 1.0566000000e-01 0.0000e+00 -1.0000e+00
      994 -1    0    0    0    0 -0.0000000000e+00 -0.0000000000e+00 +0.0000000000e+00 1.3100000000e+02 1.3100000000e+02 0.0000e+00 0.0000e+00
       13  1    1    2    0    0 -9.3737413092e+00 +1.1699980393e+01 +1.1594538200e+01 1.8952600018e+01 1.0566000000e-01 0.0000e+00 1.0000e+00
      994  1    1    2    0    0 -4.3564714993e+01 -1.9672189517e+01 +9.8981343384e+01 1.7100639102e+02 1.3100000000e+02 0.0000e+00 0.0000e+00
      997  1    1    2    0    0 +5.2938456302e+01 +7.9722091232e+00 +3.8942410725e+02 4.4104100896e+02 2.0000000000e+02 0.0000e+00 0.0000e+00
</event>
<event>
 5      1 +6.7420000e-10 2.44336100e+02 7.95774700e-02 4.39612500e-01
       13 -1    0    0    0    0 +0.0000000000e+00 +0.0000000000e+00 +4.9999998884e+02 5.0000000000e+02 1.0566000000e-01 0.0000e+00 -1.0000e+00
      994 -1    0    0    0    0 -0.0000000000e+00 -0.0000000000e+00 +0.0000000000e+00 1.3100000000e+02 1.3100000000e+02 0.0000e+00 0.0000e+00
       13  1    1    2    0    0 -5.4591633718e+00 +2.7571657400e+01 +1.0888305619e+01 3.0142413967e+01 1.0566000000e-01 0.0000e+00 1.0000e+00
      994  1    1    2    0    0 -4.7734525118e+01 -1.6829892005e+01 +1.7222609474e+02 2.2222659126e+02 1.3100000000e+02 0.0000e+00 0.0000e+00
      997  1    1    2    0    0 +5.3193688490e+01 -1.0741765395e+01 +3.1688558848e+02 3.7863099477e+02 2.0000000000e+02 0.0000e+00 0.0000e+00
</event>
<event>
 5      1 +6.7420000e-10 2.36353300e+02 7.95774700e-02 4.49040100e-01
       13 -1    0    0    0    0 +0.0000000000e+00 +0.0000000000e+00 +4.9999998884e+02 5.0000000000e+02 1.0566000000e-01 0.0000e+00 1.0000e+00
      994 -1    0    0    0    0 -0.0000000000e+00 -0.0000000000e+00 +0.0000000000e+00 1.3100000000e+02 1.3100000000e+02 0.0000e+00 0.0000e+00
       13  1    1    2    0    0 -2.7812502140e+01 +2.7259351563e-01 +6.4831909349e+01 7.0546418877e+01 1.0566000000e-01 0.0000e+00 -1.0000e+00
      994  1    1    2    0    0 +4.3379064571e+01 -2.1714233128e+01 +1.1008837062e+02 1.7785865318e+02 1.3100000000e+02 0.0000e+00 0.0000e+00
      997  1    1    2    0    0 -1.5566562431e+01 +2.1441639612e+01 +3.2507970886e+02 3.8259492795e+02 2.0000000000e+02 0.0000e+00 0.0000e+00
</event>
<event>
 5      1 +6.7420000e-10 2.27919700e+02 7.95774700e-02 4.59864900e-01
       13 -1    0    0    0    0 +0.0000000000e+00 +0.0000000000e+00 +4.9999998884e+02 5.0000000000e+02 1.0566000000e-01 0.0000e+00 -1.0000e+00
      994 -1    0    0    0    0 -0.0000000000e+00 -0.0000000000e+00 +0.0000000000e+00 1.3100000000e+02 1.3100000000e+02 0.0000e+00 0.0000e+00
       13  1    1    2    0    0 +9.6322653092e+00 +3.3274662421e+00 +2.9146371075e+01 3.0876765981e+01 1.0566000000e-01 0.0000e+00 1.0000e+00
      994  1    1    2    0    0 +1.7665174513e+00 -1.0731144218e+01 +6.3214428305e+01 1.4586069377e+02 1.3100000000e+02 0.0000e+00 0.0000e+00
      997  1    1    2    0    0 -1.1398782761e+01 +7.4036779759e+00 +4.0763918946e+02 4.5426254025e+02 2.0000000000e+02 0.0000e+00 0.0000e+00
</event>
<event>
 5      1 +6.7420000e-10 2.36898200e+02 7.95774700e-02 4.48372600e-01
       13 -1    0    0    0    0 +0.0000000000e+00 +0.0000000000e+00 +4.9999998884e+02 5.0000000000e+02 1.0566000000e-01 0.0000e+00 1.0000e+00
      994 -1    0    0    0    0 -0.0000000000e+00 -0.0000000000e+00 +0.0000000000e+00 1.3100000000e+02 1.3100000000e+02 0.0000e+00 0.0000e+00
       13  1    1    2    0    0 -2.3144751739e+01 -7.3957294828e+00 +1.8962425941e+01 3.0821439117e+01 1.0566000000e-01 0.0000e+00 -1.0000e+00
      994  1    1    2    0    0 +4.1853741666e+01 -4.3331031292e+00 +1.0281407806e+02 1.7176217896e+02 1.3100000000e+02 0.0000e+00 0.0000e+00
      997  1    1    2    0    0 -1.8708989927e+01 +1.1728832612e+01 +3.7822348483e+02 4.2841638192e+02 2.0000000000e+02 0.0000e+00 0.0000e+00
</event>
<event>
 5      1 +6.7420000e-10 2.39871200e+02 7.95774700e-02 4.44793700e-01
       13 -1    0    0    0    0 +0.0000000000e+00 +0.0000000000e+00 +4.9999998884e+02 5.0000000000e+02 1.0566000000e-01 0.0000e+00 1.0000e+00
      994 -1    0    0    0    0 -0.0000000000e+00 -0.0000000000e+00 +0.0000000000e+00 1.3100000000e+02 1.3100000000e+02 0.0000e+00 0.0000e+00
       13  1    1    2    0    0 -8.4387313870e+00 +1.7373853381e+01 +5.1032515926e+00 1.9977920552e+01 1.0566000000e-01 0.0000e+00 -1.0000e+00
      994  1    1    2    0    0 -1.9721521221e+01 -2.9095438356e+01 +1.0415382508e+02 1.7101024008e+02 1.3100000000e+02 0.0000e+00 0.0000e+00
      997  1    1    2    0    0 +2.8160252608e+01 +1.1721584975e+01 +3.9074291216e+02 4.4001183937e+02 2.0000000000e+02 0.0000e+00 0.0000e+00
</event>
<event>
 5      1 +6.7420000e-10 2.40451600e+02 7.95774700e-02 4.44107300e-01
       13 -1    0    0    0    0 +0.0000000000e+00 +0.0000000000e+00 +4.9999998884e+02 5.0000000000e+02 1.0566000000e-01 0.0000e+00 1.0000e+00
      994 -1    0    0    0    0 -0.0000000000e+00 -0.0000000000e+00 +0.0000000000e+00 1.3100000000e+02 1.3100000000e+02 0.0000e+00 0.0000e+00
       13  1    1    2    0    0 +1.3173949007e+01 +3.4210720766e+00 -2.9917477462e+00 1.3936225644e+01 1.0566000000e-01 0.0000e+00 -1.0000e+00
      994  1    1    2    0    0 -3.6008287703e+01 +2.0017798416e+01 +1.1412721719e+02 1.7855903993e+02 1.3100000000e+02 0.0000e+00 0.0000e+00
      997  1    1    2    0    0 +2.2834338695e+01 -2.3438870492e+01 +3.8886451939e+02 4.3850473442e+02 2.0000000000e+02 0.0000e+00 0.0000e+00
</event>
<event>
 5      1 +6.7420000e-10 2.35356800e+02 7.95774700e-02 4.50270600e-01
       13 -1    0    0    0    0 +0.0000000000e+00 +0.0000000000e+00 +4.9999998884e+02 5.0000000000e+02 1.0566000000e-01 0.0000e+00 1.0000e+00
      994 -1    0    0    0    0 -0.0000000000e+00 -0.0000000000e+00 +0.0000000000e+00 1.3100000000e+02 1.3100000000e+02 0.0000e+00 0.0000e+00
       13  1    1    2    0    0 +2.0628685458e+01 -1.0970564502e+01 +4.2146562492e+01 4.8189623813e+01 1.0566000000e-01 0.0000e+00 -1.0000e+00
      994  1    1    2    0    0 -2.1474892024e+00 +9.6808066027e+00 +7.7103339872e+01 1.5232942836e+02 1.3100000000e+02 0.0000e+00 0.0000e+00
      997  1    1    2    0    0 -1.8481196256e+01 +1.2897578996e+00 +3.8075008647e+02 4.3048094782e+02 2.0000000000e+02 0.0000e+00 0.0000e+00
</event>
<event>
 5      1 +6.7420000e-10 2.33822800e+02 7.95774700e-02 4.52189400e-01
       13 -1    0    0    0    0 +0.0000000000e+00 +0.0000000000e+00 +4.9999998884e+02 5.0000000000e+02 1.0566000000e-01 0.0000e+00 1.0000e+00
      994 -1    0    0    0    0 -0.0000000000e+00 -0.0000000000e+00 +0.0000000000e+00 1.3100000000e+02 1.3100000000e+02 0.0000e+00 0.0000e+00
       13  1    1    2    0    0 -2.9437614662e+00 +1.3514085548e+01 +7.3787728423e+01 7.5072873061e+01 1.0566000000e-01 0.0000e+00 -1.0000e+00
      994  1    1    2    0    0 -1.6820164702e+01 -1.8070333722e+01 +7.9669908131e+01 1.5529890265e+02 1.3100000000e+02 0.0000e+00 0.0000e+00
      997  1    1    2    0    0 +1.9763926169e+01 +4.5562481735e+00 +3.4654235228e+02 4.0062822429e+02 2.0000000000e+02 0.0000e+00 0.0000e+00
</event>
<event>
 5      1 +6.7420000e-10 2.46956700e+02 7.95774700e-02 4.36674200e-01
       13 -1    0    0    0    0 +0.0000000000e+00 +0.0000000000e+00 +4.9999998884e+02 5.0000000000e+02 1.0566000000e-01 0.0000e+00 1.0000e+00
      994 -1    0    0    0    0 -0.0000000000e+00 -0.0000000000e+00 +0.0000000000e+00 1.3100000000e+02 1.3100000000e+02 0.0000e+00 0.0000e+00
       13  1    1    2    0    0 -3.8974402085e+00 -3.6521125751e+01 +1.0594715865e+02 1.1213293118e+02 1.0566000000e-01 0.0000e+00 -1.0000e+00
      994  1    1    2    0    0 +8.2106986983e+00 +2.1860177476e+01 +1.1949679092e+02 1.7884564846e+02 1.3100000000e+02 0.0000e+00 0.0000e+00
      997  1    1    2    0    0 -4.3132584898e+00 +1.4660948274e+01 +2.7455603927e+02 3.4002142036e+02 2.0000000000e+02 0.0000e+00 0.0000e+00
</event>
<event>
 5      1 +6.7420000e-10 2.35116800e+02 7.95774700e-02 4.50568800e-01
       13 -1    0    0    0    0 +0.0000000000e+00 +0.0000000000e+00 +4.9999998884e+02 5.0000000000e+02 1.0566000000e-01 0.0000e+00 1.0000e+00
      994 -1    0    0    0    0 -0.0000000000e+00 -0.0000000000e+00 +0.0000000000e+00 1.3100000000e+02 1.3100000000e+02 0.0000e+00 0.0000e+00
       13  1    1    2    0    0 +3.7719034389e+00 -1.0066283067e+01 -2.6829576815e-01 1.0753625295e+01 1.0566000000e-01 0.0000e+00 -1.0000e+00
      994  1    1    2    0    0 +3.0271636199e+01 +2.3069547031e+01 +9.3128846899e+01 1.6517432634e+02 1.3100000000e+02 0.0000e+00 0.0000e+00
      997  1    1    2    0    0 -3.4043539638e+01 -1.3003263964e+01 +4.0713943771e+02 4.5507204836e+02 2.0000000000e+02 0.0000e+00 0.0000e+00
</event>
<event>
 5      1 +6.7420000e-10 2.46892800e+02 7.95774700e-02 4.36745000e-01
       13 -1    0    0    0    0 +0.0000000000e+00 +0.0000000000e+00 +4.9999998884e+02 5.0000000000e+02 1.0566000000e-01 0.0000e+00 1.0000e+00
      994 -1    0    0    0    0 -0.0000000000e+00 -0.0000000000e+00 +0.0000000000e+00 1.3100000000e+02 1.3100000000e+02 0.0000e+00 0.0000e+00
       13  1    1    2    0    0 +3.0114521644e+01 -3.2238882710e+01 +4.0327469142e+01 5.9770778008e+01 1.0566000000e-01 0.0000e+00 -1.0000e+00
      994  1    1    2    0    0 -1.7219246272e+01 +2.6850304542e+01 +2.2770530682e+02 2.6462832057e+02 1.3100000000e+02 0.0000e+00 0.0000e+00
      997  1    1    2    0    0 -1.2895275372e+01 +5.3885781678e+00 +2.3196721287e+02 3.0660090142e+02 2.0000000000e+02 0.0000e+00 0.0000e+00
</event>
<event>
 5      1 +6.7420000e-10 2.38385900e+02 7.95774700e-02 4.46568400e-01
       13 -1    0    0    0    0 +0.0000000000e+00 +0.0000000000e+00 +4.9999998884e+02 5.0000000000e+02 1.0566000000e-01 0.0000e+00 1.0000e+00
      994 -1    0    0    0    0 -0.0000000000e+00 -0.0000000000e+00 +0.0000000000e+00 1.3100000000e+02 1.3100000000e+02 0.0000e+00 0.0000e+00
       13  1    1    2    0    0 +2.0478841897e+01 -7.8637574052e-01 +1.4830638660e+01 2.5297437802e+01 1.0566000000e-01 0.0000e+00 -1.0000e+00
      994  1    1    2    0    0 +3.1698594599e+01 +4.0602546830e+01 +1.2361124910e+02 1.8733421634e+02 1.3100000000e+02 0.0000e+00 0.0000e+00
      997  1    1    2    0    0 -5.2177436496e+01 -3.9816171089e+01 +3.6155810108e+02 4.1836834586e+02 2.0000000000e+02 0.0000e+00 0.0000e+00
</event>
<event>
 5      1 +6.7420000e-10 2.39556700e+02 7.95774700e-02 4.45167200e-01
       13 -1    0    0    0    0 +0.0000000000e+00 +0.0000000000e+00 +4.9999998884e+02 5.0000000000e+02 1.0566000000e-01 0.0000e+00 1.0000e+00
      994 -1    0    0    0    0 -0.0000000000e+00 -0.0000000000e+00 +0.0000000000e+00 1.3100000000e+02 1.3100000000e+02 0.0000e+00 0.0000e+00
       13  1    1    2    0    0 +3.3401659428e+01 +7.8257518791e+00 +5.0769715842e+01 6.1273880698e+01 1.0566000000e-01 0.0000e+00 -1.0000e+00
      994  1    1    2    0    0 -3.3106016847e+01 -4.1811747737e+01 +1.3385197564e+02 1.9473464505e+02 1.3100000000e+02 0.0000e+00 0.0000e+00
      997  1    1    2    0    0 -2.9564258151e-01 +3.3985995858e+01 +3.1537829736e+02 3.7499147425e+02 2.0000000000e+02 0.0000e+00 0.0000e+00
</event>
<event>
 5      1 +6.7420000e-10 2.51421900e+02 7.95774700e-02 4.31832600e-01
       13 -1    0    0    0    0 +0.0000000000e+00 +0.0000000000e+00 +4.9999998884e+02 5.0000000000e+02 1.0566000000e-01 0.0000e+00 -1.0000e+00
      994 -1    0    0    0    0 -0.0000000000e+00 -0.0000000000e+00 +0.0000000000e+00 1.3100000000e+02 1.3100000000e+02 0.0000e+00 0.0000e+00
       13  1    1    2    0    0 -2.7897792550e+01 +3.6271880449e+01 +6.7647708307e+01 8.1671045933e+01 1.0566000000e-01 0.0000e+00 1.0000e+00
      994  1    1    2    0    0 +1.7154132539e+01 +7.4820583936e+00 +1.4455945489e+02 1.9598132936e+02 1.3100000000e+02 0.0000e+00 0.0000e+00
      997  1    1    2    0    0 +1.0743660010e+01 -4.3753938843e+01 +2.8779282564e+02 3.5334762471e+02 2.0000000000e+02 0.0000e+00 0.0000e+00
</event>
<event>
 5      1 +6.7420000e-10 2.46883000e+02 7.95774700e-02 4.36755900e-01
       13 -1    0    0    0    0 +0.0000000000e+00 +0.0000000000e+00 +4.9999998884e+02 5.0000000000e+02 1.0566000000e-01 0.0000e+00 1.0000e+00
      994 -1    0    0    0    0 -0.0000000000e+00 -0.0000000000e+00 +0.0000000000e+00 1.3100000000e+02 1.3100000000e+02 0.0000e+00 0.0000e+00
       13  1    1    2    0    0 -1.2551869331e+01 -3.0187206980e+01 +1.0249335327e+01 3.4261887391e+01 1.0566000000e-01 0.0000e+00 -1.0000e+00
      994  1    1    2    0    0 +1.1747949235e+01 +4.0317738204e+01 +1.6069660154e+02 2.1153707020e+02 1.3100000000e+02 0.0000e+00 0.0000e+00
      997  1    1    2    0    0 +8.0392009535e-01 -1.0130531224e+01 +3.2905405197e+02 3.8520104240e+02 2.0000000000e+02 0.0000e+00 0.0000e+00
</event>
<event>
 5      1 +6.7420000e-10 2.35383200e+02 7.95774700e-02 4.50237900e-01
       13 -1    0    0    0    0 +0.0000000000e+00 +0.0000000000e+00 +4.9999998884e+02 5.0000000000e+02 1.0566000000e-01 0.0000e+00 1.0000e+00
      994 -1    0    0    0    0 -0.0000000000e+00 -0.0000000000e+00 +0.0000000000e+00 1.3100000000e+02 1.3100000000e+02 0.0000e+00 0.0000e+00
       13  1    1    2    0    0 -1.9500087049e+01 +3.0902610397e+00 +1.6372008692e+01 2.5648722012e+01 1.0566000000e-01 0.0000e+00 -1.0000e+00
      994  1    1    2    0    0 +1.1099456184e+01 -9.4524743549e+00 +7.8477729724e+01 1.5340241609e+02 1.3100000000e+02 0.0000e+00 0.0000e+00
      997  1    1    2    0    0 +8.4006308655e+00 +6.3622133151e+00 +4.0515025042e+02 4.5194886190e+02 2.0000000000e+02 0.0000e+00 0.0000e+00
</event>
<event>
 5      1 +6.7420000e-10 2.40385100e+02 7.95774700e-02 4.44185700e-01
       13 -1    0    0    0    0 +0.0000000000e+00 +0.0000000000e+00 +4.9999998884e+02 5.0000000000e+02 1.0566000000e-01 0.0000e+00 1.0000e+00
      994 -1    0    0    0    0 -0.0000000000e+00 -0.0000000000e+00 +0.0000000000e+00 1.3100000000e+02 1.3100000000e+02 0.0000e+00 0.0000e+00
       13  1    1    2    0    0 -2.1411853976e+01 -1.4378194531e+01 +1.9345370304e+01 3.2240572031e+01 1.0566000000e-01 0.0000e+00 -1.0000e+00
      994  1    1    2    0    0 -1.0954673554e+01 +2.8415792674e+01 +1.0098474064e+02 1.6818555226e+02 1.3100000000e+02 0.0000e+00 0.0000e+00
      997  1    1    2    0    0 +3.2366527530e+01 -1.4037598143e+01 +3.7966987790e+02 4.3057387571e+02 2.0000000000e+02 0.0000e+00 0.0000e+00
</event>
<event>
 5      1 +6.7420000e-10 2.46510400e+02 7.95774700e-02 4.37169400e-01
       13 -1    0    0    0    0 +0.0000000000e+00 +0.0000000000e+00 +4.9999998884e+02 5.0000000000e+02 1.0566000000e-01 0.0000e+00 -1.0000e+00
      994 -1    0    0    0    0 -0.0000000000e+00 -0.0000000000e+00 +0.0000000000e+00 1.3100000000e+02 1.3100000000e+02 0.0000e+00 0.0000e+00
       13  1    1    2    0    0 -3.8869654006e+01 +1.9277188329e+00 +5.4348713171e+01 6.6845791863e+01 1.0566000000e-01 0.0000e+00 1.0000e+00
      994  1    1    2    0    0 +7.2187114401e+00 +4.2634052474e+01 +1.6141742791e+02 2.1233548516e+02 1.3100000000e+02 0.0000e+00 0.0000e+00
      997  1    1    2    0    0 +3.1650942566e+01 -4.4561771307e+01 +2.8423384775e+02 3.5181872297e+02 2.0000000000e+02 0.0000e+00 0.0000e+00
</event>
<event>
 5      1 +6.7420000e-10 2.33580900e+02 7.95774700e-02 4.52494700e-01
       13 -1    0    0    0    0 +0.0000000000e+00 +0.0000000000e+00 +4.9999998884e+02 5.0000000000e+02 1.0566000000e-01 0.0000e+00 -1.0000e+00
      994 -1    0    0    0    0 -0.0000000000e+00 -0.0000000000e+00 +0.0000000000e+00 1.3100000000e+02 1.3100000000e+02 0.0000e+00 0.0000e+00
       13  1    1    2    0    0 -4.4971035574e+00 +1.1022974417e+01 +4.8116319881e+00 1.2841061943e+01 1.0566000000e-01 0.0000e+00 1.0000e+00
      994  1    1    2    0    0 -5.1601987433e+00 +2.8388369680e+01 +8.1724746536e+01 1.5707470000e+02 1.3100000000e+02 0.0000e+00 0.0000e+00
      997  1    1    2    0    0 +9.6573023007e+00 -3.9411344097e+01 +4.1346361031e+02 4.6108423806e+02 2.0000000000e+02 0.0000e+00 0.0000e+00
</event>
<event>
 5      1 +6.7420000e-10 2.31305100e+02 7.95774700e-02 4.55405100e-01
       13 -1    0    0    0    0 +0.0000000000e+00 +0.0000000000e+00 +4.9999998884e+02 5.0000000000e+02 1.0566000000e-01 0.0000e+00 -1.0000e+00
      994 -1    0    0    0    0 -0.0000000000e+00 -0.0000000000e+00 +0.0000000000e+00 1.3100000000e+02 1.3100000000e+02 0.0000e+00 0.0000e+00
       13  1    1    2    0    0 -1.3997001863e+01 -6.6265435390e+00 +3.8801609970e+01 4.1778023418e+01 1.0566000000e-01 0.0000e+00 1.0000e+00
      994  1    1    2    0    0 +5.8439962287e+00 -2.2490427495e+01 +7.3667608807e+01 1.5207855933e+02 1.3100000000e+02 0.0000e+00 0.0000e+00
      997  1    1    2    0    0 +8.1530056345e+00 +2.9116971034e+01 +3.8753077006e+02 4.3714341725e+02 2.0000000000e+02 0.0000e+00 0.0000e+00
</event>
<event>
 5      1 +6.7420000e-10 2.44370000e+02 7.95774700e-02 4.39574100e-01
       13 -1    0    0    0    0 +0.0000000000e+00 +0.0000000000e+00 +4.9999998884e+02 5.0000000000e+02 1.0566000000e-01 0.0000e+00 1.0000e+00
      994 -1    0    0    0    0 -0.0000000000e+00 -0.0000000000e+00 +0.0000000000e+00 1.3100000000e+02 1.3100000000e+02 0.0000e+00 0.0000e+00
       13  1    1    2    0    0 +1.4363988672e+01 +2.5941516030e+01 +5.1562193925e+00 3.0097910010e+01 1.0566000000e-01 0.0000e+00 -1.0000e+00
      994  1    1    2    0    0 -3.8781428019e+01 -2.5646533940e+01 +2.1658875058e+02 2.5735856453e+02 1.3100000000e+02 0.0000e+00 0.0000e+00
      997  1    1    2    0    0 +2.4417439347e+01 -2.9498208979e-01 +2.7825501887e+02 3.4354352546e+02 2.0000000000e+02 0.0000e+00 0.0000e+00
</event>
<event>
 5      1 +6.7420000e-10 2.46312200e+02 7.95774700e-02 4.37390000e-01
       13 -1    0    0    0    0 +0.0000000000e+00 +0.0000000000e+00 +4.9999998884e+02 5.0000000000e+02 1.0566000000e-01 0.0000e+00 1.0000e+00
      994 -1    0    0    0    0 -0.0000000000e+00 -0.0000000000e+00 +0.0000000000e+00 1.3100000000e+02 1.3100000000e+02 0.0000e+00 0.0000e+00
       13  1    1    2    0    0 -2.1367774959e+01 -3.4973992597e+01 +3.6749105091e+01 5.5047886916e+01 1.0566000000e-01 0.0000e+00 -1.0000e+00
      994  1    1    2    0    0 +3.4806643666e+01 +2.6026009852e+00 +2.2732962870e+02 2.6468478623e+02 1.3100000000e+02 0.0000e+00 0.0000e+00
      997  1    1    2    0    0 -1.3438868707e+01 +3.2371391612e+01 +2.3592125505e+02 3.1126732686e+02 2.0000000000e+02 0.0000e+00 0.0000e+00
</event>
<event>
 5      1 +6.7420000e-10 2.52364400e+02 7.95774700e-02 4.30836100e-01
       13 -1    0    0    0    0 +0.0000000000e+00 +0.0000000000e+00 +4.9999998884e+02 5.0000000000e+02 1.0566000000e-01 0.0000e+00 1.0000e+00
      994 -1    0    0    0    0 -0.0000000000e+00 -0.0000000000e+00 +0.0000000000e+00 1.3100000000e+02 1.3100000000e+02 0.0000e+00 0.0000e+00
       13  1    1    2    0    0 +4.3487661219e+01 -1.3672002583e+00 +4.1786642926e+01 6.0325621471e+01 1.0566000000e-01 0.0000e+00 -1.0000e+00
      994  1    1    2    0    0 +9.1236271113e+00 +1.8032396872e+01 +1.7075807196e+02 2.1616597107e+02 1.3100000000e+02 0.0000e+00 0.0000e+00
      997  1    1    2    0    0 -5.2611288331e+01 -1.6665196613e+01 +2.8745527395e+02 3.5450840746e+02 2.0000000000e+02 0.0000e+00 0.0000e+00
</event>
<event>
 5      1 +6.7420000e-10 2.38905400e+02 7.95774700e-02 4.45944700e-01
       13 -1    0    0    0    0 +0.0000000000e+00 +0.0000000000e+00 +4.9999998884e+02 5.0000000000e+02 1.0566000000e-01 0.0000e+00 -1.0000e+00
      994 -1    0    0    0    0 -0.0000000000e+00 -0.0000000000e+00 +0.0000000000e+00 1.3100000000e+02 1.3100000000e+02 0.0000e+00 0.0000e+00
       13  1    1    2    0    0 +1.5892476243e+01 -5.5847355877e+00 +2.2977859904e+00 1.7001501617e+01 1.0566000000e-01 0.0000e+00 1.0000e+00
      994  1    1    2    0    0 -3.2706774110e+01 -2.9567045227e+00 +9.8689627068e+01 1.6726959576e+02 1.3100000000e+02 0.0000e+00 0.0000e+00
      997  1    1    2    0    0 +1.6814297867e+01 +8.5414401105e+00 +3.9901257578e+02 4.4672890262e+02 2.0000000000e+02 0.0000e+00 0.0000e+00
</event>
<event>
 5      1 +6.7420000e-10 2.40079900e+02 7.95774700e-02 4.44546500e-01
       13 -1    0    0    0    0 +0.0000000000e+00 +0.0000000000e+00 +4.9999998884e+02 5.0000000000e+02 1.0566000000e-01 0.0000e+00 1.0000e+00
      994 -1    0    0    0    0 -0.0000000000e+00 -0.0000000000e+00 +0.0000000000e+00 1.3100000000e+02 1.3100000000e+02 0.0000e+00 0.0000e+00
       13  1    1    2    0    0 +1.7530951005e+01 -2.9048106385e+00 +4.0419111707e+00 1.8224170157e+01 1.0566000000e-01 0.0000e+00 -1.0000e+00
      994  1    1    2    0    0 -3.1367022304e-01 +1.0996954280e+01 +8.8482545599e+01 1.5846511373e+02 1.3100000000e+02 0.0000e+00 0.0000e+00
      997  1    1    2    0    0 -1.7217280782e+01 -8.0921436414e+00 +4.0747553207e+02 4.5431071612e+02 2.0000000000e+02 0.0000e+00 0.0000e+00
</event>
<event>
 5      1 +6.7420000e-10 2.49339700e+02 7.95774700e-02 4.34065100e-01
       13 -1    0    0    0    0 +0.0000000000e+00 +0.0000000000e+00 +4.9999998884e+02 5.0000000000e+02 1.0566000000e-01 0.0000e+00 1.0000e+00
      994 -1    0    0    0    0 -0.0000000000e+00 -0.0000000000e+00 +0.0000000000e+00 1.3100000000e+02 1.3100000000e+02 0.0000e+00 0.0000e+00
       13  1    1    2    0    0 -3.5613532067e+01 +7.9229858987e+00 +1.9241523950e+01 4.1247360883e+01 1.0566000000e-01 0.0000e+00 -1.0000e+00
      994  1    1    2    0    0 +1.5471957191e+01 -1.8985470235e+01 +1.3528198871e+02 1.8990009481e+02 1.3100000000e+02 0.0000e+00 0.0000e+00
      997  1    1    2    0    0 +2.0141574876e+01 +1.1062484337e+01 +3.4547647618e+02 3.9985254431e+02 2.0000000000e+02 0.0000e+00 0.0000e+00
</event>
<event>
 5      1 +6.7420000e-10 2.34174800e+02 7.95774700e-02 4.51746400e-01
       13 -1    0    0    0    0 +0.0000000000e+00 +0.0000000000e+00 +4.9999998884e+02 5.0000000000e+02 1.0566000000e-01 0.0000e+00 1.0000e+00
      994 -1    0    0    0    0 -0.0000000000e+00 -0.0000000000e+00 +0.0000000000e+00 1.3100000000e+02 1.3100000000e+02 0.0000e+00 0.0000e+00
       13  1    1    2    0    0 +1.0276857718e+01 +4.4382871760e+00 +1.8620093502e+00 1.1348587598e+01 1.0566000000e-01 0.0000e+00 -1.0000e+00
      994  1    1    2    0    0 -1.4044097160e+00 -2.0672256757e+00 +7.3619815309e+01 1.5029012940e+02 1.3100000000e+02 0.0000e+00 0.0000e+00
      997  1    1    2    0    0 -8.8724480021e+00 -2.3710615003e+00 +4.2451816418e+02 4.6936128300e+02 2.0000000000e+02 0.0000e+00 0.0000e+00
</event>
<event>
 5      1 +6.7420000e-10 2.41621900e+02 7.95774700e-02 4.42735100e-01
       13 -1    0    0    0    0 +0.0000000000e+00 +0.0000000000e+00 +4.9999998884e+02 5.0000000000e+02 1.0566000000e-01 0.0000e+00 -1.0000e+00
      994 -1    0    0    0    0 -0.0000000000e+00 -0.0000000000e+00 +0.0000000000e+00 1.3100000000e+02 1.3100000000e+02 0.0000e+00 0.0000e+00
       13  1    1    2    0    0 +7.2748520668e+00 +3.9545698911e+01 +4.6719374903e+01 6.1640059461e+01 1.0566000000e-01 0.0000e+00 1.0000e+00
      994  1    1    2    0    0 +3.1350920851e+00 -5.6125476720e+01 +2.1003744760e+02 2.5384370651e+02 1.3100000000e+02 0.0000e+00 0.0000e+00
      997  1    1    2    0    0 -1.0409944152e+01 +1.6579777809e+01 +2.4324316633e+02 3.1551623403e+02 2.0000000000e+02 0.0000e+00 0.0000e+00
</event>
<event>
 5      1 +6.7420000e-10 2.31755500e+02 7.95774700e-02 4.54823600e-01
       13 -1    0    0    0    0 +0.0000000000e+00 +0.0000000000e+00 +4.9999998884e+02 5.0000000000e+02 1.0566000000e-01 0.0000e+00 -1.0000e+00
      994 -1    0    0    0    0 -0.0000000000e+00 -0.0000000000e+00 +0.0000000000e+00 1.3100000000e+02 1.3100000000e+02 0.0000e+00 0.0000e+00
       13  1    1    2    0    0 -7.6785478115e+00 -1.3706035295e+01 +1.6111162523e+01 2.2503249141e+01 1.0566000000e-01 0.0000e+00 1.0000e+00
      994  1    1    2    0    0 -4.8581623816e+00 +1.8050945837e+01 +7.2524881115e+01 1.5089829942e+02 1.3100000000e+02 0.0000e+00 0.0000e+00
      997  1    1    2    0    0 +1.2536710193e+01 -4.3449105416e+00 +4.1136394520e+02 4.5759845144e+02 2.0000000000e+02 0.0000e+00 0.0000e+00
</event>
<event>
 5      1 +6.7420000e-10 2.39572200e+02 7.95774700e-02 4.45148800e-01
       13 -1    0    0    0    0 +0.0000000000e+00 +0.0000000000e+00 +4.9999998884e+02 5.0000000000e+02 1.0566000000e-01 0.0000e+00 -1.0000e+00
      994 -1    0    0    0    0 -0.0000000000e+00 -0.0000000000e+00 +0.0000000000e+00 1.3100000000e+02 1.3100000000e+02 0.0000e+00 0.0000e+00
       13  1    1    2    0    0 -1.8984201120e+01 +1.3513512423e+01 +1.2311540543e+01 2.6355267116e+01 1.0566000000e-01 0.0000e+00 1.0000e+00
      994  1    1    2    0    0 -3.4385860204e+01 -5.0296863431e+01 +1.6278168363e+02 2.1764888784e+02 1.3100000000e+02 0.0000e+00 0.0000e+00
      997  1    1    2    0    0 +5.3370061324e+01 +3.6783351008e+01 +3.2490676466e+02 3.8699584504e+02 2.0000000000e+02 0.0000e+00 0.0000e+00
</event>
<event>
 5      1 +6.7420000e-10 2.47734800e+02 7.95774700e-02 4.35815800e-01
       13 -1    0    0    0    0 +0.0000000000e+00 +0.0000000000e+00 +4.9999998884e+02 5.0000000000e+02 1.0566000000e-01 0.0000e+00 1.0000e+00
      994 -1    0    0    0    0 -0.0000000000e+00 -0.0000000000e+00 +0.0000000000e+00 1.3100000000e+02 1.3100000000e+02 0.0000e+00 0.0000e+00
       13  1    1    2    0    0 -3.0140090830e+01 +2.2038511689e+01 +3.1598732410e+01 4.8914334572e+01 1.0566000000e-01 0.0000e+00 -1.0000e+00
      994  1    1    2    0    0 +4.4778816334e+00 -7.7300294553e+00 +1.1307415400e+02 1.7328176212e+02 1.3100000000e+02 0.0000e+00 0.0000e+00
      997  1    1    2    0    0 +2.5662209196e+01 -1.4308482233e+01 +3.5532710243e+02 4.0880390331e+02 2.0000000000e+02 0.0000e+00 0.0000e+00
</event>
<event>
 5      1 +6.7420000e-10 2.35648200e+02 7.95774700e-02 4.49909600e-01
       13 -1    0    0    0    0 +0.0000000000e+00 +0.0000000000e+00 +4.9999998884e+02 5.0000000000e+02 1.0566000000e-01 0.0000e+00 -1.0000e+00
      994 -1    0    0    0    0 -0.0000000000e+00 -0.0000000000e+00 +0.0000000000e+00 1.3100000000e+02 1.3100000000e+02 0.0000e+00 0.0000e+00
       13  1    1    2    0    0 -9.2714786121e+00 -1.3862159753e+01 +1.6539542231e+01 2.3488026948e+01 1.0566000000e-01 0.0000e+00 1.0000e+00
      994  1    1    2    0    0 -4.9348348318e+01 -5.1203965721e+01 +1.8088141800e+02 2.3438471146e+02 1.3100000000e+02 0.0000e+00 0.0000e+00
      997  1    1    2    0    0 +5.8619826930e+01 +6.5066125474e+01 +3.0257902860e+02 3.7312726159e+02 2.0000000000e+02 0.0000e+00 0.0000e+00
</event>
<event>
 5      1 +6.7420000e-10 2.38130300e+02 7.95774700e-02 4.46876500e-01
       13 -1    0    0    0    0 +0.0000000000e+00 +0.0000000000e+00 +4.9999998884e+02 5.0000000000e+02 1.0566000000e-01 0.0000e+00 -1.0000e+00
      994 -1    0    0    0    0 -0.0000000000e+00 -0.0000000000e+00 +0.0000000000e+00 1.3100000000e+02 1.3100000000e+02 0.0000e+00 0.0000e+00
       13  1    1    2    0    0 +1.6153163631e+01 -1.1440326079e+01 +9.2972701847e+00 2.1869068407e+01 1.0566000000e-01 0.0000e+00 1.0000e+00
      994  1    1    2    0    0 +4.2518640576e+01 -3.0398826807e+01 +2.5733085472e+02 2.9344861946e+02 1.3100000000e+02 0.0000e+00 0.0000e+00
      997  1    1    2    0    0 -5.8671804207e+01 +4.1839152886e+01 +2.3337186393e+02 3.1568231214e+02 2.0000000000e+02 0.0000e+00 0.0000e+00
</event>
<event>
 5      1 +6.7420000e-10 2.33760300e+02 7.95774700e-02 4.52268200e-01
       13 -1    0    0    0    0 +0.0000000000e+00 +0.0000000000e+00 +4.9999998884e+02 5.0000000000e+02 1.0566000000e-01 0.0000e+00 1.0000e+00
      994 -1    0    0    0    0 -0.0000000000e+00 -0.0000000000e+00 +0.0000000000e+00 1.3100000000e+02 1.3100000000e+02 0.0000e+00 0.0000e+00
       13  1    1    2    0    0 -1.9025926679e+01 +1.3277308741e+01 +3.3119781947e+01 4.0437654898e+01 1.0566000000e-01 0.0000e+00 -1.0000e+00
      994  1    1    2    0    0 +3.6512397601e+01 -1.1402773469e+01 +8.9805097593e+01 1.6336809350e+02 1.3100000000e+02 0.0000e+00 0.0000e+00
      997  1    1    2    0    0 -1.7486470922e+01 -1.8745352720e+00 +3.7707510930e+02 4.2719425160e+02 2.0000000000e+02 0.0000e+00 0.0000e+00
</event>
<event>
 5      1 +6.7420000e-10 2.36719700e+02 7.95774700e-02 4.48590900e-01
       13 -1    0    0    0    0 +0.0000000000e+00 +0.0000000000e+00 +4.9999998884e+02 5.0000000000e+02 1.0566000000e-01 0.0000e+00 1.0000e+00
      994 -1    0    0    0    0 -0.0000000000e+00 -0.0000000000e+00 +0.0000000000e+00 1.3100000000e+02 1.3100000000e+02 0.0000e+00 0.0000e+00
       13  1    1    2    0    0 +7.5517320306e-02 +2.4884612446e+01 +2.0905772592e+01 3.2500955851e+01 1.0566000000e-01 0.0000e+00 -1.0000e+00
      994  1    1    2    0    0 -1.0949739481e+01 -4.0371213163e+01 +1.0194643309e+02 1.7118354730e+02 1.3100000000e+02 0.0000e+00 0.0000e+00
      997  1    1    2    0    0 +1.0874222160e+01 +1.5486600716e+01 +3.7714778315e+02 4.2731549685e+02 2.0000000000e+02 0.0000e+00 0.0000e+00
</event>
<event>
 5      1 +6.7420000e-10 2.43844500e+02 7.95774700e-02 4.40172000e-01
       13 -1    0    0    0    0 +0.0000000000e+00 +0.0000000000e+00 +4.9999998884e+02 5.0000000000e+02 1.0566000000e-01 0.0000e+00 -1.0000e+00
      994 -1    0    0    0    0 -0.0000000000e+00 -0.0000000000e+00 +0.0000000000e+00 1.3100000000e+02 1.3100000000e+02 0.0000e+00 0.0000e+00
       13  1    1    2    0    0 +1.3394399399e+01 +2.1970831343e+01 +9.7358198484e+00 2.7512264853e+01 1.0566000000e-01 0.0000e+00 1.0000e+00
      994  1    1    2    0    0 -4.0336350006e+01 +2.4460177909e+01 +1.4604524830e+02 2.0178091086e+02 1.3100000000e+02 0.0000e+00 0.0000e+00
      997  1    1    2    0    0 +2.6941950607e+01 -4.6431009252e+01 +3.4421892068e+02 4.0170682429e+02 2.0000000000e+02 0.0000e+00 0.0000e+00
</event>
<event>
 5      1 +6.7420000e-10 2.43378400e+02 7.95774700e-02 4.40704900e-01
       13 -1    0    0    0    0 +0.0000000000e+00 +0.0000000000e+00 +4.9999998884e+02 5.0000000000e+02 1.0566000000e-01 0.0000e+00 -1.0000e+00
      994 -1    0    0    0    0 -0.0000000000e+00 -0.0000000000e+00 +0.0000000000e+00 1.3100000000e+02 1.3100000000e+02 0.0000e+00 0.0000e+00
       13  1    1    2    0    0 -5.1142113721e+00 +2.7183481208e+01 +1.3378391533e+01 3.0726036722e+01 1.0566000000e-01 0.0000e+00 1.0000e+00
      994  1    1    2    0    0 +4.8810837293e+01 +1.0378266731e-01 +1.4758169563e+02 2.0328272305e+02 1.3100000000e+02 0.0000e+00 0.0000e+00
      997  1    1    2    0    0 -4.3696625921e+01 -2.7287263876e+01 +3.3903990168e+02 3.9699124023e+02 2.0000000000e+02 0.0000e+00 0.0000e+00
</event>
<event>
 5      1 +6.7420000e-10 2.49513700e+02 7.95774700e-02 4.33876900e-01
       13 -1    0    0    0    0 +0.0000000000e+00 +0.0000000000e+00 +4.9999998884e+02 5.0000000000e+02 1.0566000000e-01 0.0000e+00 -1.0000e+00
      994 -1    0    0    0    0 -0.0000000000e+00 -0.0000000000e+00 +0.0000000000e+00 1.3100000000e+02 1.3100000000e+02 0.0000e+00 0.0000e+00
       13  1    1    2    0    0 +2.9880636182e+01 -1.5689966918e+01 +2.2361164726e+01 4.0485310083e+01 1.0566000000e-01 0.0000e+00 1.0000e+00
      994  1    1    2    0    0 +2.6727718565e+01 -6.8893229369e+00 +1.4264422774e+02 1.9562773172e+02 1.3100000000e+02 0.0000e+00 0.0000e+00
      997  1    1    2    0    0 -5.6608354747e+01 +2.2579289855e+01 +3.3499459637e+02 3.9488695820e+02 2.0000000000e+02 0.0000e+00 0.0000e+00
</event>
<event>
 5      1 +6.7420000e-10 2.41395800e+02 7.95774700e-02 4.42999000e-01
       13 -1    0    0    0    0 +0.0000000000e+00 +0.0000000000e+00 +4.9999998884e+02 5.0000000000e+02 1.0566000000e-01 0.0000e+00 -1.0000e+00
      994 -1    0    0    0    0 -0.0000000000e+00 -0.0000000000e+00 +0.0000000000e+00 1.3100000000e+02 1.3100000000e+02 0.0000e+00 0.0000e+00
       13  1    1    2    0    0 +3.1135852164e+01 +4.3111790599e-01 +3.1709175082e+01 4.4442210803e+01 1.0566000000e-01 0.0000e+00 1.0000e+00
      994  1    1    2    0    0 -1.4785093681e+01 -3.6520435352e+01 +1.1525841538e+02 1.7887941053e+02 1.3100000000e+02 0.0000e+00 0.0000e+00
      997  1    1    2    0    0 -1.6350758483e+01 +3.6089317446e+01 +3.5303239837e+02 4.0767837867e+02 2.0000000000e+02 0.0000e+00 0.0000e+00
</event>
<event>
 5      1 +6.7420000e-10 2.30164400e+02 7.95774700e-02 4.56890100e-01
       13 -1    0    0    0    0 +0.0000000000e+00 +0.0000000000e+00 +4.9999998884e+02 5.0000000000e+02 1.0566000000e-01 0.0000e+00 -1.0000e+00
      994 -1    0    0    0    0 -0.0000000000e+00 -0.0000000000e+00 +0.0000000000e+00 1.3100000000e+02 1.3100000000e+02 0.0000e+00 0.0000e+00
       13  1    1    2    0    0 +1.6062012595e+01 -4.1341651202e+00 +2.0765315104e+01 2.6576099135e+01 1.0566000000e-01 0.0000e+00 1.0000e+00
      994  1    1    2    0    0 -4.3631079858e+01 +1.3802627819e+01 +8.8716812946e+01 1.6469929133e+02 1.3100000000e+02 0.0000e+00 0.0000e+00
      997  1    1    2    0    0 +2.7569067263e+01 -9.6684626984e+00 +3.9051786079e+02 4.3972460954e+02 2.0000000000e+02 0.0000e+00 0.0000e+00
</event>
<event>
 5      1 +6.7420000e-10 2.38843400e+02 7.95774700e-02 4.46018900e-01
       13 -1    0    0    0    0 +0.0000000000e+00 +0.0000000000e+00 +4.9999998884e+02 5.0000000000e+02 1.0566000000e-01 0.0000e+00 1.0000e+00
      994 -1    0    0    0    0 -0.0000000000e+00 -0.0000000000e+00 +0.0000000000e+00 1.3100000000e+02 1.3100000000e+02 0.0000e+00 0.0000e+00
       13  1    1    2    0    0 -1.7501122574e+01 +9.4071561203e+00 +4.0777008992e-01 1.9873633741e+01 1.0566000000e-01 0.0000e+00 -1.0000e+00
      994  1    1    2    0    0 +3.3602591653e+01 -5.5015027041e+01 +1.9719835841e+02 2.4536499328e+02 1.3100000000e+02 0.0000e+00 0.0000e+00
      997  1    1    2    0    0 -1.6101469080e+01 +4.5607870921e+01 +3.0239386034e+02 3.6576137298e+02 2.0000000000e+02 0.0000e+00 0.0000e+00
</event>
<event>
 5      1 +6.7420000e-10 2.51840400e+02 7.95774700e-02 4.31389000e-01
       13 -1    0    0    0    0 +0.0000000000e+00 +0.0000000000e+00 +4.9999998884e+02 5.0000000000e+02 1.0566000000e-01 0.0000e+00 -1.0000e+00
      994 -1    0    0    0    0 -0.0000000000e+00 -0.0000000000e+00 +0.0000000000e+00 1.3100000000e+02 1.3100000000e+02 0.0000e+00 0.0000e+00
       13  1    1    2    0    0 -3.1855439435e+01 +1.5362533469e+01 +1.6413398302e+01 3.8989578916e+01 1.0566000000e-01 0.0000e+00 1.0000e+00
      994  1    1    2    0    0 -7.6530445988e+00 +2.1346791794e+01 +1.6329149181e+02 2.1056914757e+02 1.3100000000e+02 0.0000e+00 0.0000e+00
      997  1    1    2    0    0 +3.9508484034e+01 -3.6709325264e+01 +3.2029509873e+02 3.8144127351e+02 2.0000000000e+02 0.0000e+00 0.0000e+00
</event>
<event>
 5      1 +6.7420000e-10 2.32227900e+02 7.95774700e-02 4.54216700e-01
       13 -1    0    0    0    0 +0.0000000000e+00 +0.0000000000e+00 +4.9999998884e+02 5.0000000000e+02 1.0566000000e-01 0.0000e+00 1.0000e+00
      994 -1    0    0    0    0 -0.0000000000e+00 -0.0000000000e+00 +0.0000000000e+00 1.3100000000e+02 1.3100000000e+02 0.0000e+00 0.0000e+00
       13  1    1    2    0    0 +1.4986025678e+01 +8.2015912298e+00 +4.0122730961e+01 4.3608391029e+01 1.0566000000e-01 0.0000e+00 -1.0000e+00
      994  1    1    2    0    0 +1.1354495556e+01 -9.3277290806e+00 +7.2027905084e+01 1.5021634468e+02 1.3100000000e+02 0.0000e+00 0.0000e+00
      997  1    1    2    0    0 -2.6340521233e+01 +1.1261378508e+00 +3.8784935279e+02 4.3717526429e+02 2.0000000000e+02 0.0000e+00 0.0000e+00
</event>
<event>
 5      1 +6.7420000e-10 2.42287500e+02 7.95774700e-02 4.41961700e-01
       13 -1    0    0    0    0 +0.0000000000e+00 +0.0000000000e+00 +4.9999998884e+02 5.0000000000e+02 1.0566000000e-01 0.0000e+00 1.0000e+00
      994 -1    0    0    0    0 -0.0000000000e+00 -0.0000000000e+00 +0.0000000000e+00 1.3100000000e+02 1.3100000000e+02 0.0000e+00 0.0000e+00
       13  1    1    2    0    0 -2.7076389841e+01 -7.4070235171e+00 +8.4559176861e+01 8.9096915994e+01 1.0566000000e-01 0.0000e+00 -1.0000e+00
      994  1    1    2    0    0 +6.0881928122e-01 +4.9135147652e+01 +1.3985722175e+02 1.9782738908e+02 1.3100000000e+02 0.0000e+00 0.0000e+00
      997  1    1    2    0    0 +2.6467570560e+01 -4.1728124135e+01 +2.7558359023e+02 3.4407569492e+02 2.0000000000e+02 0.0000e+00 0.0000e+00
</event>
<event>
 5      1 +6.7420000e-10 2.47395200e+02 7.95774700e-02 4.36189700e-01
       13 -1    0    0    0    0 +0.0000000000e+00 +0.0000000000e+00 +4.9999998884e+02 5.0000000000e+02 1.0566000000e-01 0.0000e+00 1.0000e+00
      994 -1    0    0    0    0 -0.0000000000e+00 -0.0000000000e+00 +0.0000000000e+00 1.3100000000e+02 1.3100000000e+02 0.0000e+00 0.0000e+00
       13  1    1    2    0    0 +3.3755564346e+01 -1.9077849285e+01 +2.0825930333e+01 4.4012873070e+01 1.0566000000e-01 0.0000e+00 -1.0000e+00
      994  1    1    2    0    0 -3.3433622263e+01 +2.4194809830e+01 +1.6727821382e+02 2.1643982244e+02 1.3100000000e+02 0.0000e+00 0.0000e+00
      997  1    1    2    0    0 -3.2194208254e-01 -5.1169605450e+00 +3.1189584468e+02 3.7054730449e+02 2.0000000000e+02 0.0000e+00 0.0000e+00
</event>
<event>
 5      1 +6.7420000e-10 2.46676700e+02 7.95774700e-02 4.36984600e-01
       13 -1    0    0    0    0 +0.0000000000e+00 +0.0000000000e+00 +4.9999998884e+02 5.0000000000e+02 1.0566000000e-01 0.0000e+00 -1.0000e+00
      994 -1    0    0    0    0 -0.0000000000e+00 -0.0000000000e+00 +0.0000000000e+00 1.3100000000e+02 1.3100000000e+02 0.0000e+00 0.0000e+00
       13  1    1    2    0    0 +3.4771025518e+01 +3.7469127840e+00 +4.3447522429e+01 5.5774204972e+01 1.0566000000e-01 0.0000e+00 1.0000e+00
      994  1    1    2    0    0 +1.9036085238e+01 +3.9066036777e+01 +1.6678694279e+02 2.1648882663e+02 1.3100000000e+02 0.0000e+00 0.0000e+00
      997  1    1    2    0    0 -5.3807110756e+01 -4.2812949561e+01 +2.8976552362e+02 3.5873696840e+02 2.0000000000e+02 0.0000e+00 0.0000e+00
</event>
<event>
 5      1 +6.7420000e-10 2.28393700e+02 7.95774700e-02 4.59230700e-01
       13 -1    0    0    0    0 +0.0000000000e+00 +0.0000000000e+00 +4.9999998884e+02 5.0000000000e+02 1.0566000000e-01 0.0000e+00 -1.0000e+00
      994 -1    0    0    0    0 -0.0000000000e+00 -0.0000000000e+00 +0.0000000000e+00 1.3100000000e+02 1.3100000000e+02 0.0000e+00 0.0000e+00
       13  1    1    2    0    0 +2.1695323124e+00 -1.0428376321e+01 +8.1593981620e+00 1.3418079056e+01 1.0566000000e-01 0.0000e+00 1.0000e+00
      994  1    1    2    0    0 -3.4035081975e+01 +3.7952272324e+01 +9.0460885404e+01 1.6716139975e+02 1.3100000000e+02 0.0000e+00 0.0000e+00
      997  1    1    2    0    0 +3.1865549663e+01 -2.7523896002e+01 +4.0137970527e+02 4.5042052119e+02 2.0000000000e+02 0.0000e+00 0.0000e+00
</event>
<event>
 5      1 +6.7420000e-10 2.35872200e+02 7.95774700e-02 4.49632600e-01
       13 -1    0    0    0    0 +0.0000000000e+00 +0.0000000000e+00 +4.9999998884e+02 5.0000000000e+02 1.0566000000e-01 0.0000e+00 -1.0000e+00
      994 -1    0    0    0    0 -0.0000000000e+00 -0.0000000000e+00 +0.0000000000e+00 1.3100000000e+02 1.3100000000e+02 0.0000e+00 0.0000e+00
       13  1    1    2    0    0 -2.1689003591e+01 -1.0994683253e+01 +6.7525986379e+01 7.1770926823e+01 1.0566000000e-01 0.0000e+00 1.0000e+00
      994  1    1    2    0    0 +2.5899512148e+01 +5.1134127637e+00 +8.5406780767e+01 1.5859460874e+02 1.3100000000e+02 0.0000e+00 0.0000e+00
      997  1    1    2    0    0 -4.2105085570e+00 +5.8812704889e+00 +3.4706722169e+02 4.0063446444e+02 2.0000000000e+02 0.0000e+00 0.0000e+00
</event>
<event>
 5      1 +6.7420000e-10 2.35007800e+02 7.95774700e-02 4.50704600e-01
       13 -1    0    0    0    0 +0.0000000000e+00 +0.0000000000e+00 +4.9999998884e+02 5.0000000000e+02 1.0566000000e-01 0.0000e+00 1.0000e+00
      994 -1    0    0    0    0 -0.0000000000e+00 -0.0000000000e+00 +0.0000000000e+00 1.3100000000e+02 1.3100000000e+02 0.0000e+00 0.0000e+00
       13  1    1    2    0    0 -2.1064664022e+01 -5.8280784962e+00 +4.5371599439e+01 5.0361490933e+01 1.0566000000e-01 0.0000e+00 -1.0000e+00
      994  1    1    2    0    0 -1.8150525959e+00 -3.6033412882e+00 +7.5436378680e+01 1.5122144594e+02 1.3100000000e+02 0.0000e+00 0.0000e+00
      997  1    1    2    0    0 +2.2879716618e+01 +9.4314197844e+00 +3.7919201072e+02 4.2941706313e+02 2.0000000000e+02 0.0000e+00 0.0000e+00
</event>
<event>
 5      1 +6.7420000e-10 2.31826500e+02 7.95774700e-02 4.54732300e-01
       13 -1    0    0    0    0 +0.0000000000e+00 +0.0000000000e+00 +4.9999998884e+02 5.0000000000e+02 1.0566000000e-01 0.0000e+00 1.0000e+00
      994 -1    0    0    0    0 -0.0000000000e+00 -0.0000000000e+00 +0.0000000000e+00 1.3100000000e+02 1.3100000000e+02 0.0000e+00 0.0000e+00
       13  1    1    2    0    0 -1.7214197183e+01 +5.9010428654e+00 +2.4228096727e+01 3.0301200085e+01 1.0566000000e-01 0.0000e+00 -1.0000e+00
      994  1    1    2    0    0 +1.3490731019e+01 -3.8848244434e+01 +8.7865486330e+01 1.6301082666e+02 1.3100000000e+02 0.0000e+00 0.0000e+00
      997  1    1    2    0    0 +3.7234661638e+00 +3.2947201568e+01 +3.8790640578e+02 4.3768797326e+02 2.0000000000e+02 0.0000e+00 0.0000e+00
</event>
<event>
 5      1 +6.7420000e-10 2.35005400e+02 7.95774700e-02 4.50707500e-01
       13 -1    0    0    0    0 +0.0000000000e+00 +0.0000000000e+00 +4.9999998884e+02 5.0000000000e+02 1.0566000000e-01 0.0000e+00 -1.0000e+00
      994 -1    0    0    0    0 -0.0000000000e+00 -0.0000000000e+00 +0.0000000000e+00 1.3100000000e+02 1.3100000000e+02 0.0000e+00 0.0000e+00
       13  1    1    2    0    0 +1.2983776728e+01 -1.7231546567e+01 +2.4659044766e+01 3.2765596408e+01 1.0566000000e-01 0.0000e+00 1.0000e+00
      994  1    1    2    0    0 +1.9628361553e+01 +3.0618121070e+01 +9.1186409170e+01 1.6370309445e+02 1.3100000000e+02 0.0000e+00 0.0000e+00
      997  1    1    2    0    0 -3.2612138281e+01 -1.3386574503e+01 +3.8415453490e+02 4.3453130914e+02 2.0000000000e+02 0.0000e+00 0.0000e+00
</event>
<event>
 5      1 +6.7420000e-10 2.38570600e+02 7.95774700e-02 4.46346200e-01
       13 -1    0    0    0    0 +0.0000000000e+00 +0.0000000000e+00 +4.9999998884e+02 5.0000000000e+02 1.0566000000e-01 0.0000e+00 1.0000e+00
      994 -1    0    0    0    0 -0.0000000000e+00 -0.0000000000e+00 +0.0000000000e+00 1.3100000000e+02 1.3100000000e+02 0.0000e+00 0.0000e+00
       13  1    1    2    0    0 -2.6650224938e+01 -5.0850999840e+00 +4.4358277752e+01 5.1997698990e+01 1.0566000000e-01 0.0000e+00 -1.0000e+00
      994  1    1    2    0    0 -5.5121027392e+00 +1.5750929069e+01 +8.6710437749e+01 1.5798156556e+02 1.3100000000e+02 0.0000e+00 0.0000e+00
      997  1    1    2    0    0 +3.2162327677e+01 -1.0665829085e+01 +3.6893127334e+02 4.2102073545e+02 2.0000000000e+02 0.0000e+00 0.0000e+00
</event>
<event>
 5      1 +6.7420000e-10 2.30967600e+02 7.95774700e-02 4.55842600e-01
       13 -1    0    0    0    0 +0.0000000000e+00 +0.0000000000e+00 +4.9999998884e+02 5.0000000000e+02 1.0566000000e-01 0.0000e+00 -1.0000e+00
      994 -1    0    0    0    0 -0.0000000000e+00 -0.0000000000e+00 +0.0000000000e+00 1.3100000000e+02 1.3100000000e+02 0.0000e+00 0.0000e+00
       13  1    1    2    0    0 -6.1811544861e+00 -1.8459630554e+01 +4.2467544177e+01 4.6716893127e+01 1.0566000000e-01 0.0000e+00 1.0000e+00
      994  1    1    2    0    0 -5.3890737873e+00 +5.8587028628e+01 +1.0903005966e+02 1.8030539634e+02 1.3100000000e+02 0.0000e+00 0.0000e+00
      997  1    1    2    0    0 +1.1570228273e+01 -4.0127398074e+01 +3.4850238500e+02 4.0397771053e+02 2.0000000000e+02 0.0000e+00 0.0000e+00
</event>
<event>
 5      1 +6.7420000e-10 2.40988300e+02 7.95774700e-02 4.43476000e-01
       13 -1    0    0    0    0 +0.0000000000e+00 +0.0000000000e+00 +4.9999998884e+02 5.0000000000e+02 1.0566000000e-01 0.0000e+00 -1.0000e+00
      994 -1    0    0    0    0 -0.0000000000e+00 -0.0000000000e+00 +0.0000000000e+00 1.3100000000e+02 1.3100000000e+02 0.0000e+00 0.0000e+00
       13  1    1    2    0    0 +2.8406004202e+01 -9.5400206051e+00 +3.9888487803e+01 4.9890035990e+01 1.0566000000e-01 0.0000e+00 1.0000e+00
      994  1    1    2    0    0 -6.5968274107e-01 -9.5252559760e+00 +9.0487607358e+01 1.5949975789e+02 1.3100000000e+02 0.0000e+00 0.0000e+00
      997  1    1    2    0    0 -2.7746321461e+01 +1.9065276581e+01 +3.6962389368e+02 4.2161020612e+02 2.0000000000e+02 0.0000e+00 0.0000e+00
</event>
<event>
 5      1 +6.7420000e-10 2.29470000e+02 7.95774700e-02 4.57802700e-01
       13 -1    0    0    0    0 +0.0000000000e+00 +0.0000000000e+00 +4.9999998884e+02 5.0000000000e+02 1.0566000000e-01 0.0000e+00 1.0000e+00
      994 -1    0    0    0    0 -0.0000000000e+00 -0.0000000000e+00 +0.0000000000e+00 1.3100000000e+02 1.3100000000e+02 0.0000e+00 0.0000e+00
       13  1    1    2    0    0 -1.3386811259e+01 -7.0026103964e+00 +3.5514167227e+01 3.8594177098e+01 1.0566000000e-01 0.0000e+00 -1.0000e+00
      994  1    1    2    0    0 +2.3561757148e+01 +2.4494183374e+01 +7.6564795629e+01 1.5549369553e+02 1.3100000000e+02 0.0000e+00 0.0000e+00
      997  1    1    2    0    0 -1.0174945889e+01 -1.7491572978e+01 +3.8792102598e+02 4.3691212737e+02 2.0000000000e+02 0.0000e+00 0.0000e+00
</event>
<event>
 5      1 +6.7420000e-10 2.38786800e+02 7.95774700e-02 4.46086800e-01
       13 -1    0    0    0    0 +0.0000000000e+00 +0.0000000000e+00 +4.9999998884e+02 5.0000000000e+02 1.0566000000e-01 0.0000e+00 -1.0000e+00
      994 -1    0    0    0    0 -0.0000000000e+00 -0.0000000000e+00 +0.0000000000e+00 1.3100000000e+02 1.3100000000e+02 0.0000e+00 0.0000e+00
       13  1    1    2    0    0 +4.4404971091e+00 -2.9043747103e+01 +8.2377310296e+01 8.7460217677e+01 1.0566000000e-01 0.0000e+00 1.0000e+00
      994  1    1    2    0    0 +4.3131950147e-01 +5.9618849360e+01 +1.4839989646e+02 2.0673200648e+02 1.3100000000e+02 0.0000e+00 0.0000e+00
      997  1    1    2    0    0 -4.8718166105e+00 -3.0575102257e+01 +2.6922278208e+02 3.3680777584e+02 2.0000000000e+02 0.0000e+00 0.0000e+00
</event>
<event>
 5      1 +6.7420000e-10 2.26933900e+02 7.95774700e-02 4.61193900e-01
       13 -1    0    0    0    0 +0.0000000000e+00 +0.0000000000e+00 +4.9999998884e+02 5.0000000000e+02 1.0566000000e-01 0.0000e+00 -1.0000e+00
      994 -1    0    0    0    0 -0.0000000000e+00 -0.0000000000e+00 +0.0000000000e+00 1.3100000000e+02 1.3100000000e+02 0.0000e+00 0.0000e+00
       13  1    1    2    0    0 -1.0611984627e+01 -3.4589736130e+00 +2.0544047267e+01 2.3380499531e+01 1.0566000000e-01 0.0000e+00 1.0000e+00
      994  1    1    2    0    0 +5.3142329491e+01 -1.7122266187e+00 +8.9641400026e+01 1.6740256719e+02 1.3100000000e+02 0.0000e+00 0.0000e+00
      997  1    1    2    0    0 -4.2530344864e+01 +5.1712002316e+00 +3.8981454154e+02 4.4021693328e+02 2.0000000000e+02 0.0000e+00 0.0000e+00
</event>
<event>
 5      1 +6.7420000e-10 2.36731300e+02 7.95774700e-02 4.48576700e-01
       13 -1    0    0    0    0 +0.0000000000e+00 +0.0000000000e+00 +4.9999998884e+02 5.0000000000e+02 1.0566000000e-01 0.0000e+00 -1.0000e+00
      994 -1    0    0    0    0 -0.0000000000e+00 -0.0000000000e+00 +0.0000000000e+00 1.3100000000e+02 1.3100000000e+02 0.0000e+00 0.0000e+00
       13  1    1    2    0    0 -2.3319518412e+01 -1.6418153495e+01 +5.6141804566e+01 6.2970382619e+01 1.0566000000e-01 0.0000e+00 1.0000e+00
      994  1    1    2    0    0 +2.2359367306e+01 +2.4925736441e+01 +9.3088617187e+01 1.6415762027e+02 1.3100000000e+02 0.0000e+00 0.0000e+00
      997  1    1    2    0    0 +9.6015110599e-01 -8.5075829460e+00 +3.5076956708e+02 4.0387199711e+02 2.0000000000e+02 0.0000e+00 0.0000e+00
</event>
<event>
 5      1 +6.7420000e-10 2.35464300e+02 7.95774700e-02 4.50137300e-01
       13 -1    0    0    0    0 +0.0000000000e+00 +0.0000000000e+00 +4.9999998884e+02 5.0000000000e+02 1.0566000000e-01 0.0000e+00 -1.0000e+00
      994 -1    0    0    0    0 -0.0000000000e+00 -0.0000000000e+00 +0.0000000000e+00 1.3100000000e+02 1.3100000000e+02 0.0000e+00 0.0000e+00
       13  1    1    2    0    0 -5.2344116136e+00 +1.3143074562e+01 +3.8179042759e+00 1.4653567176e+01 1.0566000000e-01 0.0000e+00 1.0000e+00
      994  1    1    2    0    0 +1.8583671546e+01 -1.0284799497e+01 +8.1464416314e+01 1.5571955906e+02 1.3100000000e+02 0.0000e+00 0.0000e+00
      997  1    1    2    0    0 -1.3349259932e+01 -2.8582750653e+00 +4.1471766825e+02 4.6062687376e+02 2.0000000000e+02 0.0000e+00 0.0000e+00
</event>
<event>
 5      1 +6.7420000e-10 2.40093200e+02 7.95774700e-02 4.44530700e-01
       13 -1    0    0    0    0 +0.0000000000e+00 +0.0000000000e+00 +4.9999998884e+02 5.0000000000e+02 1.0566000000e-01 0.0000e+00 1.0000e+00
      994 -1    0    0    0    0 -0.0000000000e+00 -0.0000000000e+00 +0.0000000000e+00 1.3100000000e+02 1.3100000000e+02 0.0000e+00 0.0000e+00
       13  1    1    2    0    0 +6.9739938950e+00 -1.6240307884e+01 +2.9092544249e+00 1.7912540756e+01 1.0566000000e-01 0.0000e+00 -1.0000e+00
      994  1    1    2    0    0 +3.7944374837e+00 +2.0308746379e+01 +9.2731843805e+01 1.6182409521e+02 1.3100000000e+02 0.0000e+00 0.0000e+00
      997  1    1    2    0    0 -1.0768431379e+01 -4.0684384949e+00 +4.0435889061e+02 4.5126336403e+02 2.0000000000e+02 0.0000e+00 0.0000e+00
</event>
<event>
 5      1 +6.7420000e-10 2.48231300e+02 7.95774700e-02 4.35271400e-01
       13 -1    0    0    0    0 +0.0000000000e+00 +0.0000000000e+00 +4.9999998884e+02 5.0000000000e+02 1.0566000000e-01 0.0000e+00 -1.0000e+00
      994 -1    0    0    0    0 -0.0000000000e+00 -0.0000000000e+00 +0.0000000000e+00 1.3100000000e+02 1.3100000000e+02 0.0000e+00 0.0000e+00
       13  1    1    2    0    0 -1.0687415037e+01 -4.7057523510e+00 -9.4442509829e+00 1.5018987516e+01 1.0566000000e-01 0.0000e+00 1.0000e+00
      994  1    1    2    0    0 +4.5898505554e+00 +2.4328098199e+01 +1.2812643224e+02 1.8490620792e+02 1.3100000000e+02 0.0000e+00 0.0000e+00
      997  1    1    2    0    0 +6.0975644813e+00 -1.9622345848e+01 +3.8131780758e+02 4.3107480456e+02 2.0000000000e+02 0.0000e+00 0.0000e+00
</event>
<event>
 5      1 +6.7420000e-10 2.34149900e+02 7.95774700e-02 4.51777800e-01
       13 -1    0    0    0    0 +0.0000000000e+00 +0.0000000000e+00 +4.9999998884e+02 5.0000000000e+02 1.0566000000e-01 0.0000e+00 -1.0000e+00
      994 -1    0    0    0    0 -0.0000000000e+00 -0.0000000000e+00 +0.0000000000e+00 1.3100000000e+02 1.3100000000e+02 0.0000e+00 0.0000e+00
       13  1    1    2    0    0 +9.5142066950e+00 -3.5196831516e+00 +6.4221729669e-01 1.0165230229e+01 1.0566000000e-01 0.0000e+00 1.0000e+00
      994  1    1    2    0    0 +1.7059879282e-01 -3.6317897077e+01 +8.8964893383e+01 1.6246467618e+02 1.3100000000e+02 0.0000e+00 0.0000e+00
      997  1    1    2    0    0 -9.6848054878e+00 +3.9837580228e+01 +4.1039287816e+02 4.5837009359e+02 2.0000000000e+02 0.0000e+00 0.0000e+00
</event>
<event>
 5      1 +6.7420000e-10 2.34461200e+02 7.95774700e-02 4.51387300e-01
       13 -1    0    0    0    0 +0.0000000000e+00 +0.0000000000e+00 +4.9999998884e+02 5.0000000000e+02 1.0566000000e-01 0.0000e+00 -1.0000e+00
      994 -1    0    0    0    0 -0.0000000000e+00 -0.0000000000e+00 +0.0000000000e+00 1.3100000000e+02 1.3100000000e+02 0.0000e+00 0.0000e+00
       13  1    1    2    0    0 +1.7368533045e+01 +3.2070581978e+00 +1.3512655349e+01 2.2238574168e+01 1.0566000000e-01 0.0000e+00 1.0000e+00
      994  1    1    2    0    0 -1.0911394533e+01 +4.1332526699e+00 +7.5648243743e+01 1.5172277051e+02 1.3100000000e+02 0.0000e+00 0.0000e+00
      997  1    1    2    0    0 -6.4571385123e+00 -7.3403108677e+00 +4.1083908974e+02 4.5703865533e+02 2.0000000000e+02 0.0000e+00 0.0000e+00
</event>
<event>
 5      1 +6.7420000e-10 2.35315800e+02 7.95774700e-02 4.50321500e-01
       13 -1    0    0    0    0 +0.0000000000e+00 +0.0000000000e+00 +4.9999998884e+02 5.0000000000e+02 1.0566000000e-01 0.0000e+00 1.0000e+00
      994 -1    0    0    0    0 -0.0000000000e+00 -0.0000000000e+00 +0.0000000000e+00 1.3100000000e+02 1.3100000000e+02 0.0000e+00 0.0000e+00
       13  1    1    2    0    0 -7.9581368698e+00 +2.2935408897e+01 +3.2956996853e+01 4.0933357171e+01 1.0566000000e-01 0.0000e+00 -1.0000e+00
      994  1    1    2    0    0 +3.7747786951e+01 -1.2527066107e+01 +9.5457004919e+01 1.6689776090e+02 1.3100000000e+02 0.0000e+00 0.0000e+00
      997  1    1    2    0    0 -2.9789650081e+01 -1.0408342790e+01 +3.7158598706e+02 4.2316888193e+02 2.0000000000e+02 0.0000e+00 0.0000e+00
</event>
<event>
 5      1 +6.7420000e-10 2.29293800e+02 7.95774700e-02 4.58035500e-01
       13 -1    0    0    0    0 +0.0000000000e+00 +0.0000000000e+00 +4.9999998884e+02 5.0000000000e+02 1.0566000000e-01 0.0000e+00 1.0000e+00
      994 -1    0    0    0    0 -0.0000000000e+00 -0.0000000000e+00 +0.0000000000e+00 1.3100000000e+02 1.3100000000e+02 0.0000e+00 0.0000e+00
       13  1    1    2    0    0 -6.2933283950e+00 +8.9161108565e+00 +9.5161431504e+00 1.4480026229e+01 1.0566000000e-01 0.0000e+00 -1.0000e+00
      994  1    1    2    0    0 -9.4745176860e+00 -1.9050970565e+01 +6.8924075657e+01 1.4954676249e+02 1.3100000000e+02 0.0000e+00 0.0000e+00
      997  1    1    2    0    0 +1.5767846081e+01 +1.0134859708e+01 +4.2155977003e+02 4.6697321129e+02 2.0000000000e+02 0.0000e+00 0.0000e+00
</event>
<event>
 5      1 +6.7420000e-10 2.28299400e+02 7.95774700e-02 4.59356600e-01
       13 -1    0    0    0    0 +0.0000000000e+00 +0.0000000000e+00 +4.9999998884e+02 5.0000000000e+02 1.0566000000e-01 0.0000e+00 -1.0000e+00
      994 -1    0    0    0    0 -0.0000000000e+00 -0.0000000000e+00 +0.0000000000e+00 1.3100000000e+02 1.3100000000e+02 0.0000e+00 0.0000e+00
       13  1    1    2    0    0 -3.2579553740e+00 -1.3867082590e+01 +1.6717564789e+01 2.1963569593e+01 1.0566000000e-01 0.0000e+00 1.0000e+00
      994  1    1    2    0    0 -1.3165693525e+01 +7.0774926743e+01 +1.2680450016e+02 1.9601736403e+02 1.3100000000e+02 0.0000e+00 0.0000e+00
      997  1    1    2    0    0 +1.6423648899e+01 -5.6907844153e+01 +3.5647792389e+02 4.1301906638e+02 2.0000000000e+02 0.0000e+00 0.0000e+00
</event>
<event>
 5      1 +6.7420000e-10 2.31484500e+02 7.95774700e-02 4.55173200e-01
       13 -1    0    0    0    0 +0.0000000000e+00 +0.0000000000e+00 +4.9999998884e+02 5.0000000000e+02 1.0566000000e-01 0.0000e+00 -1.0000e+00
      994 -1    0    0    0    0 -0.0000000000e+00 -0.0000000000e+00 +0.0000000000e+00 1.3100000000e+02 1.3100000000e+02 0.0000e+00 0.0000e+00
       13  1    1    2    0    0 -4.9561529739e+00 +1.5572547339e+01 +1.5109272686e+01 2.2256885858e+01 1.0566000000e-01 0.0000e+00 1.0000e+00
      994  1    1    2    0    0 -1.0378754587e+01 -4.0670528328e+01 +8.7896561590e+01 1.6324403806e+02 1.3100000000e+02 0.0000e+00 0.0000e+00
      997  1    1    2    0    0 +1.5334907561e+01 +2.5097980989e+01 +3.9699415456e+02 4.4549907609e+02 2.0000000000e+02 0.0000e+00 0.0000e+00
</event>
<event>
 5      1 +6.7420000e-10 2.37469700e+02 7.95774700e-02 4.47676300e-01
       13 -1    0    0    0    0 +0.0000000000e+00 +0.0000000000e+00 +4.9999998884e+02 5.0000000000e+02 1.0566000000e-01 0.0000e+00 1.0000e+00
      994 -1    0    0    0    0 -0.0000000000e+00 -0.0000000000e+00 +0.0000000000e+00 1.3100000000e+02 1.3100000000e+02 0.0000e+00 0.0000e+00
       13  1    1    2    0    0 +2.0352343746e+01 +2.1245062824e+01 +6.6834211318e+01 7.3023239841e+01 1.0566000000e-01 0.0000e+00 -1.0000e+00
      994  1    1    2    0    0 -6.3296804813e+01 -2.0757781329e+01 +1.7197615742e+02 2.2621708536e+02 1.3100000000e+02 0.0000e+00 0.0000e+00
      997  1    1    2    0    0 +4.2944461067e+01 -4.8728149572e-01 +2.6118962009e+02 3.3175967480e+02 2.0000000000e+02 0.0000e+00 0.0000e+00
</event>
<event>
 5      1 +6.7420000e-10 2.35478300e+02 7.95774700e-02 4.50120000e-01
       13 -1    0    0    0    0 +0.0000000000e+00 +0.0000000000e+00 +4.9999998884e+02 5.0000000000e+02 1.0566000000e-01 0.0000e+00 -1.0000e+00
      994 -1    0    0    0    0 -0.0000000000e+00 -0.0000000000e+00 +0.0000000000e+00 1.3100000000e+02 1.3100000000e+02 0.0000e+00 0.0000e+00
       13  1    1    2    0    0 -1.1828249222e+01 -1.1674508692e+01 +9.3079777461e+00 1.9048654719e+01 1.0566000000e-01 0.0000e+00 1.0000e+00
      994  1    1    2    0    0 -7.5668071231e+00 +1.0832928463e+01 +7.8243948015e+01 1.5315914700e+02 1.3100000000e+02 0.0000e+00 0.0000e+00
      997  1    1    2    0    0 +1.9395056345e+01 +8.4158022894e-01 +4.1244806308e+02 4.5879219828e+02 2.0000000000e+02 0.0000e+00 0.0000e+00
</event>
<event>
 5      1 +6.7420000e-10 2.35450700e+02 7.95774700e-02 4.50154200e-01
       13 -1    0    0    0    0 +0.0000000000e+00 +0.0000000000e+00 +4.9999998884e+02 5.0000000000e+02 1.0566000000e-01 0.0000e+00 -1.0000e+00
      994 -1    0    0    0    0 -0.0000000000e+00 -0.0000000000e+00 +0.0000000000e+00 1.3100000000e+02 1.3100000000e+02 0.0000e+00 0.0000e+00
       13  1    1    2    0    0 -2.4310465894e+01 -1.4954388861e+01 +5.4999702410e+01 6.1964594144e+01 1.0566000000e-01 0.0000e+00 1.0000e+00
      994  1    1    2    0    0 +4.1102274714e+01 +3.3000983997e+01 +1.1383268141e+02 1.8137624235e+02 1.3100000000e+02 0.0000e+00 0.0000e+00
      997  1    1    2    0    0 -1.6791808820e+01 -1.8046595135e+01 +3.3116760502e+02 3.8765916351e+02 2.0000000000e+02 0.0000e+00 0.0000e+00
</event>
<event>
 5      1 +6.7420000e-10 2.45678900e+02 7.95774700e-02 4.38097700e-01
       13 -1    0    0    0    0 +0.0000000000e+00 +0.0000000000e+00 +4.9999998884e+02 5.0000000000e+02 1.0566000000e-01 0.0000e+00 1.0000e+00
      994 -1    0    0    0    0 -0.0000000000e+00 -0.0000000000e+00 +0.0000000000e+00 1.3100000000e+02 1.3100000000e+02 0.0000e+00 0.0000e+00
       13  1    1    2    0    0 +1.2446032649e+01 -3.6067391766e+01 +9.9625160952e+01 1.0668150888e+02 1.0566000000e-01 0.0000e+00 -1.0000e+00
      994  1    1    2    0    0 -1.3233695066e+01 +3.1502188116e+01 +1.2752812982e+02 1.8598909225e+02 1.3100000000e+02 0.0000e+00 0.0000e+00
      997  1    1    2    0    0 +7.8766241765e-01 +4.5652036504e+00 +2.7284669806e+02 3.3832939887e+02 2.0000000000e+02 0.0000e+00 0.0000e+00
</event>
<event>
 5      1 +6.7420000e-10 2.28323000e+02 7.95774700e-02 4.59325200e-01
       13 -1    0    0    0    0 +0.0000000000e+00 +0.0000000000e+00 +4.9999998884e+02 5.0000000000e+02 1.0566000000e-01 0.0000e+00 1.0000e+00
      994 -1    0    0    0    0 -0.0000000000e+00 -0.0000000000e+00 +0.0000000000e+00 1.3100000000e+02 1.3100000000e+02 0.0000e+00 0.0000e+00
       13  1    1    2    0    0 -4.0863266553e+00 +1.1635371008e+01 +2.1872719266e+01 2.5109897175e+01 1.0566000000e-01 0.0000e+00 -1.0000e+00
      994  1    1    2    0    0 +3.6820137965e+01 -1.0913408046e+01 +7.7645723282e+01 1.5704993912e+02 1.3100000000e+02 0.0000e+00 0.0000e+00
      997  1    1    2    0    0 -3.2733811310e+01 -7.2196296184e-01 +4.0048154629e+02 4.4884016370e+02 2.0000000000e+02 0.0000e+00 0.0000e+00
</event>
<event>
 5      1 +6.7420000e-10 2.41463400e+02 7.95774700e-02 4.42920000e-01
       13 -1    0    0    0    0 +0.0000000000e+00 +0.0000000000e+00 +4.9999998884e+02 5.0000000000e+02 1.0566000000e-01 0.0000e+00 -1.0000e+00
      994 -1    0    0    0    0 -0.0000000000e+00 -0.0000000000e+00 +0.0000000000e+00 1.3100000000e+02 1.3100000000e+02 0.0000e+00 0.0000e+00
       13  1    1    2    0    0 +2.7749665315e-01 +2.4245503476e+01 +7.4102041003e+00 2.5354363175e+01 1.0566000000e-01 0.0000e+00 1.0000e+00
      994  1    1    2    0    0 -2.4051621387e+00 -4.3993874481e+01 +1.2334909596e+02 1.8524914378e+02 1.3100000000e+02 0.0000e+00 0.0000e+00
      997  1    1    2    0    0 +2.1276654855e+00 +1.9748371005e+01 +3.6924068877e+02 4.2039649305e+02 2.0000000000e+02 0.0000e+00 0.0000e+00
</event>
<event>
 5      1 +6.7420000e-10 2.34531100e+02 7.95774700e-02 4.51299700e-01
       13 -1    0    0    0    0 +0.0000000000e+00 +0.0000000000e+00 +4.9999998884e+02 5.0000000000e+02 1.0566000000e-01 0.0000e+00 1.0000e+00
      994 -1    0    0    0    0 -0.0000000000e+00 -0.0000000000e+00 +0.0000000000e+00 1.3100000000e+02 1.3100000000e+02 0.0000e+00 0.0000e+00
       13  1    1    2    0    0 -2.9082792884e+00 +2.0243936235e+01 +1.7559039189e+01 2.6955631397e+01 1.0566000000e-01 0.0000e+00 -1.0000e+00
      994  1    1    2    0    0 +7.9720915871e+00 -3.1138696663e+01 +8.6340500360e+01 1.6015259809e+02 1.3100000000e+02 0.0000e+00 0.0000e+00
      997  1    1    2    0    0 -5.0638122988e+00 +1.0894760428e+01 +3.9610044929e+02 4.4389177051e+02 2.0000000000e+02 0.0000e+00 0.0000e+00
</event>
<event>
 5      1 +6.7420000e-10 2.44461700e+02 7.95774700e-02 4.39470000e-01
       13 -1    0    0    0    0 +0.0000000000e+00 +0.0000000000e+00 +4.9999998884e+02 5.0000000000e+02 1.0566000000e-01 0.0000e+00 -1.0000e+00
      994 -1    0    0    0    0 -0.0000000000e+00 -0.0000000000e+00 +0.0000000000e+00 1.3100000000e+02 1.3100000000e+02 0.0000e+00 0.0000e+00
       13  1    1    2    0    0 -4.2029607017e+00 +2.3388119423e+01 +6.5479974853e+00 2.4648660084e+01 1.0566000000e-01 0.0000e+00 1.0000e+00
      994  1    1    2    0    0 +2.2108394752e+01 -3.2487634238e+00 +1.0791272320e+02 1.7118846752e+02 1.3100000000e+02 0.0000e+00 0.0000e+00
      997  1    1    2    0    0 -1.7905434050e+01 -2.0139355999e+01 +3.8553926815e+02 4.3516287240e+02 2.0000000000e+02 0.0000e+00 0.0000e+00
</event>
<event>
 5      1 +6.7420000e-10 2.34340900e+02 7.95774700e-02 4.51537900e-01
       13 -1    0    0    0    0 +0.0000000000e+00 +0.0000000000e+00 +4.9999998884e+02 5.0000000000e+02 1.0566000000e-01 0.0000e+00 1.0000e+00
      994 -1    0    0    0    0 -0.0000000000e+00 -0.0000000000e+00 +0.0000000000e+00 1.3100000000e+02 1.3100000000e+02 0.0000e+00 0.0000e+00
       13  1    1    2    0    0 +1.8945554064e+01 +1.0765044025e+01 +2.3155487995e+01 3.1796351677e+01 1.0566000000e-01 0.0000e+00 -1.0000e+00
      994  1    1    2    0    0 -2.8252083205e+01 -1.4279606392e+01 +8.5504354491e+01 1.5960602119e+02 1.3100000000e+02 0.0000e+00 0.0000e+00
      997  1    1    2    0    0 +9.3065291410e+00 +3.5145623672e+00 +3.9134014635e+02 4.3959762713e+02 2.0000000000e+02 0.0000e+00 0.0000e+00
</event>
<event>
 5      1 +6.7420000e-10 2.40331000e+02 7.95774700e-02 4.44249600e-01
       13 -1    0    0    0    0 +0.0000000000e+00 +0.0000000000e+00 +4.9999998884e+02 5.0000000000e+02 1.0566000000e-01 0.0000e+00 1.0000e+00
      994 -1    0    0    0    0 -0.0000000000e+00 -0.0000000000e+00 +0.0000000000e+00 1.3100000000e+02 1.3100000000e+02 0.0000e+00 0.0000e+00
       13  1    1    2    0    0 -2.0952713773e+01 +3.4624614926e+00 +5.5615158047e+00 2.1953279393e+01 1.0566000000e-01 0.0000e+00 -1.0000e+00
      994  1    1    2    0    0 +3.8292718215e+01 -6.1397397574e+00 +1.1022709858e+02 1.7554213720e+02 1.3100000000e+02 0.0000e+00 0.0000e+00
      997  1    1    2    0    0 -1.7340004443e+01 +2.6772782648e+00 +3.8421137445e+02 4.3350458341e+02 2.0000000000e+02 0.0000e+00 0.0000e+00
</event>
<event>
 5      1 +6.7420000e-10 2.37335000e+02 7.95774700e-02 4.47840000e-01
       13 -1    0    0    0    0 +0.0000000000e+00 +0.0000000000e+00 +4.9999998884e+02 5.0000000000e+02 1.0566000000e-01 0.0000e+00 1.0000e+00
      994 -1    0    0    0    0 -0.0000000000e+00 -0.0000000000e+00 +0.0000000000e+00 1.3100000000e+02 1.3100000000e+02 0.0000e+00 0.0000e+00
       13  1    1    2    0    0 -1.9593487144e+01 -1.6478963708e+01 +2.2733971202e+01 3.4238948495e+01 1.0566000000e-01 0.0000e+00 -1.0000e+00
      994  1    1    2    0    0 +4.3654459362e+01 -1.3209810632e+00 +1.0633662941e+02 1.7428693458e+02 1.3100000000e+02 0.0000e+00 0.0000e+00
      997  1    1    2    0    0 -2.4060972218e+01 +1.7799944771e+01 +3.7092938823e+02 4.2247411692e+02 2.0000000000e+02 0.0000e+00 0.0000e+00
</event>
<event>
 5      1 +6.7420000e-10 2.32448900e+02 7.95774700e-02 4.53933900e-01
       13 -1    0    0    0    0 +0.0000000000e+00 +0.0000000000e+00 +4.9999998884e+02 5.0000000000e+02 1.0566000000e-01 0.0000e+00 -1.0000e+00
      994 -1    0    0    0    0 -0.0000000000e+00 -0.0000000000e+00 +0.0000000000e+00 1.3100000000e+02 1.3100000000e+02 0.0000e+00 0.0000e+00
       13  1    1    2    0    0 -1.5563895945e+01 -4.8596567815e+00 +9.7717645124e+00 1.9009199530e+01 1.0566000000e-01 0.0000e+00 1.0000e+00
      994  1    1    2    0    0 +5.2156067280e+01 +2.1799558100e+00 +1.0302251527e+02 1.7464147908e+02 1.3100000000e+02 0.0000e+00 0.0000e+00
      997  1    1    2    0    0 -3.6592171334e+01 +2.6797009715e+00 +3.8720570905e+02 4.3734932139e+02 2.0000000000e+02 0.0000e+00 0.0000e+00
</event>
<event>
 5      1 +6.7420000e-10 2.33259900e+02 7.95774700e-02 4.52901100e-01
       13 -1    0    0    0    0 +0.0000000000e+00 +0.0000000000e+00 +4.9999998884e+02 5.0000000000e+02 1.0566000000e-01 0.0000e+00 1.0000e+00
      994 -1    0    0    0    0 -0.0000000000e+00 -0.0000000000e+00 +0.0000000000e+00 1.3100000000e+02 1.3100000000e+02 0.0000e+00 0.0000e+00
       13  1    1    2    0    0 -3.6199949118e+00 -1.0112908531e+01 +2.1419400375e+00 1.0953280480e+01 1.0566000000e-01 0.0000e+00 -1.0000e+00
      994  1    1    2    0    0 +3.5582808404e+01 -1.7244185249e+01 +8.9811288637e+01 1.6367823846e+02 1.3100000000e+02 0.0000e+00 0.0000e+00
      997  1    1    2    0    0 -3.1962813492e+01 +2.7357093780e+01 +4.0804676016e+02 4.5636848106e+02 2.0000000000e+02 0.0000e+00 0.0000e+00
</event>
<event>
 5      1 +6.7420000e-10 2.36063100e+02 7.95774700e-02 4.49397200e-01
       13 -1    0    0    0    0 +0.0000000000e+00 +0.0000000000e+00 +4.9999998884e+02 5.0000000000e+02 1.0566000000e-01 0.0000e+00 1.0000e+00
      994 -1    0    0    0    0 -0.0000000000e+00 -0.0000000000e+00 +0.0000000000e+00 1.3100000000e+02 1.3100000000e+02 0.0000e+00 0.0000e+00
       13  1    1    2    0    0 -9.7777851708e+00 -1.9449975074e+01 +2.0616754388e+01 2.9982800715e+01 1.0566000000e-01 0.0000e+00 -1.0000e+00
      994  1    1    2    0    0 -3.2104804014e+01 +2.6904862655e+01 +1.0002008763e+02 1.7005766082e+02 1.3100000000e+02 0.0000e+00 0.0000e+00
      997  1    1    2    0    0 +4.1882589184e+01 -7.4548875807e+00 +3.7936314682e+02 4.3095953846e+02 2.0000000000e+02 0.0000e+00 0.0000e+00
</event>
<event>
 5      1 +6.7420000e-10 2.43445500e+02 7.95774700e-02 4.40628000e-01
       13 -1    0    0    0    0 +0.0000000000e+00 +0.0000000000e+00 +4.9999998884e+02 5.0000000000e+02 1.0566000000e-01 0.0000e+00 -1.0000e+00
      994 -1    0    0    0    0 -0.0000000000e+00 -0.0000000000e+00 +0.0000000000e+00 1.3100000000e+02 1.3100000000e+02 0.0000e+00 0.0000e+00
       13  1    1    2    0    0 -2.0092889925e+01 -1.5235155376e+01 +1.3347295587e+01 2.8530608973e+01 1.0566000000e-01 0.0000e+00 1.0000e+00
      994  1    1    2    0    0 +9.0385822021e-01 -2.0302402111e+01 +1.0279019336e+02 1.6774930206e+02 1.3100000000e+02 0.0000e+00 0.0000e+00
      997  1    1    2    0    0 +1.9189031704e+01 +3.5537557487e+01 +3.8386249988e+02 4.3472008896e+02 2.0000000000e+02 0.0000e+00 0.0000e+00
</event>
<event>
 5      1 +6.7420000e-10 2.35022100e+02 7.95774700e-02 4.50686700e-01
       13 -1    0    0    0    0 +0.0000000000e+00 +0.0000000000e+00 +4.9999998884e+02 5.0000000000e+02 1.0566000000e-01 0.0000e+00 1.0000e+00
      994 -1    0    0    0    0 -0.0000000000e+00 -0.0000000000e+00 +0.0000000000e+00 1.3100000000e+02 1.3100000000e+02 0.0000e+00 0.0000e+00
       13  1    1    2    0    0 -1.4001782427e+01 -1.1641740598e+01 +1.2616432308e+01 2.2153229189e+01 1.0566000000e-01 0.0000e+00 -1.0000e+00
      994  1    1    2    0    0 +4.1435953906e+00 +1.9614220518e+01 +7.9893536119e+01 1.5474451248e+02 1.3100000000e+02 0.0000e+00 0.0000e+00
      997  1    1    2    0    0 +9.8581870365e+00 -7.9724799204e+00 +4.0749002041e+02 4.5410225833e+02 2.0000000000e+02 0.0000e+00 0.0000e+00
</event>
<event>
 5      1 +6.7420000e-10 2.46035500e+02 7.95774700e-02 4.37698700e-01
       13 -1    0    0    0    0 +0.0000000000e+00 +0.0000000000e+00 +4.9999998884e+02 5.0000000000e+02 1.0566000000e-01 0.0000e+00 -1.0000e+00
      994 -1    0    0    0    0 -0.0000000000e+00 -0.0000000000e+00 +0.0000000000e+00 1.3100000000e+02 1.3100000000e+02 0.0000e+00 0.0000e+00
       13  1    1    2    0    0 +3.4615771185e+01 +5.5123174216e+00 +2.3338365605e+01 4.2110898011e+01 1.0566000000e-01 0.0000e+00 1.0000e+00
      994  1    1    2    0    0 -1.7225079353e+01 -3.2684571689e+01 +1.3515028623e+02 1.9181132514e+02 1.3100000000e+02 0.0000e+00 0.0000e+00
      997  1    1    2    0    0 -1.7390691832e+01 +2.7172254267e+01 +3.4151133700e+02 3.9707777685e+02 2.0000000000e+02 0.0000e+00 0.0000e+00
</event>
<event>
 5      1 +6.7420000e-10 2.40339400e+02 7.95774700e-02 4.44239600e-01
       13 -1    0    0    0    0 +0.0000000000e+00 +0.0000000000e+00 +4.9999998884e+02 5.0000000000e+02 1.0566000000e-01 0.0000e+00 -1.0000e+00
      994 -1    0    0    0    0 -0.0000000000e+00 -0.0000000000e+00 +0.0000000000e+00 1.3100000000e+02 1.3100000000e+02 0.0000e+00 0.0000e+00
       13  1    1    2    0    0 +2.2024225258e+00 -2.9780177815e+01 +5.1217046772e+01 5.9286648579e+01 1.0566000000e-01 0.0000e+00 1.0000e+00
      994  1    1    2    0    0 +4.1584147336e+01 +4.6863162361e+00 +1.1466648454e+02 1.7905475572e+02 1.3100000000e+02 0.0000e+00 0.0000e+00
      997  1    1    2    0    0 -4.3786569862e+01 +2.5093861579e+01 +3.3411645752e+02 3.9265859570e+02 2.0000000000e+02 0.0000e+00 0.0000e+00
</event>
<event>
 5      1 +6.7420000e-10 2.31553700e+02 7.95774700e-02 4.55083900e-01
       13 -1    0    0    0    0 +0.0000000000e+00 +0.0000000000e+00 +4.9999998884e+02 5.0000000000e+02 1.0566000000e-01 0.0000e+00 1.0000e+00
      994 -1    0    0    0    0 -0.0000000000e+00 -0.0000000000e+00 +0.0000000000e+00 1.3100000000e+02 1.3100000000e+02 0.0000e+00 0.0000e+00
       13  1    1    2    0    0 -1.9825728654e+01 +4.2053454753e+00 +1.4132659428e+01 2.4708048765e+01 1.0566000000e-01 0.0000e+00 -1.0000e+00
      994  1    1    2    0    0 +7.9384371033e+01 +3.3650922512e+00 +1.8808948195e+02 2.4259401359e+02 1.3100000000e+02 0.0000e+00 0.0000e+00
      997  1    1    2    0    0 -5.9558642379e+01 -7.5704377265e+00 +2.9777784745e+02 3.6369793764e+02 2.0000000000e+02 0.0000e+00 0.0000e+00
</event>
<event>
 5      1 +6.7420000e-10 2.35145400e+02 7.95774700e-02 4.50533200e-01
       13 -1    0    0    0    0 +0.0000000000e+00 +0.0000000000e+00 +4.9999998884e+02 5.0000000000e+02 1.0566000000e-01 0.0000e+00 -1.0000e+00
      994 -1    0    0    0    0 -0.0000000000e+00 -0.0000000000e+00 +0.0000000000e+00 1.3100000000e+02 1.3100000000e+02 0.0000e+00 0.0000e+00
       13  1    1    2    0    0 +1.1265786799e+01 +8.6442225018e+00 +2.8639318692e+00 1.4486331649e+01 1.0566000000e-01 0.0000e+00 1.0000e+00
      994  1    1    2    0    0 -8.0938603755e+00 -4.5704631703e+01 +1.0304100012e+02 1.7301118935e+02 1.3100000000e+02 0.0000e+00 0.0000e+00
      997  1    1    2    0    0 -3.1719264237e+00 +3.7060409201e+01 +3.9409505685e+02 4.4350247900e+02 2.0000000000e+02 0.0000e+00 0.0000e+00
</event>
<event>
 5      1 +6.7420000e-10 2.30562700e+02 7.95774700e-02 4.56369500e-01
       13 -1    0    0    0    0 +0.0000000000e+00 +0.0000000000e+00 +4.9999998884e+02 5.0000000000e+02 1.0566000000e-01 0.0000e+00 -1.0000e+00
      994 -1    0    0    0    0 -0.0000000000e+00 -0.0000000000e+00 +0.0000000000e+00 1.3100000000e+02 1.3100000000e+02 0.0000e+00 0.0000e+00
       13  1    1    2    0    0 +3.7364216189e+00 -1.1822412519e+01 +1.0993027835e+01 1.6570700326e+01 1.0566000000e-01 0.0000e+00 1.0000e+00
      994  1    1    2    0    0 -1.3011289651e+01 -3.6565071238e+00 +6.8525173788e+01 1.4845660358e+02 1.3100000000e+02 0.0000e+00 0.0000e+00
      997  1    1    2    0    0 +9.2748680322e+00 +1.5478919643e+01 +4.2048178721e+02 4.6597269610e+02 2.0000000000e+02 0.0000e+00 0.0000e+00
</event>
<event>
 5      1 +6.7420000e-10 2.32889800e+02 7.95774700e-02 4.53371300e-01
       13 -1    0    0    0    0 +0.0000000000e+00 +0.0000000000e+00 +4.9999998884e+02 5.0000000000e+02 1.0566000000e-01 0.0000e+00 -1.0000e+00
      994 -1    0    0    0    0 -0.0000000000e+00 -0.0000000000e+00 +0.0000000000e+00 1.3100000000e+02 1.3100000000e+02 0.0000e+00 0.0000e+00
       13  1    1    2    0    0 +9.0394419958e+00 -7.0414175341e+00 +3.2447675573e+00 1.1909355693e+01 1.0566000000e-01 0.0000e+00 1.0000e+00
      994  1    1    2    0    0 -2.5084250238e+01 -1.0153813286e+01 +7.9052877756e+01 1.5537913958e+02 1.3100000000e+02 0.0000e+00 0.0000e+00
      997  1    1    2    0    0 +1.6044808243e+01 +1.7195230820e+01 +4.1770234352e+02 4.6371150473e+02 2.0000000000e+02 0.0000e+00 0.0000e+00
</event>
<event>
 5      1 +6.7420000e-10 2.42743800e+02 7.95774700e-02 4.41434400e-01
       13 -1    0    0    0    0 +0.0000000000e+00 +0.0000000000e+00 +4.9999998884e+02 5.0000000000e+02 1.0566000000e-01 0.0000e+00 -1.0000e+00
      994 -1    0    0    0    0 -0.0000000000e+00 -0.0000000000e+00 +0.0000000000e+00 1.3100000000e+02 1.3100000000e+02 0.0000e+00 0.0000e+00
       13  1    1    2    0    0 -3.1503508416e+01 -1.9589545487e+01 +4.5100638673e+01 5.8397774853e+01 1.0566000000e-01 0.0000e+00 1.0000e+00
      994  1    1    2    0    0 +4.5084315103e+01 -1.4522048326e+01 +1.3806169699e+02 1.9612627955e+02 1.3100000000e+02 0.0000e+00 0.0000e+00
      997  1    1    2    0    0 -1.3580806687e+01 +3.4111593814e+01 +3.1683765317e+02 3.7647594559e+02 2.0000000000e+02 0.0000e+00 0.0000e+00
</event>
<event>
 5      1 +6.7420000e-10 2.38620700e+02 7.95774700e-02 4.46286100e-01
       13 -1    0    0    0    0 +0.0000000000e+00 +0.0000000000e+00 +4.9999998884e+02 5.0000000000e+02 1.0566000000e-01 0.0000e+00 -1.0000e+00
      994 -1    0    0    0    0 -0.0000000000e+00 -0.0000000000e+00 +0.0000000000e+00 1.3100000000e+02 1.3100000000e+02 0.0000e+00 0.0000e+00
       13  1    1    2    0    0 -2.3729301267e+01 -6.2051692692e+00 +5.9188190217e+01 6.4069001003e+01 1.0566000000e-01 0.0000e+00 1.0000e+00
      994  1    1    2    0    0 +4.9305681248e+00 -5.0517062782e+01 +1.2313875713e+02 1.8681658824e+02 1.3100000000e+02 0.0000e+00 0.0000e+00
      997  1    1    2    0    0 +1.8798733143e+01 +5.6722232051e+01 +3.1767304149e+02 3.8011441076e+02 2.0000000000e+02 0.0000e+00 0.0000e+00
</event>
<event>
 5      1 +6.7420000e-10 2.48855400e+02 7.95774700e-02 4.34590600e-01
       13 -1    0    0    0    0 +0.0000000000e+00 +0.0000000000e+00 +4.9999998884e+02 5.0000000000e+02 1.0566000000e-01 0.0000e+00 -1.0000e+00
      994 -1    0    0    0    0 -0.0000000000e+00 -0.0000000000e+00 +0.0000000000e+00 1.3100000000e+02 1.3100000000e+02 0.0000e+00 0.0000e+00
       13  1    1    2    0    0 +1.8684601414e+01 +2.5327990846e+01 +1.1034644069e+01 3.3352600859e+01 1.0566000000e-01 0.0000e+00 1.0000e+00
      994  1    1    2    0    0 +2.7303227975e+01 +1.1432950376e+01 +2.1249008638e+02 2.5137465151e+02 1.3100000000e+02 0.0000e+00 0.0000e+00
      997  1    1    2    0    0 -4.5987829388e+01 -3.6760941222e+01 +2.7647525838e+02 3.4627274763e+02 2.0000000000e+02 0.0000e+00 0.0000e+00
</event>
<event>
 5      1 +6.7420000e-10 2.42988500e+02 7.95774700e-02 4.41152600e-01
       13 -1    0    0    0    0 +0.0000000000e+00 +0.0000000000e+00 +4.9999998884e+02 5.0000000000e+02 1.0566000000e-01 0.0000e+00 1.0000e+00
      994 -1    0    0    0    0 -0.0000000000e+00 -0.0000000000e+00 +0.0000000000e+00 1.3100000000e+02 1.3100000000e+02 0.0000e+00 0.0000e+00
       13  1    1    2    0    0 -1.8627400457e+01 -2.1123633516e+00 +2.5587402651e+00 1.8920899621e+01 1.0566000000e-01 0.0000e+00 -1.0000e+00
      994  1    1    2    0    0 -1.1078536801e+01 -7.9032197130e+00 +9.7657099569e+01 1.6396067808e+02 1.3100000000e+02 0.0000e+00 0.0000e+00
      997  1    1    2    0    0 +2.9705937258e+01 +1.0015583065e+01 +3.9978414900e+02 4.4811842230e+02 2.0000000000e+02 0.0000e+00 0.0000e+00
</event>
<event>
 5      1 +6.7420000e-10 2.49713500e+02 7.95774700e-02 4.33661100e-01
       13 -1    0    0    0    0 +0.0000000000e+00 +0.0000000000e+00 +4.9999998884e+02 5.0000000000e+02 1.0566000000e-01 0.0000e+00 1.0000e+00
      994 -1    0    0    0    0 -0.0000000000e+00 -0.0000000000e+00 +0.0000000000e+00 1.3100000000e+02 1.3100000000e+02 0.0000e+00 0.0000e+00
       13  1    1    2    0    0 +2.9660306758e+01 -7.1377224071e+00 +1.2750084985e+01 3.3064432693e+01 1.0566000000e-01 0.0000e+00 -1.0000e+00
      994  1    1    2    0    0 +2.6379011579e+01 -1.3618299487e+01 +1.5035556645e+02 2.0161623619e+02 1.3100000000e+02 0.0000e+00 0.0000e+00
      997  1    1    2    0    0 -5.6039318337e+01 +2.0756021894e+01 +3.3689433740e+02 3.9631933112e+02 2.0000000000e+02 0.0000e+00 0.0000e+00
</event>
<event>
 5      1 +6.7420000e-10 2.39331100e+02 7.95774700e-02 4.45436000e-01
       13 -1    0    0    0    0 +0.0000000000e+00 +0.0000000000e+00 +4.9999998884e+02 5.0000000000e+02 1.0566000000e-01 0.0000e+00 1.0000e+00
      994 -1    0    0    0    0 -0.0000000000e+00 -0.0000000000e+00 +0.0000000000e+00 1.3100000000e+02 1.3100000000e+02 0.0000e+00 0.0000e+00
       13  1    1    2    0    0 +2.0654569765e+01 -3.4564767429e-02 +1.1060549730e+01 2.3429882015e+01 1.0566000000e-01 0.0000e+00 -1.0000e+00
      994  1    1    2    0    0 +5.4533303288e+01 -2.4875793264e+01 +2.2356008247e+02 2.6595638126e+02 1.3100000000e+02 0.0000e+00 0.0000e+00
      997  1    1    2    0    0 -7.5187873053e+01 +2.4910358032e+01 +2.6537935664e+02 3.4161373673e+02 2.0000000000e+02 0.0000e+00 0.0000e+00
</event>
<event>
 5      1 +6.7420000e-10 2.40488500e+02 7.95774700e-02 4.44063800e-01
       13 -1    0    0    0    0 +0.0000000000e+00 +0.0000000000e+00 +4.9999998884e+02 5.0000000000e+02 1.0566000000e-01 0.0000e+00 1.0000e+00
      994 -1    0    0    0    0 -0.0000000000e+00 -0.0000000000e+00 +0.0000000000e+00 1.3100000000e+02 1.3100000000e+02 0.0000e+00 0.0000e+00
       13  1    1    2    0    0 -2.0562987079e+01 +2.3718540847e+01 +5.4200605494e+01 6.2634833898e+01 1.0566000000e-01 0.0000e+00 -1.0000e+00
      994  1    1    2    0    0 +5.6852149166e+00 -5.2442811812e+00 +8.8723074380e+01 1.5840646477e+02 1.3100000000e+02 0.0000e+00 0.0000e+00
      997  1    1    2    0    0 +1.4877772163e+01 -1.8474259666e+01 +3.5707630896e+02 4.0995870133e+02 2.0000000000e+02 0.0000e+00 0.0000e+00
</event>
<event>
 5      1 +6.7420000e-10 2.38695500e+02 7.95774700e-02 4.46196300e-01
       13 -1    0    0    0    0 +0.0000000000e+00 +0.0000000000e+00 +4.9999998884e+02 5.0000000000e+02 1.0566000000e-01 0.0000e+00 1.0000e+00
      994 -1    0    0    0    0 -0.0000000000e+00 -0.0000000000e+00 +0.0000000000e+00 1.3100000000e+02 1.3100000000e+02 0.0000e+00 0.0000e+00
       13  1    1    2    0    0 +1.4684300933e+01 -2.7497588367e+01 +3.2873485151e+01 4.5303678105e+01 1.0566000000e-01 0.0000e+00 -1.0000e+00
      994  1    1    2    0    0 -3.8394777060e+01 +2.9378197864e+01 +1.1881338592e+02 1.8334355208e+02 1.3100000000e+02 0.0000e+00 0.0000e+00
      997  1    1    2    0    0 +2.3710476127e+01 -1.8806094974e+00 +3.4831311777e+02 4.0235276982e+02 2.0000000000e+02 0.0000e+00 0.0000e+00
</event>
<event>
 5      1 +6.7420000e-10 2.43748400e+02 7.95774700e-02 4.40281700e-01
       13 -1    0    0    0    0 +0.0000000000e+00 +0.0000000000e+00 +4.9999998884e+02 5.0000000000e+02 1.0566000000e-01 0.0000e+00 -1.0000e+00
      994 -1    0    0    0    0 -0.0000000000e+00 -0.0000000000e+00 +0.0000000000e+00 1.3100000000e+02 1.3100000000e+02 0.0000e+00 0.0000e+00
       13  1    1    2    0    0 -3.5592546130e+01 -7.3476410596e+00 +4.0552418368e+01 5.4454815844e+01 1.0566000000e-01 0.0000e+00 1.0000e+00
      994  1    1    2    0    0 +2.2047536549e+01 +2.0091066612e+00 +1.0514347196e+02 1.6942927750e+02 1.3100000000e+02 0.0000e+00 0.0000e+00
      997  1    1    2    0    0 +1.3545009581e+01 +5.3385343984e+00 +3.5430409851e+02 4.0711590666e+02 2.0000000000e+02 0.0000e+00 0.0000e+00
</event>
<event>
 5      1 +6.7420000e-10 2.41168900e+02 7.95774700e-02 4.43264300e-01
       13 -1    0    0    0    0 +0.0000000000e+00 +0.0000000000e+00 +4.9999998884e+02 5.0000000000e+02 1.0566000000e-01 0.0000e+00 -1.0000e+00
      994 -1    0    0    0    0 -0.0000000000e+00 -0.0000000000e+00 +0.0000000000e+00 1.3100000000e+02 1.3100000000e+02 0.0000e+00 0.0000e+00
       13  1    1    2    0    0 +3.5405272396e-01 +1.5622477091e+01 +3.1064947287e-01 1.5629933170e+01 1.0566000000e-01 0.0000e+00 1.0000e+00
      994  1    1    2    0    0 +1.6261688716e+00 +5.6115803024e+01 +1.5602026507e+02 2.1131718077e+02 1.3100000000e+02 0.0000e+00 0.0000e+00
      997  1    1    2    0    0 -1.9802215956e+00 -7.1738280115e+01 +3.4366907429e+02 4.0405288606e+02 2.0000000000e+02 0.0000e+00 0.0000e+00
</event>
<event>
 5      1 +6.7420000e-10 2.34955600e+02 7.95774700e-02 4.50769500e-01
       13 -1    0    0    0    0 +0.0000000000e+00 +0.0000000000e+00 +4.9999998884e+02 5.0000000000e+02 1.0566000000e-01 0.0000e+00 1.0000e+00
      994 -1    0    0    0    0 -0.0000000000e+00 -0.0000000000e+00 +0.0000000000e+00 1.3100000000e+02 1.3100000000e+02 0.0000e+00 0.0000e+00
       13  1    1    2    0    0 -7.3607406842e+00 -7.6960682347e+00 +1.1359963612e+00 1.0710351136e+01 1.0566000000e-01 0.0000e+00 -1.0000e+00
      994  1    1    2    0    0 -2.3194118773e+01 -3.5564425458e+01 +9.7473766598e+01 1.6871553182e+02 1.3100000000e+02 0.0000e+00 0.0000e+00
      997  1    1    2    0    0 +3.0554859457e+01 +4.3260493693e+01 +4.0139022588e+02 4.5157411704e+02 2.0000000000e+02 0.0000e+00 0.0000e+00
</event>
<event>
 5      1 +6.7420000e-10 2.41469500e+02 7.95774700e-02 4.42912900e-01
       13 -1    0    0    0    0 +0.0000000000e+00 +0.0000000000e+00 +4.9999998884e+02 5.0000000000e+02 1.0566000000e-01 0.0000e+00 1.0000e+00
      994 -1    0    0    0    0 -0.0000000000e+00 -0.0000000000e+00 +0.0000000000e+00 1.3100000000e+02 1.3100000000e+02 0.0000e+00 0.0000e+00
       13  1    1    2    0    0 -2.1594336111e+01 -2.1960934984e+01 +3.9512379360e+01 5.0098276459e+01 1.0566000000e-01 0.0000e+00 -1.0000e+00
      994  1    1    2    0    0 +1.2755469731e+01 -1.2144844029e+01 +9.4974674011e+01 1.6276175210e+02 1.3100000000e+02 0.0000e+00 0.0000e+00
      997  1    1    2    0    0 +8.8388663800e+00 +3.4105779013e+01 +3.6551293547e+02 4.1813997144e+02 2.0000000000e+02 0.0000e+00 0.0000e+00
</event>
<event>
 5      1 +6.7420000e-10 2.41282500e+02 7.95774700e-02 4.43131400e-01
       13 -1    0    0    0    0 +0.0000000000e+00 +0.0000000000e+00 +4.9999998884e+02 5.0000000000e+02 1.0566000000e-01 0.0000e+00 -1.0000e+00
      994 -1    0    0    0    0 -0.0000000000e+00 -0.0000000000e+00 +0.0000000000e+00 1.3100000000e+02 1.3100000000e+02 0.0000e+00 0.0000e+00
       13  1    1    2    0    0 -2.8578789700e+01 -4.4843417609e+00 +4.1338483973e+01 5.0455306589e+01 1.0566000000e-01 0.0000e+00 1.0000e+00
      994  1    1    2    0    0 -1.8186143279e+01 +4.9979834815e+00 +9.5097587719e+01 1.6297320895e+02 1.3100000000e+02 0.0000e+00 0.0000e+00
      997  1    1    2    0    0 +4.6764932979e+01 -5.1364172061e-01 +3.6356391714e+02 4.1757148446e+02 2.0000000000e+02 0.0000e+00 0.0000e+00
</event>
<event>
 5      1 +6.7420000e-10 2.46867900e+02 7.95774700e-02 4.36772500e-01
       13 -1    0    0    0    0 +0.0000000000e+00 +0.0000000000e+00 +4.9999998884e+02 5.0000000000e+02 1.0566000000e-01 0.0000e+00 -1.0000e+00
      994 -1    0    0    0    0 -0.0000000000e+00 -0.0000000000e+00 +0.0000000000e+00 1.3100000000e+02 1.3100000000e+02 0.0000e+00 0.0000e+00
       13  1    1    2    0    0 +2.0115160870e+01 -2.2517893727e+01 +1.3082824973e+01 3.2906636231e+01 1.0566000000e-01 0.0000e+00 1.0000e+00
      994  1    1    2    0    0 -1.7097553406e+01 +4.5213860385e+00 +1.1408430604e+02 1.7461099091e+02 1.3100000000e+02 0.0000e+00 0.0000e+00
      997  1    1    2    0    0 -3.0176074633e+00 +1.7996507688e+01 +3.7283285783e+02 4.2348237286e+02 2.0000000000e+02 0.0000e+00 0.0000e+00
</event>
<event>
 5      1 +6.7420000e-10 2.31570900e+02 7.95774700e-02 4.55061600e-01
       13 -1    0    0    0    0 +0.0000000000e+00 +0.0000000000e+00 +4.9999998884e+02 5.0000000000e+02 1.0566000000e-01 0.0000e+00 -1.0000e+00
      994 -1    0    0    0    0 -0.0000000000e+00 -0.0000000000e+00 +0.0000000000e+00 1.3100000000e+02 1.3100000000e+02 0.0000e+00 0.0000e+00
       13  1    1    2    0    0 -1.8374713012e+01 +5.0957825556e+00 +3.3169563698e+01 3.8260007816e+01 1.0566000000e-01 0.0000e+00 1.0000e+00
      994  1    1    2    0    0 +3.5819546571e+01 +1.4386900361e+01 +8.4864326767e+01 1.6078860898e+02 1.3100000000e+02 0.0000e+00 0.0000e+00
      997  1    1    2    0    0 -1.7444833559e+01 -1.9482682916e+01 +3.8196609837e+02 4.3195138321e+02 2.0000000000e+02 0.0000e+00 0.0000e+00
</event>
<event>
 5      1 +6.7420000e-10 2.30071800e+02 7.95774700e-02 4.57011400e-01
       13 -1    0    0    0    0 +0.0000000000e+00 +0.0000000000e+00 +4.9999998884e+02 5.0000000000e+02 1.0566000000e-01 0.0000e+00 -1.0000e+00
      994 -1    0    0    0    0 -0.0000000000e+00 -0.0000000000e+00 +0.0000000000e+00 1.3100000000e+02 1.3100000000e+02 0.0000e+00 0.0000e+00
       13  1    1    2    0    0 -1.1139305652e+01 +1.8561942236e+00 +1.2668813078e+01 1.6971728735e+01 1.0566000000e-01 0.0000e+00 1.0000e+00
      994  1    1    2    0    0 -2.4627499917e+01 +4.8406111686e+01 +9.9208442721e+01 1.7306929395e+02 1.3100000000e+02 0.0000e+00 0.0000e+00
      997  1    1    2    0    0 +3.5766805569e+01 -5.0262305910e+01 +3.8812273304e+02 4.4095897732e+02 2.0000000000e+02 0.0000e+00 0.0000e+00
</event>
<event>
 5      1 +6.7420000e-10 2.30339100e+02 7.95774700e-02 4.56661500e-01
       13 -1    0    0    0    0 +0.0000000000e+00 +0.0000000000e+00 +4.9999998884e+02 5.0000000000e+02 1.0566000000e-01 0.0000e+00 1.0000e+00
      994 -1    0    0    0    0 -0.0000000000e+00 -0.0000000000e+00 +0.0000000000e+00 1.3100000000e+02 1.3100000000e+02 0.0000e+00 0.0000e+00
       13  1    1    2    0    0 -1.0655049939e+01 -1.1643356155e+01 +4.1581318924e+01 4.4476005657e+01 1.0566000000e-01 0.0000e+00 -1.0000e+00
      994  1    1    2    0    0 +2.2797995648e+01 +1.1908128365e+01 +7.3055991385e+01 1.5218321196e+02 1.3100000000e+02 0.0000e+00 0.0000e+00
      997  1    1    2    0    0 -1.2142945709e+01 -2.6477221014e-01 +3.8536267853e+02 4.3434078238e+02 2.0000000000e+02 0.0000e+00 0.0000e+00
</event>
<event>
 5      1 +6.7420000e-10 2.48682100e+02 7.95774700e-02 4.34779200e-01
       13 -1    0    0    0    0 +0.0000000000e+00 +0.0000000000e+00 +4.9999998884e+02 5.0000000000e+02 1.0566000000e-01 0.0000e+00 1.0000e+00
      994 -1    0    0    0    0 -0.0000000000e+00 -0.0000000000e+00 +0.0000000000e+00 1.3100000000e+02 1.3100000000e+02 0.0000e+00 0.0000e+00
       13  1    1    2    0    0 -4.1303890476e+01 -1.4272601747e+01 +3.2485998064e+01 5.4452454153e+01 1.0566000000e-01 0.0000e+00 -1.0000e+00
      994  1    1    2    0    0 +3.2106056208e+01 +1.8241409433e+01 +1.6721810981e+02 2.1560715227e+02 1.3100000000e+02 0.0000e+00 0.0000e+00
      997  1    1    2    0    0 +9.1978342678e+00 -3.9688076866e+00 +3.0029588096e+02 3.6094039357e+02 2.0000000000e+02 0.0000e+00 0.0000e+00
</event>
<event>
 5      1 +6.7420000e-10 2.30902200e+02 7.95774700e-02 4.55927600e-01
       13 -1    0    0    0    0 +0.0000000000e+00 +0.0000000000e+00 +4.9999998884e+02 5.0000000000e+02 1.0566000000e-01 0.0000e+00 -1.0000e+00
      994 -1    0    0    0    0 -0.0000000000e+00 -0.0000000000e+00 +0.0000000000e+00 1.3100000000e+02 1.3100000000e+02 0.0000e+00 0.0000e+00
       13  1    1    2    0    0 +1.1700698365e+01 -7.5862880968e+00 +1.4051590578e+01 1.9796880338e+01 1.0566000000e-01 0.0000e+00 1.0000e+00
      994  1    1    2    0    0 -3.2418554575e+01 -4.1283261100e+01 +9.8951553189e+01 1.7235916049e+02 1.3100000000e+02 0.0000e+00 0.0000e+00
      997  1    1    2    0    0 +2.0717856210e+01 +4.8869549196e+01 +3.8699684507e+02 4.3884395917e+02 2.0000000000e+02 0.0000e+00 0.0000e+00
</event>
<event>
 5      1 +6.7420000e-10 2.38770800e+02 7.95774700e-02 4.46106000e-01
       13 -1    0    0    0    0 +0.0000000000e+00 +0.0000000000e+00 +4.9999998884e+02 5.0000000000e+02 1.0566000000e-01 0.0000e+00 1.0000e+00
      994 -1    0    0    0    0 -0.0000000000e+00 -0.0000000000e+00 +0.0000000000e+00 1.3100000000e+02 1.3100000000e+02 0.0000e+00 0.0000e+00
       13  1    1    2    0    0 +1.3576780190e+01 +1.9562382233e+01 +7.5592679545e+00 2.4983383578e+01 1.0566000000e-01 0.0000e+00 -1.0000e+00
      994  1    1    2    0    0 -5.9645113660e+01 -2.2664133098e+01 +1.7140432682e+02 2.2497032196e+02 1.3100000000e+02 0.0000e+00 0.0000e+00
      997  1    1    2    0    0 +4.6068333470e+01 +3.1017508653e+00 +3.2103639407e+02 3.8104629446e+02 2.0000000000e+02 0.0000e+00 0.0000e+00
</event>
<event>
 5      1 +6.7420000e-10 2.49149100e+02 7.95774700e-02 4.34271600e-01
       13 -1    0    0    0    0 +0.0000000000e+00 +0.0000000000e+00 +4.9999998884e+02 5.0000000000e+02 1.0566000000e-01 0.0000e+00 -1.0000e+00
      994 -1    0    0    0    0 -0.0000000000e+00 -0.0000000000e+00 +0.0000000000e+00 1.3100000000e+02 1.3100000000e+02 0.0000e+00 0.0000e+00
       13  1    1    2    0    0 +3.5065425510e+01 +5.3781142080e+00 +2.4564496963e+01 4.3150131560e+01 1.0566000000e-01 0.0000e+00 1.0000e+00
      994  1    1    2    0    0 +4.7769642881e+00 +2.1203625449e+01 +1.3000825426e+02 1.8583745397e+02 1.3100000000e+02 0.0000e+00 0.0000e+00
      997  1    1    2    0    0 -3.9842389798e+01 -2.6581739657e+01 +3.4542723761e+02 4.0201241447e+02 2.0000000000e+02 0.0000e+00 0.0000e+00
</event>
<event>
 5      1 +6.7420000e-10 2.42045100e+02 7.95774700e-02 4.42242700e-01
       13 -1    0    0    0    0 +0.0000000000e+00 +0.0000000000e+00 +4.9999998884e+02 5.0000000000e+02 1.0566000000e-01 0.0000e+00 1.0000e+00
      994 -1    0    0    0    0 -0.0000000000e+00 -0.0000000000e+00 +0.0000000000e+00 1.3100000000e+02 1.3100000000e+02 0.0000e+00 0.0000e+00
       13  1    1    2    0    0 +3.6880600722e+01 -6.4184131825e+00 +4.9484558350e+01 6.2049233811e+01 1.0566000000e-01 0.0000e+00 -1.0000e+00
      994  1    1    2    0    0 -3.0166741597e+01 +4.1992824055e+01 +1.4617912112e+02 2.0298464233e+02 1.3100000000e+02 0.0000e+00 0.0000e+00
      997  1    1    2    0    0 -6.7138591242e+00 -3.5574410873e+01 +3.0433630937e+02 3.6596612386e+02 2.0000000000e+02 0.0000e+00 0.0000e+00
</event>
<event>
 5      1 +6.7420000e-10 2.34050700e+02 7.95774700e-02 4.51902400e-01
       13 -1    0    0    0    0 +0.0000000000e+00 +0.0000000000e+00 +4.9999998884e+02 5.0000000000e+02 1.0566000000e-01 0.0000e+00 -1.0000e+00
      994 -1    0    0    0    0 -0.0000000000e+00 -0.0000000000e+00 +0.0000000000e+00 1.3100000000e+02 1.3100000000e+02 0.0000e+00 0.0000e+00
       13  1    1    2    0    0 -6.4185702177e+00 -1.4866795174e+01 +5.0108786812e+00 1.6951097651e+01 1.0566000000e-01 0.0000e+00 1.0000e+00
      994  1    1    2    0    0 +2.7818607797e+01 +5.4381062819e+01 +1.2511264948e+02 1.9116838126e+02 1.3100000000e+02 0.0000e+00 0.0000e+00
      997  1    1    2    0    0 -2.1400037579e+01 -3.9514267645e+01 +3.6987646068e+02 4.2288052109e+02 2.0000000000e+02 0.0000e+00 0.0000e+00
</event>
<event>
 5      1 +6.7420000e-10 2.40247400e+02 7.95774700e-02 4.44348300e-01
       13 -1    0    0    0    0 +0.0000000000e+00 +0.0000000000e+00 +4.9999998884e+02 5.0000000000e+02 1.0566000000e-01 0.0000e+00 -1.0000e+00
      994 -1    0    0    0    0 -0.0000000000e+00 -0.0000000000e+00 +0.0000000000e+00 1.3100000000e+02 1.3100000000e+02 0.0000e+00 0.0000e+00
       13  1    1    2    0    0 +1.6075220466e+01 -1.5000172405e+01 +1.2881259982e+01 2.5482462753e+01 1.0566000000e-01 0.0000e+00 1.0000e+00
      994  1    1    2    0    0 -1.2044420507e+01 -4.4246263953e+01 +1.2102249557e+02 1.8414734419e+02 1.3100000000e+02 0.0000e+00 0.0000e+00
      997  1    1    2    0    0 -4.0307999592e+00 +5.9246436358e+01 +3.6609623329e+02 4.2137019306e+02 2.0000000000e+02 0.0000e+00 0.0000e+00
</event>
<event>
 5      1 +6.7420000e-10 2.38850600e+02 7.95774700e-02 4.46010400e-01
       13 -1    0    0    0    0 +0.0000000000e+00 +0.0000000000e+00 +4.9999998884e+02 5.0000000000e+02 1.0566000000e-01 0.0000e+00 1.0000e+00
      994 -1    0    0    0    0 -0.0000000000e+00 -0.0000000000e+00 +0.0000000000e+00 1.3100000000e+02 1.3100000000e+02 0.0000e+00 0.0000e+00
       13  1    1    2    0    0 -3.8314072644e-01 -1.6427956991e+01 +4.5497251502e+00 1.7050974479e+01 1.0566000000e-01 0.0000e+00 -1.0000e+00
      994  1    1    2    0    0 +2.6433641167e+01 -2.3767427155e+01 +1.0129429159e+02 1.6936694331e+02 1.3100000000e+02 0.0000e+00 0.0000e+00
      997  1    1    2    0    0 -2.6050500440e+01 +4.0195384146e+01 +3.9415597210e+02 4.4458208221e+02 2.0000000000e+02 0.0000e+00 0.0000e+00
</event>
<event>
 5      1 +6.7420000e-10 2.29001900e+02 7.95774700e-02 4.58421800e-01
       13 -1    0    0    0    0 +0.0000000000e+00 +0.0000000000e+00 +4.9999998884e+02 5.0000000000e+02 1.0566000000e-01 0.0000e+00 -1.0000e+00
      994 -1    0    0    0    0 -0.0000000000e+00 -0.0000000000e+00 +0.0000000000e+00 1.3100000000e+02 1.3100000000e+02 0.0000e+00 0.0000e+00
       13  1    1    2    0    0 +1.0364890951e+01 -9.8561113783e+00 +2.1588227719e+01 2.5896652988e+01 1.0566000000e-01 0.0000e+00 1.0000e+00
      994  1    1    2    0    0 -3.0106883808e+01 +2.1091764883e+01 +7.7714400228e+01 1.5669018795e+02 1.3100000000e+02 0.0000e+00 0.0000e+00
      997  1    1    2    0    0 +1.9741992856e+01 -1.1235653505e+01 +4.0069736089e+02 4.4841315906e+02 2.0000000000e+02 0.0000e+00 0.0000e+00
</event>
<event>
 5      1 +6.7420000e-10 2.39865100e+02 7.95774700e-02 4.44801000e-01
       13 -1    0    0    0    0 +0.0000000000e+00 +0.0000000000e+00 +4.9999998884e+02 5.0000000000e+02 1.0566000000e-01 0.0000e+00 1.0000e+00
      994 -1    0    0    0    0 -0.0000000000e+00 -0.0000000000e+00 +0.0000000000e+00 1.3100000000e+02 1.3100000000e+02 0.0000e+00 0.0000e+00
       13  1    1    2    0    0 -2.2640291384e+01 +1.3639132977e+01 +5.7209314398e+01 6.3020040941e+01 1.0566000000e-01 0.0000e+00 -1.0000e+00
      994  1    1    2    0    0 -2.9539508116e+01 -1.1476741318e+01 +1.0052524754e+02 1.6813870323e+02 1.3100000000e+02 0.0000e+00 0.0000e+00
      997  1    1    2    0    0 +5.2179799499e+01 -2.1623916594e+00 +3.4226542690e+02 3.9984125583e+02 2.0000000000e+02 0.0000e+00 0.0000e+00
</event>
<event>
 5      1 +6.7420000e-10 2.44685300e+02 7.95774700e-02 4.39216700e-01
       13 -1    0    0    0    0 +0.0000000000e+00 +0.0000000000e+00 +4.9999998884e+02 5.0000000000e+02 1.0566000000e-01 0.0000e+00 -1.0000e+00
      994 -1    0    0    0    0 -0.0000000000e+00 -0.0000000000e+00 +0.0000000000e+00 1.3100000000e+02 1.3100000000e+02 0.0000e+00 0.0000e+00
       13  1    1    2    0    0 +3.0829485436e+01 -6.1966946881e+00 +2.1992702242e+01 3.8373771163e+01 1.0566000000e-01 0.0000e+00 1.0000e+00
      994  1    1    2    0    0 -1.3118835031e+01 -3.4573225178e+00 +1.0320106037e+02 1.6731860558e+02 1.3100000000e+02 0.0000e+00 0.0000e+00
      997  1    1    2    0    0 -1.7710650404e+01 +9.6540172060e+00 +3.7480622622e+02 4.2530762326e+02 2.0000000000e+02 0.0000e+00 0.0000e+00
</event>
<event>
 5      1 +6.7420000e-10 2.44510500e+02 7.95774700e-02 4.39414700e-01
       13 -1    0    0    0    0 +0.0000000000e+00 +0.0000000000e+00 +4.9999998884e+02 5.0000000000e+02 1.0566000000e-01 0.0000e+00 -1.0000e+00
      994 -1    0    0    0    0 -0.0000000000e+00 -0.0000000000e+00 +0.0000000000e+00 1.3100000000e+02 1.3100000000e+02 0.0000e+00 0.0000e+00
       13  1    1    2    0    0 +3.4192337214e+01 -1.5982142852e+01 +9.0583818067e+01 9.8132482257e+01 1.0566000000e-01 0.0000e+00 1.0000e+00
      994  1    1    2    0    0 -4.6214456961e+01 -3.4914960523e+00 +1.4939479433e+02 2.0402884882e+02 1.3100000000e+02 0.0000e+00 0.0000e+00
      997  1    1    2    0    0 +1.2022119746e+01 +1.9473638904e+01 +2.6002137644e+02 3.2883866893e+02 2.0000000000e+02 0.0000e+00 0.0000e+00
</event>
<event>
 5      1 +6.7420000e-10 2.36890700e+02 7.95774700e-02 4.48381800e-01
       13 -1    0    0    0    0 +0.0000000000e+00 +0.0000000000e+00 +4.9999998884e+02 5.0000000000e+02 1.0566000000e-01 0.0000e+00 -1.0000e+00
      994 -1    0    0    0    0 -0.0000000000e+00 -0.0000000000e+00 +0.0000000000e+00 1.3100000000e+02 1.3100000000e+02 0.0000e+00 0.0000e+00
       13  1    1    2    0    0 -1.7685294496e+01 -1.7587526362e+01 +2.1800570593e+01 3.3126526639e+01 1.0566000000e-01 0.0000e+00 1.0000e+00
      994  1    1    2    0    0 +1.8465152304e+01 +3.2354642421e+01 +9.7217545044e+01 1.6733211228e+02 1.3100000000e+02 0.0000e+00 0.0000e+00
      997  1    1    2    0    0 -7.7985780808e-01 -1.4767116059e+01 +3.8098187320e+02 4.3054136108e+02 2.0000000000e+02 0.0000e+00 0.0000e+00
</event>
<event>
 5      1 +6.7420000e-10 2.30497000e+02 7.95774700e-02 4.56455200e-01
       13 -1    0    0    0    0 +0.0000000000e+00 +0.0000000000e+00 +4.9999998884e+02 5.0000000000e+02 1.0566000000e-01 0.0000e+00 -1.0000e+00
      994 -1    0    0    0    0 -0.0000000000e+00 -0.0000000000e+00 +0.0000000000e+00 1.3100000000e+02 1.3100000000e+02 0.0000e+00 0.0000e+00
       13  1    1    2    0    0 +1.2774471707e+01 -5.2674485585e+00 +4.2330650022e+01 4.4528959532e+01 1.0566000000e-01 0.0000e+00 1.0000e+00
      994  1    1    2    0    0 -2.3958984567e-01 -3.3317512673e+00 +6.6672114885e+01 1.4702832677e+02 1.3100000000e+02 0.0000e+00 0.0000e+00
      997  1    1    2    0    0 -1.2534881861e+01 +8.5991998258e+00 +3.9099722393e+02 4.3944271370e+02 2.0000000000e+02 0.0000e+00 0.0000e+00
</event>
<event>
 5      1 +6.7420000e-10 2.41322500e+02 7.95774700e-02 4.43084600e-01
       13 -1    0    0    0    0 +0.0000000000e+00 +0.0000000000e+00 +4.9999998884e+02 5.0000000000e+02 1.0566000000e-01 0.0000e+00 -1.0000e+00
      994 -1    0    0    0    0 -0.0000000000e+00 -0.0000000000e+00 +0.0000000000e+00 1.3100000000e+02 1.3100000000e+02 0.0000e+00 0.0000e+00
       13  1    1    2    0    0 -2.1372733148e+01 -3.7758357209e+00 +1.0437295270e+02 1.0660569908e+02 1.0566000000e-01 0.0000e+00 1.0000e+00
      994  1    1    2    0    0 +2.3812087137e+01 +3.0626112585e+01 +1.1407373928e+02 1.7798537091e+02 1.3100000000e+02 0.0000e+00 0.0000e+00
      997  1    1    2    0    0 -2.4393539890e+00 -2.6850276864e+01 +2.8155329686e+02 3.4640893001e+02 2.0000000000e+02 0.0000e+00 0.0000e+00
</event>
<event>
 5      1 +6.7420000e-10 2.30877700e+02 7.95774700e-02 4.55959500e-01
       13 -1    0    0    0    0 +0.0000000000e+00 +0.0000000000e+00 +4.9999998884e+02 5.0000000000e+02 1.0566000000e-01 0.0000e+00 -1.0000e+00
      994 -1    0    0    0    0 -0.0000000000e+00 -0.0000000000e+00 +0.0000000000e+00 1.3100000000e+02 1.3100000000e+02 0.0000e+00 0.0000e+00
       13  1    1    2    0    0 -4.0664888642e+00 +1.1302785497e+01 +5.9745016350e+00 1.3416226202e+01 1.0566000000e-01 0.0000e+00 1.0000e+00
      994  1    1    2    0    0 +1.1527812975e+01 -3.6703317280e+01 +8.3172253920e+01 1.5987072213e+02 1.3100000000e+02 0.0000e+00 0.0000e+00
      997  1    1    2    0    0 -7.4613241104e+00 +2.5400531782e+01 +4.1085323328e+02 4.5771305167e+02 2.0000000000e+02 0.0000e+00 0.0000e+00
</event>
<event>
 5      1 +6.7420000e-10 2.48467800e+02 7.95774700e-02 4.35012900e-01
       13 -1    0    0    0    0 +0.0000000000e+00 +0.0000000000e+00 +4.9999998884e+02 5.0000000000e+02 1.0566000000e-01 0.0000e+00 1.0000e+00
      994 -1    0    0    0    0 -0.0000000000e+00 -0.0000000000e+00 +0.0000000000e+00 1.3100000000e+02 1.3100000000e+02 0.0000e+00 0.0000e+00
       13  1    1    2    0    0 -2.3467894856e+01 +3.1177568625e+01 +2.6010439682e+01 4.6897089577e+01 1.0566000000e-01 0.0000e+00 -1.0000e+00
      994  1    1    2    0    0 +1.2582961451e+01 -2.4324181319e+01 +1.3364561887e+02 1.8913526419e+02 1.3100000000e+02 0.0000e+00 0.0000e+00
      997  1    1    2    0    0 +1.0884933405e+01 -6.8533873057e+00 +3.4034393028e+02 3.9496764623e+02 2.0000000000e+02 0.0000e+00 0.0000e+00
</event>
<event>
 5      1 +6.7420000e-10 2.41992300e+02 7.95774700e-02 4.42304100e-01
       13 -1    0    0    0    0 +0.0000000000e+00 +0.0000000000e+00 +4.9999998884e+02 5.0000000000e+02 1.0566000000e-01 0.0000e+00 1.0000e+00
      994 -1    0    0    0    0 -0.0000000000e+00 -0.0000000000e+00 +0.0000000000e+00 1.3100000000e+02 1.3100000000e+02 0.0000e+00 0.0000e+00
       13  1    1    2    0    0 +1.4503474913e+01 +2.0782169498e+00 -1.9958032047e+00 1.4787297410e+01 1.0566000000e-01 0.0000e+00 -1.0000e+00
      994  1    1    2    0    0 +4.1061295910e+00 +3.4364976798e+01 +1.1109691611e+02 1.7521796911e+02 1.3100000000e+02 0.0000e+00 0.0000e+00
      997  1    1    2    0    0 -1.8609604504e+01 -3.6443193748e+01 +3.9089887593e+02 4.4099473348e+02 2.0000000000e+02 0.0000e+00 0.0000e+00
</event>
<event>
 5      1 +6.7420000e-10 2.28232100e+02 7.95774700e-02 4.59446600e-01
       13 -1    0    0    0    0 +0.0000000000e+00 +0.0000000000e+00 +4.9999998884e+02 5.0000000000e+02 1.0566000000e-01 0.0000e+00 -1.0000e+00
      994 -1    0    0    0    0 -0.0000000000e+00 -0.0000000000e+00 +0.0000000000e+00 1.3100000000e+02 1.3100000000e+02 0.0000e+00 0.0000e+00
       13  1    1    2    0    0 +7.6039511974e+00 -1.1354325968e+01 +2.1650389351e+01 2.5602564619e+01 1.0566000000e-01 0.0000e+00 1.0000e+00
      994  1    1    2    0    0 -4.7415129282e+01 +2.6471026270e+01 +9.4294943141e+01 1.7029810926e+02 1.3100000000e+02 0.0000e+00 0.0000e+00
      997  1    1    2    0    0 +3.9811178085e+01 -1.5116700303e+01 +3.8405465634e+02 4.3509932612e+02 2.0000000000e+02 0.0000e+00 0.0000e+00
</event>
<event>
 5      1 +6.7420000e-10 2.48710200e+02 7.95774700e-02 4.34748600e-01
       13 -1    0    0    0    0 +0.0000000000e+00 +0.0000000000e+00 +4.9999998884e+02 5.0000000000e+02 1.0566000000e-01 0.0000e+00 1.0000e+00
      994 -1    0    0    0    0 -0.0000000000e+00 -0.0000000000e+00 +0.0000000000e+00 1.3100000000e+02 1.3100000000e+02 0.0000e+00 0.0000e+00
       13  1    1    2    0    0 -3.4481156937e+01 +9.6068813217e+00 +4.6575821348e+01 5.8741473005e+01 1.0566000000e-01 0.0000e+00 -1.0000e+00
      994  1    1    2    0    0 -3.6443989708e+01 +7.6746873897e+00 +1.7357043608e+02 2.2062357420e+02 1.3100000000e+02 0.0000e+00 0.0000e+00
      997  1    1    2    0    0 +7.0925146645e+01 -1.7281568711e+01 +2.7985373141e+02 3.5163495280e+02 2.0000000000e+02 0.0000e+00 0.0000e+00
</event>
<event>
 5      1 +6.7420000e-10 2.36807200e+02 7.95774700e-02 4.48483800e-01
       13 -1    0    0    0    0 +0.0000000000e+00 +0.0000000000e+00 +4.9999998884e+02 5.0000000000e+02 1.0566000000e-01 0.0000e+00 1.0000e+00
      994 -1    0    0    0    0 -0.0000000000e+00 -0.0000000000e+00 +0.0000000000e+00 1.3100000000e+02 1.3100000000e+02 0.0000e+00 0.0000e+00
       13  1    1    2    0    0 +2.6453922801e+01 -2.7655693872e+00 +3.8813165838e+01 4.7052432583e+01 1.0566000000e-01 0.0000e+00 -1.0000e+00
      994  1    1    2    0    0 -2.2434921843e+01 -2.5062781488e+01 +9.3433381280e+01 1.6438450496e+02 1.3100000000e+02 0.0000e+00 0.0000e+00
      997  1    1    2    0    0 -4.0190009585e+00 +2.7828350876e+01 +3.6775344172e+02 4.1956306246e+02 2.0000000000e+02 0.0000e+00 0.0000e+00
</event>
<event>
 5      1 +6.7420000e-10 2.27713000e+02 7.95774700e-02 4.60142300e-01
       13 -1    0    0    0    0 +0.0000000000e+00 +0.0000000000e+00 +4.9999998884e+02 5.0000000000e+02 1.0566000000e-01 0.0000e+00 1.0000e+00
      994 -1    0    0    0    0 -0.0000000000e+00 -0.0000000000e+00 +0.0000000000e+00 1.3100000000e+02 1.3100000000e+02 0.0000e+00 0.0000e+00
       13  1    1    2    0    0 -3.0215729929e+00 -1.2311849865e+01 +2.2887171408e+01 2.6163817182e+01 1.0566000000e-01 0.0000e+00 -1.0000e+00
      994  1    1    2    0    0 +2.0794974549e+01 +4.2760073439e+01 +8.4960126631e+01 1.6321788494e+02 1.3100000000e+02 0.0000e+00 0.0000e+00
      997  1    1    2    0    0 -1.7773401556e+01 -3.0448223575e+01 +3.9215269080e+02 4.4161829788e+02 2.0000000000e+02 0.0000e+00 0.0000e+00
</event>
<event>
 5      1 +6.7420000e-10 2.32471900e+02 7.95774700e-02 4.53904400e-01
       13 -1    0    0    0    0 +0.0000000000e+00 +0.0000000000e+00 +4.9999998884e+02 5.0000000000e+02 1.0566000000e-01 0.0000e+00 -1.0000e+00
      994 -1    0    0    0    0 -0.0000000000e+00 -0.0000000000e+00 +0.0000000000e+00 1.3100000000e+02 1.3100000000e+02 0.0000e+00 0.0000e+00
       13  1    1    2    0    0 -1.4161086811e+01 +4.2605531027e+00 +8.2787387570e+00 1.6948078707e+01 1.0566000000e-01 0.0000e+00 1.0000e+00
      994  1    1    2    0    0 +3.7493103281e+01 -4.9745222199e+00 +8.6260985378e+01 1.6134570420e+02 1.3100000000e+02 0.0000e+00 0.0000e+00
      997  1    1    2    0    0 -2.3332016470e+01 +7.1396911715e-01 +4.0546026470e+02 4.5270621709e+02 2.0000000000e+02 0.0000e+00 0.0000e+00
</event>
<event>
 5      1 +6.7420000e-10 2.38097600e+02 7.95774700e-02 4.46916000e-01
       13 -1    0    0    0    0 +0.0000000000e+00 +0.0000000000e+00 +4.9999998884e+02 5.0000000000e+02 1.0566000000e-01 0.0000e+00 1.0000e+00
      994 -1    0    0    0    0 -0.0000000000e+00 -0.0000000000e+00 +0.0000000000e+00 1.3100000000e+02 1.3100000000e+02 0.0000e+00 0.0000e+00
       13  1    1    2    0    0 +6.4185397403e-01 +1.2779675424e+01 +3.9880103379e-01 1.2802432846e+01 1.0566000000e-01 0.0000e+00 -1.0000e+00
      994  1    1    2    0    0 +1.5310649584e+01 +5.3036097254e+01 +1.3053536517e+02 1.9299669728e+02 1.3100000000e+02 0.0000e+00 0.0000e+00
      997  1    1    2    0    0 -1.5952503558e+01 -6.5815772678e+01 +3.6906582263e+02 4.2520086987e+02 2.0000000000e+02 0.0000e+00 0.0000e+00
</event>
<event>
 5      1 +6.7420000e-10 2.48176400e+02 7.95774700e-02 4.35331400e-01
       13 -1    0    0    0    0 +0.0000000000e+00 +0.0000000000e+00 +4.9999998884e+02 5.0000000000e+02 1.0566000000e-01 0.0000e+00 -1.0000e+00
      994 -1    0    0    0    0 -0.0000000000e+00 -0.0000000000e+00 +0.0000000000e+00 1.3100000000e+02 1.3100000000e+02 0.0000e+00 0.0000e+00
       13  1    1    2    0    0 -1.3420234492e+01 +8.6501937781e+00 -6.0642131995e+00 1.7079648474e+01 1.0566000000e-01 0.0000e+00 1.0000e+00
      994  1    1    2    0    0 +1.0195896556e+00 +2.7396238900e+01 +1.3168245904e+02 1.8775745920e+02 1.3100000000e+02 0.0000e+00 0.0000e+00
      997  1    1    2    0    0 +1.2400644836e+01 -3.6046432679e+01 +3.7438174300e+02 4.2616289232e+02 2.0000000000e+02 0.0000e+00 0.0000e+00
</event>
<event>
 5      1 +6.7420000e-10 2.33670400e+02 7.95774700e-02 4.52381700e-01
       13 -1    0    0    0    0 +0.0000000000e+00 +0.0000000000e+00 +4.9999998884e+02 5.0000000000e+02 1.0566000000e-01 0.0000e+00 1.0000e+00
      994 -1    0    0    0    0 -0.0000000000e+00 -0.0000000000e+00 +0.0000000000e+00 1.3100000000e+02 1.3100000000e+02 0.0000e+00 0.0000e+00
       13  1    1    2    0    0 -1.7794505194e+01 +1.3213205931e+01 +3.5030240399e+01 4.1453131758e+01 1.0566000000e-01 0.0000e+00 -1.0000e+00
      994  1    1    2    0    0 +1.6996212513e+01 -1.8534754618e+01 +7.9601679303e+01 1.5533781161e+02 1.3100000000e+02 0.0000e+00 0.0000e+00
      997  1    1    2    0    0 +7.9829268145e-01 +5.3215486868e+00 +3.8536806913e+02 4.3420905663e+02 2.0000000000e+02 0.0000e+00 0.0000e+00
</event>
<event>
 5      1 +6.7420000e-10 2.27012500e+02 7.95774700e-02 4.61087400e-01
       13 -1    0    0    0    0 +0.0000000000e+00 +0.0000000000e+00 +4.9999998884e+02 5.0000000000e+02 1.0566000000e-01 0.0000e+00 -1.0000e+00
      994 -1    0    0    0    0 -0.0000000000e+00 -0.0000000000e+00 +0.0000000000e+00 1.3100000000e+02 1.3100000000e+02 0.0000e+00 0.0000e+00
       13  1    1    2    0    0 +7.2787861628e+00 +8.0583209797e+00 +1.4196253297e+01 1.7873500964e+01 1.0566000000e-01 0.0000e+00 1.0000e+00
      994  1    1    2    0    0 -2.6411528985e+01 -4.8185342046e+01 +9.2092573575e+01 1.6929689353e+02 1.3100000000e+02 0.0000e+00 0.0000e+00
      997  1    1    2    0    0 +1.9132742823e+01 +4.0127021067e+01 +3.9371116196e+02 4.4382960551e+02 2.0000000000e+02 0.0000e+00 0.0000e+00
</event>
<event>
 5      1 +6.7420000e-10 2.42208400e+02 7.95774700e-02 4.42053400e-01
       13 -1    0    0    0    0 +0.0000000000e+00 +0.0000000000e+00 +4.9999998884e+02 5.0000000000e+02 1.0566000000e-01 0.0000e+00 1.0000e+00
      994 -1    0    0    0    0 -0.0000000000e+00 -0.0000000000e+00 +0.0000000000e+00 1.3100000000e+02 1.3100000000e+02 0.0000e+00 0.0000e+00
       13  1    1    2    0    0 +9.6637136903e+00 +2.2856070775e+01 +1.9780038428e+01 3.1734026183e+01 1.0566000000e-01 0.0000e+00 -1.0000e+00
      994  1    1    2    0    0 +1.3103881677e+00 +4.5918654492e+01 +1.3114231151e+02 1.9097001287e+02 1.3100000000e+02 0.0000e+00 0.0000e+00
      997  1    1    2    0    0 -1.0974101858e+01 -6.8774725267e+01 +3.4907763889e+02 4.0829596094e+02 2.0000000000e+02 0.0000e+00 0.0000e+00
</event>
<event>
 5      1 +6.7420000e-10 2.40789800e+02 7.95774700e-02 4.43709200e-01
       13 -1    0    0    0    0 +0.0000000000e+00 +0.0000000000e+00 +4.9999998884e+02 5.0000000000e+02 1.0566000000e-01 0.0000e+00 -1.0000e+00
      994 -1    0    0    0    0 -0.0000000000e+00 -0.0000000000e+00 +0.0000000000e+00 1.3100000000e+02 1.3100000000e+02 0.0000e+00 0.0000e+00
       13  1    1    2    0    0 -2.6466400349e+01 +7.2812852890e+00 +7.2599672991e+01 7.7615791855e+01 1.0566000000e-01 0.0000e+00 1.0000e+00
      994  1    1    2    0    0 -1.4462070106e+01 -1.2699564170e+01 +9.3889795592e+01 1.6231674010e+02 1.3100000000e+02 0.0000e+00 0.0000e+00
      997  1    1    2    0    0 +4.0928470455e+01 +5.4182788807e+00 +3.3351052025e+02 3.9106746804e+02 2.0000000000e+02 0.0000e+00 0.0000e+00
</event>
<event>
 5      1 +6.7420000e-10 2.35762500e+02 7.95774700e-02 4.49768200e-01
       13 -1    0    0    0    0 +0.0000000000e+00 +0.0000000000e+00 +4.9999998884e+02 5.0000000000e+02 1.0566000000e-01 0.0000e+00 1.0000e+00
      994 -1    0    0    0    0 -0.0000000000e+00 -0.0000000000e+00 +0.0000000000e+00 1.3100000000e+02 1.3100000000e+02 0.0000e+00 0.0000e+00
       13  1    1    2    0    0 +1.7125040133e+01 -1.5859329888e+01 +9.1270986792e+00 2.5061932056e+01 1.0566000000e-01 0.0000e+00 -1.0000e+00
      994  1    1    2    0    0 -6.8514043427e+01 +1.3651159986e+01 +2.1724856107e+02 2.6313203074e+02 1.3100000000e+02 0.0000e+00 0.0000e+00
      997  1    1    2    0    0 +5.1389003294e+01 +2.2081699019e+00 +2.7362432909e+02 3.4280603720e+02 2.0000000000e+02 0.0000e+00 0.0000e+00
</event>
<event>
 5      1 +6.7420000e-10 2.44905200e+02 7.95774700e-02 4.38968100e-01
       13 -1    0    0    0    0 +0.0000000000e+00 +0.0000000000e+00 +4.9999998884e+02 5.0000000000e+02 1.0566000000e-01 0.0000e+00 -1.0000e+00
      994 -1    0    0    0    0 -0.0000000000e+00 -0.0000000000e+00 +0.0000000000e+00 1.3100000000e+02 1.3100000000e+02 0.0000e+00 0.0000e+00
       13  1    1    2    0    0 +2.9447888020e+01 -4.3400459656e+00 +3.2098383956e+01 4.3775924027e+01 1.0566000000e-01 0.0000e+00 1.0000e+00
      994  1    1    2    0    0 +4.2669754304e+01 -1.3766609337e+01 +1.4779845420e+02 2.0252311110e+02 1.3100000000e+02 0.0000e+00 0.0000e+00
      997  1    1    2    0    0 -7.2117642324e+01 +1.8106655303e+01 +3.2010315068e+02 3.8470096487e+02 2.0000000000e+02 0.0000e+00 0.0000e+00
</event>
<event>
 5      1 +6.7420000e-10 2.52175000e+02 7.95774700e-02 4.31035600e-01
       13 -1    0    0    0    0 +0.0000000000e+00 +0.0000000000e+00 +4.9999998884e+02 5.0000000000e+02 1.0566000000e-01 0.0000e+00 -1.0000e+00
      994 -1    0    0    0    0 -0.0000000000e+00 -0.0000000000e+00 +0.0000000000e+00 1.3100000000e+02 1.3100000000e+02 0.0000e+00 0.0000e+00
       13  1    1    2    0    0 -3.3297764491e+01 +1.4751903491e+01 +1.6773654499e+01 4.0096464008e+01 1.0566000000e-01 0.0000e+00 1.0000e+00
      994  1    1    2    0    0 -1.5662309307e+01 +1.1850906820e+01 +1.8649802918e+02 2.2875372525e+02 1.3100000000e+02 0.0000e+00 0.0000e+00
      997  1    1    2    0    0 +4.8960073798e+01 -2.6602810311e+01 +2.9672830516e+02 3.6214981075e+02 2.0000000000e+02 0.0000e+00 0.0000e+00
</event>
<event>
 5      1 +6.7420000e-10 2.42127800e+02 7.95774700e-02 4.42146800e-01
       13 -1    0    0    0    0 +0.0000000000e+00 +0.0000000000e+00 +4.9999998884e+02 5.0000000000e+02 1.0566000000e-01 0.0000e+00 -1.0000e+00
      994 -1    0    0    0    0 -0.0000000000e+00 -0.0000000000e+00 +0.0000000000e+00 1.3100000000e+02 1.3100000000e+02 0.0000e+00 0.0000e+00
       13  1    1    2    0    0 +5.0751111962e+00 -2.3357043900e+01 +1.1608025886e+01 2.6571896478e+01 1.0566000000e-01 0.0000e+00 1.0000e+00
      994  1    1    2    0    0 -2.7937008079e+01 -8.0902905731e+00 +1.0547587272e+02 1.7068124955e+02 1.3100000000e+02 0.0000e+00 0.0000e+00
      997  1    1    2    0    0 +2.2861896882e+01 +3.1447334473e+01 +3.8291609023e+02 4.3374685397e+02 2.0000000000e+02 0.0000e+00 0.0000e+00
</event>
<event>
 5      1 +6.7420000e-10 2.32547900e+02 7.95774700e-02 4.53807300e-01
       13 -1    0    0    0    0 +0.0000000000e+00 +0.0000000000e+00 +4.9999998884e+02 5.0000000000e+02 1.0566000000e-01 0.0000e+00 -1.0000e+00
      994 -1    0    0    0    0 -0.0000000000e+00 -0.0000000000e+00 +0.0000000000e+00 1.3100000000e+02 1.3100000000e+02 0.0000e+00 0.0000e+00
       13  1    1    2    0    0 +1.1706313429e+01 +1.1132517906e+01 +1.4449275121e+01 2.1674026959e+01 1.0566000000e-01 0.0000e+00 1.0000e+00
      994  1    1    2    0    0 -3.2041199953e+01 +1.6216315405e+01 +8.4756006230e+01 1.6010680177e+02 1.3100000000e+02 0.0000e+00 0.0000e+00
      997  1    1    2    0    0 +2.0334886524e+01 -2.7348833311e+01 +4.0079470748e+02 4.4921917128e+02 2.0000000000e+02 0.0000e+00 0.0000e+00
</event>
<event>
 5      1 +6.7420000e-10 2.47981000e+02 7.95774700e-02 4.35545500e-01
       13 -1    0    0    0    0 +0.0000000000e+00 +0.0000000000e+00 +4.9999998884e+02 5.0000000000e+02 1.0566000000e-01 0.0000e+00 1.0000e+00
      994 -1    0    0    0    0 -0.0000000000e+00 -0.0000000000e+00 +0.0000000000e+00 1.3100000000e+02 1.3100000000e+02 0.0000e+00 0.0000e+00
       13  1    1    2    0    0 +4.9869289629e+00 -1.1029186517e+01 -9.0742654812e+00 1.5128313646e+01 1.0566000000e-01 0.0000e+00 -1.0000e+00
      994  1    1    2    0    0 +2.8436914608e+01 +1.2083814743e+01 +1.3654318632e+02 1.9172824107e+02 1.3100000000e+02 0.0000e+00 0.0000e+00
      997  1    1    2    0    0 -3.3423843571e+01 -1.0546282260e+00 +3.7253106799e+02 4.2414344529e+02 2.0000000000e+02 0.0000e+00 0.0000e+00
</event>
<event>
 5      1 +6.7420000e-10 2.40086200e+02 7.95774700e-02 4.44538900e-01
       13 -1    0    0    0    0 +0.0000000000e+00 +0.0000000000e+00 +4.9999998884e+02 5.0000000000e+02 1.0566000000e-01 0.0000e+00 1.0000e+00
      994 -1    0    0    0    0 -0.0000000000e+00 -0.0000000000e+00 +0.0000000000e+00 1.3100000000e+02 1.3100000000e+02 0.0000e+00 0.0000e+00
       13  1    1    2    0    0 +8.0978604200e+00 -2.9124814301e+01 +4.6354718625e+01 5.5340773886e+01 1.0566000000e-01 0.0000e+00 -1.0000e+00
      994  1    1    2    0    0 -5.8853006601e+01 -4.8016043003e+00 +1.5843457231e+02 2.1389073260e+02 1.3100000000e+02 0.0000e+00 0.0000e+00
      997  1    1    2    0    0 +5.0755146181e+01 +3.3926418601e+01 +2.9521069790e+02 3.6176849351e+02 2.0000000000e+02 0.0000e+00 0.0000e+00
</event>
<event>
 5      1 +6.7420000e-10 2.42649200e+02 7.95774700e-02 4.41543500e-01
       13 -1    0    0    0    0 +0.0000000000e+00 +0.0000000000e+00 +4.9999998884e+02 5.0000000000e+02 1.0566000000e-01 0.0000e+00 1.0000e+00
      994 -1    0    0    0    0 -0.0000000000e+00 -0.0000000000e+00 +0.0000000000e+00 1.3100000000e+02 1.3100000000e+02 0.0000e+00 0.0000e+00
       13  1    1    2    0    0 -2.9198190538e+00 +3.0805334156e+01 +2.8445799974e+01 4.2031757707e+01 1.0566000000e-01 0.0000e+00 -1.0000e+00
      994  1    1    2    0    0 -8.5196233780e+00 -9.9955577232e+00 +9.6422920949e+01 1.6318968975e+02 1.3100000000e+02 0.0000e+00 0.0000e+00
      997  1    1    2    0    0 +1.1439442432e+01 -2.0809776433e+01 +3.7513126791e+02 4.2577855254e+02 2.0000000000e+02 0.0000e+00 0.0000e+00
</event>
<event>
 5      1 +6.7420000e-10 2.40718300e+02 7.95774700e-02 4.43793200e-01
       13 -1    0    0    0    0 +0.0000000000e+00 +0.0000000000e+00 +4.9999998884e+02 5.0000000000e+02 1.0566000000e-01 0.0000e+00 -1.0000e+00
      994 -1    0    0    0    0 -0.0000000000e+00 -0.0000000000e+00 +0.0000000000e+00 1.3100000000e+02 1.3100000000e+02 0.0000e+00 0.0000e+00
       13  1    1    2    0    0 +2.5844414120e+01 +1.3552401721e+01 +8.3108622160e+01 8.8083230952e+01 1.0566000000e-01 0.0000e+00 1.0000e+00
      994  1    1    2    0    0 -8.9341176015e+00 -6.7909176221e+00 +9.0240877090e+01 1.5946896537e+02 1.3100000000e+02 0.0000e+00 0.0000e+00
      997  1    1    2    0    0 -1.6910296518e+01 -6.7614840994e+00 +3.2665048959e+02 3.8344780367e+02 2.0000000000e+02 0.0000e+00 0.0000e+00
</event>
<event>
 5      1 +6.7420000e-10 2.43578000e+02 7.95774700e-02 4.40476400e-01
       13 -1    0    0    0    0 +0.0000000000e+00 +0.0000000000e+00 +4.9999998884e+02 5.0000000000e+02 1.0566000000e-01 0.0000e+00 1.0000e+00
      994 -1    0    0    0    0 -0.0000000000e+00 -0.0000000000e+00 +0.0000000000e+00 1.3100000000e+02 1.3100000000e+02 0.0000e+00 0.0000e+00
       13  1    1    2    0    0 -2.5091324121e+00 -1.8651719983e+01 +6.5541161532e-01 1.8831439993e+01 1.0566000000e-01 0.0000e+00 -1.0000e+00
      994  1    1    2    0    0 +3.1861634851e+00 +1.3209857532e+01 +9.9510240086e+01 1.6506950008e+02 1.3100000000e+02 0.0000e+00 0.0000e+00
      997  1    1    2    0    0 -6.7703107305e-01 +5.4418624508e+00 +3.9983433713e+02 4.4709905993e+02 2.0000000000e+02 0.0000e+00 0.0000e+00
</event>
<event>
 5      1 +6.7420000e-10 2.31456300e+02 7.95774700e-02 4.55209600e-01
       13 -1    0    0    0    0 +0.0000000000e+00 +0.0000000000e+00 +4.9999998884e+02 5.0000000000e+02 1.0566000000e-01 0.0000e+00 -1.0000e+00
      994 -1    0    0    0    0 -0.0000000000e+00 -0.0000000000e+00 +0.0000000000e+00 1.3100000000e+02 1.3100000000e+02 0.0000e+00 0.0000e+00
       13  1    1    2    0    0 +3.2817833001e+00 +1.5630613205e+01 +2.2043756300e+01 2.7221765678e+01 1.0566000000e-01 0.0000e+00 1.0000e+00
      994  1    1    2    0    0 -2.3382090912e+01 +1.6861621633e+00 +7.4070672708e+01 1.5230571189e+02 1.3100000000e+02 0.0000e+00 0.0000e+00
      997  1    1    2    0    0 +2.0100307612e+01 -1.7316775368e+01 +4.0388555983e+02 4.5147252243e+02 2.0000000000e+02 0.0000e+00 0.0000e+00
</event>
<event>
 5      1 +6.7420000e-10 2.39207300e+02 7.95774700e-02 4.45583700e-01
       13 -1    0    0    0    0 +0.0000000000e+00 +0.0000000000e+00 +4.9999998884e+02 5.0000000000e+02 1.0566000000e-01 0.0000e+00 1.0000e+00
      994 -1    0    0    0    0 -0.0000000000e+00 -0.0000000000e+00 +0.0000000000e+00 1.3100000000e+02 1.3100000000e+02 0.0000e+00 0.0000e+00
       13  1    1    2    0    0 -1.0074159572e+01 +1.9448862931e+01 +8.3731690636e+00 2.3449266184e+01 1.0566000000e-01 0.0000e+00 -1.0000e+00
      994  1    1    2    0    0 +3.5319113644e+01 -2.3613317685e+01 +1.1125134774e+02 1.7703923558e+02 1.3100000000e+02 0.0000e+00 0.0000e+00
      997  1    1    2    0    0 -2.5244954072e+01 +4.1644547546e+00 +3.8037547203e+02 4.3051149824e+02 2.0000000000e+02 0.0000e+00 0.0000e+00
</event>
<event>
 5      1 +6.7420000e-10 2.39190500e+02 7.95774700e-02 4.45603700e-01
       13 -1    0    0    0    0 +0.0000000000e+00 +0.0000000000e+00 +4.9999998884e+02 5.0000000000e+02 1.0566000000e-01 0.0000e+00 -1.0000e+00
      994 -1    0    0    0    0 -0.0000000000e+00 -0.0000000000e+00 +0.0000000000e+00 1.3100000000e+02 1.3100000000e+02 0.0000e+00 0.0000e+00
       13  1    1    2    0    0 +5.4824652081e+00 -1.1521767605e+01 -1.0093643617e+00 1.2799942732e+01 1.0566000000e-01 0.0000e+00 1.0000e+00
      994  1    1    2    0    0 +2.9500743993e+01 -3.5836422734e+00 +9.6677741583e+01 1.6550142629e+02 1.3100000000e+02 0.0000e+00 0.0000e+00
      997  1    1    2    0    0 -3.4983209201e+01 +1.5105409878e+01 +4.0433161162e+02 4.5269863097e+02 2.0000000000e+02 0.0000e+00 0.0000e+00
</event>
<event>
 5      1 +6.7420000e-10 2.38414300e+02 7.95774700e-02 4.46534200e-01
       13 -1    0    0    0    0 +0.0000000000e+00 +0.0000000000e+00 +4.9999998884e+02 5.0000000000e+02 1.0566000000e-01 0.0000e+00 1.0000e+00
      994 -1    0    0    0    0 -0.0000000000e+00 -0.0000000000e+00 +0.0000000000e+00 1.3100000000e+02 1.3100000000e+02 0.0000e+00 0.0000e+00
       13  1    1    2    0    0 -1.9699294922e+01 +1.9163657329e+01 +3.4145572752e+01 4.3831943663e+01 1.0566000000e-01 0.0000e+00 -1.0000e+00
      994  1    1    2    0    0 -5.9947015657e+00 -2.4166459893e+01 +9.0830627339e+01 1.6134174008e+02 1.3100000000e+02 0.0000e+00 0.0000e+00
      997  1    1    2    0    0 +2.5693996488e+01 +5.0028025645e+00 +3.7502378874e+02 4.2582631625e+02 2.0000000000e+02 0.0000e+00 0.0000e+00
</event>
<event>
 5      1 +6.7420000e-10 2.41214800e+02 7.95774700e-02 4.43210700e-01
       13 -1    0    0    0    0 +0.0000000000e+00 +0.0000000000e+00 +4.9999998884e+02 5.0000000000e+02 1.0566000000e-01 0.0000e+00 -1.0000e+00
      994 -1    0    0    0    0 -0.0000000000e+00 -0.0000000000e+00 +0.0000000000e+00 1.3100000000e+02 1.3100000000e+02 0.0000e+00 0.0000e+00
       13  1    1    2    0    0 -1.1719413513e+01 +2.8878718690e+01 +1.7997484146e+01 3.5989521334e+01 1.0566000000e-01 0.0000e+00 1.0000e+00
      994  1    1    2    0    0 -1.8082619335e+01 -5.5571054406e+01 +1.7254788843e+02 2.2438559894e+02 1.3100000000e+02 0.0000e+00 0.0000e+00
      997  1    1    2    0    0 +2.9802032847e+01 +2.6692335717e+01 +3.0945461626e+02 3.7062487972e+02 2.0000000000e+02 0.0000e+00 0.0000e+00
</event>
<event>
 5      1 +6.7420000e-10 2.40036900e+02 7.95774700e-02 4.44597300e-01
       13 -1    0    0    0    0 +0.0000000000e+00 +0.0000000000e+00 +4.9999998884e+02 5.0000000000e+02 1.0566000000e-01 0.0000e+00 -1.0000e+00
      994 -1    0    0    0    0 -0.0000000000e+00 -0.0000000000e+00 +0.0000000000e+00 1.3100000000e+02 1.3100000000e+02 0.0000e+00 0.0000e+00
       13  1    1    2    0    0 -5.0212184497e+00 +1.3855951197e+01 -1.9844101142e+00 1.4871081529e+01 1.0566000000e-01 0.0000e+00 1.0000e+00
      994  1    1    2    0    0 +2.8063184635e+01 -3.2190621099e+01 +1.1478459890e+02 1.7933288199e+02 1.3100000000e+02 0.0000e+00 0.0000e+00
      997  1    1    2    0    0 -2.3041966185e+01 +1.8334669902e+01 +3.8719980005e+02 4.3679603648e+02 2.0000000000e+02 0.0000e+00 0.0000e+00
</event>
<event>
 5      1 +6.7420000e-10 2.48030400e+02 7.95774700e-02 4.35491400e-01
       13 -1    0    0    0    0 +0.0000000000e+00 +0.0000000000e+00 +4.9999998884e+02 5.0000000000e+02 1.0566000000e-01 0.0000e+00 -1.0000e+00
      994 -1    0    0    0    0 -0.0000000000e+00 -0.0000000000e+00 +0.0000000000e+00 1.3100000000e+02 1.3100000000e+02 0.0000e+00 0.0000e+00
       13  1    1    2    0    0 +2.8823873144e+01 -2.5557184503e+01 +8.1174657644e+01 8.9851664149e+01 1.0566000000e-01 0.0000e+00 1.0000e+00
      994  1    1    2    0    0 +9.7096647071e+00 +2.3670519064e+00 +1.1481043310e+02 1.7447726520e+02 1.3100000000e+02 0.0000e+00 0.0000e+00
      997  1    1    2    0    0 -3.8533537851e+01 +2.3190132597e+01 +3.0401489809e+02 3.6667107065e+02 2.0000000000e+02 0.0000e+00 0.0000e+00
</event>
<event>
 5      1 +6.7420000e-10 2.51036600e+02 7.95774700e-02 4.32242400e-01
       13 -1    0    0    0    0 +0.0000000000e+00 +0.0000000000e+00 +4.9999998884e+02 5.0000000000e+02 1.0566000000e-01 0.0000e+00 1.0000e+00
      994 -1    0    0    0    0 -0.0000000000e+00 -0.0000000000e+00 +0.0000000000e+00 1.3100000000e+02 1.3100000000e+02 0.0000e+00 0.0000e+00
       13  1    1    2    0    0 -7.4557157307e-01 -2.5694914043e+01 +1.0860825066e+00 2.5728879181e+01 1.0566000000e-01 0.0000e+00 -1.0000e+00
      994  1    1    2    0    0 +8.4111288718e+00 -2.8367983899e+00 +1.3102989889e+02 1.8549563045e+02 1.3100000000e+02 0.0000e+00 0.0000e+00
      997  1    1    2    0    0 -7.6655572987e+00 +2.8531712433e+01 +3.6788400744e+02 4.1977549036e+02 2.0000000000e+02 0.0000e+00 0.0000e+00
</event>
<event>
 5      1 +6.7420000e-10 2.34977700e+02 7.95774700e-02 4.50742000e-01
       13 -1    0    0    0    0 +0.0000000000e+00 +0.0000000000e+00 +4.9999998884e+02 5.0000000000e+02 1.0566000000e-01 0.0000e+00 1.0000e+00
      994 -1    0    0    0    0 -0.0000000000e+00 -0.0000000000e+00 +0.0000000000e+00 1.3100000000e+02 1.3100000000e+02 0.0000e+00 0.0000e+00
       13  1    1    2    0    0 -1.3834483306e+00 -1.3922780119e+01 +3.1210798056e+00 1.4335621323e+01 1.0566000000e-01 0.0000e+00 -1.0000e+00
      994  1    1    2    0    0 +1.3774129733e+01 +3.3128005852e+01 +9.0654832121e+01 1.6329877528e+02 1.3100000000e+02 0.0000e+00 0.0000e+00
      997  1    1    2    0    0 -1.2390681402e+01 -1.9205225733e+01 +4.0622407691e+02 4.5336560340e+02 2.0000000000e+02 0.0000e+00 0.0000e+00
</event>
<event>
 5      1 +6.7420000e-10 2.44456700e+02 7.95774700e-02 4.39475700e-01
       13 -1    0    0    0    0 +0.0000000000e+00 +0.0000000000e+00 +4.9999998884e+02 5.0000000000e+02 1.0566000000e-01 0.0000e+00 1.0000e+00
      994 -1    0    0    0    0 -0.0000000000e+00 -0.0000000000e+00 +0.0000000000e+00 1.3100000000e+02 1.3100000000e+02 0.0000e+00 0.0000e+00
       13  1    1    2    0    0 +3.9352589407e+00 -1.2184559871e+01 -5.3843287777e+00 1.3890713538e+01 1.0566000000e-01 0.0000e+00 -1.0000e+00
      994  1    1    2    0    0 -5.7752635916e+00 +8.8028717763e-01 +9.9934972382e+01 1.6487003148e+02 1.3100000000e+02 0.0000e+00 0.0000e+00
      997  1    1    2    0    0 +1.8400046509e+00 +1.1304272693e+01 +4.0544934523e+02 4.5223925498e+02 2.0000000000e+02 0.0000e+00 0.0000e+00
</event>
<event>
 5      1 +6.7420000e-10 2.36514300e+02 7.95774700e-02 4.48842500e-01
       13 -1    0    0    0    0 +0.0000000000e+00 +0.0000000000e+00 +4.9999998884e+02 5.0000000000e+02 1.0566000000e-01 0.0000e+00 1.0000e+00
      994 -1    0    0    0    0 -0.0000000000e+00 -0.0000000000e+00 +0.0000000000e+00 1.3100000000e+02 1.3100000000e+02 0.0000e+00 0.0000e+00
       13  1    1    2    0    0 +1.1598067541e+01 -1.4006796339e+01 +3.8350149656e+01 4.2443499585e+01 1.0566000000e-01 0.0000e+00 -1.0000e+00
      994  1    1    2    0    0 +6.9218383662e+01 -6.9951204663e+00 +1.8504673114e+02 2.3715692917e+02 1.3100000000e+02 0.0000e+00 0.0000e+00
      997  1    1    2    0    0 -8.0816451203e+01 +2.1001916805e+01 +2.7660310804e+02 3.5139957124e+02 2.0000000000e+02 0.0000e+00 0.0000e+00
</event>
<event>
 5      1 +6.7420000e-10 2.52170100e+02 7.95774700e-02 4.31040800e-01
       13 -1    0    0    0    0 +0.0000000000e+00 +0.0000000000e+00 +4.9999998884e+02 5.0000000000e+02 1.0566000000e-01 0.0000e+00 1.0000e+00
      994 -1    0    0    0    0 -0.0000000000e+00 -0.0000000000e+00 +0.0000000000e+00 1.3100000000e+02 1.3100000000e+02 0.0000e+00 0.0000e+00
       13  1    1    2    0    0 +4.2357676947e+01 -1.3767156314e+01 +8.0243560407e+01 9.1775528003e+01 1.0566000000e-01 0.0000e+00 -1.0000e+00
      994  1    1    2    0    0 +6.7521110609e+00 +1.6236804762e+01 +1.5225858735e+02 2.0162564880e+02 1.3100000000e+02 0.0000e+00 0.0000e+00
      997  1    1    2    0    0 -4.9109788008e+01 -2.4696484478e+00 +2.6749784108e+02 3.3759882319e+02 2.0000000000e+02 0.0000e+00 0.0000e+00
</event>
<event>
 5      1 +6.7420000e-10 2.44529500e+02 7.95774700e-02 4.39393200e-01
       13 -1    0    0    0    0 +0.0000000000e+00 +0.0000000000e+00 +4.9999998884e+02 5.0000000000e+02 1.0566000000e-01 0.0000e+00 1.0000e+00
      994 -1    0    0    0    0 -0.0000000000e+00 -0.0000000000e+00 +0.0000000000e+00 1.3100000000e+02 1.3100000000e+02 0.0000e+00 0.0000e+00
       13  1    1    2    0    0 -1.3520643583e+01 +4.0079895871e+01 +4.2299918301e+01 5.9820565930e+01 1.0566000000e-01 0.0000e+00 -1.0000e+00
      994  1    1    2    0    0 +2.7854312761e+00 -4.9223164562e+01 +1.6463267315e+02 2.1609163711e+02 1.3100000000e+02 0.0000e+00 0.0000e+00
      997  1    1    2    0    0 +1.0735212307e+01 +9.1432686911e+00 +2.9306739738e+02 3.5508779696e+02 2.0000000000e+02 0.0000e+00 0.0000e+00
</event>
<event>
 5      1 +6.7420000e-10 2.47612000e+02 7.95774700e-02 4.35950800e-01
       13 -1    0    0    0    0 +0.0000000000e+00 +0.0000000000e+00 +4.9999998884e+02 5.0000000000e+02 1.0566000000e-01 0.0000e+00 -1.0000e+00
      994 -1    0    0    0    0 -0.0000000000e+00 -0.0000000000e+00 +0.0000000000e+00 1.3100000000e+02 1.3100000000e+02 0.0000e+00 0.0000e+00
       13  1    1    2    0    0 +1.8901051075e+01 -4.0982238869e+01 +6.4103574009e+01 7.8396894066e+01 1.0566000000e-01 0.0000e+00 1.0000e+00
      994  1    1    2    0    0 -3.7126092046e+01 +1.6351424254e+01 +1.6724864735e+02 2.1628413216e+02 1.3100000000e+02 0.0000e+00 0.0000e+00
      997  1    1    2    0    0 +1.8225040972e+01 +2.4630814614e+01 +2.6864776748e+02 3.3631897377e+02 2.0000000000e+02 0.0000e+00 0.0000e+00
</event>
<event>
 5      1 +6.7420000e-10 2.27731600e+02 7.95774700e-02 4.60117400e-01
       13 -1    0    0    0    0 +0.0000000000e+00 +0.0000000000e+00 +4.9999998884e+02 5.0000000000e+02 1.0566000000e-01 0.0000e+00 -1.0000e+00
      994 -1    0    0    0    0 -0.0000000000e+00 -0.0000000000e+00 +0.0000000000e+00 1.3100000000e+02 1.3100000000e+02 0.0000e+00 0.0000e+00
       13  1    1    2    0    0 +8.1970449003e+00 +6.2417964951e+00 +1.0448898151e+01 1.4674542759e+01 1.0566000000e-01 0.0000e+00 1.0000e+00
      994  1    1    2    0    0 -3.0330591844e+01 -2.1288706693e+01 +7.5381753219e+01 1.5561671682e+02 1.3100000000e+02 0.0000e+00 0.0000e+00
      997  1    1    2    0    0 +2.2133546943e+01 +1.5046910198e+01 +4.1416933747e+02 4.6070874042e+02 2.0000000000e+02 0.0000e+00 0.0000e+00
</event>
<event>
 5      1 +6.7420000e-10 2.29465000e+02 7.95774700e-02 4.57809300e-01
       13 -1    0    0    0    0 +0.0000000000e+00 +0.0000000000e+00 +4.9999998884e+02 5.0000000000e+02 1.0566000000e-01 0.0000e+00 -1.0000e+00
      994 -1    0    0    0    0 -0.0000000000e+00 -0.0000000000e+00 +0.0000000000e+00 1.3100000000e+02 1.3100000000e+02 0.0000e+00 0.0000e+00
       13  1    1    2    0    0 +4.8132253381e+00 -1.6593620170e+01 +2.7786937232e+01 3.2720642005e+01 1.0566000000e-01 0.0000e+00 1.0000e+00
      994  1    1    2    0    0 -5.8535910641e+01 +4.9125965585e+01 +1.4598861235e+02 2.1050769170e+02 1.3100000000e+02 0.0000e+00 0.0000e+00
      997  1    1    2    0    0 +5.3722685302e+01 -3.2532345415e+01 +3.2622443925e+02 3.8777166629e+02 2.0000000000e+02 0.0000e+00 0.0000e+00
</event>
<event>
 5      1 +6.7420000e-10 2.32571100e+02 7.95774700e-02 4.53777700e-01
       13 -1    0    0    0    0 +0.0000000000e+00 +0.0000000000e+00 +4.9999998884e+02 5.0000000000e+02 1.0566000000e-01 0.0000e+00 -1.0000e+00
      994 -1    0    0    0    0 -0.0000000000e+00 -0.0000000000e+00 +0.0000000000e+00 1.3100000000e+02 1.3100000000e+02 0.0000e+00 0.0000e+00
       13  1    1    2    0    0 +1.9091470587e+01 +5.2305243559e-01 +4.8917855960e+01 5.2514051727e+01 1.0566000000e-01 0.0000e+00 1.0000e+00
      994  1    1    2    0    0 -2.7784711637e+01 -4.6570311701e+01 +1.0651151901e+02 1.7733157591e+02 1.3100000000e+02 0.0000e+00 0.0000e+00
      997  1    1    2    0    0 +8.6932410502e+00 +4.6047259265e+01 +3.4457061387e+02 4.0115437237e+02 2.0000000000e+02 0.0000e+00 0.0000e+00
</event>
<event>
 5      1 +6.7420000e-10 2.31071900e+02 7.95774700e-02 4.55707300e-01
       13 -1    0    0    0    0 +0.0000000000e+00 +0.0000000000e+00 +4.9999998884e+02 5.0000000000e+02 1.0566000000e-01 0.0000e+00 -1.0000e+00
      994 -1    0    0    0    0 -0.0000000000e+00 -0.0000000000e+00 +0.0000000000e+00 1.3100000000e+02 1.3100000000e+02 0.0000e+00 0.0000e+00
       13  1    1    2    0    0 -1.5555522355e+01 -7.8758917751e+00 +2.3538362682e+01 2.9292825551e+01 1.0566000000e-01 0.0000e+00 1.0000e+00
      994  1    1    2    0    0 +4.0558682232e+01 -1.0217645072e+01 +8.6766212180e+01 1.6260006935e+02 1.3100000000e+02 0.0000e+00 0.0000e+00
      997  1    1    2    0    0 -2.5003159877e+01 +1.8093536847e+01 +3.8969541397e+02 4.3910710510e+02 2.0000000000e+02 0.0000e+00 0.0000e+00
</event>
<event>
 5      1 +6.7420000e-10 2.39520900e+02 7.95774700e-02 4.45209900e-01
       13 -1    0    0    0    0 +0.0000000000e+00 +0.0000000000e+00 +4.9999998884e+02 5.0000000000e+02 1.0566000000e-01 0.0000e+00 -1.0000e+00
      994 -1    0    0    0    0 -0.0000000000e+00 -0.0000000000e+00 +0.0000000000e+00 1.3100000000e+02 1.3100000000e+02 0.0000e+00 0.0000e+00
       13  1    1    2    0    0 -2.3790387370e+01 +9.0435065476e+00 +4.1121530295e+01 4.8360717114e+01 1.0566000000e-01 0.0000e+00 1.0000e+00
      994  1    1    2    0    0 -2.5555924215e+01 +1.6268081372e+01 +9.8165940396e+01 1.6647915061e+02 1.3100000000e+02 0.0000e+00 0.0000e+00
      997  1    1    2    0    0 +4.9346311585e+01 -2.5311587920e+01 +3.6071251814e+02 4.1616013228e+02 2.0000000000e+02 0.0000e+00 0.0000e+00
</event>
<event>
 5      1 +6.7420000e-10 2.44540700e+02 7.95774700e-02 4.39380400e-01
       13 -1    0    0    0    0 +0.0000000000e+00 +0.0000000000e+00 +4.9999998884e+02 5.0000000000e+02 1.0566000000e-01 0.0000e+00 1.0000e+00
      994 -1    0    0    0    0 -0.0000000000e+00 -0.0000000000e+00 +0.0000000000e+00 1.3100000000e+02 1.3100000000e+02 0.0000e+00 0.0000e+00
       13  1    1    2    0    0 -3.1122022527e+01 -2.2217368070e+01 +6.1255123676e+01 7.2210754536e+01 1.0566000000e-01 0.0000e+00 -1.0000e+00
      994  1    1    2    0    0 +1.3453713058e+01 +5.5711903495e+00 +1.0317505784e+02 1.6738617959e+02 1.3100000000e+02 0.0000e+00 0.0000e+00
      997  1    1    2    0    0 +1.7668309469e+01 +1.6646177720e+01 +3.3556980732e+02 3.9140306587e+02 2.0000000000e+02 0.0000e+00 0.0000e+00
</event>
<event>
 5      1 +6.7420000e-10 2.32348100e+02 7.95774700e-02 4.54062800e-01
       13 -1    0    0    0    0 +0.0000000000e+00 +0.0000000000e+00 +4.9999998884e+02 5.0000000000e+02 1.0566000000e-01 0.0000e+00 1.0000e+00
      994 -1    0    0    0    0 -0.0000000000e+00 -0.0000000000e+00 +0.0000000000e+00 1.3100000000e+02 1.3100000000e+02 0.0000e+00 0.0000e+00
       13  1    1    2    0    0 +1.4141267113e+01 -7.1951389319e+00 +1.3212235385e+01 2.0647512870e+01 1.0566000000e-01 0.0000e+00 -1.0000e+00
      994  1    1    2    0    0 +1.8658669676e+00 +4.2634608664e+01 +9.0748969609e+01 1.6497747362e+02 1.3100000000e+02 0.0000e+00 0.0000e+00
      997  1    1    2    0    0 -1.6007134080e+01 -3.5439469732e+01 +3.9603878384e+02 4.4537501351e+02 2.0000000000e+02 0.0000e+00 0.0000e+00
</event>
<event>
 5      1 +6.7420000e-10 2.48447400e+02 7.95774700e-02 4.35035200e-01
       13 -1    0    0    0    0 +0.0000000000e+00 +0.0000000000e+00 +4.9999998884e+02 5.0000000000e+02 1.0566000000e-01 0.0000e+00 -1.0000e+00
      994 -1    0    0    0    0 -0.0000000000e+00 -0.0000000000e+00 +0.0000000000e+00 1.3100000000e+02 1.3100000000e+02 0.0000e+00 0.0000e+00
       13  1    1    2    0    0 -1.5215532269e+01 -2.0995861370e+01 +2.8028363281e+00 2.6080752911e+01 1.0566000000e-01 0.0000e+00 1.0000e+00
      994  1    1    2    0    0 +7.9128212363e+00 +1.9282631082e+01 +1.2469821972e+02 1.8205789904e+02 1.3100000000e+02 0.0000e+00 0.0000e+00
      997  1    1    2    0    0 +7.3027110324e+00 +1.7132302873e+00 +3.7249893279e+02 4.2286134805e+02 2.0000000000e+02 0.0000e+00 0.0000e+00
</event>
<event>
 5      1 +6.7420000e-10 2.37160600e+02 7.95774700e-02 4.48052400e-01
       13 -1    0    0    0    0 +0.0000000000e+00 +0.0000000000e+00 +4.9999998884e+02 5.0000000000e+02 1.0566000000e-01 0.0000e+00 1.0000e+00
      994 -1    0    0    0    0 -0.0000000000e+00 -0.0000000000e+00 +0.0000000000e+00 1.3100000000e+02 1.3100000000e+02 0.0000e+00 0.0000e+00
       13  1    1    2    0    0 -9.8679771915e+00 -2.3606822973e+01 +7.2701946655e+01 7.7072973708e+01 1.0566000000e-01 0.0000e+00 -1.0000e+00
      994  1    1    2    0    0 -2.0236842282e+01 +5.1957964019e+01 +1.2714828859e+02 1.9088438150e+02 1.3100000000e+02 0.0000e+00 0.0000e+00
      997  1    1    2    0    0 +3.0104819473e+01 -2.8351141047e+01 +3.0014975359e+02 3.6304264479e+02 2.0000000000e+02 0.0000e+00 0.0000e+00
</event>
<event>
 5      1 +6.7420000e-10 2.39547400e+02 7.95774700e-02 4.45178400e-01
       13 -1    0    0    0    0 +0.0000000000e+00 +0.0000000000e+00 +4.9999998884e+02 5.0000000000e+02 1.0566000000e-01 0.0000e+00 1.0000e+00
      994 -1    0    0    0    0 -0.0000000000e+00 -0.0000000000e+00 +0.0000000000e+00 1.3100000000e+02 1.3100000000e+02 0.0000e+00 0.0000e+00
       13  1    1    2    0    0 +2.4504225640e+01 -8.8987338918e+00 +5.3581889865e+01 5.9587537494e+01 1.0566000000e-01 0.0000e+00 -1.0000e+00
      994  1    1    2    0    0 -7.7929745492e+00 -5.4684438561e+01 +1.3910467251e+02 1.9890255953e+02 1.3100000000e+02 0.0000e+00 0.0000e+00
      997  1    1    2    0    0 -1.6711251091e+01 +6.3583172453e+01 +3.0731342646e+02 3.7250990298e+02 2.0000000000e+02 0.0000e+00 0.0000e+00
</event>
<event>
 5      1 +6.7420000e-10 2.41525800e+02 7.95774700e-02 4.42847300e-01
       13 -1    0    0    0    0 +0.0000000000e+00 +0.0000000000e+00 +4.9999998884e+02 5.0000000000e+02 1.0566000000e-01 0.0000e+00 1.0000e+00
      994 -1    0    0    0    0 -0.0000000000e+00 -0.0000000000e+00 +0.0000000000e+00 1.3100000000e+02 1.3100000000e+02 0.0000e+00 0.0000e+00
       13  1    1    2    0    0 +1.5672286977e+00 +2.0076063484e+01 +6.2322421236e+00 2.1079766050e+01 1.0566000000e-01 0.0000e+00 -1.0000e+00
      994  1    1    2    0    0 -2.0178656572e+01 +9.0600940388e+00 +9.7819119002e+01 1.6498134297e+02 1.3100000000e+02 0.0000e+00 0.0000e+00
      997  1    1    2    0    0 +1.8611427874e+01 -2.9136157523e+01 +3.9594862771e+02 4.4493889098e+02 2.0000000000e+02 0.0000e+00 0.0000e+00
</event>
<event>
 5      1 +6.7420000e-10 2.41021600e+02 7.95774700e-02 4.43437000e-01
       13 -1    0    0    0    0 +0.0000000000e+00 +0.0000000000e+00 +4.9999998884e+02 5.0000000000e+02 1.0566000000e-01 0.0000e+00 1.0000e+00
      994 -1    0    0    0    0 -0.0000000000e+00 -0.0000000000e+00 +0.0000000000e+00 1.3100000000e+02 1.3100000000e+02 0.0000e+00 0.0000e+00
       13  1    1    2    0    0 +1.8957930156e+01 +2.3608140044e+01 +3.6024441291e+01 4.7058675358e+01 1.0566000000e-01 0.0000e+00 -1.0000e+00
      994  1    1    2    0    0 +2.5927499056e+01 -2.6659368835e+01 +1.1069536121e+02 1.7549193755e+02 1.3100000000e+02 0.0000e+00 0.0000e+00
      997  1    1    2    0    0 -4.4885429211e+01 +3.0512287910e+00 +3.5328018634e+02 4.0844938709e+02 2.0000000000e+02 0.0000e+00 0.0000e+00
</event>
<event>
 5      1 +6.7420000e-10 2.39009600e+02 7.95774700e-02 4.45819900e-01
       13 -1    0    0    0    0 +0.0000000000e+00 +0.0000000000e+00 +4.9999998884e+02 5.0000000000e+02 1.0566000000e-01 0.0000e+00 -1.0000e+00
      994 -1    0    0    0    0 -0.0000000000e+00 -0.0000000000e+00 +0.0000000000e+00 1.3100000000e+02 1.3100000000e+02 0.0000e+00 0.0000e+00
       13  1    1    2    0    0 -2.1875709455e-01 -1.6074779088e+01 +1.4578850851e+00 1.6142582518e+01 1.0566000000e-01 0.0000e+00 1.0000e+00
      994  1    1    2    0    0 +8.2450383924e+00 +2.7396125705e+01 +9.5225339224e+01 1.6446091813e+02 1.3100000000e+02 0.0000e+00 0.0000e+00
      997  1    1    2    0    0 -8.0262812978e+00 -1.1321346617e+01 +4.0331676453e+02 4.5039649935e+02 2.0000000000e+02 0.0000e+00 0.0000e+00
</event>
<event>
 5      1 +6.7420000e-10 2.46905600e+02 7.95774700e-02 4.36730700e-01
       13 -1    0    0    0    0 +0.0000000000e+00 +0.0000000000e+00 +4.9999998884e+02 5.0000000000e+02 1.0566000000e-01 0.0000e+00 1.0000e+00
      994 -1    0    0    0    0 -0.0000000000e+00 -0.0000000000e+00 +0.0000000000e+00 1.3100000000e+02 1.3100000000e+02 0.0000e+00 0.0000e+00
       13  1    1    2    0    0 -2.5537893150e+01 -2.3661362762e+01 +3.5962669197e+01 5.0053659348e+01 1.0566000000e-01 0.0000e+00 -1.0000e+00
      994  1    1    2    0    0 -1.5921743151e+01 -6.9647912086e+00 +1.1402816752e+02 1.7454349948e+02 1.3100000000e+02 0.0000e+00 0.0000e+00
      997  1    1    2    0    0 +4.1459636301e+01 +3.0626153971e+01 +3.5000915211e+02 4.0640284117e+02 2.0000000000e+02 0.0000e+00 0.0000e+00
</event>
<event>
 5      1 +6.7420000e-10 2.38354100e+02 7.95774700e-02 4.46606600e-01
       13 -1    0    0    0    0 +0.0000000000e+00 +0.0000000000e+00 +4.9999998884e+02 5.0000000000e+02 1.0566000000e-01 0.0000e+00 1.0000e+00
      994 -1    0    0    0    0 -0.0000000000e+00 -0.0000000000e+00 +0.0000000000e+00 1.3100000000e+02 1.3100000000e+02 0.0000e+00 0.0000e+00
       13  1    1    2    0    0 -2.2492719487e+01 -2.5789298408e+01 +4.9225190955e+01 5.9951154541e+01 1.0566000000e-01 0.0000e+00 -1.0000e+00
      994  1    1    2    0    0 +2.5381388404e+01 +5.5631650367e+01 +2.2988095637e+02 2.7156094988e+02 1.3100000000e+02 0.0000e+00 0.0000e+00
      997  1    1    2    0    0 -2.8886689174e+00 -2.9842351959e+01 +2.2089384151e+02 2.9948789558e+02 2.0000000000e+02 0.0000e+00 0.0000e+00
</event>
<event>
 5      1 +6.7420000e-10 2.31985600e+02 7.95774700e-02 4.54527700e-01
       13 -1    0    0    0    0 +0.0000000000e+00 +0.0000000000e+00 +4.9999998884e+02 5.0000000000e+02 1.0566000000e-01 0.0000e+00 1.0000e+00
      994 -1    0    0    0    0 -0.0000000000e+00 -0.0000000000e+00 +0.0000000000e+00 1.3100000000e+02 1.3100000000e+02 0.0000e+00 0.0000e+00
       13  1    1    2    0    0 +1.8796813953e+01 -7.0101477921e+00 +3.3446842944e+01 3.9002113453e+01 1.0566000000e-01 0.0000e+00 -1.0000e+00
      994  1    1    2    0    0 -2.1905339261e+01 +3.9483194696e+01 +9.2564307933e+01 1.6663708367e+02 1.3100000000e+02 0.0000e+00 0.0000e+00
      997  1    1    2    0    0 +3.1085253084e+00 -3.2473046904e+01 +3.7398883796e+02 4.2536080288e+02 2.0000000000e+02 0.0000e+00 0.0000e+00
</event>
<event>
 5      1 +6.7420000e-10 2.32256700e+02 7.95774700e-02 4.54179900e-01
       13 -1    0    0    0    0 +0.0000000000e+00 +0.0000000000e+00 +4.9999998884e+02 5.0000000000e+02 1.0566000000e-01 0.0000e+00 -1.0000e+00
      994 -1    0    0    0    0 -0.0000000000e+00 -0.0000000000e+00 +0.0000000000e+00 1.3100000000e+02 1.3100000000e+02 0.0000e+00 0.0000e+00
       13  1    1    2    0    0 -5.2541589561e+00 +1.6585110124e+01 +1.2847814573e+01 2.1627518755e+01 1.0566000000e-01 0.0000e+00 1.0000e+00
      994  1    1    2    0    0 -2.4115457045e+01 -5.6129704611e+01 +1.1779180394e+02 1.8646181401e+02 1.3100000000e+02 0.0000e+00 0.0000e+00
      997  1    1    2    0    0 +2.9369616001e+01 +3.9544594486e+01 +3.6936037032e+02 4.2291066723e+02 2.0000000000e+02 0.0000e+00 0.0000e+00
</event>
<event>
 5      1 +6.7420000e-10 2.49287100e+02 7.95774700e-02 4.34122000e-01
       13 -1    0    0    0    0 +0.0000000000e+00 +0.0000000000e+00 +4.9999998884e+02 5.0000000000e+02 1.0566000000e-01 0.0000e+00 -1.0000e+00
      994 -1    0    0    0    0 -0.0000000000e+00 -0.0000000000e+00 +0.0000000000e+00 1.3100000000e+02 1.3100000000e+02 0.0000e+00 0.0000e+00
       13  1    1    2    0    0 +3.0661185799e+01 -3.0100681197e+01 +9.3067760628e+01 1.0250745610e+02 1.0566000000e-01 0.0000e+00 1.0000e+00
      994  1    1    2    0    0 -1.3957534157e+00 +3.0395598225e+01 +1.4738334268e+02 1.9952115231e+02 1.3100000000e+02 0.0000e+00 0.0000e+00
      997  1    1    2    0    0 -2.9265432383e+01 -2.9491702763e-01 +2.5954888553e+02 3.2897139160e+02 2.0000000000e+02 0.0000e+00 0.0000e+00
</event>
<event>
 5      1 +6.7420000e-10 2.41829800e+02 7.95774700e-02 4.42493000e-01
       13 -1    0    0    0    0 +0.0000000000e+00 +0.0000000000e+00 +4.9999998884e+02 5.0000000000e+02 1.0566000000e-01 0.0000e+00 1.0000e+00
      994 -1    0    0    0    0 -0.0000000000e+00 -0.0000000000e+00 +0.0000000000e+00 1.3100000000e+02 1.3100000000e+02 0.0000e+00 0.0000e+00
       13  1    1    2    0    0 -2.9747819723e+01 +4.0931106670e+00 +1.2435020241e+01 3.2501188065e+01 1.0566000000e-01 0.0000e+00 -1.0000e+00
      994  1    1    2    0    0 +5.4393487499e+01 +1.7477467525e+01 +1.7441440575e+02 2.2548946381e+02 1.3100000000e+02 0.0000e+00 0.0000e+00
      997  1    1    2    0    0 -2.4645667777e+01 -2.1570578192e+01 +3.1315056284e+02 3.7300934813e+02 2.0000000000e+02 0.0000e+00 0.0000e+00
</event>
<event>
 5      1 +6.7420000e-10 2.30597800e+02 7.95774700e-02 4.56323800e-01
       13 -1    0    0    0    0 +0.0000000000e+00 +0.0000000000e+00 +4.9999998884e+02 5.0000000000e+02 1.0566000000e-01 0.0000e+00 -1.0000e+00
      994 -1    0    0    0    0 -0.0000000000e+00 -0.0000000000e+00 +0.0000000000e+00 1.3100000000e+02 1.3100000000e+02 0.0000e+00 0.0000e+00
       13  1    1    2    0    0 +1.0566721489e+01 +1.1117530031e+01 +5.2109624550e+01 5.4320154748e+01 1.0566000000e-01 0.0000e+00 1.0000e+00
      994  1    1    2    0    0 -2.3472125388e+01 -3.2280318733e+01 +8.3842258944e+01 1.6057236385e+02 1.3100000000e+02 0.0000e+00 0.0000e+00
      997  1    1    2    0    0 +1.2905403899e+01 +2.1162788702e+01 +3.6404810534e+02 4.1610748140e+02 2.0000000000e+02 0.0000e+00 0.0000e+00
</event>
<event>
 5      1 +6.7420000e-10 2.31245600e+02 7.95774700e-02 4.55482200e-01
       13 -1    0    0    0    0 +0.0000000000e+00 +0.0000000000e+00 +4.9999998884e+02 5.0000000000e+02 1.0566000000e-01 0.0000e+00 -1.0000e+00
      994 -1    0    0    0    0 -0.0000000000e+00 -0.0000000000e+00 +0.0000000000e+00 1.3100000000e+02 1.3100000000e+02 0.0000e+00 0.0000e+00
       13  1    1    2    0    0 -6.7647282247e+00 -1.7817855752e+01 +2.6731366196e+01 3.2830087333e+01 1.0566000000e-01 0.0000e+00 1.0000e+00
      994  1    1    2    0    0 +2.7802557959e+00 +4.5388587654e+01 +9.1049232306e+01 1.6588796344e+02 1.3100000000e+02 0.0000e+00 0.0000e+00
      997  1    1    2    0    0 +3.9844724287e+00 -2.7570731902e+01 +3.8221939033e+02 4.3228194922e+02 2.0000000000e+02 0.0000e+00 0.0000e+00
</event>
<event>
 5      1 +6.7420000e-10 2.34231200e+02 7.95774700e-02 4.51675700e-01
       13 -1    0    0    0    0 +0.0000000000e+00 +0.0000000000e+00 +4.9999998884e+02 5.0000000000e+02 1.0566000000e-01 0.0000e+00 1.0000e+00
      994 -1    0    0    0    0 -0.0000000000e+00 -0.0000000000e+00 +0.0000000000e+00 1.3100000000e+02 1.3100000000e+02 0.0000e+00 0.0000e+00
       13  1    1    2    0    0 -5.5355460489e+00 +1.9760604039e+01 +6.0661264844e+01 6.4038456872e+01 1.0566000000e-01 0.0000e+00 -1.0000e+00
      994  1    1    2    0    0 -9.7311786514e+00 -1.8451725047e+01 +7.8552469329e+01 1.5416436823e+02 1.3100000000e+02 0.0000e+00 0.0000e+00
      997  1    1    2    0    0 +1.5266724700e+01 -1.3088789919e+00 +3.6078625466e+02 4.1279717489e+02 2.0000000000e+02 0.0000e+00 0.0000e+00
</event>
<event>
 5      1 +6.7420000e-10 2.33645000e+02 7.95774700e-02 4.52413800e-01
       13 -1    0    0    0    0 +0.0000000000e+00 +0.0000000000e+00 +4.9999998884e+02 5.0000000000e+02 1.0566000000e-01 0.0000e+00 -1.0000e+00
      994 -1    0    0    0    0 -0.0000000000e+00 -0.0000000000e+00 +0.0000000000e+00 1.3100000000e+02 1.3100000000e+02 0.0000e+00 0.0000e+00
       13  1    1    2    0    0 -1.5646912713e+01 -8.4344414299e+00 +1.2091319474e+01 2.1498298778e+01 1.0566000000e-01 0.0000e+00 1.0000e+00
      994  1    1    2    0    0 +3.9077051935e+01 +5.0395977689e+00 +9.0642628352e+01 1.6410210117e+02 1.3100000000e+02 0.0000e+00 0.0000e+00
      997  1    1    2    0    0 -2.3430139221e+01 +3.3948436610e+00 +3.9726604101e+02 4.4539960005e+02 2.0000000000e+02 0.0000e+00 0.0000e+00
</event>
<event>
 5      1 +6.7420000e-10 2.37553100e+02 7.95774700e-02 4.47575000e-01
       13 -1    0    0    0    0 +0.0000000000e+00 +0.0000000000e+00 +4.9999998884e+02 5.0000000000e+02 1.0566000000e-01 0.0000e+00 -1.0000e+00
      994 -1    0    0    0    0 -0.0000000000e+00 -0.0000000000e+00 +0.0000000000e+00 1.3100000000e+02 1.3100000000e+02 0.0000e+00 0.0000e+00
       13  1    1    2    0    0 -3.0796303462e+01 +3.6047044674e+00 +6.9951455079e+01 7.6515511061e+01 1.0566000000e-01 0.0000e+00 1.0000e+00
      994  1    1    2    0    0 +6.4992511652e+01 +1.4640176141e+00 +1.6169263923e+02 2.1801761282e+02 1.3100000000e+02 0.0000e+00 0.0000e+00
      997  1    1    2    0    0 -3.4196208190e+01 -5.0687220815e+00 +2.6835589453e+02 3.3646687612e+02 2.0000000000e+02 0.0000e+00 0.0000e+00
</event>
<event>
 5      1 +6.7420000e-10 2.39371600e+02 7.95774700e-02 4.45387700e-01
       13 -1    0    0    0    0 +0.0000000000e+00 +0.0000000000e+00 +4.9999998884e+02 5.0000000000e+02 1.0566000000e-01 0.0000e+00 1.0000e+00
      994 -1    0    0    0    0 -0.0000000000e+00 -0.0000000000e+00 +0.0000000000e+00 1.3100000000e+02 1.3100000000e+02 0.0000e+00 0.0000e+00
       13  1    1    2    0    0 +2.5025285658e+01 -6.6812732463e+00 +2.6928605325e+01 3.7363957007e+01 1.0566000000e-01 0.0000e+00 -1.0000e+00
      994  1    1    2    0    0 +1.2354275312e+01 +2.9833767617e+01 +9.9575245907e+01 1.6768694465e+02 1.3100000000e+02 0.0000e+00 0.0000e+00
      997  1    1    2    0    0 -3.7379560970e+01 -2.3152494371e+01 +3.7349613760e+02 4.2594909834e+02 2.0000000000e+02 0.0000e+00 0.0000e+00
</event>
<event>
 5      1 +6.7420000e-10 2.37747600e+02 7.95774700e-02 4.47339200e-01
       13 -1    0    0    0    0 +0.0000000000e+00 +0.0000000000e+00 +4.9999998884e+02 5.0000000000e+02 1.0566000000e-01 0.0000e+00 -1.0000e+00
      994 -1    0    0    0    0 -0.0000000000e+00 -0.0000000000e+00 +0.0000000000e+00 1.3100000000e+02 1.3100000000e+02 0.0000e+00 0.0000e+00
       13  1    1    2    0    0 +1.1316094333e+01 -2.3447404546e+01 +3.1513795728e+01 4.0877441898e+01 1.0566000000e-01 0.0000e+00 1.0000e+00
      994  1    1    2    0    0 +1.4354361769e+01 +1.8721297461e+01 +8.8254756318e+01 1.5970734702e+02 1.3100000000e+02 0.0000e+00 0.0000e+00
      997  1    1    2    0    0 -2.5670456102e+01 +4.7261070852e+00 +3.8023143679e+02 4.3041521108e+02 2.0000000000e+02 0.0000e+00 0.0000e+00
</event>
<event>
 5      1 +6.7420000e-10 2.49085500e+02 7.95774700e-02 4.34340600e-01
       13 -1    0    0    0    0 +0.0000000000e+00 +0.0000000000e+00 +4.9999998884e+02 5.0000000000e+02 1.0566000000e-01 0.0000e+00 -1.0000e+00
      994 -1    0    0    0    0 -0.0000000000e+00 -0.0000000000e+00 +0.0000000000e+00 1.3100000000e+02 1.3100000000e+02 0.0000e+00 0.0000e+00
       13  1    1    2    0    0 -7.9963861136e+00 -8.3343795277e+00 -1.1075431044e+01 1.6002512610e+01 1.0566000000e-01 0.0000e+00 1.0000e+00
      994  1    1    2    0    0 -2.7890408511e+01 -2.2283939497e+01 +1.8272967685e+02 2.2765233064e+02 1.3100000000e+02 0.0000e+00 0.0000e+00
      997  1    1    2    0    0 +3.5886794624e+01 +3.0618319024e+01 +3.2834574303e+02 3.8734515675e+02 2.0000000000e+02 0.0000e+00 0.0000e+00
</event>
<event>
 5      1 +6.7420000e-10 2.34713300e+02 7.95774700e-02 4.51071900e-01
       13 -1    0    0    0    0 +0.0000000000e+00 +0.0000000000e+00 +4.9999998884e+02 5.0000000000e+02 1.0566000000e-01 0.0000e+00 -1.0000e+00
      994 -1    0    0    0    0 -0.0000000000e+00 -0.0000000000e+00 +0.0000000000e+00 1.3100000000e+02 1.3100000000e+02 0.0000e+00 0.0000e+00
       13  1    1    2    0    0 +2.2351912092e+01 +1.9690454697e+00 +1.8852331007e+01 2.9307109422e+01 1.0566000000e-01 0.0000e+00 1.0000e+00
      994  1    1    2    0    0 -4.8621413815e+01 +2.3532510942e+01 +1.1343676959e+02 1.8151231817e+02 1.3100000000e+02 0.0000e+00 0.0000e+00
      997  1    1    2    0    0 +2.6269501723e+01 -2.5501556411e+01 +3.6771088824e+02 4.2018057241e+02 2.0000000000e+02 0.0000e+00 0.0000e+00
</event>
<event>
 5      1 +6.7420000e-10 2.42626700e+02 7.95774700e-02 4.41569500e-01
       13 -1    0    0    0    0 +0.0000000000e+00 +0.0000000000e+00 +4.9999998884e+02 5.0000000000e+02 1.0566000000e-01 0.0000e+00 -1.0000e+00
      994 -1    0    0    0    0 -0.0000000000e+00 -0.0000000000e+00 +0.0000000000e+00 1.3100000000e+02 1.3100000000e+02 0.0000e+00 0.0000e+00
       13  1    1    2    0    0 +2.5631077782e+01 -1.5027017477e+01 +1.1949076496e+01 3.2024287590e+01 1.0566000000e-01 0.0000e+00 1.0000e+00
      994  1    1    2    0    0 -5.2048893278e+01 +8.5929949226e+00 +1.5631679547e+02 2.1066292365e+02 1.3100000000e+02 0.0000e+00 0.0000e+00
      997  1    1    2    0    0 +2.6417815497e+01 +6.4340225543e+00 +3.3173411687e+02 3.8831278876e+02 2.0000000000e+02 0.0000e+00 0.0000e+00
</event>
<event>
 5      1 +6.7420000e-10 2.29195800e+02 7.95774700e-02 4.58165000e-01
       13 -1    0    0    0    0 +0.0000000000e+00 +0.0000000000e+00 +4.9999998884e+02 5.0000000000e+02 1.0566000000e-01 0.0000e+00 -1.0000e+00
      994 -1    0    0    0    0 -0.0000000000e+00 -0.0000000000e+00 +0.0000000000e+00 1.3100000000e+02 1.3100000000e+02 0.0000e+00 0.0000e+00
       13  1    1    2    0    0 -1.6691517854e+01 +3.4062501200e+00 +3.4897933798e+01 3.8834086258e+01 1.0566000000e-01 0.0000e+00 1.0000e+00
      994  1    1    2    0    0 +6.8831971516e+01 -8.6725118115e-01 +1.2281907993e+02 1.9231255503e+02 1.3100000000e+02 0.0000e+00 0.0000e+00
      997  1    1    2    0    0 -5.2140453662e+01 -2.5389989388e+00 +3.4228297511e+02 3.9985335871e+02 2.0000000000e+02 0.0000e+00 0.0000e+00
</event>
<event>
 5      1 +6.7420000e-10 2.33238500e+02 7.95774700e-02 4.52928300e-01
       13 -1    0    0    0    0 +0.0000000000e+00 +0.0000000000e+00 +4.9999998884e+02 5.0000000000e+02 1.0566000000e-01 0.0000e+00 -1.0000e+00
      994 -1    0    0    0    0 -0.0000000000e+00 -0.0000000000e+00 +0.0000000000e+00 1.3100000000e+02 1.3100000000e+02 0.0000e+00 0.0000e+00
       13  1    1    2    0    0 +4.9603837540e+00 -1.4204815324e+01 +4.5948462526e+00 1.5732322190e+01 1.0566000000e-01 0.0000e+00 1.0000e+00
      994  1    1    2    0    0 -6.5616249815e+01 +2.7156659142e+01 +1.5059225402e+02 2.1185373102e+02 1.3100000000e+02 0.0000e+00 0.0000e+00
      997  1    1    2    0    0 +6.0655866061e+01 -1.2951843818e+01 +3.4481288857e+02 4.0341394679e+02 2.0000000000e+02 0.0000e+00 0.0000e+00
</event>
<event>
 5      1 +6.7420000e-10 2.27968700e+02 7.95774700e-02 4.59799200e-01
       13 -1    0    0    0    0 +0.0000000000e+00 +0.0000000000e+00 +4.9999998884e+02 5.0000000000e+02 1.0566000000e-01 0.0000e+00 -1.0000e+00
      994 -1    0    0    0    0 -0.0000000000e+00 -0.0000000000e+00 +0.0000000000e+00 1.3100000000e+02 1.3100000000e+02 0.0000e+00 0.0000e+00
       13  1    1    2    0    0 -2.4338083399e+00 +1.1399436153e+01 +3.4950668113e+01 3.6843329562e+01 1.0566000000e-01 0.0000e+00 1.0000e+00
      994  1    1    2    0    0 -1.4226017359e+01 -4.6532717518e+01 +8.6755634989e+01 1.6448469100e+02 1.3100000000e+02 0.0000e+00 0.0000e+00
      997  1    1    2    0    0 +1.6659825698e+01 +3.5133281365e+01 +3.7829368573e+02 4.2967197944e+02 2.0000000000e+02 0.0000e+00 0.0000e+00
</event>
<event>
 5      1 +6.7420000e-10 2.32992600e+02 7.95774700e-02 4.53240500e-01
       13 -1    0    0    0    0 +0.0000000000e+00 +0.0000000000e+00 +4.9999998884e+02 5.0000000000e+02 1.0566000000e-01 0.0000e+00 -1.0000e+00
      994 -1    0    0    0    0 -0.0000000000e+00 -0.0000000000e+00 +0.0000000000e+00 1.3100000000e+02 1.3100000000e+02 0.0000e+00 0.0000e+00
       13  1    1    2    0    0 -9.7867368240e+00 +1.6741369235e+01 +4.8241737346e+01 5.1993557752e+01 1.0566000000e-01 0.0000e+00 1.0000e+00
      994  1    1    2    0    0 +1.6136136329e+01 -2.9738188421e+00 +7.4116973773e+01 1.5140523206e+02 1.3100000000e+02 0.0000e+00 0.0000e+00
      997  1    1    2    0    0 -6.3493995053e+00 -1.3767550393e+01 +3.7764127772e+02 4.2760121019e+02 2.0000000000e+02 0.0000e+00 0.0000e+00
</event>
<event>
 5      1 +6.7420000e-10 2.44348500e+02 7.95774700e-02 4.39598400e-01
       13 -1    0    0    0    0 +0.0000000000e+00 +0.0000000000e+00 +4.9999998884e+02 5.0000000000e+02 1.0566000000e-01 0.0000e+00 -1.0000e+00
      994 -1    0    0    0    0 -0.0000000000e+00 -0.0000000000e+00 +0.0000000000e+00 1.3100000000e+02 1.3100000000e+02 0.0000e+00 0.0000e+00
       13  1    1    2    0    0 +2.6131449273e+01 +3.6793805679e+00 +1.5787478515e+01 3.0751359716e+01 1.0566000000e-01 0.0000e+00 1.0000e+00
      994  1    1    2    0    0 +2.2316234940e+01 +1.5364613986e+01 +1.1181254775e+02 1.7434773167e+02 1.3100000000e+02 0.0000e+00 0.0000e+00
      997  1    1    2    0    0 -4.8447684213e+01 -1.9043994554e+01 +3.7239996257e+02 4.2590090861e+02 2.0000000000e+02 0.0000e+00 0.0000e+00
</event>
<event>
 5      1 +6.7420000e-10 2.35662800e+02 7.95774700e-02 4.49891500e-01
       13 -1    0    0    0    0 +0.0000000000e+00 +0.0000000000e+00 +4.9999998884e+02 5.0000000000e+02 1.0566000000e-01 0.0000e+00 1.0000e+00
      994 -1    0    0    0    0 -0.0000000000e+00 -0.0000000000e+00 +0.0000000000e+00 1.3100000000e+02 1.3100000000e+02 0.0000e+00 0.0000e+00
       13  1    1    2    0    0 +2.1393413932e+00 -1.5758124760e+01 +7.3821397380e+00 1.7532895617e+01 1.0566000000e-01 0.0000e+00 -1.0000e+00
      994  1    1    2    0    0 +3.4368749264e+01 +2.8752995742e+00 +9.1158386175e+01 1.6327991194e+02 1.3100000000e+02 0.0000e+00 0.0000e+00
      997  1    1    2    0    0 -3.6508090658e+01 +1.2882825186e+01 +4.0145946292e+02 4.5018719244e+02 2.0000000000e+02 0.0000e+00 0.0000e+00
</event>
<event>
 5      1 +6.7420000e-10 2.46210300e+02 7.95774700e-02 4.37503600e-01
       13 -1    0    0    0    0 +0.0000000000e+00 +0.0000000000e+00 +4.9999998884e+02 5.0000000000e+02 1.0566000000e-01 0.0000e+00 -1.0000e+00
      994 -1    0    0    0    0 -0.0000000000e+00 -0.0000000000e+00 +0.0000000000e+00 1.3100000000e+02 1.3100000000e+02 0.0000e+00 0.0000e+00
       13  1    1    2    0    0 +2.0601381886e+01 -2.4936810464e+01 +1.7357346345e+01 3.6708991921e+01 1.0566000000e-01 0.0000e+00 1.0000e+00
      994  1    1    2    0    0 -7.0965688764e+00 +2.3531030099e+01 +1.1722993173e+02 1.7750472546e+02 1.3100000000e+02 0.0000e+00 0.0000e+00
      997  1    1    2    0    0 -1.3504813010e+01 +1.4057803644e+00 +3.6541271076e+02 4.1678628262e+02 2.0000000000e+02 0.0000e+00 0.0000e+00
</event>
<event>
 5      1 +6.7420000e-10 2.35029600e+02 7.95774700e-02 4.50677400e-01
       13 -1    0    0    0    0 +0.0000000000e+00 +0.0000000000e+00 +4.9999998884e+02 5.0000000000e+02 1.0566000000e-01 0.0000e+00 1.0000e+00
      994 -1    0    0    0    0 -0.0000000000e+00 -0.0000000000e+00 +0.0000000000e+00 1.3100000000e+02 1.3100000000e+02 0.0000e+00 0.0000e+00
       13  1    1    2    0    0 -4.3023889329e+00 -1.1734169266e+01 +3.7577098597e+00 1.3051161876e+01 1.0566000000e-01 0.0000e+00 -1.0000e+00
      994  1    1    2    0    0 -3.0163509075e+01 -2.4970363440e+01 +9.4021831112e+01 1.6593511098e+02 1.3100000000e+02 0.0000e+00 0.0000e+00
      997  1    1    2    0    0 +3.4465898008e+01 +3.6704532706e+01 +4.0222044786e+02 4.5201372714e+02 2.0000000000e+02 0.0000e+00 0.0000e+00
</event>
<event>
 5      1 +6.7420000e-10 2.31840000e+02 7.95774700e-02 4.54714800e-01
       13 -1    0    0    0    0 +0.0000000000e+00 +0.0000000000e+00 +4.9999998884e+02 5.0000000000e+02 1.0566000000e-01 0.0000e+00 -1.0000e+00
      994 -1    0    0    0    0 -0.0000000000e+00 -0.0000000000e+00 +0.0000000000e+00 1.3100000000e+02 1.3100000000e+02 0.0000e+00 0.0000e+00
       13  1    1    2    0    0 -1.1128722974e+01 -9.8535148906e+00 +1.3424698661e+01 2.0029326721e+01 1.0566000000e-01 0.0000e+00 1.0000e+00
      994  1    1    2    0    0 +3.9848853533e+00 +1.0194590345e+01 +7.0267860022e+01 1.4905831455e+02 1.3100000000e+02 0.0000e+00 0.0000e+00
      997  1    1    2    0    0 +7.1438376203e+00 -3.4107545480e-01 +4.1630743015e+02 4.6191235873e+02 2.0000000000e+02 0.0000e+00 0.0000e+00
</event>
<event>
 5      1 +6.7420000e-10 2.46969500e+02 7.95774700e-02 4.36660000e-01
       13 -1    0    0    0    0 +0.0000000000e+00 +0.0000000000e+00 +4.9999998884e+02 5.0000000000e+02 1.0566000000e-01 0.0000e+00 -1.0000e+00
      994 -1    0    0    0    0 -0.0000000000e+00 -0.0000000000e+00 +0.0000000000e+00 1.3100000000e+02 1.3100000000e+02 0.0000e+00 0.0000e+00
       13  1    1    2    0    0 +9.6641316302e+00 -3.0140449128e+00 -8.9415256408e+00 1.3507107452e+01 1.0566000000e-01 0.0000e+00 1.0000e+00
      994  1    1    2    0    0 +3.7060762660e+00 +1.8864127260e+01 +1.1572438948e+02 1.7584858435e+02 1.3100000000e+02 0.0000e+00 0.0000e+00
      997  1    1    2    0    0 -1.3370207896e+01 -1.5850082347e+01 +3.9321712500e+02 4.4164430820e+02 2.0000000000e+02 0.0000e+00 0.0000e+00
</event>
<event>
 5      1 +6.7420000e-10 2.35295000e+02 7.95774700e-02 4.50347400e-01
       13 -1    0    0    0    0 +0.0000000000e+00 +0.0000000000e+00 +4.9999998884e+02 5.0000000000e+02 1.0566000000e-01 0.0000e+00 1.0000e+00
      994 -1    0    0    0    0 -0.0000000000e+00 -0.0000000000e+00 +0.0000000000e+00 1.3100000000e+02 1.3100000000e+02 0.0000e+00 0.0000e+00
       13  1    1    2    0    0 -1.4749322135e+01 -5.4516379361e-01 +7.3594494299e+00 1.6492797427e+01 1.0566000000e-01 0.0000e+00 -1.0000e+00
      994  1    1    2    0    0 -2.0875618058e+01 -3.5042820714e+00 +8.1045839914e+01 1.5549115598e+02 1.3100000000e+02 0.0000e+00 0.0000e+00
      997  1    1    2    0    0 +3.5624940194e+01 +4.0494458650e+00 +4.1159469949e+02 4.5901604659e+02 2.0000000000e+02 0.0000e+00 0.0000e+00
</event>
<event>
 5      1 +6.7420000e-10 2.39386900e+02 7.95774700e-02 4.45369500e-01
       13 -1    0    0    0    0 +0.0000000000e+00 +0.0000000000e+00 +4.9999998884e+02 5.0000000000e+02 1.0566000000e-01 0.0000e+00 -1.0000e+00
      994 -1    0    0    0    0 -0.0000000000e+00 -0.0000000000e+00 +0.0000000000e+00 1.3100000000e+02 1.3100000000e+02 0.0000e+00 0.0000e+00
       13  1    1    2    0    0 +9.4397367713e+00 +1.7606205985e+01 +5.5659542059e+00 2.0738325143e+01 1.0566000000e-01 0.0000e+00 1.0000e+00
      994  1    1    2    0    0 -3.8467780203e+01 -1.4701107045e+01 +1.1004535050e+02 1.7597406578e+02 1.3100000000e+02 0.0000e+00 0.0000e+00
      997  1    1    2    0    0 +2.9028043432e+01 -2.9050989397e+00 +3.8438868413e+02 4.3428760908e+02 2.0000000000e+02 0.0000e+00 0.0000e+00
</event>
<event>
 5      1 +6.7420000e-10 2.36074900e+02 7.95774700e-02 4.49382600e-01
       13 -1    0    0    0    0 +0.0000000000e+00 +0.0000000000e+00 +4.9999998884e+02 5.0000000000e+02 1.0566000000e-01 0.0000e+00 1.0000e+00
      994 -1    0    0    0    0 -0.0000000000e+00 -0.0000000000e+00 +0.0000000000e+00 1.3100000000e+02 1.3100000000e+02 0.0000e+00 0.0000e+00
       13  1    1    2    0    0 +1.8382622409e+01 -7.4303287544e-01 +2.3405458145e+01 2.9770783320e+01 1.0566000000e-01 0.0000e+00 -1.0000e+00
      994  1    1    2    0    0 +5.4883005439e+01 -4.0847857918e+00 +1.2069156236e+02 1.8643037034e+02 1.3100000000e+02 0.0000e+00 0.0000e+00
      997  1    1    2    0    0 -7.3265627848e+01 +4.8278186673e+00 +3.5590296833e+02 4.1479884634e+02 2.0000000000e+02 0.0000e+00 0.0000e+00
</event>
<event>
 5      1 +6.7420000e-10 2.33918700e+02 7.95774700e-02 4.52068500e-01
       13 -1    0    0    0    0 +0.0000000000e+00 +0.0000000000e+00 +4.9999998884e+02 5.0000000000e+02 1.0566000000e-01 0.0000e+00 1.0000e+00
      994 -1    0    0    0    0 -0.0000000000e+00 -0.0000000000e+00 +0.0000000000e+00 1.3100000000e+02 1.3100000000e+02 0.0000e+00 0.0000e+00
       13  1    1    2    0    0 -1.1473865444e+01 +8.8697654744e+00 +7.5931832574e+01 7.7304441592e+01 1.0566000000e-01 0.0000e+00 -1.0000e+00
      994  1    1    2    0    0 +1.1500481678e+01 -2.1836900984e+01 +7.9875726183e+01 1.5540348438e+02 1.3100000000e+02 0.0000e+00 0.0000e+00
      997  1    1    2    0    0 -2.6616233956e-02 +1.2967135510e+01 +3.4419243008e+02 3.9829207403e+02 2.0000000000e+02 0.0000e+00 0.0000e+00
</event>
<event>
 5      1 +6.7420000e-10 2.28448900e+02 7.95774700e-02 4.59157200e-01
       13 -1    0    0    0    0 +0.0000000000e+00 +0.0000000000e+00 +4.9999998884e+02 5.0000000000e+02 1.0566000000e-01 0.0000e+00 -1.0000e+00
      994 -1    0    0    0    0 -0.0000000000e+00 -0.0000000000e+00 +0.0000000000e+00 1.3100000000e+02 1.3100000000e+02 0.0000e+00 0.0000e+00
       13  1    1    2    0    0 +3.2400809400e+00 +1.1907032536e+01 +2.3620278983e+01 2.6649658376e+01 1.0566000000e-01 0.0000e+00 1.0000e+00
      994  1    1    2    0    0 +1.7951195553e+01 -2.2195132016e+01 +7.1018513557e+01 1.5172178016e+02 1.3100000000e+02 0.0000e+00 0.0000e+00
      997  1    1    2    0    0 -2.1191276493e+01 +1.0288099480e+01 +4.0536119630e+02 4.5262856146e+02 2.0000000000e+02 0.0000e+00 0.0000e+00
</event>
<event>
 5      1 +6.7420000e-10 2.27785800e+02 7.95774700e-02 4.60044500e-01
       13 -1    0    0    0    0 +0.0000000000e+00 +0.0000000000e+00 +4.9999998884e+02 5.0000000000e+02 1.0566000000e-01 0.0000e+00 1.0000e+00
      994 -1    0    0    0    0 -0.0000000000e+00 -0.0000000000e+00 +0.0000000000e+00 1.3100000000e+02 1.3100000000e+02 0.0000e+00 0.0000e+00
       13  1    1    2    0    0 -1.0952405841e+01 +3.4890935246e+00 +1.6128721624e+01 1.9805953463e+01 1.0566000000e-01 0.0000e+00 -1.0000e+00
      994  1    1    2    0    0 +2.0870821068e+01 -4.7833581014e+01 +9.0469852390e+01 1.6753935907e+02 1.3100000000e+02 0.0000e+00 0.0000e+00
      997  1    1    2    0    0 -9.9184152271e+00 +4.4344487490e+01 +3.9340141482e+02 4.4365468747e+02 2.0000000000e+02 0.0000e+00 0.0000e+00
</event>
<event>
 5      1 +6.7420000e-10 2.49738300e+02 7.95774700e-02 4.33634300e-01
       13 -1    0    0    0    0 +0.0000000000e+00 +0.0000000000e+00 +4.9999998884e+02 5.0000000000e+02 1.0566000000e-01 0.0000e+00 -1.0000e+00
      994 -1    0    0    0    0 -0.0000000000e+00 -0.0000000000e+00 +0.0000000000e+00 1.3100000000e+02 1.3100000000e+02 0.0000e+00 0.0000e+00
       13  1    1    2    0    0 -1.6645071800e+01 +1.6423826542e+01 -1.7124040730e+00 2.3446619911e+01 1.0566000000e-01 0.0000e+00 1.0000e+00
      994  1    1    2    0    0 +1.2315265794e+01 -1.4325541825e+01 +1.3053998201e+02 1.8589936477e+02 1.3100000000e+02 0.0000e+00 0.0000e+00
      997  1    1    2    0    0 +4.3298060065e+00 -2.0982847172e+00 +3.7117241090e+02 4.2165401531e+02 2.0000000000e+02 0.0000e+00 0.0000e+00
</event>
<event>
 5      1 +6.7420000e-10 2.29330000e+02 7.95774700e-02 4.57987600e-01
       13 -1    0    0    0    0 +0.0000000000e+00 +0.0000000000e+00 +4.9999998884e+02 5.0000000000e+02 1.0566000000e-01 0.0000e+00 -1.0000e+00
      994 -1    0    0    0    0 -0.0000000000e+00 -0.0000000000e+00 +0.0000000000e+00 1.3100000000e+02 1.3100000000e+02 0.0000e+00 0.0000e+00
       13  1    1    2    0    0 -1.4164455856e+01 +1.3012760610e-01 +2.5623274572e+01 2.9278184826e+01 1.0566000000e-01 0.0000e+00 1.0000e+00
      994  1    1    2    0    0 +2.1650379276e+01 +3.0692091352e+01 +7.9040819219e+01 1.5754108828e+02 1.3100000000e+02 0.0000e+00 0.0000e+00
      997  1    1    2    0    0 -7.4859234210e+00 -3.0822218958e+01 +3.9533589505e+02 4.4418072689e+02 2.0000000000e+02 0.0000e+00 0.0000e+00
</event>
<event>
 5      1 +6.7420000e-10 2.48923500e+02 7.95774700e-02 4.34516600e-01
       13 -1    0    0    0    0 +0.0000000000e+00 +0.0000000000e+00 +4.9999998884e+02 5.0000000000e+02 1.0566000000e-01 0.0000e+00 1.0000e+00
      994 -1    0    0    0    0 -0.0000000000e+00 -0.0000000000e+00 +0.0000000000e+00 1.3100000000e+02 1.3100000000e+02 0.0000e+00 0.0000e+00
       13  1    1    2    0    0 -7.6027538444e+00 -1.6068624328e+01 -5.0207089993e+00 1.8472174661e+01 1.0566000000e-01 0.0000e+00 -1.0000e+00
      994  1    1    2    0    0 +1.3210643068e+00 -2.9586695291e+01 +1.4164331794e+02 1.9519463944e+02 1.3100000000e+02 0.0000e+00 0.0000e+00
      997  1    1    2    0    0 +6.2816895376e+00 +4.5655319619e+01 +3.6337737990e+02 4.1733318590e+02 2.0000000000e+02 0.0000e+00 0.0000e+00
</event>
<event>
 5      1 +6.7420000e-10 2.48900300e+02 7.95774700e-02 4.34541800e-01
       13 -1    0    0    0    0 +0.0000000000e+00 +0.0000000000e+00 +4.9999998884e+02 5.0000000000e+02 1.0566000000e-01 0.0000e+00 1.0000e+00
      994 -1    0    0    0    0 -0.0000000000e+00 -0.0000000000e+00 +0.0000000000e+00 1.3100000000e+02 1.3100000000e+02 0.0000e+00 0.0000e+00
       13  1    1    2    0    0 -4.1615072708e+01 +1.2563146534e+01 +5.7992685738e+01 7.2476269844e+01 1.0566000000e-01 0.0000e+00 -1.0000e+00
      994  1    1    2    0    0 +1.7261825071e+00 -3.4483230652e+01 +1.5677746392e+02 2.0720097995e+02 1.3100000000e+02 0.0000e+00 0.0000e+00
      997  1    1    2    0    0 +3.9888890201e+01 +2.1920084119e+01 +2.8522983918e+02 3.5132275020e+02 2.0000000000e+02 0.0000e+00 0.0000e+00
</event>
<event>
 5      1 +6.7420000e-10 2.36761800e+02 7.95774700e-02 4.48539300e-01
       13 -1    0    0    0    0 +0.0000000000e+00 +0.0000000000e+00 +4.9999998884e+02 5.0000000000e+02 1.0566000000e-01 0.0000e+00 -1.0000e+00
      994 -1    0    0    0    0 -0.0000000000e+00 -0.0000000000e+00 +0.0000000000e+00 1.3100000000e+02 1.3100000000e+02 0.0000e+00 0.0000e+00
       13  1    1    2    0    0 +4.6666154107e-01 +1.6903687868e+01 +8.3361046218e+00 1.8853494128e+01 1.0566000000e-01 0.0000e+00 1.0000e+00
      994  1    1    2    0    0 -1.3241314958e+01 +9.3313170608e+00 +8.2158652428e+01 1.5547813373e+02 1.3100000000e+02 0.0000e+00 0.0000e+00
      997  1    1    2    0    0 +1.2774653417e+01 -2.6235004928e+01 +4.0950523179e+02 4.5666837214e+02 2.0000000000e+02 0.0000e+00 0.0000e+00
</event>
<event>
 5      1 +6.7420000e-10 2.43003700e+02 7.95774700e-02 4.41135100e-01
       13 -1    0    0    0    0 +0.0000000000e+00 +0.0000000000e+00 +4.9999998884e+02 5.0000000000e+02 1.0566000000e-01 0.0000e+00 -1.0000e+00
      994 -1    0    0    0    0 -0.0000000000e+00 -0.0000000000e+00 +0.0000000000e+00 1.3100000000e+02 1.3100000000e+02 0.0000e+00 0.0000e+00
       13  1    1    2    0    0 +2.1259843118e+01 -3.2142413991e+01 +5.7253632459e+01 6.9015254114e+01 1.0566000000e-01 0.0000e+00 1.0000e+00
      994  1    1    2    0    0 -1.3692147584e+01 +2.8155196017e+01 +1.1106387599e+02 1.7457483931e+02 1.3100000000e+02 0.0000e+00 0.0000e+00
      997  1    1    2    0    0 -7.5676955342e+00 +3.9872179735e+00 +3.3168248038e+02 3.8740990658e+02 2.0000000000e+02 0.0000e+00 0.0000e+00
</event>
<event>
 5      1 +6.7420000e-10 2.36196500e+02 7.95774700e-02 4.49233000e-01
       13 -1    0    0    0    0 +0.0000000000e+00 +0.0000000000e+00 +4.9999998884e+02 5.0000000000e+02 1.0566000000e-01 0.0000e+00 1.0000e+00
      994 -1    0    0    0    0 -0.0000000000e+00 -0.0000000000e+00 +0.0000000000e+00 1.3100000000e+02 1.3100000000e+02 0.0000e+00 0.0000e+00
       13  1    1    2    0    0 +2.4193959804e+00 +2.3525630458e+01 +3.3982129301e+01 4.1401751668e+01 1.0566000000e-01 0.0000e+00 -1.0000e+00
      994  1    1    2    0    0 -4.9081684674e+01 +1.1670627931e+00 +1.1046232950e+02 1.7825066632e+02 1.3100000000e+02 0.0000e+00 0.0000e+00
      997  1    1    2    0    0 +4.6662288694e+01 -2.4692693251e+01 +3.5555553003e+02 4.1134758201e+02 2.0000000000e+02 0.0000e+00 0.0000e+00
</event>
<event>
 5      1 +6.7420000e-10 2.39908700e+02 7.95774700e-02 4.44749200e-01
       13 -1    0    0    0    0 +0.0000000000e+00 +0.0000000000e+00 +4.9999998884e+02 5.0000000000e+02 1.0566000000e-01 0.0000e+00 1.0000e+00
      994 -1    0    0    0    0 -0.0000000000e+00 -0.0000000000e+00 +0.0000000000e+00 1.3100000000e+02 1.3100000000e+02 0.0000e+00 0.0000e+00
       13  1    1    2    0    0 +1.8634965469e+00 -2.9534778655e+01 +5.0629959602e+01 5.8644520144e+01 1.0566000000e-01 0.0000e+00 -1.0000e+00
      994  1    1    2    0    0 +3.9178417673e+00 +8.4930812539e-01 +8.6642122165e+01 1.5711119674e+02 1.3100000000e+02 0.0000e+00 0.0000e+00
      997  1    1    2    0    0 -5.7813383141e+00 +2.8685470530e+01 +3.6272790707e+02 4.1524428311e+02 2.0000000000e+02 0.0000e+00 0.0000e+00
</event>
<event>
 5      1 +6.7420000e-10 2.43567300e+02 7.95774700e-02 4.40488600e-01
       13 -1    0    0    0    0 +0.0000000000e+00 +0.0000000000e+00 +4.9999998884e+02 5.0000000000e+02 1.0566000000e-01 0.0000e+00 1.0000e+00
      994 -1    0    0    0    0 -0.0000000000e+00 -0.0000000000e+00 +0.0000000000e+00 1.3100000000e+02 1.3100000000e+02 0.0000e+00 0.0000e+00
       13  1    1    2    0    0 +1.8458111104e+01 +7.5399769523e+00 +4.3151145972e+00 2.0400600383e+01 1.0566000000e-01 0.0000e+00 -1.0000e+00
      994  1    1    2    0    0 +3.7328232026e+01 +1.6633991113e+01 +1.2805210216e+02 1.8769237447e+02 1.3100000000e+02 0.0000e+00 0.0000e+00
      997  1    1    2    0    0 -5.5786343130e+01 -2.4173968066e+01 +3.6763277208e+02 4.2290702515e+02 2.0000000000e+02 0.0000e+00 0.0000e+00
</event>
<event>
 5      1 +6.7420000e-10 2.43252000e+02 7.95774700e-02 4.40849800e-01
       13 -1    0    0    0    0 +0.0000000000e+00 +0.0000000000e+00 +4.9999998884e+02 5.0000000000e+02 1.0566000000e-01 0.0000e+00 1.0000e+00
      994 -1    0    0    0    0 -0.0000000000e+00 -0.0000000000e+00 +0.0000000000e+00 1.3100000000e+02 1.3100000000e+02 0.0000e+00 0.0000e+00
       13  1    1    2    0    0 -2.1103491764e+01 -5.2665102466e-01 +6.5523678131e+00 2.2103832562e+01 1.0566000000e-01 0.0000e+00 -1.0000e+00
      994  1    1    2    0    0 -2.7386439709e+01 +9.9912852671e+00 +1.0965068626e+02 1.7330353677e+02 1.3100000000e+02 0.0000e+00 0.0000e+00
      997  1    1    2    0    0 +4.8489931472e+01 -9.4646342425e+00 +3.8379693476e+02 4.3559263066e+02 2.0000000000e+02 0.0000e+00 0.0000e+00
</event>
<event>
 5      1 +6.7420000e-10 2.36327100e+02 7.95774700e-02 4.49072300e-01
       13 -1    0    0    0    0 +0.0000000000e+00 +0.0000000000e+00 +4.9999998884e+02 5.0000000000e+02 1.0566000000e-01 0.0000e+00 -1.0000e+00
      994 -1    0    0    0    0 -0.0000000000e+00 -0.0000000000e+00 +0.0000000000e+00 1.3100000000e+02 1.3100000000e+02 0.0000e+00 0.0000e+00
       13  1    1    2    0    0 -1.0013996524e+01 +1.0056533939e+01 +1.3904484077e+00 1.4260382606e+01 1.0566000000e-01 0.0000e+00 1.0000e+00
      994  1    1    2    0    0 +3.3302991380e+01 -2.2822102604e+01 +9.9015602514e+01 1.6910064205e+02 1.3100000000e+02 0.0000e+00 0.0000e+00
      997  1    1    2    0    0 -2.3288994856e+01 +1.2765568665e+01 +3.9959393791e+02 4.4763897534e+02 2.0000000000e+02 0.0000e+00 0.0000e+00
</event>
<event>
 5      1 +6.7420000e-10 2.51033200e+02 7.95774700e-02 4.32245900e-01
       13 -1    0    0    0    0 +0.0000000000e+00 +0.0000000000e+00 +4.9999998884e+02 5.0000000000e+02 1.0566000000e-01 0.0000e+00 1.0000e+00
      994 -1    0    0    0    0 -0.0000000000e+00 -0.0000000000e+00 +0.0000000000e+00 1.3100000000e+02 1.3100000000e+02 0.0000e+00 0.0000e+00
       13  1    1    2    0    0 +6.4231869988e+00 +3.3934184632e+01 +1.2918889660e+01 3.6874043607e+01 1.0566000000e-01 0.0000e+00 -1.0000e+00
      994  1    1    2    0    0 -2.5271152538e+01 +8.6523280970e-01 +1.5562471197e+02 2.0498641602e+02 1.3100000000e+02 0.0000e+00 0.0000e+00
      997  1    1    2    0    0 +1.8847965539e+01 -3.4799417442e+01 +3.3145638721e+02 3.8913954037e+02 2.0000000000e+02 0.0000e+00 0.0000e+00
</event>
<event>
 5      1 +6.7420000e-10 2.38759000e+02 7.95774700e-02 4.46120100e-01
       13 -1    0    0    0    0 +0.0000000000e+00 +0.0000000000e+00 +4.9999998884e+02 5.0000000000e+02 1.0566000000e-01 0.0000e+00 1.0000e+00
      994 -1    0    0    0    0 -0.0000000000e+00 -0.0000000000e+00 +0.0000000000e+00 1.3100000000e+02 1.3100000000e+02 0.0000e+00 0.0000e+00
       13  1    1    2    0    0 +2.9580641934e+01 +2.0570325767e-01 +4.8036049493e+01 5.6413915890e+01 1.0566000000e-01 0.0000e+00 -1.0000e+00
      994  1    1    2    0    0 -1.4890832223e+01 +8.8557356109e+00 +8.7468575817e+01 1.5846738684e+02 1.3100000000e+02 0.0000e+00 0.0000e+00
      997  1    1    2    0    0 -1.4689809711e+01 -9.0614388686e+00 +3.6449536353e+02 4.1611869727e+02 2.0000000000e+02 0.0000e+00 0.0000e+00
</event>
<event>
 5      1 +6.7420000e-10 2.34805300e+02 7.95774700e-02 4.50957100e-01
       13 -1    0    0    0    0 +0.0000000000e+00 +0.0000000000e+00 +4.9999998884e+02 5.0000000000e+02 1.0566000000e-01 0.0000e+00 -1.0000e+00
      994 -1    0    0    0    0 -0.0000000000e+00 -0.0000000000e+00 +0.0000000000e+00 1.3100000000e+02 1.3100000000e+02 0.0000e+00 0.0000e+00
       13  1    1    2    0    0 +8.7479519613e+00 +8.7453153704e+00 +3.7308983507e+00 1.2920447786e+01 1.0566000000e-01 0.0000e+00 1.0000e+00
      994  1    1    2    0    0 +4.2599521275e+01 +4.3307392528e+00 +9.7469875141e+01 1.6880417967e+02 1.3100000000e+02 0.0000e+00 0.0000e+00
      997  1    1    2    0    0 -5.1347473236e+01 -1.3076054623e+01 +3.9879921534e+02 4.4927537254e+02 2.0000000000e+02 0.0000e+00 0.0000e+00
</event>
<event>
 5      1 +6.7420000e-10 2.47044600e+02 7.95774700e-02 4.36576900e-01
       13 -1    0    0    0    0 +0.0000000000e+00 +0.0000000000e+00 +4.9999998884e+02 5.0000000000e+02 1.0566000000e-01 0.0000e+00 1.0000e+00
      994 -1    0    0    0    0 -0.0000000000e+00 -0.0000000000e+00 +0.0000000000e+00 1.3100000000e+02 1.3100000000e+02 0.0000e+00 0.0000e+00
       13  1    1    2    0    0 -3.6273939540e+01 -4.7005891292e+00 +1.7023952690e+01 4.0345016509e+01 1.0566000000e-01 0.0000e+00 -1.0000e+00
      994  1    1    2    0    0 +3.4128869340e+01 -2.5250786555e+01 +1.9013741631e+02 2.3476715917e+02 1.3100000000e+02 0.0000e+00 0.0000e+00
      997  1    1    2    0    0 +2.1450701996e+00 +2.9951375684e+01 +2.9283861984e+02 3.5588782432e+02 2.0000000000e+02 0.0000e+00 0.0000e+00
</event>
<event>
 5      1 +6.7420000e-10 2.42070500e+02 7.95774700e-02 4.42213300e-01
       13 -1    0    0    0    0 +0.0000000000e+00 +0.0000000000e+00 +4.9999998884e+02 5.0000000000e+02 1.0566000000e-01 0.0000e+00 1.0000e+00
      994 -1    0    0    0    0 -0.0000000000e+00 -0.0000000000e+00 +0.0000000000e+00 1.3100000000e+02 1.3100000000e+02 0.0000e+00 0.0000e+00
       13  1    1    2    0    0 -2.4866910069e+01 -7.5008636230e+00 +2.2259459803e+01 3.4207029778e+01 1.0566000000e-01 0.0000e+00 -1.0000e+00
      994  1    1    2    0    0 -2.3022851269e+01 -1.9379524087e+01 +1.0628116598e+02 1.7135432261e+02 1.3100000000e+02 0.0000e+00 0.0000e+00
      997  1    1    2    0    0 +4.7889761338e+01 +2.6880387710e+01 +3.7145936305e+02 4.2543864761e+02 2.0000000000e+02 0.0000e+00 0.0000e+00
</event>
<event>
 5      1 +6.7420000e-10 2.31307900e+02 7.95774700e-02 4.55401600e-01
       13 -1    0    0    0    0 +0.0000000000e+00 +0.0000000000e+00 +4.9999998884e+02 5.0000000000e+02 1.0566000000e-01 0.0000e+00 1.0000e+00
      994 -1    0    0    0    0 -0.0000000000e+00 -0.0000000000e+00 +0.0000000000e+00 1.3100000000e+02 1.3100000000e+02 0.0000e+00 0.0000e+00
       13  1    1    2    0    0 -1.6248679680e+01 -6.9908488016e-01 +1.4091193423e+01 2.1519321716e+01 1.0566000000e-01 0.0000e+00 -1.0000e+00
      994  1    1    2    0    0 +4.4048199004e+01 +1.6762675055e+00 +8.9668423480e+01 1.6475581895e+02 1.3100000000e+02 0.0000e+00 0.0000e+00
      997  1    1    2    0    0 -2.7799519324e+01 -9.7718262532e-01 +3.9624037193e+02 4.4472485933e+02 2.0000000000e+02 0.0000e+00 0.0000e+00
</event>
<event>
 5      1 +6.7420000e-10 2.41604400e+02 7.95774700e-02 4.42755500e-01
       13 -1    0    0    0    0 +0.0000000000e+00 +0.0000000000e+00 +4.9999998884e+02 5.0000000000e+02 1.0566000000e-01 0.0000e+00 1.0000e+00
      994 -1    0    0    0    0 -0.0000000000e+00 -0.0000000000e+00 +0.0000000000e+00 1.3100000000e+02 1.3100000000e+02 0.0000e+00 0.0000e+00
       13  1    1    2    0    0 +2.1608324451e+01 +2.0262821354e+01 +8.4748258859e+01 8.9776278373e+01 1.0566000000e-01 0.0000e+00 -1.0000e+00
      994  1    1    2    0    0 -3.7604728650e+01 -4.3150889329e+01 +2.0266378020e+02 2.4801153738e+02 1.3100000000e+02 0.0000e+00 0.0000e+00
      997  1    1    2    0    0 +1.5996404199e+01 +2.2888067975e+01 +2.1258794978e+02 2.9321218425e+02 2.0000000000e+02 0.0000e+00 0.0000e+00
</event>
<event>
 5      1 +6.7420000e-10 2.43241100e+02 7.95774700e-02 4.40862400e-01
       13 -1    0    0    0    0 +0.0000000000e+00 +0.0000000000e+00 +4.9999998884e+02 5.0000000000e+02 1.0566000000e-01 0.0000e+00 -1.0000e+00
      994 -1    0    0    0    0 -0.0000000000e+00 -0.0000000000e+00 +0.0000000000e+00 1.3100000000e+02 1.3100000000e+02 0.0000e+00 0.0000e+00
       13  1    1    2    0    0 +2.1744099012e+01 -3.0288411064e+01 +7.7509115551e+01 8.6010858874e+01 1.0566000000e-01 0.0000e+00 1.0000e+00
      994  1    1    2    0    0 -8.9528264493e-03 +3.4363548262e+01 +1.1584634981e+02 1.7821961254e+02 1.3100000000e+02 0.0000e+00 0.0000e+00
      997  1    1    2    0    0 -2.1735146185e+01 -4.0751371983e+00 +3.0664452347e+02 3.6676952859e+02 2.0000000000e+02 0.0000e+00 0.0000e+00
</event>
<event>
 5      1 +6.7420000e-10 2.49171900e+02 7.95774700e-02 4.34246900e-01
       13 -1    0    0    0    0 +0.0000000000e+00 +0.0000000000e+00 +4.9999998884e+02 5.0000000000e+02 1.0566000000e-01 0.0000e+00 1.0000e+00
      994 -1    0    0    0    0 -0.0000000000e+00 -0.0000000000e+00 +0.0000000000e+00 1.3100000000e+02 1.3100000000e+02 0.0000e+00 0.0000e+00
       13  1    1    2    0    0 -1.1146684684e+01 -8.1832860626e+00 -9.5944798184e+00 1.6830922650e+01 1.0566000000e-01 0.0000e+00 -1.0000e+00
      994  1    1    2    0    0 -2.3306073399e+01 -2.6847722959e+01 +1.7848468751e+02 2.2423594038e+02 1.3100000000e+02 0.0000e+00 0.0000e+00
      997  1    1    2    0    0 +3.4452758083e+01 +3.5031009022e+01 +3.3110978115e+02 3.8993313697e+02 2.0000000000e+02 0.0000e+00 0.0000e+00
</event>
<event>
 5      1 +6.7420000e-10 2.35111400e+02 7.95774700e-02 4.50575600e-01
       13 -1    0    0    0    0 +0.0000000000e+00 +0.0000000000e+00 +4.9999998884e+02 5.0000000000e+02 1.0566000000e-01 0.0000e+00 1.0000e+00
      994 -1    0    0    0    0 -0.0000000000e+00 -0.0000000000e+00 +0.0000000000e+00 1.3100000000e+02 1.3100000000e+02 0.0000e+00 0.0000e+00
       13  1    1    2    0    0 +5.0930355478e+00 +1.2916477555e+01 +1.7946711959e+00 1.4000229007e+01 1.0566000000e-01 0.0000e+00 -1.0000e+00
      994  1    1    2    0    0 -3.9888417587e-01 -5.0201260780e+01 +1.0846636260e+02 1.7733098293e+02 1.3100000000e+02 0.0000e+00 0.0000e+00
      997  1    1    2    0    0 -4.6941513719e+00 +3.7284783225e+01 +3.8973895504e+02 4.3966878806e+02 2.0000000000e+02 0.0000e+00 0.0000e+00
</event>
<event>
 5      1 +6.7420000e-10 2.37868900e+02 7.95774700e-02 4.47192300e-01
       13 -1    0    0    0    0 +0.0000000000e+00 +0.0000000000e+00 +4.9999998884e+02 5.0000000000e+02 1.0566000000e-01 0.0000e+00 -1.0000e+00
      994 -1    0    0    0    0 -0.0000000000e+00 -0.0000000000e+00 +0.0000000000e+00 1.3100000000e+02 1.3100000000e+02 0.0000e+00 0.0000e+00
       13  1    1    2    0    0 +1.5732582884e+01 +1.9007293858e+01 +2.9281933851e+01 3.8291437660e+01 1.0566000000e-01 0.0000e+00 1.0000e+00
      994  1    1    2    0    0 +2.5135678655e+01 -1.6982721130e+01 +9.3450737154e+01 1.6375058911e+02 1.3100000000e+02 0.0000e+00 0.0000e+00
      997  1    1    2    0    0 -4.0868261539e+01 -2.0245727283e+00 +3.7726731783e+02 4.2895797323e+02 2.0000000000e+02 0.0000e+00 0.0000e+00
</event>
<event>
 5      1 +6.7420000e-10 2.30489900e+02 7.95774700e-02 4.56464500e-01
       13 -1    0    0    0    0 +0.0000000000e+00 +0.0000000000e+00 +4.9999998884e+02 5.0000000000e+02 1.0566000000e-01 0.0000e+00 -1.0000e+00
      994 -1    0    0    0    0 -0.0000000000e+00 -0.0000000000e+00 +0.0000000000e+00 1.3100000000e+02 1.3100000000e+02 0.0000e+00 0.0000e+00
       13  1    1    2    0    0 +1.8509824948e+00 +1.1081515247e+01 +5.4013137007e+00 1.2466413682e+01 1.0566000000e-01 0.0000e+00 1.0000e+00
      994  1    1    2    0    0 -1.0073319483e+01 -3.5313119185e+01 +8.0824586853e+01 1.5824696519e+02 1.3100000000e+02 0.0000e+00 0.0000e+00
      997  1    1    2    0    0 +8.2223369882e+00 +2.4231603938e+01 +4.1377408828e+02 4.6028662113e+02 2.0000000000e+02 0.0000e+00 0.0000e+00
</event>
<event>
 5      1 +6.7420000e-10 2.34668000e+02 7.95774700e-02 4.51128500e-01
       13 -1    0    0    0    0 +0.0000000000e+00 +0.0000000000e+00 +4.9999998884e+02 5.0000000000e+02 1.0566000000e-01 0.0000e+00 -1.0000e+00
      994 -1    0    0    0    0 -0.0000000000e+00 -0.0000000000e+00 +0.0000000000e+00 1.3100000000e+02 1.3100000000e+02 0.0000e+00 0.0000e+00
       13  1    1    2    0    0 -7.9217874126e+00 +1.9405466411e+01 +4.3999407764e+00 2.1417224034e+01 1.0566000000e-01 0.0000e+00 1.0000e+00
      994  1    1    2    0    0 +3.9001812676e+01 -4.6012899177e+01 +2.6424379028e+02 3.0103838457e+02 1.3100000000e+02 0.0000e+00 0.0000e+00
      997  1    1    2    0    0 -3.1080025263e+01 +2.6607432765e+01 +2.3135625778e+02 3.0854439140e+02 2.0000000000e+02 0.0000e+00 0.0000e+00
</event>
<event>
 5      1 +6.7420000e-10 2.37200000e+02 7.95774700e-02 4.48004300e-01
       13 -1    0    0    0    0 +0.0000000000e+00 +0.0000000000e+00 +4.9999998884e+02 5.0000000000e+02 1.0566000000e-01 0.0000e+00 1.0000e+00
      994 -1    0    0    0    0 -0.0000000000e+00 -0.0000000000e+00 +0.0000000000e+00 1.3100000000e+02 1.3100000000e+02 0.0000e+00 0.0000e+00
       13  1    1    2    0    0 +1.8577203360e+01 -2.0568591095e+01 +2.2917681845e+01 3.5964019929e+01 1.0566000000e-01 0.0000e+00 -1.0000e+00
      994  1    1    2    0    0 -1.8420793496e+01 +5.4313554685e+01 +1.3120510130e+02 1.9407489910e+02 1.3100000000e+02 0.0000e+00 0.0000e+00
      997  1    1    2    0    0 -1.5640986368e-01 -3.3744963590e+01 +3.4587720569e+02 4.0096108097e+02 2.0000000000e+02 0.0000e+00 0.0000e+00
</event>
<event>
 5      1 +6.7420000e-10 2.37740500e+02 7.95774700e-02 4.47347800e-01
       13 -1    0    0    0    0 +0.0000000000e+00 +0.0000000000e+00 +4.9999998884e+02 5.0000000000e+02 1.0566000000e-01 0.0000e+00 1.0000e+00
      994 -1    0    0    0    0 -0.0000000000e+00 -0.0000000000e+00 +0.0000000000e+00 1.3100000000e+02 1.3100000000e+02 0.0000e+00 0.0000e+00
       13  1    1    2    0    0 +2.0196052696e+01 -1.2392798152e+01 +1.7155982025e+01 2.9254074482e+01 1.0566000000e-01 0.0000e+00 -1.0000e+00
      994  1    1    2    0    0 -1.1495491197e+00 +4.5144872712e+01 +1.0986366780e+02 1.7683440417e+02 1.3100000000e+02 0.0000e+00 0.0000e+00
      997  1    1    2    0    0 -1.9046503576e+01 -3.2752074560e+01 +3.7298033901e+02 4.2491152135e+02 2.0000000000e+02 0.0000e+00 0.0000e+00
</event>
<event>
 5      1 +6.7420000e-10 2.35667200e+02 7.95774700e-02 4.49886000e-01
       13 -1    0    0    0    0 +0.0000000000e+00 +0.0000000000e+00 +4.9999998884e+02 5.0000000000e+02 1.0566000000e-01 0.0000e+00 -1.0000e+00
      994 -1    0    0    0    0 -0.0000000000e+00 -0.0000000000e+00 +0.0000000000e+00 1.3100000000e+02 1.3100000000e+02 0.0000e+00 0.0000e+00
       13  1    1    2    0    0 -1.2962088038e+01 +1.4829001129e+01 +7.1540843023e+01 7.4202549722e+01 1.0566000000e-01 0.0000e+00 1.0000e+00
      994  1    1    2    0    0 +5.3861840982e+01 +7.6757954846e+00 +1.1778201340e+02 1.8437358387e+02 1.3100000000e+02 0.0000e+00 0.0000e+00
      997  1    1    2    0    0 -4.0899752944e+01 -2.2504796613e+01 +3.1067713242e+02 3.7242386641e+02 2.0000000000e+02 0.0000e+00 0.0000e+00
</event>
<event>
 5      1 +6.7420000e-10 2.44025000e+02 7.95774700e-02 4.39966200e-01
       13 -1    0    0    0    0 +0.0000000000e+00 +0.0000000000e+00 +4.9999998884e+02 5.0000000000e+02 1.0566000000e-01 0.0000e+00 1.0000e+00
      994 -1    0    0    0    0 -0.0000000000e+00 -0.0000000000e+00 +0.0000000000e+00 1.3100000000e+02 1.3100000000e+02 0.0000e+00 0.0000e+00
       13  1    1    2    0    0 +5.3418687689e+00 +2.1514630212e+01 +1.1435129852e+00 2.2197604850e+01 1.0566000000e-01 0.0000e+00 -1.0000e+00
      994  1    1    2    0    0 +7.6637789992e+00 -4.2314670152e+01 +1.3549699644e+02 1.9331244363e+02 1.3100000000e+02 0.0000e+00 0.0000e+00
      997  1    1    2    0    0 -1.3005647768e+01 +2.0800039939e+01 +3.6335947941e+02 4.1548995151e+02 2.0000000000e+02 0.0000e+00 0.0000e+00
</event>
<event>
 5      1 +6.7420000e-10 2.34089600e+02 7.95774700e-02 4.51853500e-01
       13 -1    0    0    0    0 +0.0000000000e+00 +0.0000000000e+00 +4.9999998884e+02 5.0000000000e+02 1.0566000000e-01 0.0000e+00 1.0000e+00
      994 -1    0    0    0    0 -0.0000000000e+00 -0.0000000000e+00 +0.0000000000e+00 1.3100000000e+02 1.3100000000e+02 0.0000e+00 0.0000e+00
       13  1    1    2    0    0 +1.3995646386e+01 +4.8895660128e+00 +4.3212004138e+00 1.5442471000e+01 1.0566000000e-01 0.0000e+00 -1.0000e+00
      994  1    1    2    0    0 -3.1175323629e+01 -4.5672554155e+01 +1.1346599056e+02 1.8191595317e+02 1.3100000000e+02 0.0000e+00 0.0000e+00
      997  1    1    2    0    0 +1.7179677243e+01 +4.0782988142e+01 +3.8221279787e+02 4.3364157583e+02 2.0000000000e+02 0.0000e+00 0.0000e+00
</event>
<event>
 5      1 +6.7420000e-10 2.28507300e+02 7.95774700e-02 4.59079200e-01
       13 -1    0    0    0    0 +0.0000000000e+00 +0.0000000000e+00 +4.9999998884e+02 5.0000000000e+02 1.0566000000e-01 0.0000e+00 1.0000e+00
      994 -1    0    0    0    0 -0.0000000000e+00 -0.0000000000e+00 +0.0000000000e+00 1.3100000000e+02 1.3100000000e+02 0.0000e+00 0.0000e+00
       13  1    1    2    0    0 +9.0128823244e+00 +1.2726995058e+01 +1.4803319429e+01 2.1502508718e+01 1.0566000000e-01 0.0000e+00 -1.0000e+00
      994  1    1    2    0    0 -6.6969195124e+01 -5.1221410981e+01 +1.8031411786e+02 2.3829118141e+02 1.3100000000e+02 0.0000e+00 0.0000e+00
      997  1    1    2    0    0 +5.7956312800e+01 +3.8494415923e+01 +3.0488255155e+02 3.7120630987e+02 2.0000000000e+02 0.0000e+00 0.0000e+00
</event>
<event>
 5      1 +6.7420000e-10 2.35397200e+02 7.95774700e-02 4.50220500e-01
       13 -1    0    0    0    0 +0.0000000000e+00 +0.0000000000e+00 +4.9999998884e+02 5.0000000000e+02 1.0566000000e-01 0.0000e+00 -1.0000e+00
      994 -1    0    0    0    0 -0.0000000000e+00 -0.0000000000e+00 +0.0000000000e+00 1.3100000000e+02 1.3100000000e+02 0.0000e+00 0.0000e+00
       13  1    1    2    0    0 -2.5488943622e+01 -7.5441852546e+00 +2.6539612813e+01 3.7562789971e+01 1.0566000000e-01 0.0000e+00 1.0000e+00
      994  1    1    2    0    0 +5.9218092696e+01 -2.7994935439e+00 +1.2702095912e+02 1.9185917680e+02 1.3100000000e+02 0.0000e+00 0.0000e+00
      997  1    1    2    0    0 -3.3729149074e+01 +1.0343678798e+01 +3.4643941690e+02 4.0157803323e+02 2.0000000000e+02 0.0000e+00 0.0000e+00
</event>
<event>
 5      1 +6.7420000e-10 2.36624500e+02 7.95774700e-02 4.48707400e-01
       13 -1    0    0    0    0 +0.0000000000e+00 +0.0000000000e+00 +4.9999998884e+02 5.0000000000e+02 1.0566000000e-01 0.0000e+00 -1.0000e+00
      994 -1    0    0    0    0 -0.0000000000e+00 -0.0000000000e+00 +0.0000000000e+00 1.3100000000e+02 1.3100000000e+02 0.0000e+00 0.0000e+00
       13  1    1    2    0    0 -2.2384041537e+01 +6.3520258127e+00 +3.6142998288e+01 4.2985125761e+01 1.0566000000e-01 0.0000e+00 1.0000e+00
      994  1    1    2    0    0 -8.4240817851e+00 +9.5483136489e+00 +8.0632603618e+01 1.5435268774e+02 1.3100000000e+02 0.0000e+00 0.0000e+00
      997  1    1    2    0    0 +3.0808123322e+01 -1.5900339462e+01 +3.8322438693e+02 4.3366218650e+02 2.0000000000e+02 0.0000e+00 0.0000e+00
</event>
<event>
 5      1 +6.7420000e-10 2.32198300e+02 7.95774700e-02 4.54254700e-01
       13 -1    0    0    0    0 +0.0000000000e+00 +0.0000000000e+00 +4.9999998884e+02 5.0000000000e+02 1.0566000000e-01 0.0000e+00 1.0000e+00
      994 -1    0    0    0    0 -0.0000000000e+00 -0.0000000000e+00 +0.0000000000e+00 1.3100000000e+02 1.3100000000e+02 0.0000e+00 0.0000e+00
       13  1    1    2    0    0 +1.2723849966e+01 -2.5563424004e+00 +6.3166977617e+00 1.4434094328e+01 1.0566000000e-01 0.0000e+00 -1.0000e+00
      994  1    1    2    0    0 -2.6911891515e+01 -5.0278751614e+00 +7.7775424313e+01 1.5478871425e+02 1.3100000000e+02 0.0000e+00 0.0000e+00
      997  1    1    2    0    0 +1.4188041549e+01 +7.5842175618e+00 +4.1590786676e+02 4.6177719142e+02 2.0000000000e+02 0.0000e+00 0.0000e+00
</event>
<event>
 5      1 +6.7420000e-10 2.36511400e+02 7.95774700e-02 4.48846100e-01
       13 -1    0    0    0    0 +0.0000000000e+00 +0.0000000000e+00 +4.9999998884e+02 5.0000000000e+02 1.0566000000e-01 0.0000e+00 -1.0000e+00
      994 -1    0    0    0    0 -0.0000000000e+00 -0.0000000000e+00 +0.0000000000e+00 1.3100000000e+02 1.3100000000e+02 0.0000e+00 0.0000e+00
       13  1    1    2    0    0 +2.5300430031e+01 +6.7284803897e+00 +4.1481378346e+01 4.9052014451e+01 1.0566000000e-01 0.0000e+00 1.0000e+00
      994  1    1    2    0    0 -1.3328132597e+01 -1.7245648552e+01 +8.4182768952e+01 1.5723482471e+02 1.3100000000e+02 0.0000e+00 0.0000e+00
      997  1    1    2    0    0 -1.1972297434e+01 +1.0517168163e+01 +3.7433584154e+02 4.2471316084e+02 2.0000000000e+02 0.0000e+00 0.0000e+00
</event>
<event>
 5      1 +6.7420000e-10 2.41801300e+02 7.95774700e-02 4.42526100e-01
       13 -1    0    0    0    0 +0.0000000000e+00 +0.0000000000e+00 +4.9999998884e+02 5.0000000000e+02 1.0566000000e-01 0.0000e+00 -1.0000e+00
      994 -1    0    0    0    0 -0.0000000000e+00 -0.0000000000e+00 +0.0000000000e+00 1.3100000000e+02 1.3100000000e+02 0.0000e+00 0.0000e+00
       13  1    1    2    0    0 +1.8439837668e+01 -2.8056103741e+01 +6.4957397927e+01 7.3120771876e+01 1.0566000000e-01 0.0000e+00 1.0000e+00
      994  1    1    2    0    0 -1.1077106676e+01 +5.5729320908e+00 +9.3645799871e+01 1.6150633331e+02 1.3100000000e+02 0.0000e+00 0.0000e+00
      997  1    1    2    0    0 -7.3627309922e+00 +2.2483171650e+01 +3.4139679104e+02 3.9637289482e+02 2.0000000000e+02 0.0000e+00 0.0000e+00
</event>
<event>
 5      1 +6.7420000e-10 2.36057800e+02 7.95774700e-02 4.49403700e-01
       13 -1    0    0    0    0 +0.0000000000e+00 +0.0000000000e+00 +4.9999998884e+02 5.0000000000e+02 1.0566000000e-01 0.0000e+00 -1.0000e+00
      994 -1    0    0    0    0 -0.0000000000e+00 -0.0000000000e+00 +0.0000000000e+00 1.3100000000e+02 1.3100000000e+02 0.0000e+00 0.0000e+00
       13  1    1    2    0    0 -2.9333744966e+00 +9.5991395184e+00 -4.7057104289e+00 1.1086164355e+01 1.0566000000e-01 0.0000e+00 1.0000e+00
      994  1    1    2    0    0 +5.7307232705e+00 -6.9061069485e+01 +1.7042981627e+02 2.2585303802e+02 1.3100000000e+02 0.0000e+00 0.0000e+00
      997  1    1    2    0    0 -2.7973487739e+00 +5.9461929966e+01 +3.3427588299e+02 3.9406079763e+02 2.0000000000e+02 0.0000e+00 0.0000e+00
</event>
<event>
 5      1 +6.7420000e-10 2.34860600e+02 7.95774700e-02 4.50888100e-01
       13 -1    0    0    0    0 +0.0000000000e+00 +0.0000000000e+00 +4.9999998884e+02 5.0000000000e+02 1.0566000000e-01 0.0000e+00 -1.0000e+00
      994 -1    0    0    0    0 -0.0000000000e+00 -0.0000000000e+00 +0.0000000000e+00 1.3100000000e+02 1.3100000000e+02 0.0000e+00 0.0000e+00
       13  1    1    2    0    0 -1.6741873024e+01 +1.5070221916e+01 +6.1117780576e+01 6.5136749746e+01 1.0566000000e-01 0.0000e+00 1.0000e+00
      994  1    1    2    0    0 +1.8353466086e+01 -7.0016792877e+01 +1.7721110272e+02 2.3195684066e+02 1.3100000000e+02 0.0000e+00 0.0000e+00
      997  1    1    2    0    0 -1.6115930616e+00 +5.4946570961e+01 +2.6167110554e+02 3.3390640959e+02 2.0000000000e+02 0.0000e+00 0.0000e+00
</event>
<event>
 5      1 +6.7420000e-10 2.46613600e+02 7.95774700e-02 4.37054700e-01
       13 -1    0    0    0    0 +0.0000000000e+00 +0.0000000000e+00 +4.9999998884e+02 5.0000000000e+02 1.0566000000e-01 0.0000e+00 1.0000e+00
      994 -1    0    0    0    0 -0.0000000000e+00 -0.0000000000e+00 +0.0000000000e+00 1.3100000000e+02 1.3100000000e+02 0.0000e+00 0.0000e+00
       13  1    1    2    0    0 -8.5634811918e+00 -3.4719553969e+01 +9.7177647870e+01 1.0354847680e+02 1.0566000000e-01 0.0000e+00 -1.0000e+00
      994  1    1    2    0    0 -7.7103316182e+00 +8.9952654968e+00 +1.0959438111e+02 1.7120833036e+02 1.3100000000e+02 0.0000e+00 0.0000e+00
      997  1    1    2    0    0 +1.6273812810e+01 +2.5724288472e+01 +2.9322795986e+02 3.5624319284e+02 2.0000000000e+02 0.0000e+00 0.0000e+00
</event>
<event>
 5      1 +6.7420000e-10 2.39010200e+02 7.95774700e-02 4.45819300e-01
       13 -1    0    0    0    0 +0.0000000000e+00 +0.0000000000e+00 +4.9999998884e+02 5.0000000000e+02 1.0566000000e-01 0.0000e+00 1.0000e+00
      994 -1    0    0    0    0 -0.0000000000e+00 -0.0000000000e+00 +0.0000000000e+00 1.3100000000e+02 1.3100000000e+02 0.0000e+00 0.0000e+00
       13  1    1    2    0    0 -3.0701800730e+01 +1.3005500278e+01 +3.4941970042e+01 4.8297992091e+01 1.0566000000e-01 0.0000e+00 -1.0000e+00
      994  1    1    2    0    0 +4.8178396879e+01 -2.2579540746e+01 +1.3049713111e+02 1.9240970561e+02 1.3100000000e+02 0.0000e+00 0.0000e+00
      997  1    1    2    0    0 -1.7476596149e+01 +9.5740404688e+00 +3.3456088769e+02 3.9029230230e+02 2.0000000000e+02 0.0000e+00 0.0000e+00
</event>
<event>
 5      1 +6.7420000e-10 2.32766600e+02 7.95774700e-02 4.53528300e-01
       13 -1    0    0    0    0 +0.0000000000e+00 +0.0000000000e+00 +4.9999998884e+02 5.0000000000e+02 1.0566000000e-01 0.0000e+00 -1.0000e+00
      994 -1    0    0    0    0 -0.0000000000e+00 -0.0000000000e+00 +0.0000000000e+00 1.3100000000e+02 1.3100000000e+02 0.0000e+00 0.0000e+00
       13  1    1    2    0    0 -1.0382594451e+01 +7.5614483841e+00 +8.2482517355e+00 1.5264946443e+01 1.0566000000e-01 0.0000e+00 1.0000e+00
      994  1    1    2    0    0 -1.6006085588e+01 +1.7802282633e+01 +7.7002032654e+01 1.5382922049e+02 1.3100000000e+02 0.0000e+00 0.0000e+00
      997  1    1    2    0    0 +2.6388680039e+01 -2.5363731017e+01 +4.1474970445e+02 4.6190583307e+02 2.0000000000e+02 0.0000e+00 0.0000e+00
</event>
<event>
 5      1 +6.7420000e-10 2.28691300e+02 7.95774700e-02 4.58834300e-01
       13 -1    0    0    0    0 +0.0000000000e+00 +0.0000000000e+00 +4.9999998884e+02 5.0000000000e+02 1.0566000000e-01 0.0000e+00 -1.0000e+00
      994 -1    0    0    0    0 -0.0000000000e+00 -0.0000000000e+00 +0.0000000000e+00 1.3100000000e+02 1.3100000000e+02 0.0000e+00 0.0000e+00
       13  1    1    2    0    0 +4.8444003982e+00 -1.0894679542e+01 +1.0580249598e+01 1.5940988148e+01 1.0566000000e-01 0.0000e+00 1.0000e+00
      994  1    1    2    0    0 -3.2070473229e+01 +3.5555155750e+01 +8.7566011458e+01 1.6468603680e+02 1.3100000000e+02 0.0000e+00 0.0000e+00
      997  1    1    2    0    0 +2.7226072831e+01 -2.4660476208e+01 +4.0185372778e+02 4.5037297505e+02 2.0000000000e+02 0.0000e+00 0.0000e+00
</event>
<event>
 5      1 +6.7420000e-10 2.45164700e+02 7.95774700e-02 4.38675500e-01
       13 -1    0    0    0    0 +0.0000000000e+00 +0.0000000000e+00 +4.9999998884e+02 5.0000000000e+02 1.0566000000e-01 0.0000e+00 -1.0000e+00
      994 -1    0    0    0    0 -0.0000000000e+00 -0.0000000000e+00 +0.0000000000e+00 1.3100000000e+02 1.3100000000e+02 0.0000e+00 0.0000e+00
       13  1    1    2    0    0 -1.1752502894e+01 +3.4557513472e+01 +5.8434594345e+01 6.8898157029e+01 1.0566000000e-01 0.0000e+00 1.0000e+00
      994  1    1    2    0    0 +1.5753063831e+01 +7.4746174312e+00 +1.0702962760e+02 1.7005990154e+02 1.3100000000e+02 0.0000e+00 0.0000e+00
      997  1    1    2    0    0 -4.0005609371e+00 -4.2032130904e+01 +3.3453576689e+02 3.9204194144e+02 2.0000000000e+02 0.0000e+00 0.0000e+00
</event>
<event>
 5      1 +6.7420000e-10 2.48668800e+02 7.95774700e-02 4.34793700e-01
       13 -1    0    0    0    0 +0.0000000000e+00 +0.0000000000e+00 +4.9999998884e+02 5.0000000000e+02 1.0566000000e-01 0.0000e+00 -1.0000e+00
      994 -1    0    0    0    0 -0.0000000000e+00 -0.0000000000e+00 +0.0000000000e+00 1.3100000000e+02 1.3100000000e+02 0.0000e+00 0.0000e+00
       13  1    1    2    0    0 -9.0906217605e+00 +2.4102944953e+01 -3.6224555708e+00 2.6013932955e+01 1.0566000000e-01 0.0000e+00 1.0000e+00
      994  1    1    2    0    0 +5.2383144776e+00 -3.2126128652e+01 +2.0734448242e+02 2.4741112035e+02 1.3100000000e+02 0.0000e+00 0.0000e+00
      997  1    1    2    0    0 +3.8523072829e+00 +8.0231836994e+00 +2.9627796199e+02 3.5757494670e+02 2.0000000000e+02 0.0000e+00 0.0000e+00
</event>
<event>
 5      1 +6.7420000e-10 2.40137900e+02 7.95774700e-02 4.44477800e-01
       13 -1    0    0    0    0 +0.0000000000e+00 +0.0000000000e+00 +4.9999998884e+02 5.0000000000e+02 1.0566000000e-01 0.0000e+00 1.0000e+00
      994 -1    0    0    0    0 -0.0000000000e+00 -0.0000000000e+00 +0.0000000000e+00 1.3100000000e+02 1.3100000000e+02 0.0000e+00 0.0000e+00
       13  1    1    2    0    0 -2.5831726278e+01 +6.9485471656e+00 +2.8252355495e+01 3.8907160591e+01 1.0566000000e-01 0.0000e+00 -1.0000e+00
      994  1    1    2    0    0 -6.6048381960e+00 +2.9249064241e-02 +8.7593473325e+01 1.5772520823e+02 1.3100000000e+02 0.0000e+00 0.0000e+00
      997  1    1    2    0    0 +3.2436564474e+01 -6.9777962298e+00 +3.8415416002e+02 4.3436763118e+02 2.0000000000e+02 0.0000e+00 0.0000e+00
</event>
<event>
 5      1 +6.7420000e-10 2.32698000e+02 7.95774700e-02 4.53615700e-01
       13 -1    0    0    0    0 +0.0000000000e+00 +0.0000000000e+00 +4.9999998884e+02 5.0000000000e+02 1.0566000000e-01 0.0000e+00 1.0000e+00
      994 -1    0    0    0    0 -0.0000000000e+00 -0.0000000000e+00 +0.0000000000e+00 1.3100000000e+02 1.3100000000e+02 0.0000e+00 0.0000e+00
       13  1    1    2    0    0 -7.8496868819e+00 -1.4511614658e+01 +2.7811464227e+00 1.6731720880e+01 1.0566000000e-01 0.0000e+00 -1.0000e+00
      994  1    1    2    0    0 -5.2166415324e+00 +1.4338460882e+01 +3.2232585729e+02 3.4826392734e+02 1.3100000000e+02 0.0000e+00 0.0000e+00
      997  1    1    2    0    0 +1.3066328414e+01 +1.7315377629e-01 +1.7489298513e+02 2.6600435178e+02 2.0000000000e+02 0.0000e+00 0.0000e+00
</event>
<event>
 5      1 +6.7420000e-10 2.39109600e+02 7.95774700e-02 4.45700400e-01
       13 -1    0    0    0    0 +0.0000000000e+00 +0.0000000000e+00 +4.9999998884e+02 5.0000000000e+02 1.0566000000e-01 0.0000e+00 -1.0000e+00
      994 -1    0    0    0    0 -0.0000000000e+00 -0.0000000000e+00 +0.0000000000e+00 1.3100000000e+02 1.3100000000e+02 0.0000e+00 0.0000e+00
       13  1    1    2    0    0 +1.2870408091e+01 -1.5091777355e+01 +7.4263124628e+00 2.1179481320e+01 1.0566000000e-01 0.0000e+00 1.0000e+00
      994  1    1    2    0    0 -2.4036387982e+01 +3.7662169634e+00 +9.2323174012e+01 1.6210028006e+02 1.3100000000e+02 0.0000e+00 0.0000e+00
      997  1    1    2    0    0 +1.1165979891e+01 +1.1325560391e+01 +4.0025050236e+02 4.4772023861e+02 2.0000000000e+02 0.0000e+00 0.0000e+00
</event>
<event>
 5      1 +6.7420000e-10 2.36827000e+02 7.95774700e-02 4.48459600e-01
       13 -1    0    0    0    0 +0.0000000000e+00 +0.0000000000e+00 +4.9999998884e+02 5.0000000000e+02 1.0566000000e-01 0.0000e+00 -1.0000e+00
      994 -1    0    0    0    0 -0.0000000000e+00 -0.0000000000e+00 +0.0000000000e+00 1.3100000000e+02 1.3100000000e+02 0.0000e+00 0.0000e+00
       13  1    1    2    0    0 -2.0555616941e+01 -4.9033406791e-01 +2.3551934597e+00 2.0696181184e+01 1.0566000000e-01 0.0000e+00 1.0000e+00
      994  1    1    2    0    0 +6.8190744158e+01 -1.0992110807e+00 +2.1020605618e+02 2.5690226139e+02 1.3100000000e+02 0.0000e+00 0.0000e+00
      997  1    1    2    0    0 -4.7635127217e+01 +1.5895451486e+00 +2.8743873920e+02 3.5340155743e+02 2.0000000000e+02 0.0000e+00 0.0000e+00
</event>
<event>
 5      1 +6.7420000e-10 2.45342200e+02 7.95774700e-02 4.38475700e-01
       13 -1    0    0    0    0 +0.0000000000e+00 +0.0000000000e+00 +4.9999998884e+02 5.0000000000e+02 1.0566000000e-01 0.0000e+00 1.0000e+00
      994 -1    0    0    0    0 -0.0000000000e+00 -0.0000000000e+00 +0.0000000000e+00 1.3100000000e+02 1.3100000000e+02 0.0000e+00 0.0000e+00
       13  1    1    2    0    0 +1.6586890522e+01 +2.6396569327e+01 +1.5829565378e+01 3.4964126094e+01 1.0566000000e-01 0.0000e+00 -1.0000e+00
      994  1    1    2    0    0 +1.7364125355e+01 -3.4876206879e+01 +1.3487329374e+02 1.9201475990e+02 1.3100000000e+02 0.0000e+00 0.0000e+00
      997  1    1    2    0    0 -3.3951015877e+01 +8.4796375519e+00 +3.4929712972e+02 4.0402111400e+02 2.0000000000e+02 0.0000e+00 0.0000e+00
</event>
<event>
 5      1 +6.7420000e-10 2.36060600e+02 7.95774700e-02 4.49400300e-01
       13 -1    0    0    0    0 +0.0000000000e+00 +0.0000000000e+00 +4.9999998884e+02 5.0000000000e+02 1.0566000000e-01 0.0000e+00 1.0000e+00
      994 -1    0    0    0    0 -0.0000000000e+00 -0.0000000000e+00 +0.0000000000e+00 1.3100000000e+02 1.3100000000e+02 0.0000e+00 0.0000e+00
       13  1    1    2    0    0 +2.1401192477e+01 -2.1926702648e+00 +2.3321857825e+01 3.1729151561e+01 1.0566000000e-01 0.0000e+00 -1.0000e+00
      994  1    1    2    0    0 +1.2836592449e+00 +7.8517848255e-01 +7.7503350389e+01 1.5221706083e+02 1.3100000000e+02 0.0000e+00 0.0000e+00
      997  1    1    2    0    0 -2.2684851722e+01 +1.4074917823e+00 +3.9917478062e+02 4.4705378761e+02 2.0000000000e+02 0.0000e+00 0.0000e+00
</event>
<event>
 5      1 +6.7420000e-10 2.41511900e+02 7.95774700e-02 4.42863400e-01
       13 -1    0    0    0    0 +0.0000000000e+00 +0.0000000000e+00 +4.9999998884e+02 5.0000000000e+02 1.0566000000e-01 0.0000e+00 -1.0000e+00
      994 -1    0    0    0    0 -0.0000000000e+00 -0.0000000000e+00 +0.0000000000e+00 1.3100000000e+02 1.3100000000e+02 0.0000e+00 0.0000e+00
       13  1    1    2    0    0 -2.1420610412e+01 +3.3017550867e+01 +3.6318080925e+01 5.3553854967e+01 1.0566000000e-01 0.0000e+00 1.0000e+00
      994  1    1    2    0    0 +2.4006871058e+01 -5.1570622185e+01 +2.0753604501e+02 2.5192869806e+02 1.3100000000e+02 0.0000e+00 0.0000e+00
      997  1    1    2    0    0 -2.5862606459e+00 +1.8553071318e+01 +2.5614586290e+02 3.2551744697e+02 2.0000000000e+02 0.0000e+00 0.0000e+00
</event>
<event>
 5      1 +6.7420000e-10 2.41400400e+02 7.95774700e-02 4.42993600e-01
       13 -1    0    0    0    0 +0.0000000000e+00 +0.0000000000e+00 +4.9999998884e+02 5.0000000000e+02 1.0566000000e-01 0.0000e+00 -1.0000e+00
      994 -1    0    0    0    0 -0.0000000000e+00 -0.0000000000e+00 +0.0000000000e+00 1.3100000000e+02 1.3100000000e+02 0.0000e+00 0.0000e+00
       13  1    1    2    0    0 -2.0965306294e+01 +2.5274054655e+00 -7.7285375095e-01 2.1131500499e+01 1.0566000000e-01 0.0000e+00 1.0000e+00
      994  1    1    2    0    0 +3.0195541883e+01 -4.7942745845e+01 +2.1105288591e+02 2.5478343407e+02 1.3100000000e+02 0.0000e+00 0.0000e+00
      997  1    1    2    0    0 -9.2302355893e+00 +4.5415340379e+01 +2.8971995668e+02 3.5508506543e+02 2.0000000000e+02 0.0000e+00 0.0000e+00
</event>
<event>
 5      1 +6.7420000e-10 2.47445700e+02 7.95774700e-02 4.36134000e-01
       13 -1    0    0    0    0 +0.0000000000e+00 +0.0000000000e+00 +4.9999998884e+02 5.0000000000e+02 1.0566000000e-01 0.0000e+00 1.0000e+00
      994 -1    0    0    0    0 -0.0000000000e+00 -0.0000000000e+00 +0.0000000000e+00 1.3100000000e+02 1.3100000000e+02 0.0000e+00 0.0000e+00
       13  1    1    2    0    0 -1.9720269604e+01 +2.8812382750e+01 +2.1139199416e+01 4.0815675285e+01 1.0566000000e-01 0.0000e+00 -1.0000e+00
      994  1    1    2    0    0 +1.1119371595e+01 +2.6375475779e+01 +2.2824176232e+02 2.6471608983e+02 1.3100000000e+02 0.0000e+00 0.0000e+00
      997  1    1    2    0    0 +8.6008980086e+00 -5.5187858529e+01 +2.5061902710e+02 3.2546823489e+02 2.0000000000e+02 0.0000e+00 0.0000e+00
</event>
<event>
 5      1 +6.7420000e-10 2.36771100e+02 7.95774700e-02 4.48528000e-01
       13 -1    0    0    0    0 +0.0000000000e+00 +0.0000000000e+00 +4.9999998884e+02 5.0000000000e+02 1.0566000000e-01 0.0000e+00 1.0000e+00
      994 -1    0    0    0    0 -0.0000000000e+00 -0.0000000000e+00 +0.0000000000e+00 1.3100000000e+02 1.3100000000e+02 0.0000e+00 0.0000e+00
       13  1    1    2    0    0 +1.1147548397e+00 -2.3639492380e+01 +2.1582909245e+01 3.2029695813e+01 1.0566000000e-01 0.0000e+00 -1.0000e+00
      994  1    1    2    0    0 -1.5910685502e+01 +2.2585455319e+01 +8.8462590206e+01 1.6046769946e+02 1.3100000000e+02 0.0000e+00 0.0000e+00
      997  1    1    2    0    0 +1.4795930663e+01 +1.0540370609e+00 +3.8995448938e+02 4.3850260472e+02 2.0000000000e+02 0.0000e+00 0.0000e+00
</event>
<event>
 5      1 +6.7420000e-10 2.34010000e+02 7.95774700e-02 4.51953600e-01
       13 -1    0    0    0    0 +0.0000000000e+00 +0.0000000000e+00 +4.9999998884e+02 5.0000000000e+02 1.0566000000e-01 0.0000e+00 -1.0000e+00
      994 -1    0    0    0    0 -0.0000000000e+00 -0.0000000000e+00 +0.0000000000e+00 1.3100000000e+02 1.3100000000e+02 0.0000e+00 0.0000e+00
       13  1    1    2    0    0 +1.3124666890e+01 +2.0679914894e+00 +7.7596633414e+01 7.8725994125e+01 1.0566000000e-01 0.0000e+00 1.0000e+00
      994  1    1    2    0    0 -2.4584020002e+01 -2.3097032437e+01 +8.6374441753e+01 1.6049732439e+02 1.3100000000e+02 0.0000e+00 0.0000e+00
      997  1    1    2    0    0 +1.1459353112e+01 +2.1029040947e+01 +3.3602891367e+02 3.9177668149e+02 2.0000000000e+02 0.0000e+00 0.0000e+00
</event>
<event>
 5      1 +6.7420000e-10 2.31022100e+02 7.95774700e-02 4.55771900e-01
       13 -1    0    0    0    0 +0.0000000000e+00 +0.0000000000e+00 +4.9999998884e+02 5.0000000000e+02 1.0566000000e-01 0.0000e+00 1.0000e+00
      994 -1    0    0    0    0 -0.0000000000e+00 -0.0000000000e+00 +0.0000000000e+00 1.3100000000e+02 1.3100000000e+02 0.0000e+00 0.0000e+00
       13  1    1    2    0    0 -1.3276305027e+01 -9.5888062456e+00 +3.2541465381e+01 3.6430256842e+01 1.0566000000e-01 0.0000e+00 -1.0000e+00
      994  1    1    2    0    0 +2.2509236613e+00 +9.8533349013e+00 +6.8551901482e+01 1.4819756429e+02 1.3100000000e+02 0.0000e+00 0.0000e+00
      997  1    1    2    0    0 +1.1025381366e+01 -2.6452865567e-01 +3.9890662197e+02 4.4637217886e+02 2.0000000000e+02 0.0000e+00 0.0000e+00
</event>
<event>
 5      1 +6.7420000e-10 2.35188400e+02 7.95774700e-02 4.50479900e-01
       13 -1    0    0    0    0 +0.0000000000e+00 +0.0000000000e+00 +4.9999998884e+02 5.0000000000e+02 1.0566000000e-01 0.0000e+00 -1.0000e+00
      994 -1    0    0    0    0 -0.0000000000e+00 -0.0000000000e+00 +0.0000000000e+00 1.3100000000e+02 1.3100000000e+02 0.0000e+00 0.0000e+00
       13  1    1    2    0    0 -1.9294080676e+01 -1.0963010206e+01 +1.4755760892e+01 2.6649442498e+01 1.0566000000e-01 0.0000e+00 1.0000e+00
      994  1    1    2    0    0 +2.0722772216e+01 +6.1561191106e+01 +1.4166858832e+02 2.0359322792e+02 1.3100000000e+02 0.0000e+00 0.0000e+00
      997  1    1    2    0    0 -1.4286915398e+00 -5.0598180899e+01 +3.4357563962e+02 4.0075732958e+02 2.0000000000e+02 0.0000e+00 0.0000e+00
</event>
<event>
 5      1 +6.7420000e-10 2.40216700e+02 7.95774700e-02 4.44384600e-01
       13 -1    0    0    0    0 +0.0000000000e+00 +0.0000000000e+00 +4.9999998884e+02 5.0000000000e+02 1.0566000000e-01 0.0000e+00 1.0000e+00
      994 -1    0    0    0    0 -0.0000000000e+00 -0.0000000000e+00 +0.0000000000e+00 1.3100000000e+02 1.3100000000e+02 0.0000e+00 0.0000e+00
       13  1    1    2    0    0 +3.2834771206e+01 -6.3967314826e+00 +7.2045982067e+01 7.9433463162e+01 1.0566000000e-01 0.0000e+00 -1.0000e+00
      994  1    1    2    0    0 -5.8177629893e+01 -1.9522757022e+01 +1.8243597015e+02 2.3282967565e+02 1.3100000000e+02 0.0000e+00 0.0000e+00
      997  1    1    2    0    0 +2.5342858687e+01 +2.5919488505e+01 +2.4551803662e+02 3.1873686118e+02 2.0000000000e+02 0.0000e+00 0.0000e+00
</event>
<event>
 5      1 +6.7420000e-10 2.43475900e+02 7.95774700e-02 4.40593300e-01
       13 -1    0    0    0    0 +0.0000000000e+00 +0.0000000000e+00 +4.9999998884e+02 5.0000000000e+02 1.0566000000e-01 0.0000e+00 -1.0000e+00
      994 -1    0    0    0    0 -0.0000000000e+00 -0.0000000000e+00 +0.0000000000e+00 1.3100000000e+02 1.3100000000e+02 0.0000e+00 0.0000e+00
       13  1    1    2    0    0 -1.6628559322e+01 +2.0809872492e+01 +1.2021045418e+01 2.9224586828e+01 1.0566000000e-01 0.0000e+00 1.0000e+00
      994  1    1    2    0    0 +3.7424772084e+01 +1.7302231944e+01 +1.2826857912e+02 1.8791968812e+02 1.3100000000e+02 0.0000e+00 0.0000e+00
      997  1    1    2    0    0 -2.0796212762e+01 -3.8112104437e+01 +3.5971036430e+02 4.1385572505e+02 2.0000000000e+02 0.0000e+00 0.0000e+00
</event>
<event>
 5      1 +6.7420000e-10 2.28882400e+02 7.95774700e-02 4.58580300e-01
       13 -1    0    0    0    0 +0.0000000000e+00 +0.0000000000e+00 +4.9999998884e+02 5.0000000000e+02 1.0566000000e-01 0.0000e+00 1.0000e+00
      994 -1    0    0    0    0 -0.0000000000e+00 -0.0000000000e+00 +0.0000000000e+00 1.3100000000e+02 1.3100000000e+02 0.0000e+00 0.0000e+00
       13  1    1    2    0    0 +5.5868373705e+00 -1.0919115636e+01 +1.5455473930e+01 1.9731261402e+01 1.0566000000e-01 0.0000e+00 -1.0000e+00
      994  1    1    2    0    0 -1.5877745638e+01 +1.3097555448e+01 +6.7881744117e+01 1.4897174212e+02 1.3100000000e+02 0.0000e+00 0.0000e+00
      997  1    1    2    0    0 +1.0290908267e+01 -2.1784398119e+00 +4.1666277079e+02 4.6229699648e+02 2.0000000000e+02 0.0000e+00 0.0000e+00
</event>
<event>
 5      1 +6.7420000e-10 2.44017900e+02 7.95774700e-02 4.39974400e-01
       13 -1    0    0    0    0 +0.0000000000e+00 +0.0000000000e+00 +4.9999998884e+02 5.0000000000e+02 1.0566000000e-01 0.0000e+00 -1.0000e+00
      994 -1    0    0    0    0 -0.0000000000e+00 -0.0000000000e+00 +0.0000000000e+00 1.3100000000e+02 1.3100000000e+02 0.0000e+00 0.0000e+00
       13  1    1    2    0    0 +3.4686178761e+01 +2.4966617695e+01 +4.3427225865e+01 6.0929451881e+01 1.0566000000e-01 0.0000e+00 1.0000e+00
      994  1    1    2    0    0 -3.3711074340e+01 -3.4368298668e+01 +2.1472475708e+02 2.5609634474e+02 1.3100000000e+02 0.0000e+00 0.0000e+00
      997  1    1    2    0    0 -9.7510442100e-01 +9.4016809726e+00 +2.4184800590e+02 3.1397420338e+02 2.0000000000e+02 0.0000e+00 0.0000e+00
</event>
<event>
 5      1 +6.7420000e-10 2.38751900e+02 7.95774700e-02 4.46128700e-01
       13 -1    0    0    0    0 +0.0000000000e+00 +0.0000000000e+00 +4.9999998884e+02 5.0000000000e+02 1.0566000000e-01 0.0000e+00 1.0000e+00
      994 -1    0    0    0    0 -0.0000000000e+00 -0.0000000000e+00 +0.0000000000e+00 1.3100000000e+02 1.3100000000e+02 0.0000e+00 0.0000e+00
       13  1    1    2    0    0 -1.7549027334e+01 -1.8173037559e+01 +8.7201163401e+01 9.0787012932e+01 1.0566000000e-01 0.0000e+00 -1.0000e+00
      994  1    1    2    0    0 +2.0087445528e+01 +1.2461635182e+01 +9.0901913250e+01 1.6119229402e+02 1.3100000000e+02 0.0000e+00 0.0000e+00
      997  1    1    2    0    0 -2.5384181940e+00 +5.7114023776e+00 +3.2189691218e+02 3.7902069305e+02 2.0000000000e+02 0.0000e+00 0.0000e+00
</event>
<event>
 5      1 +6.7420000e-10 2.41294000e+02 7.95774700e-02 4.43118000e-01
       13 -1    0    0    0    0 +0.0000000000e+00 +0.0000000000e+00 +4.9999998884e+02 5.0000000000e+02 1.0566000000e-01 0.0000e+00 -1.0000e+00
      994 -1    0    0    0    0 -0.0000000000e+00 -0.0000000000e+00 +0.0000000000e+00 1.3100000000e+02 1.3100000000e+02 0.0000e+00 0.0000e+00
       13  1    1    2    0    0 -2.6005719322e+01 +1.6670178312e+01 +5.8497624478e+01 6.6152668246e+01 1.0566000000e-01 0.0000e+00 1.0000e+00
      994  1    1    2    0    0 -1.9723161306e+01 -3.0149955521e+01 +1.1022491034e+02 1.7495300446e+02 1.3100000000e+02 0.0000e+00 0.0000e+00
      997  1    1    2    0    0 +4.5728880628e+01 +1.3479777209e+01 +3.3127745401e+02 3.8989432729e+02 2.0000000000e+02 0.0000e+00 0.0000e+00
</event>
<event>
 5      1 +6.7420000e-10 2.31647300e+02 7.95774700e-02 4.54963100e-01
       13 -1    0    0    0    0 +0.0000000000e+00 +0.0000000000e+00 +4.9999998884e+02 5.0000000000e+02 1.0566000000e-01 0.0000e+00 -1.0000e+00
      994 -1    0    0    0    0 -0.0000000000e+00 -0.0000000000e+00 +0.0000000000e+00 1.3100000000e+02 1.3100000000e+02 0.0000e+00 0.0000e+00
       13  1    1    2    0    0 +9.7695670907e+00 +1.1602037874e+01 +5.1030337945e+00 1.6003244731e+01 1.0566000000e-01 0.0000e+00 1.0000e+00
      994  1    1    2    0    0 -6.2992843305e+01 -4.4189398345e+01 +1.6591009456e+02 2.2496213172e+02 1.3100000000e+02 0.0000e+00 0.0000e+00
      997  1    1    2    0    0 +5.3223276214e+01 +3.2587360471e+01 +3.2898686048e+02 3.9003462354e+02 2.0000000000e+02 0.0000e+00 0.0000e+00
</event>
<event>
 5      1 +6.7420000e-10 2.35059900e+02 7.95774700e-02 4.50639600e-01
       13 -1    0    0    0    0 +0.0000000000e+00 +0.0000000000e+00 +4.9999998884e+02 5.0000000000e+02 1.0566000000e-01 0.0000e+00 1.0000e+00
      994 -1    0    0    0    0 -0.0000000000e+00 -0.0000000000e+00 +0.0000000000e+00 1.3100000000e+02 1.3100000000e+02 0.0000e+00 0.0000e+00
       13  1    1    2    0    0 +2.1294620497e+00 -2.3302045172e+01 +3.2546696936e+01 4.0085141428e+01 1.0566000000e-01 0.0000e+00 -1.0000e+00
      994  1    1    2    0    0 +1.0965331427e+01 +1.9936715305e+01 +8.1342227301e+01 1.5586939742e+02 1.3100000000e+02 0.0000e+00 0.0000e+00
      997  1    1    2    0    0 -1.3094793477e+01 +3.3653298672e+00 +3.8611106460e+02 4.3504546115e+02 2.0000000000e+02 0.0000e+00 0.0000e+00
</event>
<event>
 5      1 +6.7420000e-10 2.32369400e+02 7.95774700e-02 4.54035600e-01
       13 -1    0    0    0    0 +0.0000000000e+00 +0.0000000000e+00 +4.9999998884e+02 5.0000000000e+02 1.0566000000e-01 0.0000e+00 1.0000e+00
      994 -1    0    0    0    0 -0.0000000000e+00 -0.0000000000e+00 +0.0000000000e+00 1.3100000000e+02 1.3100000000e+02 0.0000e+00 0.0000e+00
       13  1    1    2    0    0 +9.8191313909e+00 -2.3783367908e+00 +1.8090842024e+00 1.0264296218e+01 1.0566000000e-01 0.0000e+00 -1.0000e+00
      994  1    1    2    0    0 -2.0158008389e+01 +2.3681910641e+00 +7.4414830103e+01 1.5202144773e+02 1.3100000000e+02 0.0000e+00 0.0000e+00
      997  1    1    2    0    0 +1.0338876998e+01 +1.0145726704e-02 +4.2377607453e+02 4.6871425605e+02 2.0000000000e+02 0.0000e+00 0.0000e+00
</event>
<event>
 5      1 +6.7420000e-10 2.29694100e+02 7.95774700e-02 4.57507500e-01
       13 -1    0    0    0    0 +0.0000000000e+00 +0.0000000000e+00 +4.9999998884e+02 5.0000000000e+02 1.0566000000e-01 0.0000e+00 1.0000e+00
      994 -1    0    0    0    0 -0.0000000000e+00 -0.0000000000e+00 +0.0000000000e+00 1.3100000000e+02 1.3100000000e+02 0.0000e+00 0.0000e+00
       13  1    1    2    0    0 -1.1549145828e+01 +6.7547648760e+00 +4.1984796188e+01 4.4065223168e+01 1.0566000000e-01 0.0000e+00 -1.0000e+00
      994  1    1    2    0    0 +2.4982229744e+01 +7.7221923665e+00 +7.2038788241e+01 1.5177065286e+02 1.3100000000e+02 0.0000e+00 0.0000e+00
      997  1    1    2    0    0 -1.3433083916e+01 -1.4476957243e+01 +3.8597640441e+02 4.3516412397e+02 2.0000000000e+02 0.0000e+00 0.0000e+00
</event>
<event>
 5      1 +6.7420000e-10 2.39272500e+02 7.95774700e-02 4.45505900e-01
       13 -1    0    0    0    0 +0.0000000000e+00 +0.0000000000e+00 +4.9999998884e+02 5.0000000000e+02 1.0566000000e-01 0.0000e+00 -1.0000e+00
      994 -1    0    0    0    0 -0.0000000000e+00 -0.0000000000e+00 +0.0000000000e+00 1.3100000000e+02 1.3100000000e+02 0.0000e+00 0.0000e+00
       13  1    1    2    0    0 -3.7373972136e+00 -2.8543165984e+01 +2.9432497832e+01 4.1169935086e+01 1.0566000000e-01 0.0000e+00 1.0000e+00
      994  1    1    2    0    0 +4.6422692108e+01 +1.5420244236e+01 +1.2243003098e+02 1.8585737209e+02 1.3100000000e+02 0.0000e+00 0.0000e+00
      997  1    1    2    0    0 -4.2685294894e+01 +1.3122921748e+01 +3.4813746002e+02 4.0397269282e+02 2.0000000000e+02 0.0000e+00 0.0000e+00
</event>
<event>
 5      1 +6.7420000e-10 2.32603200e+02 7.95774700e-02 4.53736600e-01
       13 -1    0    0    0    0 +0.0000000000e+00 +0.0000000000e+00 +4.9999998884e+02 5.0000000000e+02 1.0566000000e-01 0.0000e+00 1.0000e+00
      994 -1    0    0    0    0 -0.0000000000e+00 -0.0000000000e+00 +0.0000000000e+00 1.3100000000e+02 1.3100000000e+02 0.0000e+00 0.0000e+00
       13  1    1    2    0    0 +8.4321176436e+00 -1.3016618884e+01 +1.1449082833e+01 1.9277594167e+01 1.0566000000e-01 0.0000e+00 -1.0000e+00
      994  1    1    2    0    0 -3.2207798090e+00 +2.2807792940e+01 +7.6190721481e+01 1.5328599049e+02 1.3100000000e+02 0.0000e+00 0.0000e+00
      997  1    1    2    0    0 -5.2113378347e+00 -9.7911740565e+00 +4.1236018452e+02 4.5843641534e+02 2.0000000000e+02 0.0000e+00 0.0000e+00
</event>
<event>
 5      1 +6.7420000e-10 2.37035500e+02 7.95774700e-02 4.48204900e-01
       13 -1    0    0    0    0 +0.0000000000e+00 +0.0000000000e+00 +4.9999998884e+02 5.0000000000e+02 1.0566000000e-01 0.0000e+00 -1.0000e+00
      994 -1    0    0    0    0 -0.0000000000e+00 -0.0000000000e+00 +0.0000000000e+00 1.3100000000e+02 1.3100000000e+02 0.0000e+00 0.0000e+00
       13  1    1    2    0    0 -1.1378861154e+01 -2.4722528752e+01 +3.5697357444e+01 4.4888689016e+01 1.0566000000e-01 0.0000e+00 1.0000e+00
      994  1    1    2    0    0 +1.8369641937e+01 +1.9822074675e+01 +8.8707293711e+01 1.6050028768e+02 1.3100000000e+02 0.0000e+00 0.0000e+00
      997  1    1    2    0    0 -6.9907807828e+00 +4.9004540768e+00 +3.7559533768e+02 4.2561102330e+02 2.0000000000e+02 0.0000e+00 0.0000e+00
</event>
<event>
 5      1 +6.7420000e-10 2.35743500e+02 7.95774700e-02 4.49791600e-01
       13 -1    0    0    0    0 +0.0000000000e+00 +0.0000000000e+00 +4.9999998884e+02 5.0000000000e+02 1.0566000000e-01 0.0000e+00 1.0000e+00
      994 -1    0    0    0    0 -0.0000000000e+00 -0.0000000000e+00 +0.0000000000e+00 1.3100000000e+02 1.3100000000e+02 0.0000e+00 0.0000e+00
       13  1    1    2    0    0 -1.9491613936e+01 -6.8048994748e+00 +1.8743461425e+01 2.7884730246e+01 1.0566000000e-01 0.0000e+00 -1.0000e+00
      994  1    1    2    0    0 +6.5508141539e-01 +2.2626186416e+01 +8.2839928277e+01 1.5663916228e+02 1.3100000000e+02 0.0000e+00 0.0000e+00
      997  1    1    2    0    0 +1.8836532520e+01 -1.5821286941e+01 +3.9841659913e+02 4.4647610747e+02 2.0000000000e+02 0.0000e+00 0.0000e+00
</event>
<event>
 5      1 +6.7420000e-10 2.39625500e+02 7.95774700e-02 4.45085400e-01
       13 -1    0    0    0    0 +0.0000000000e+00 +0.0000000000e+00 +4.9999998884e+02 5.0000000000e+02 1.0566000000e-01 0.0000e+00 -1.0000e+00
      994 -1    0    0    0    0 -0.0000000000e+00 -0.0000000000e+00 +0.0000000000e+00 1.3100000000e+02 1.3100000000e+02 0.0000e+00 0.0000e+00
       13  1    1    2    0    0 +5.8281587635e+00 +1.2049435985e+01 -9.2041985497e-01 1.3416954903e+01 1.0566000000e-01 0.0000e+00 1.0000e+00
      994  1    1    2    0    0 +4.0886340835e+01 +3.2462876927e+00 +1.1068924680e+02 1.7633870990e+02 1.3100000000e+02 0.0000e+00 0.0000e+00
      997  1    1    2    0    0 -4.6714499599e+01 -1.5295723678e+01 +3.9023116189e+02 4.4124433520e+02 2.0000000000e+02 0.0000e+00 0.0000e+00
</event>
<event>
 5      1 +6.7420000e-10 2.42030300e+02 7.95774700e-02 4.42260000e-01
       13 -1    0    0    0    0 +0.0000000000e+00 +0.0000000000e+00 +4.9999998884e+02 5.0000000000e+02 1.0566000000e-01 0.0000e+00 -1.0000e+00
      994 -1    0    0    0    0 -0.0000000000e+00 -0.0000000000e+00 +0.0000000000e+00 1.3100000000e+02 1.3100000000e+02 0.0000e+00 0.0000e+00
       13  1    1    2    0    0 -1.1320248353e+01 -1.7403760783e+01 +8.1897547316e+00 2.2318650469e+01 1.0566000000e-01 0.0000e+00 1.0000e+00
      994  1    1    2    0    0 -1.3033787963e+01 -2.7936070511e+01 +1.0689813913e+02 1.7186772767e+02 1.3100000000e+02 0.0000e+00 0.0000e+00
      997  1    1    2    0    0 +2.4354036315e+01 +4.5339831295e+01 +3.8491209498e+02 4.3681362186e+02 2.0000000000e+02 0.0000e+00 0.0000e+00
</event>
<event>
 5      1 +6.7420000e-10 2.48235700e+02 7.95774700e-02 4.35266600e-01
       13 -1    0    0    0    0 +0.0000000000e+00 +0.0000000000e+00 +4.9999998884e+02 5.0000000000e+02 1.0566000000e-01 0.0000e+00 1.0000e+00
      994 -1    0    0    0    0 -0.0000000000e+00 -0.0000000000e+00 +0.0000000000e+00 1.3100000000e+02 1.3100000000e+02 0.0000e+00 0.0000e+00
       13  1    1    2    0    0 -1.3429880255e+00 -1.4417526758e+01 -7.7837493086e+00 1.6439787468e+01 1.0566000000e-01 0.0000e+00 -1.0000e+00
      994  1    1    2    0    0 +3.9898118343e-02 -3.7973050281e+01 +1.6299439509e+02 2.1253264919e+02 1.3100000000e+02 0.0000e+00 0.0000e+00
      997  1    1    2    0    0 +1.3030899072e+00 +5.2390577039e+01 +3.4478934306e+02 4.0202756335e+02 2.0000000000e+02 0.0000e+00 0.0000e+00
</event>
<event>
 5      1 +6.7420000e-10 2.47674300e+02 7.95774700e-02 4.35882300e-01
       13 -1    0    0    0    0 +0.0000000000e+00 +0.0000000000e+00 +4.9999998884e+02 5.0000000000e+02 1.0566000000e-01 0.0000e+00 1.0000e+00
      994 -1    0    0    0    0 -0.0000000000e+00 -0.0000000000e+00 +0.0000000000e+00 1.3100000000e+02 1.3100000000e+02 0.0000e+00 0.0000e+00
       13  1    1    2    0    0 -9.8399271561e+00 +2.5376810147e+01 +7.5608745838e+00 2.8248622058e+01 1.0566000000e-01 0.0000e+00 -1.0000e+00
      994  1    1    2    0    0 -7.5668015345e+00 -9.0438607386e+00 +1.1403875456e+02 1.7408298436e+02 1.3100000000e+02 0.0000e+00 0.0000e+00
      997  1    1    2    0    0 +1.7406728691e+01 -1.6332949409e+01 +3.7840035969e+02 4.2866839358e+02 2.0000000000e+02 0.0000e+00 0.0000e+00
</event>
<event>
 5      1 +6.7420000e-10 2.43950200e+02 7.95774700e-02 4.40051500e-01
       13 -1    0    0    0    0 +0.0000000000e+00 +0.0000000000e+00 +4.9999998884e+02 5.0000000000e+02 1.0566000000e-01 0.0000e+00 -1.0000e+00
      994 -1    0    0    0    0 -0.0000000000e+00 -0.0000000000e+00 +0.0000000000e+00 1.3100000000e+02 1.3100000000e+02 0.0000e+00 0.0000e+00
       13  1    1    2    0    0 +3.0593393267e+01 -1.6558841197e+01 +2.5800610798e+01 4.3310894876e+01 1.0566000000e-01 0.0000e+00 1.0000e+00
      994  1    1    2    0    0 -2.4661983473e+01 +2.9191230426e+01 +1.2514844316e+02 1.8515797090e+02 1.3100000000e+02 0.0000e+00 0.0000e+00
      997  1    1    2    0    0 -5.9314097941e+00 -1.2632389228e+01 +3.4905093488e+02 4.0253113422e+02 2.0000000000e+02 0.0000e+00 0.0000e+00
</event>
<event>
 5      1 +6.7420000e-10 2.37219600e+02 7.95774700e-02 4.47980600e-01
       13 -1    0    0    0    0 +0.0000000000e+00 +0.0000000000e+00 +4.9999998884e+02 5.0000000000e+02 1.0566000000e-01 0.0000e+00 1.0000e+00
      994 -1    0    0    0    0 -0.0000000000e+00 -0.0000000000e+00 +0.0000000000e+00 1.3100000000e+02 1.3100000000e+02 0.0000e+00 0.0000e+00
       13  1    1    2    0    0 +1.5986724304e+01 +2.0412763279e+01 +5.2228830318e+01 5.8310531974e+01 1.0566000000e-01 0.0000e+00 -1.0000e+00
      994  1    1    2    0    0 -1.3708136150e+01 +5.1556279289e+00 +8.2635321245e+01 1.5557663646e+02 1.3100000000e+02 0.0000e+00 0.0000e+00
      997  1    1    2    0    0 -2.2785881533e+00 -2.5568391208e+01 +3.6513583727e+02 4.1711283156e+02 2.0000000000e+02 0.0000e+00 0.0000e+00
</event>
<event>
 5      1 +6.7420000e-10 2.44260400e+02 7.95774700e-02 4.39698400e-01
       13 -1    0    0    0    0 +0.0000000000e+00 +0.0000000000e+00 +4.9999998884e+02 5.0000000000e+02 1.0566000000e-01 0.0000e+00 1.0000e+00
      994 -1    0    0    0    0 -0.0000000000e+00 -0.0000000000e+00 +0.0000000000e+00 1.3100000000e+02 1.3100000000e+02 0.0000e+00 0.0000e+00
       13  1    1    2    0    0 +1.6134886207e+01 -1.0832235347e+01 +1.9733072183e+00 1.9533995519e+01 1.0566000000e-01 0.0000e+00 -1.0000e+00
      994  1    1    2    0    0 +2.2231753007e+01 +4.6794545820e+00 +1.0746066135e+02 1.7095303997e+02 1.3100000000e+02 0.0000e+00 0.0000e+00
      997  1    1    2    0    0 -3.8366639214e+01 +6.1527807649e+00 +3.9056602027e+02 4.4051296451e+02 2.0000000000e+02 0.0000e+00 0.0000e+00
</event>
<event>
 5      1 +6.7420000e-10 2.39196400e+02 7.95774700e-02 4.45596700e-01
       13 -1    0    0    0    0 +0.0000000000e+00 +0.0000000000e+00 +4.9999998884e+02 5.0000000000e+02 1.0566000000e-01 0.0000e+00 1.0000e+00
      994 -1    0    0    0    0 -0.0000000000e+00 -0.0000000000e+00 +0.0000000000e+00 1.3100000000e+02 1.3100000000e+02 0.0000e+00 0.0000e+00
       13  1    1    2    0    0 +1.7098136309e+01 -3.5434628807e+00 +2.6297891121e+00 1.7658690474e+01 1.0566000000e-01 0.0000e+00 -1.0000e+00
      994  1    1    2    0    0 -3.2612394397e+01 +2.1359909287e-01 +9.9352153983e+01 1.6761701702e+02 1.3100000000e+02 0.0000e+00 0.0000e+00
      997  1    1    2    0    0 +1.5514258088e+01 +3.3298637879e+00 +3.9801804574e+02 4.4572429251e+02 2.0000000000e+02 0.0000e+00 0.0000e+00
</event>
<event>
 5      1 +6.7420000e-10 2.31339200e+02 7.95774700e-02 4.55360900e-01
       13 -1    0    0    0    0 +0.0000000000e+00 +0.0000000000e+00 +4.9999998884e+02 5.0000000000e+02 1.0566000000e-01 0.0000e+00 1.0000e+00
      994 -1    0    0    0    0 -0.0000000000e+00 -0.0000000000e+00 +0.0000000000e+00 1.3100000000e+02 1.3100000000e+02 0.0000e+00 0.0000e+00
       13  1    1    2    0    0 +3.5002951230e-01 +1.4369854349e+01 +6.0328996290e+01 6.2017853817e+01 1.0566000000e-01 0.0000e+00 -1.0000e+00
      994  1    1    2    0    0 +1.2456488618e+00 -3.8988503448e+01 +8.4702257047e+01 1.6080151551e+02 1.3100000000e+02 0.0000e+00 0.0000e+00
      997  1    1    2    0    0 -1.5956783741e+00 +2.4618649099e+01 +3.5496873550e+02 4.0818063067e+02 2.0000000000e+02 0.0000e+00 0.0000e+00
</event>
<event>
 5      1 +6.7420000e-10 2.35225800e+02 7.95774700e-02 4.50433300e-01
       13 -1    0    0    0    0 +0.0000000000e+00 +0.0000000000e+00 +4.9999998884e+02 5.0000000000e+02 1.0566000000e-01 0.0000e+00 -1.0000e+00
      994 -1    0    0    0    0 -0.0000000000e+00 -0.0000000000e+00 +0.0000000000e+00 1.3100000000e+02 1.3100000000e+02 0.0000e+00 0.0000e+00
       13  1    1    2    0    0 -7.6878730070e+00 -7.6963124958e+00 +4.2190997583e-01 1.0886955014e+01 1.0566000000e-01 0.0000e+00 1.0000e+00
      994  1    1    2    0    0 +7.2416408380e+00 -8.6432985633e+00 +7.7154561439e+01 1.5244990759e+02 1.3100000000e+02 0.0000e+00 0.0000e+00
      997  1    1    2    0    0 +4.4623216901e-01 +1.6339611059e+01 +4.2242351742e+02 4.6766313740e+02 2.0000000000e+02 0.0000e+00 0.0000e+00
</event>
<event>
 5      1 +6.7420000e-10 2.38054300e+02 7.95774700e-02 4.46968200e-01
       13 -1    0    0    0    0 +0.0000000000e+00 +0.0000000000e+00 +4.9999998884e+02 5.0000000000e+02 1.0566000000e-01 0.0000e+00 1.0000e+00
      994 -1    0    0    0    0 -0.0000000000e+00 -0.0000000000e+00 +0.0000000000e+00 1.3100000000e+02 1.3100000000e+02 0.0000e+00 0.0000e+00
       13  1    1    2    0    0 +1.7738696152e+01 -8.9717028059e+00 +8.5250638882e+00 2.1629624840e+01 1.0566000000e-01 0.0000e+00 -1.0000e+00
      994  1    1    2    0    0 -2.6754859237e+01 +5.8973597563e+00 +9.1637147243e+01 1.6220039488e+02 1.3100000000e+02 0.0000e+00 0.0000e+00
      997  1    1    2    0    0 +9.0161630857e+00 +3.0743430495e+00 +3.9983777770e+02 4.4716998028e+02 2.0000000000e+02 0.0000e+00 0.0000e+00
</event>
<event>
 5      1 +6.7420000e-10 2.31674400e+02 7.95774700e-02 4.54928100e-01
       13 -1    0    0    0    0 +0.0000000000e+00 +0.0000000000e+00 +4.9999998884e+02 5.0000000000e+02 1.0566000000e-01 0.0000e+00 1.0000e+00
      994 -1    0    0    0    0 -0.0000000000e+00 -0.0000000000e+00 +0.0000000000e+00 1.3100000000e+02 1.3100000000e+02 0.0000e+00 0.0000e+00
       13  1    1    2    0    0 -1.7443495869e+01 +3.8235007642e+00 +3.2037034886e+01 3.6678024409e+01 1.0566000000e-01 0.0000e+00 -1.0000e+00
      994  1    1    2    0    0 +1.1940192538e+01 -5.9677858963e+00 +7.0562911429e+01 1.4939312948e+02 1.3100000000e+02 0.0000e+00 0.0000e+00
      997  1    1    2    0    0 +5.5033033317e+00 +2.1442851321e+00 +3.9740004252e+02 4.4492884611e+02 2.0000000000e+02 0.0000e+00 0.0000e+00
</event>
<event>
 5      1 +6.7420000e-10 2.48270400e+02 7.95774700e-02 4.35228500e-01
       13 -1    0    0    0    0 +0.0000000000e+00 +0.0000000000e+00 +4.9999998884e+02 5.0000000000e+02 1.0566000000e-01 0.0000e+00 -1.0000e+00
      994 -1    0    0    0    0 -0.0000000000e+00 -0.0000000000e+00 +0.0000000000e+00 1.3100000000e+02 1.3100000000e+02 0.0000e+00 0.0000e+00
       13  1    1    2    0    0 -2.1263292242e+01 +1.8658727890e+00 -4.6614009222e-01 2.1350351961e+01 1.0566000000e-01 0.0000e+00 1.0000e+00
      994  1    1    2    0    0 -1.0917268677e+01 -1.1362339627e+01 +1.1924291997e+02 1.7784308668e+02 1.3100000000e+02 0.0000e+00 0.0000e+00
      997  1    1    2    0    0 +3.2180560918e+01 +9.4964668385e+00 +3.8122320896e+02 4.3180656136e+02 2.0000000000e+02 0.0000e+00 0.0000e+00
</event>
<event>
 5      1 +6.7420000e-10 2.42545700e+02 7.95774700e-02 4.41663000e-01
       13 -1    0    0    0    0 +0.0000000000e+00 +0.0000000000e+00 +4.9999998884e+02 5.0000000000e+02 1.0566000000e-01 0.0000e+00 -1.0000e+00
      994 -1    0    0    0    0 -0.0000000000e+00 -0.0000000000e+00 +0.0000000000e+00 1.3100000000e+02 1.3100000000e+02 0.0000e+00 0.0000e+00
       13  1    1    2    0    0 -8.5654446909e+00 -1.2674705950e+01 -1.2049820690e+00 1.5345297635e+01 1.0566000000e-01 0.0000e+00 1.0000e+00
      994  1    1    2    0    0 -1.2400094035e+01 -7.3022149333e+00 +9.6635468576e+01 1.6342123014e+02 1.3100000000e+02 0.0000e+00 0.0000e+00
      997  1    1    2    0    0 +2.0965538726e+01 +1.9976920884e+01 +4.0456950233e+02 4.5223347222e+02 2.0000000000e+02 0.0000e+00 0.0000e+00
</event>
<event>
 5      1 +6.7420000e-10 2.28199200e+02 7.95774700e-02 4.59490600e-01
       13 -1    0    0    0    0 +0.0000000000e+00 +0.0000000000e+00 +4.9999998884e+02 5.0000000000e+02 1.0566000000e-01 0.0000e+00 1.0000e+00
      994 -1    0    0    0    0 -0.0000000000e+00 -0.0000000000e+00 +0.0000000000e+00 1.3100000000e+02 1.3100000000e+02 0.0000e+00 0.0000e+00
       13  1    1    2    0    0 +1.0996941782e+01 +5.3403223820e+00 +3.4070419944e+01 3.6197464703e+01 1.0566000000e-01 0.0000e+00 -1.0000e+00
      994  1    1    2    0    0 -3.1264541650e+01 -1.1088563570e+01 +7.3467084381e+01 1.5381430458e+02 1.3100000000e+02 0.0000e+00 0.0000e+00
      997  1    1    2    0    0 +2.0267599868e+01 +5.7482411877e+00 +3.9246248451e+02 4.4098823072e+02 2.0000000000e+02 0.0000e+00 0.0000e+00
</event>
<event>
 5      1 +6.7420000e-10 2.39355200e+02 7.95774700e-02 4.45407300e-01
       13 -1    0    0    0    0 +0.0000000000e+00 +0.0000000000e+00 +4.9999998884e+02 5.0000000000e+02 1.0566000000e-01 0.0000e+00 1.0000e+00
      994 -1    0    0    0    0 -0.0000000000e+00 -0.0000000000e+00 +0.0000000000e+00 1.3100000000e+02 1.3100000000e+02 0.0000e+00 0.0000e+00
       13  1    1    2    0    0 -1.8107024304e+01 -1.0020106047e+01 +6.8138876996e+00 2.1787773727e+01 1.0566000000e-01 0.0000e+00 -1.0000e+00
      994  1    1    2    0    0 +2.9838524494e+01 +1.7146619310e+01 +1.0167601998e+02 1.6936161648e+02 1.3100000000e+02 0.0000e+00 0.0000e+00
      997  1    1    2    0    0 -1.1731500190e+01 -7.1265132633e+00 +3.9151008116e+02 4.3985060979e+02 2.0000000000e+02 0.0000e+00 0.0000e+00
</event>
<event>
 5      1 +6.7420000e-10 2.34491200e+02 7.95774700e-02 4.51349600e-01
       13 -1    0    0    0    0 +0.0000000000e+00 +0.0000000000e+00 +4.9999998884e+02 5.0000000000e+02 1.0566000000e-01 0.0000e+00 1.0000e+00
      994 -1    0    0    0    0 -0.0000000000e+00 -0.0000000000e+00 +0.0000000000e+00 1.3100000000e+02 1.3100000000e+02 0.0000e+00 0.0000e+00
       13  1    1    2    0    0 +2.5203978003e+01 +2.0556446560e+00 +2.6150625388e+01 3.6377638108e+01 1.0566000000e-01 0.0000e+00 -1.0000e+00
      994  1    1    2    0    0 -5.7117440800e+01 -9.8824563564e+00 +1.2015549336e+02 1.8697167586e+02 1.3100000000e+02 0.0000e+00 0.0000e+00
      997  1    1    2    0    0 +3.1913462797e+01 +7.8268117004e+00 +3.5369387009e+02 4.0765068604e+02 2.0000000000e+02 0.0000e+00 0.0000e+00
</event>
<event>
 5      1 +6.7420000e-10 2.35765800e+02 7.95774700e-02 4.49764100e-01
       13 -1    0    0    0    0 +0.0000000000e+00 +0.0000000000e+00 +4.9999998884e+02 5.0000000000e+02 1.0566000000e-01 0.0000e+00 1.0000e+00
      994 -1    0    0    0    0 -0.0000000000e+00 -0.0000000000e+00 +0.0000000000e+00 1.3100000000e+02 1.3100000000e+02 0.0000e+00 0.0000e+00
       13  1    1    2    0    0 +1.9771195056e+01 +7.1609837473e+00 +2.7582083378e+01 3.4683747342e+01 1.0566000000e-01 0.0000e+00 -1.0000e+00
      994  1    1    2    0    0 +1.5797943720e+01 -1.2200330357e+00 +7.9768148472e+01 1.5419150760e+02 1.3100000000e+02 0.0000e+00 0.0000e+00
      997  1    1    2    0    0 -3.5569138775e+01 -5.9409507116e+00 +3.9264975699e+02 4.4212474505e+02 2.0000000000e+02 0.0000e+00 0.0000e+00
</event>
<event>
 5      1 +6.7420000e-10 2.39073100e+02 7.95774700e-02 4.45744100e-01
       13 -1    0    0    0    0 +0.0000000000e+00 +0.0000000000e+00 +4.9999998884e+02 5.0000000000e+02 1.0566000000e-01 0.0000e+00 1.0000e+00
      994 -1    0    0    0    0 -0.0000000000e+00 -0.0000000000e+00 +0.0000000000e+00 1.3100000000e+02 1.3100000000e+02 0.0000e+00 0.0000e+00
       13  1    1    2    0    0 +1.7785156173e+00 +2.5750964151e+01 +1.7389682432e+01 3.1123744820e+01 1.0566000000e-01 0.0000e+00 -1.0000e+00
      994  1    1    2    0    0 -7.3698667551e+00 -3.4823822876e+01 +1.0204964271e+02 1.6982974755e+02 1.3100000000e+02 0.0000e+00 0.0000e+00
      997  1    1    2    0    0 +5.5913511378e+00 +9.0728587254e+00 +3.8056066370e+02 4.3004650763e+02 2.0000000000e+02 0.0000e+00 0.0000e+00
</event>
<event>
 5      1 +6.7420000e-10 2.39949700e+02 7.95774700e-02 4.44700600e-01
       13 -1    0    0    0    0 +0.0000000000e+00 +0.0000000000e+00 +4.9999998884e+02 5.0000000000e+02 1.0566000000e-01 0.0000e+00 1.0000e+00
      994 -1    0    0    0    0 -0.0000000000e+00 -0.0000000000e+00 +0.0000000000e+00 1.3100000000e+02 1.3100000000e+02 0.0000e+00 0.0000e+00
       13  1    1    2    0    0 -2.9984396930e+01 -1.0828766129e+01 +6.1514155056e+01 6.9284404244e+01 1.0566000000e-01 0.0000e+00 -1.0000e+00
      994  1    1    2    0    0 +1.6523977086e+01 +7.3708269894e+00 +9.0951665217e+01 1.6050101655e+02 1.3100000000e+02 0.0000e+00 0.0000e+00
      997  1    1    2    0    0 +1.3460419844e+01 +3.4579391393e+00 +3.4753416856e+02 4.0121457920e+02 2.0000000000e+02 0.0000e+00 0.0000e+00
</event>
<event>
 5      1 +6.7420000e-10 2.36525400e+02 7.95774700e-02 4.48828900e-01
       13 -1    0    0    0    0 +0.0000000000e+00 +0.0000000000e+00 +4.9999998884e+02 5.0000000000e+02 1.0566000000e-01 0.0000e+00 -1.0000e+00
      994 -1    0    0    0    0 -0.0000000000e+00 -0.0000000000e+00 +0.0000000000e+00 1.3100000000e+02 1.3100000000e+02 0.0000e+00 0.0000e+00
       13  1    1    2    0    0 +3.5257673986e+00 -1.4498350222e+01 +3.4939352433e+00 1.5324879851e+01 1.0566000000e-01 0.0000e+00 1.0000e+00
      994  1    1    2    0    0 -1.6659786910e+01 +1.4183958184e+01 +8.4261675334e+01 1.5728878886e+02 1.3100000000e+02 0.0000e+00 0.0000e+00
      997  1    1    2    0    0 +1.3134019512e+01 +3.1439203799e-01 +4.1224437826e+02 4.5838633129e+02 2.0000000000e+02 0.0000e+00 0.0000e+00
</event>
<event>
 5      1 +6.7420000e-10 2.39163800e+02 7.95774700e-02 4.45635700e-01
       13 -1    0    0    0    0 +0.0000000000e+00 +0.0000000000e+00 +4.9999998884e+02 5.0000000000e+02 1.0566000000e-01 0.0000e+00 1.0000e+00
      994 -1    0    0    0    0 -0.0000000000e+00 -0.0000000000e+00 +0.0000000000e+00 1.3100000000e+02 1.3100000000e+02 0.0000e+00 0.0000e+00
       13  1    1    2    0    0 +1.5619059151e+00 +1.0179128293e+01 -3.3646993003e+00 1.0834508217e+01 1.0566000000e-01 0.0000e+00 -1.0000e+00
      994  1    1    2    0    0 -3.6994562727e+00 +2.1496342594e+00 +8.4816550815e+01 1.5611903855e+02 1.3100000000e+02 0.0000e+00 0.0000e+00
      997  1    1    2    0    0 +2.1375503576e+00 -1.2328762552e+01 +4.1854813732e+02 4.6404645324e+02 2.0000000000e+02 0.0000e+00 0.0000e+00
</event>
<event>
 5      1 +6.7420000e-10 2.43737600e+02 7.95774700e-02 4.40294000e-01
       13 -1    0    0    0    0 +0.0000000000e+00 +0.0000000000e+00 +4.9999998884e+02 5.0000000000e+02 1.0566000000e-01 0.0000e+00 -1.0000e+00
      994 -1    0    0    0    0 -0.0000000000e+00 -0.0000000000e+00 +0.0000000000e+00 1.3100000000e+02 1.3100000000e+02 0.0000e+00 0.0000e+00
       13  1    1    2    0    0 -8.4340771264e+00 -1.1703321766e+01 -3.8852265534e+00 1.4940132085e+01 1.0566000000e-01 0.0000e+00 1.0000e+00
      994  1    1    2    0    0 +2.1108727006e+01 -5.2741220180e+00 +1.0481861785e+02 1.6917841874e+02 1.3100000000e+02 0.0000e+00 0.0000e+00
      997  1    1    2    0    0 -1.2674649880e+01 +1.6977443784e+01 +3.9906659754e+02 4.4688144917e+02 2.0000000000e+02 0.0000e+00 0.0000e+00
</event>
<event>
 5      1 +6.7420000e-10 2.48973700e+02 7.95774700e-02 4.34462000e-01
       13 -1    0    0    0    0 +0.0000000000e+00 +0.0000000000e+00 +4.9999998884e+02 5.0000000000e+02 1.0566000000e-01 0.0000e+00 1.0000e+00
      994 -1    0    0    0    0 -0.0000000000e+00 -0.0000000000e+00 +0.0000000000e+00 1.3100000000e+02 1.3100000000e+02 0.0000e+00 0.0000e+00
       13  1    1    2    0    0 -3.8339041100e+01 -5.2673493305e+00 +2.8169983577e+01 4.7866336608e+01 1.0566000000e-01 0.0000e+00 -1.0000e+00
      994  1    1    2    0    0 +1.0554343481e+01 +2.2096036083e+01 +1.3260243189e+02 1.8800009021e+02 1.3100000000e+02 0.0000e+00 0.0000e+00
      997  1    1    2    0    0 +2.7784697619e+01 -1.6828686752e+01 +3.3922757337e+02 3.9513357318e+02 2.0000000000e+02 0.0000e+00 0.0000e+00
</event>
<event>
 5      1 +6.7420000e-10 2.38442200e+02 7.95774700e-02 4.46500700e-01
       13 -1    0    0    0    0 +0.0000000000e+00 +0.0000000000e+00 +4.9999998884e+02 5.0000000000e+02 1.0566000000e-01 0.0000e+00 -1.0000e+00
      994 -1    0    0    0    0 -0.0000000000e+00 -0.0000000000e+00 +0.0000000000e+00 1.3100000000e+02 1.3100000000e+02 0.0000e+00 0.0000e+00
       13  1    1    2    0    0 -1.0545347279e+01 +2.6942290092e+00 -2.1125648727e+00 1.1087710024e+01 1.0566000000e-01 0.0000e+00 1.0000e+00
      994  1    1    2    0    0 -4.4051835660e+01 +2.2630902897e+01 +1.1992782461e+02 1.8438114087e+02 1.3100000000e+02 0.0000e+00 0.0000e+00
      997  1    1    2    0    0 +5.4597182939e+01 -2.5325131906e+01 +3.8218472910e+02 4.3553114911e+02 2.0000000000e+02 0.0000e+00 0.0000e+00
</event>
<event>
 5      1 +6.7420000e-10 2.41729800e+02 7.95774700e-02 4.42609400e-01
       13 -1    0    0    0    0 +0.0000000000e+00 +0.0000000000e+00 +4.9999998884e+02 5.0000000000e+02 1.0566000000e-01 0.0000e+00 -1.0000e+00
      994 -1    0    0    0    0 -0.0000000000e+00 -0.0000000000e+00 +0.0000000000e+00 1.3100000000e+02 1.3100000000e+02 0.0000e+00 0.0000e+00
       13  1    1    2    0    0 +1.2571854396e+01 -9.7056359861e+00 -8.4663448463e-01 1.5905308762e+01 1.0566000000e-01 0.0000e+00 1.0000e+00
      994  1    1    2    0    0 +2.3857725887e+01 +2.9418517507e+01 +1.1441175538e+02 1.7800474720e+02 1.3100000000e+02 0.0000e+00 0.0000e+00
      997  1    1    2    0    0 -3.6429580283e+01 -1.9712881521e+01 +3.8643486794e+02 4.3708994404e+02 2.0000000000e+02 0.0000e+00 0.0000e+00
</event>
<event>
 5      1 +6.7420000e-10 2.38119600e+02 7.95774700e-02 4.46889300e-01
       13 -1    0    0    0    0 +0.0000000000e+00 +0.0000000000e+00 +4.9999998884e+02 5.0000000000e+02 1.0566000000e-01 0.0000e+00 1.0000e+00
      994 -1    0    0    0    0 -0.0000000000e+00 -0.0000000000e+00 +0.0000000000e+00 1.3100000000e+02 1.3100000000e+02 0.0000e+00 0.0000e+00
       13  1    1    2    0    0 -1.2743690058e+01 -1.0257919468e+01 +2.9458823179e+00 1.6622753525e+01 1.0566000000e-01 0.0000e+00 -1.0000e+00
      994  1    1    2    0    0 +3.2528216218e+01 -2.6169189141e+00 +9.6180728111e+01 1.6576086865e+02 1.3100000000e+02 0.0000e+00 0.0000e+00
      997  1    1    2    0    0 -1.9784526160e+01 +1.2874838382e+01 +4.0087337841e+02 4.4861637783e+02 2.0000000000e+02 0.0000e+00 0.0000e+00
</event>
<event>
 5      1 +6.7420000e-10 2.31565700e+02 7.95774700e-02 4.55068400e-01
       13 -1    0    0    0    0 +0.0000000000e+00 +0.0000000000e+00 +4.9999998884e+02 5.0000000000e+02 1.0566000000e-01 0.0000e+00 -1.0000e+00
      994 -1    0    0    0    0 -0.0000000000e+00 -0.0000000000e+00 +0.0000000000e+00 1.3100000000e+02 1.3100000000e+02 0.0000e+00 0.0000e+00
       13  1    1    2    0    0 +1.6331316600e+01 +5.0762617985e+00 +3.7552325379e+01 4.1263405593e+01 1.0566000000e-01 0.0000e+00 1.0000e+00
      994  1    1    2    0    0 -4.8760985102e+00 -4.4699138378e+00 +6.8961655787e+01 1.4819064220e+02 1.3100000000e+02 0.0000e+00 0.0000e+00
      997  1    1    2    0    0 -1.1455218090e+01 -6.0634796069e-01 +3.9348600767e+02 4.4154595221e+02 2.0000000000e+02 0.0000e+00 0.0000e+00
</event>
<event>
 5      1 +6.7420000e-10 2.42818400e+02 7.95774700e-02 4.41348400e-01
       13 -1    0    0    0    0 +0.0000000000e+00 +0.0000000000e+00 +4.9999998884e+02 5.0000000000e+02 1.0566000000e-01 0.0000e+00 1.0000e+00
      994 -1    0    0    0    0 -0.0000000000e+00 -0.0000000000e+00 +0.0000000000e+00 1.3100000000e+02 1.3100000000e+02 0.0000e+00 0.0000e+00
       13  1    1    2    0    0 +2.0358813893e+01 -1.2522944384e+01 +1.0745194400e+01 2.6206407726e+01 1.0566000000e-01 0.0000e+00 -1.0000e+00
      994  1    1    2    0    0 +4.3974888984e+01 +2.5521595829e+01 +1.4996982132e+02 2.0551664171e+02 1.3100000000e+02 0.0000e+00 0.0000e+00
      997  1    1    2    0    0 -6.4333702877e+01 -1.2998651445e+01 +3.3928497312e+02 3.9927695056e+02 2.0000000000e+02 0.0000e+00 0.0000e+00
</event>
<event>
 5      1 +6.7420000e-10 2.26251300e+02 7.95774700e-02 4.62122500e-01
       13 -1    0    0    0    0 +0.0000000000e+00 +0.0000000000e+00 +4.9999998884e+02 5.0000000000e+02 1.0566000000e-01 0.0000e+00 1.0000e+00
      994 -1    0    0    0    0 -0.0000000000e+00 -0.0000000000e+00 +0.0000000000e+00 1.3100000000e+02 1.3100000000e+02 0.0000e+00 0.0000e+00
       13  1    1    2    0    0 +1.0255838918e+01 +2.1644586113e+00 +1.7497220146e+01 2.0396837742e+01 1.0566000000e-01 0.0000e+00 -1.0000e+00
      994  1    1    2    0    0 -7.2473188304e+01 +9.8810466265e+00 +1.2149564785e+02 1.9306006980e+02 1.3100000000e+02 0.0000e+00 0.0000e+00
      997  1    1    2    0    0 +6.2217349386e+01 -1.2045505238e+01 +3.6100712084e+02 4.1754309246e+02 2.0000000000e+02 0.0000e+00 0.0000e+00
</event>
<event>
 5      1 +6.7420000e-10 2.45372300e+02 7.95774700e-02 4.38441800e-01
       13 -1    0    0    0    0 +0.0000000000e+00 +0.0000000000e+00 +4.9999998884e+02 5.0000000000e+02 1.0566000000e-01 0.0000e+00 -1.0000e+00
      994 -1    0    0    0    0 -0.0000000000e+00 -0.0000000000e+00 +0.0000000000e+00 1.3100000000e+02 1.3100000000e+02 0.0000e+00 0.0000e+00
       13  1    1    2    0    0 +2.3124615947e+01 +1.0173453721e+00 +1.1401352197e+02 1.1633949119e+02 1.0566000000e-01 0.0000e+00 1.0000e+00
      994  1    1    2    0    0 -1.8706897028e+01 -3.3366911676e+01 +1.3351725732e+02 1.9092186044e+02 1.3100000000e+02 0.0000e+00 0.0000e+00
      997  1    1    2    0    0 -4.4177189190e+00 +3.2349566304e+01 +2.5246920955e+02 3.2373864838e+02 2.0000000000e+02 0.0000e+00 0.0000e+00
</event>
<event>
 5      1 +6.7420000e-10 2.50061000e+02 7.95774700e-02 4.33286700e-01
       13 -1    0    0    0    0 +0.0000000000e+00 +0.0000000000e+00 +4.9999998884e+02 5.0000000000e+02 1.0566000000e-01 0.0000e+00 -1.0000e+00
      994 -1    0    0    0    0 -0.0000000000e+00 -0.0000000000e+00 +0.0000000000e+00 1.3100000000e+02 1.3100000000e+02 0.0000e+00 0.0000e+00
       13  1    1    2    0    0 +2.1204281216e+01 +3.7805936555e+01 +3.4609522899e+01 5.5468374954e+01 1.0566000000e-01 0.0000e+00 1.0000e+00
      994  1    1    2    0    0 +6.1764191586e+00 -2.8489808256e+01 +1.5347176109e+02 2.0387348720e+02 1.3100000000e+02 0.0000e+00 0.0000e+00
      997  1    1    2    0    0 -2.7380700375e+01 -9.3161282990e+00 +3.1191870484e+02 3.7165813785e+02 2.0000000000e+02 0.0000e+00 0.0000e+00
</event>
<event>
 5      1 +6.7420000e-10 2.38803700e+02 7.95774700e-02 4.46066600e-01
       13 -1    0    0    0    0 +0.0000000000e+00 +0.0000000000e+00 +4.9999998884e+02 5.0000000000e+02 1.0566000000e-01 0.0000e+00 -1.0000e+00
      994 -1    0    0    0    0 -0.0000000000e+00 -0.0000000000e+00 +0.0000000000e+00 1.3100000000e+02 1.3100000000e+02 0.0000e+00 0.0000e+00
       13  1    1    2    0    0 +3.3644183354e+00 +2.1928004262e+01 +1.3603436215e+01 2.6023476373e+01 1.0566000000e-01 0.0000e+00 1.0000e+00
      994  1    1    2    0    0 -6.1198604259e+00 -1.1692064210e+01 +8.5938834895e+01 1.5722798860e+02 1.3100000000e+02 0.0000e+00 0.0000e+00
      997  1    1    2    0    0 +2.7554420905e+00 -1.0235940052e+01 +4.0045771773e+02 4.4774853502e+02 2.0000000000e+02 0.0000e+00 0.0000e+00
</event>
<event>
 5      1 +6.7420000e-10 2.51291800e+02 7.95774700e-02 4.31970800e-01
       13 -1    0    0    0    0 +0.0000000000e+00 +0.0000000000e+00 +4.9999998884e+02 5.0000000000e+02 1.0566000000e-01 0.0000e+00 -1.0000e+00
      994 -1    0    0    0    0 -0.0000000000e+00 -0.0000000000e+00 +0.0000000000e+00 1.3100000000e+02 1.3100000000e+02 0.0000e+00 0.0000e+00
       13  1    1    2    0    0 -4.1095449014e+01 +8.4415428668e+00 +2.8161721909e+01 5.0529093803e+01 1.0566000000e-01 0.0000e+00 1.0000e+00
      994  1    1    2    0    0 +1.9028110459e+01 +5.8939145211e+00 +1.4528414015e+02 1.9663491194e+02 1.3100000000e+02 0.0000e+00 0.0000e+00
      997  1    1    2    0    0 +2.2067338555e+01 -1.4335457388e+01 +3.2655412678e+02 3.8383599425e+02 2.0000000000e+02 0.0000e+00 0.0000e+00
</event>
<event>
 5      1 +6.7420000e-10 2.44457400e+02 7.95774700e-02 4.39474800e-01
       13 -1    0    0    0    0 +0.0000000000e+00 +0.0000000000e+00 +4.9999998884e+02 5.0000000000e+02 1.0566000000e-01 0.0000e+00 1.0000e+00
      994 -1    0    0    0    0 -0.0000000000e+00 -0.0000000000e+00 +0.0000000000e+00 1.3100000000e+02 1.3100000000e+02 0.0000e+00 0.0000e+00
       13  1    1    2    0    0 +1.2436669925e+01 -3.4689316004e+01 +2.5718396295e+01 4.4938474337e+01 1.0566000000e-01 0.0000e+00 -1.0000e+00
      994  1    1    2    0    0 -2.5005573546e+01 +3.7661153908e+01 +1.4492093722e+02 2.0051613219e+02 1.3100000000e+02 0.0000e+00 0.0000e+00
      997  1    1    2    0    0 +1.2568903621e+01 -2.9718379033e+00 +3.2936065532e+02 3.8554539348e+02 2.0000000000e+02 0.0000e+00 0.0000e+00
</event>
<event>
 5      1 +6.7420000e-10 2.36506400e+02 7.95774700e-02 4.48852300e-01
       13 -1    0    0    0    0 +0.0000000000e+00 +0.0000000000e+00 +4.9999998884e+02 5.0000000000e+02 1.0566000000e-01 0.0000e+00 -1.0000e+00
      994 -1    0    0    0    0 -0.0000000000e+00 -0.0000000000e+00 +0.0000000000e+00 1.3100000000e+02 1.3100000000e+02 0.0000e+00 0.0000e+00
       13  1    1    2    0    0 +1.7803541199e+01 -5.6606228982e+00 +1.0006672402e+01 2.1193239192e+01 1.0566000000e-01 0.0000e+00 1.0000e+00
      994  1    1    2    0    0 +7.8668804334e+00 +4.9895406493e+01 +1.1393768491e+02 1.8081547345e+02 1.3100000000e+02 0.0000e+00 0.0000e+00
      997  1    1    2    0    0 -2.5670421633e+01 -4.4234783595e+01 +3.7605563153e+02 4.2899128736e+02 2.0000000000e+02 0.0000e+00 0.0000e+00
</event>
<event>
 5      1 +6.7420000e-10 2.50183900e+02 7.95774700e-02 4.33154700e-01
       13 -1    0    0    0    0 +0.0000000000e+00 +0.0000000000e+00 +4.9999998884e+02 5.0000000000e+02 1.0566000000e-01 0.0000e+00 1.0000e+00
      994 -1    0    0    0    0 -0.0000000000e+00 -0.0000000000e+00 +0.0000000000e+00 1.3100000000e+02 1.3100000000e+02 0.0000e+00 0.0000e+00
       13  1    1    2    0    0 -1.1979540489e+01 +1.4800896120e+01 -4.9809674777e+00 1.9682406289e+01 1.0566000000e-01 0.0000e+00 -1.0000e+00
      994  1    1    2    0    0 -5.0581877284e+00 +2.2890780279e+01 +1.4053502885e+02 1.9354758438e+02 1.3100000000e+02 0.0000e+00 0.0000e+00
      997  1    1    2    0    0 +1.7037728217e+01 -3.7691676399e+01 +3.6444592746e+02 4.1777000933e+02 2.0000000000e+02 0.0000e+00 0.0000e+00
</event>
<event>
 5      1 +6.7420000e-10 2.42438000e+02 7.95774700e-02 4.41787500e-01
       13 -1    0    0    0    0 +0.0000000000e+00 +0.0000000000e+00 +4.9999998884e+02 5.0000000000e+02 1.0566000000e-01 0.0000e+00 1.0000e+00
      994 -1    0    0    0    0 -0.0000000000e+00 -0.0000000000e+00 +0.0000000000e+00 1.3100000000e+02 1.3100000000e+02 0.0000e+00 0.0000e+00
       13  1    1    2    0    0 -1.3858659345e+01 +2.6973533994e+01 +4.4099718927e+01 5.3520373209e+01 1.0566000000e-01 0.0000e+00 -1.0000e+00
      994  1    1    2    0    0 +1.1166028694e+01 +2.6814324387e+01 +1.0653482003e+02 1.7133112989e+02 1.3100000000e+02 0.0000e+00 0.0000e+00
      997  1    1    2    0    0 +2.6926306502e+00 -5.3787858381e+01 +3.4936544988e+02 4.0614849691e+02 2.0000000000e+02 0.0000e+00 0.0000e+00
</event>
<event>
 5      1 +6.7420000e-10 2.48532300e+02 7.95774700e-02 4.34942500e-01
       13 -1    0    0    0    0 +0.0000000000e+00 +0.0000000000e+00 +4.9999998884e+02 5.0000000000e+02 1.0566000000e-01 0.0000e+00 1.0000e+00
      994 -1    0    0    0    0 -0.0000000000e+00 -0.0000000000e+00 +0.0000000000e+00 1.3100000000e+02 1.3100000000e+02 0.0000e+00 0.0000e+00
       13  1    1    2    0    0 +3.5190231755e+01 -3.2465666588e+01 +6.8247292765e+01 8.3367116129e+01 1.0566000000e-01 0.0000e+00 -1.0000e+00
      994  1    1    2    0    0 -2.1098878574e+01 +3.0913754831e+01 +1.6693328889e+02 2.1547284250e+02 1.3100000000e+02 0.0000e+00 0.0000e+00
      997  1    1    2    0    0 -1.4091353181e+01 +1.5519117570e+00 +2.6481940718e+02 3.3216004137e+02 2.0000000000e+02 0.0000e+00 0.0000e+00
</event>
<event>
 5      1 +6.7420000e-10 2.37759900e+02 7.95774700e-02 4.47324200e-01
       13 -1    0    0    0    0 +0.0000000000e+00 +0.0000000000e+00 +4.9999998884e+02 5.0000000000e+02 1.0566000000e-01 0.0000e+00 -1.0000e+00
      994 -1    0    0    0    0 -0.0000000000e+00 -0.0000000000e+00 +0.0000000000e+00 1.3100000000e+02 1.3100000000e+02 0.0000e+00 0.0000e+00
       13  1    1    2    0    0 -2.3209575143e+00 -2.3677877582e+01 +1.3865632292e+01 2.7537168581e+01 1.0566000000e-01 0.0000e+00 1.0000e+00
      994  1    1    2    0    0 +1.2590247977e+01 +4.4016081009e+01 +1.1087390065e+02 1.7762306037e+02 1.3100000000e+02 0.0000e+00 0.0000e+00
      997  1    1    2    0    0 -1.0269290463e+01 -2.0338203428e+01 +3.7526045589e+02 4.2583977104e+02 2.0000000000e+02 0.0000e+00 0.0000e+00
</event>
<event>
 5      1 +6.7420000e-10 2.32637500e+02 7.95774700e-02 4.53692900e-01
       13 -1    0    0    0    0 +0.0000000000e+00 +0.0000000000e+00 +4.9999998884e+02 5.0000000000e+02 1.0566000000e-01 0.0000e+00 1.0000e+00
      994 -1    0    0    0    0 -0.0000000000e+00 -0.0000000000e+00 +0.0000000000e+00 1.3100000000e+02 1.3100000000e+02 0.0000e+00 0.0000e+00
       13  1    1    2    0    0 +1.3089186856e+01 +1.5698307508e+01 +8.0729177564e+00 2.1976051426e+01 1.0566000000e-01 0.0000e+00 -1.0000e+00
      994  1    1    2    0    0 -1.8503589557e+01 -5.2663611223e+01 +2.8627315846e+02 3.1973295111e+02 1.3100000000e+02 0.0000e+00 0.0000e+00
      997  1    1    2    0    0 +5.4144027018e+00 +3.6965303715e+01 +2.0565391262e+02 2.8929099746e+02 2.0000000000e+02 0.0000e+00 0.0000e+00
</event>
<event>
 5      1 +6.7420000e-10 2.47191800e+02 7.95774700e-02 4.36414200e-01
       13 -1    0    0    0    0 +0.0000000000e+00 +0.0000000000e+00 +4.9999998884e+02 5.0000000000e+02 1.0566000000e-01 0.0000e+00 1.0000e+00
      994 -1    0    0    0    0 -0.0000000000e+00 -0.0000000000e+00 +0.0000000000e+00 1.3100000000e+02 1.3100000000e+02 0.0000e+00 0.0000e+00
       13  1    1    2    0    0 -2.7648927880e+01 +3.3444736388e+01 +5.1603639341e+01 6.7423737380e+01 1.0566000000e-01 0.0000e+00 -1.0000e+00
      994  1    1    2    0    0 -9.9597082821e+00 -4.0498624536e+01 +1.9240802486e+02 2.3647660013e+02 1.3100000000e+02 0.0000e+00 0.0000e+00
      997  1    1    2    0    0 +3.7608636162e+01 +7.0538881484e+00 +2.5598832463e+02 3.2709966249e+02 2.0000000000e+02 0.0000e+00 0.0000e+00
</event>
<event>
 5      1 +6.7420000e-10 2.45735300e+02 7.95774700e-02 4.38034500e-01
       13 -1    0    0    0    0 +0.0000000000e+00 +0.0000000000e+00 +4.9999998884e+02 5.0000000000e+02 1.0566000000e-01 0.0000e+00 -1.0000e+00
      994 -1    0    0    0    0 -0.0000000000e+00 -0.0000000000e+00 +0.0000000000e+00 1.3100000000e+02 1.3100000000e+02 0.0000e+00 0.0000e+00
       13  1    1    2    0    0 -3.5934111349e+01 +2.3664088765e+00 +4.3505924499e+01 5.6476870310e+01 1.0566000000e-01 0.0000e+00 1.0000e+00
      994  1    1    2    0    0 -2.4690275405e+00 +4.4656970638e+01 +1.5702896631e+02 2.0933092792e+02 1.3100000000e+02 0.0000e+00 0.0000e+00
      997  1    1    2    0    0 +3.8403138890e+01 -4.7023379514e+01 +2.9946509803e+02 3.6519220177e+02 2.0000000000e+02 0.0000e+00 0.0000e+00
</event>
<event>
 5      1 +6.7420000e-10 2.35809900e+02 7.95774700e-02 4.49709600e-01
       13 -1    0    0    0    0 +0.0000000000e+00 +0.0000000000e+00 +4.9999998884e+02 5.0000000000e+02 1.0566000000e-01 0.0000e+00 1.0000e+00
      994 -1    0    0    0    0 -0.0000000000e+00 -0.0000000000e+00 +0.0000000000e+00 1.3100000000e+02 1.3100000000e+02 0.0000e+00 0.0000e+00
       13  1    1    2    0    0 -5.0288702882e+00 -8.7315859187e+00 -1.0555785737e+00 1.0131906987e+01 1.0566000000e-01 0.0000e+00 -1.0000e+00
      994  1    1    2    0    0 +2.1005925519e+00 +2.4775921892e+00 +7.7061375297e+01 1.5201975699e+02 1.3100000000e+02 0.0000e+00 0.0000e+00
      997  1    1    2    0    0 +2.9282777362e+00 +6.2539937295e+00 +4.2399419211e+02 4.6884833602e+02 2.0000000000e+02 0.0000e+00 0.0000e+00
</event>
<event>
 5      1 +6.7420000e-10 2.37328100e+02 7.95774700e-02 4.47848500e-01
       13 -1    0    0    0    0 +0.0000000000e+00 +0.0000000000e+00 +4.9999998884e+02 5.0000000000e+02 1.0566000000e-01 0.0000e+00 1.0000e+00
      994 -1    0    0    0    0 -0.0000000000e+00 -0.0000000000e+00 +0.0000000000e+00 1.3100000000e+02 1.3100000000e+02 0.0000e+00 0.0000e+00
       13  1    1    2    0    0 -1.3545146593e+01 -2.0245664084e+01 +3.4840008696e+01 4.2511119492e+01 1.0566000000e-01 0.0000e+00 -1.0000e+00
      994  1    1    2    0    0 -2.5089057569e+01 +8.3101549790e+00 +8.9039388033e+01 1.6058496850e+02 1.3100000000e+02 0.0000e+00 0.0000e+00
      997  1    1    2    0    0 +3.8634204162e+01 +1.1935509105e+01 +3.7612059211e+02 4.2790391201e+02 2.0000000000e+02 0.0000e+00 0.0000e+00
</event>
<event>
 5      1 +6.7420000e-10 2.34012500e+02 7.95774700e-02 4.51950500e-01
       13 -1    0    0    0    0 +0.0000000000e+00 +0.0000000000e+00 +4.9999998884e+02 5.0000000000e+02 1.0566000000e-01 0.0000e+00 -1.0000e+00
      994 -1    0    0    0    0 -0.0000000000e+00 -0.0000000000e+00 +0.0000000000e+00 1.3100000000e+02 1.3100000000e+02 0.0000e+00 0.0000e+00
       13  1    1    2    0    0 +3.0779659840e+00 +1.8235239923e+01 +7.2926998315e+01 7.5235338086e+01 1.0566000000e-01 0.0000e+00 1.0000e+00
      994  1    1    2    0    0 -8.4134536697e+00 -5.5820563568e+01 +1.1530496766e+02 1.8342016543e+02 1.3100000000e+02 0.0000e+00 0.0000e+00
      997  1    1    2    0    0 +5.3354876856e+00 +3.7585323645e+01 +3.1176802286e+02 3.7234449648e+02 2.0000000000e+02 0.0000e+00 0.0000e+00
</event>
<event>
 5      1 +6.7420000e-10 2.39238300e+02 7.95774700e-02 4.45546700e-01
       13 -1    0    0    0    0 +0.0000000000e+00 +0.0000000000e+00 +4.9999998884e+02 5.0000000000e+02 1.0566000000e-01 0.0000e+00 -1.0000e+00
      994 -1    0    0    0    0 -0.0000000000e+00 -0.0000000000e+00 +0.0000000000e+00 1.3100000000e+02 1.3100000000e+02 0.0000e+00 0.0000e+00
       13  1    1    2    0    0 +1.1296039063e+01 -1.5933229773e+01 +6.8812838650e+00 2.0708248144e+01 1.0566000000e-01 0.0000e+00 1.0000e+00
      994  1    1    2    0    0 +1.2734590245e+01 +2.6538819180e+01 +9.6575920571e+01 1.6539161752e+02 1.3100000000e+02 0.0000e+00 0.0000e+00
      997  1    1    2    0    0 -2.4030629309e+01 -1.0605589408e+01 +3.9654278440e+02 4.4490013434e+02 2.0000000000e+02 0.0000e+00 0.0000e+00
</event>
<event>
 5      1 +6.7420000e-10 2.27372300e+02 7.95774700e-02 4.60601100e-01
       13 -1    0    0    0    0 +0.0000000000e+00 +0.0000000000e+00 +4.9999998884e+02 5.0000000000e+02 1.0566000000e-01 0.0000e+00 1.0000e+00
      994 -1    0    0    0    0 -0.0000000000e+00 -0.0000000000e+00 +0.0000000000e+00 1.3100000000e+02 1.3100000000e+02 0.0000e+00 0.0000e+00
       13  1    1    2    0    0 -3.6708677142e+00 -1.0473619752e+01 +2.4402652367e+01 2.6808069439e+01 1.0566000000e-01 0.0000e+00 -1.0000e+00
      994  1    1    2    0    0 +1.7066519726e+01 +2.6763935581e+01 +7.0948171475e+01 1.5232274085e+02 1.3100000000e+02 0.0000e+00 0.0000e+00
      997  1    1    2    0    0 -1.3395652012e+01 -1.6290315829e+01 +4.0464916499e+02 4.5186918971e+02 2.0000000000e+02 0.0000e+00 0.0000e+00
</event>
<event>
 5      1 +6.7420000e-10 2.29495700e+02 7.95774700e-02 4.57768900e-01
       13 -1    0    0    0    0 +0.0000000000e+00 +0.0000000000e+00 +4.9999998884e+02 5.0000000000e+02 1.0566000000e-01 0.0000e+00 -1.0000e+00
      994 -1    0    0    0    0 -0.0000000000e+00 -0.0000000000e+00 +0.0000000000e+00 1.3100000000e+02 1.3100000000e+02 0.0000e+00 0.0000e+00
       13  1    1    2    0    0 -1.1391859502e+01 -1.4064158282e+00 +4.8370136710e+01 4.9713516852e+01 1.0566000000e-01 0.0000e+00 1.0000e+00
      994  1    1    2    0    0 +2.7348135227e+01 -1.1381833498e+01 +7.3673391543e+01 1.5318692913e+02 1.3100000000e+02 0.0000e+00 0.0000e+00
      997  1    1    2    0    0 -1.5956275725e+01 +1.2788249327e+01 +3.7795646058e+02 4.2809955402e+02 2.0000000000e+02 0.0000e+00 0.0000e+00
</event>
<event>
 5      1 +6.7420000e-10 2.39693800e+02 7.95774700e-02 4.45004200e-01
       13 -1    0    0    0    0 +0.0000000000e+00 +0.0000000000e+00 +4.9999998884e+02 5.0000000000e+02 1.0566000000e-01 0.0000e+00 1.0000e+00
      994 -1    0    0    0    0 -0.0000000000e+00 -0.0000000000e+00 +0.0000000000e+00 1.3100000000e+02 1.3100000000e+02 0.0000e+00 0.0000e+00
       13  1    1    2    0    0 -2.9683207705e+01 +1.1339545044e+01 +3.2505982544e+01 4.5456882500e+01 1.0566000000e-01 0.0000e+00 -1.0000e+00
      994  1    1    2    0    0 +2.1538663333e+01 -4.7532590225e+01 +1.3172512489e+02 1.9296572152e+02 1.3100000000e+02 0.0000e+00 0.0000e+00
      997  1    1    2    0    0 +8.1445443716e+00 +3.6193045181e+01 +3.3576888140e+02 3.9257739598e+02 2.0000000000e+02 0.0000e+00 0.0000e+00
</event>
<event>
 5      1 +6.7420000e-10 2.41673800e+02 7.95774700e-02 4.42674600e-01
       13 -1    0    0    0    0 +0.0000000000e+00 +0.0000000000e+00 +4.9999998884e+02 5.0000000000e+02 1.0566000000e-01 0.0000e+00 1.0000e+00
      994 -1    0    0    0    0 -0.0000000000e+00 -0.0000000000e+00 +0.0000000000e+00 1.3100000000e+02 1.3100000000e+02 0.0000e+00 0.0000e+00
       13  1    1    2    0    0 -8.0040421518e+00 +2.1429586536e+01 +7.3726773012e+00 2.4034546064e+01 1.0566000000e-01 0.0000e+00 -1.0000e+00
      994  1    1    2    0    0 +2.1987904923e+01 -2.1032505685e+01 +1.0523115856e+02 1.7076425560e+02 1.3100000000e+02 0.0000e+00 0.0000e+00
      997  1    1    2    0    0 -1.3983862771e+01 -3.9708085125e-01 +3.8739615298e+02 4.3620119834e+02 2.0000000000e+02 0.0000e+00 0.0000e+00
</event>
<event>
 5      1 +6.7420000e-10 2.40242100e+02 7.95774700e-02 4.44354600e-01
       13 -1    0    0    0    0 +0.0000000000e+00 +0.0000000000e+00 +4.9999998884e+02 5.0000000000e+02 1.0566000000e-01 0.0000e+00 -1.0000e+00
      994 -1    0    0    0    0 -0.0000000000e+00 -0.0000000000e+00 +0.0000000000e+00 1.3100000000e+02 1.3100000000e+02 0.0000e+00 0.0000e+00
       13  1    1    2    0    0 -2.2804380547e+01 -2.2631948635e+00 +9.2366417443e+00 2.4708066251e+01 1.0566000000e-01 0.0000e+00 1.0000e+00
      994  1    1    2    0    0 +3.1941184700e+01 -2.2604885608e+01 +1.1036815341e+02 1.7570813704e+02 1.3100000000e+02 0.0000e+00 0.0000e+00
      997  1    1    2    0    0 -9.1368041527e+00 +2.4868080472e+01 +3.8039519368e+02 4.3058379671e+02 2.0000000000e+02 0.0000e+00 0.0000e+00
</event>
<event>
 5      1 +6.7420000e-10 2.43444700e+02 7.95774700e-02 4.40628900e-01
       13 -1    0    0    0    0 +0.0000000000e+00 +0.0000000000e+00 +4.9999998884e+02 5.0000000000e+02 1.0566000000e-01 0.0000e+00 -1.0000e+00
      994 -1    0    0    0    0 -0.0000000000e+00 -0.0000000000e+00 +0.0000000000e+00 1.3100000000e+02 1.3100000000e+02 0.0000e+00 0.0000e+00
       13  1    1    2    0    0 +9.4653813528e+00 +1.0711560539e+01 -3.6536492347e+00 1.4754365120e+01 1.0566000000e-01 0.0000e+00 1.0000e+00
      994  1    1    2    0    0 +1.2468869845e+01 -1.7417998176e+01 +1.0355191085e+02 1.6835337127e+02 1.3100000000e+02 0.0000e+00 0.0000e+00
      997  1    1    2    0    0 -2.1934251198e+01 +6.7064376370e+00 +4.0010172722e+02 4.4789226361e+02 2.0000000000e+02 0.0000e+00 0.0000e+00
</event>
<event>
 5      1 +6.7420000e-10 2.37806800e+02 7.95774700e-02 4.47267400e-01
       13 -1    0    0    0    0 +0.0000000000e+00 +0.0000000000e+00 +4.9999998884e+02 5.0000000000e+02 1.0566000000e-01 0.0000e+00 1.0000e+00
      994 -1    0    0    0    0 -0.0000000000e+00 -0.0000000000e+00 +0.0000000000e+00 1.3100000000e+02 1.3100000000e+02 0.0000e+00 0.0000e+00
       13  1    1    2    0    0 -2.1291721782e+01 +3.0485471925e+00 +7.4643942178e+00 2.2767507582e+01 1.0566000000e-01 0.0000e+00 -1.0000e+00
      994  1    1    2    0    0 +5.5732066309e+01 +6.5175483215e+00 +1.3126778795e+02 1.9375441622e+02 1.3100000000e+02 0.0000e+00 0.0000e+00
      997  1    1    2    0    0 -3.4440344528e+01 -9.5660955140e+00 +3.6126780667e+02 4.1447807620e+02 2.0000000000e+02 0.0000e+00 0.0000e+00
</event>
<event>
 5      1 +6.7420000e-10 2.40637100e+02 7.95774700e-02 4.43888700e-01
       13 -1    0    0    0    0 +0.0000000000e+00 +0.0000000000e+00 +4.9999998884e+02 5.0000000000e+02 1.0566000000e-01 0.0000e+00 1.0000e+00
      994 -1    0    0    0    0 -0.0000000000e+00 -0.0000000000e+00 +0.0000000000e+00 1.3100000000e+02 1.3100000000e+02 0.0000e+00 0.0000e+00
       13  1    1    2    0    0 +2.9525272560e+01 -2.6832395962e+00 +3.9576222452e+01 4.9449267357e+01 1.0566000000e-01 0.0000e+00 -1.0000e+00
      994  1    1    2    0    0 +1.5381668541e+00 +6.4425795245e+00 +8.8897151064e+01 1.5845370382e+02 1.3100000000e+02 0.0000e+00 0.0000e+00
      997  1    1    2    0    0 -3.1063439414e+01 -3.7593399282e+00 +3.7152661532e+02 4.2309702882e+02 2.0000000000e+02 0.0000e+00 0.0000e+00
</event>
<event>
 5      1 +6.7420000e-10 2.30431100e+02 7.95774700e-02 4.56541200e-01
       13 -1    0    0    0    0 +0.0000000000e+00 +0.0000000000e+00 +4.9999998884e+02 5.0000000000e+02 1.0566000000e-01 0.0000e+00 1.0000e+00
      994 -1    0    0    0    0 -0.0000000000e+00 -0.0000000000e+00 +0.0000000000e+00 1.3100000000e+02 1.3100000000e+02 0.0000e+00 0.0000e+00
       13  1    1    2    0    0 +1.3352939861e+00 -1.1416253006e+01 +7.7355171302e+00 1.3855079647e+01 1.0566000000e-01 0.0000e+00 -1.0000e+00
      994  1    1    2    0    0 -1.9453372091e+01 +1.0069720472e+01 +7.1334262312e+01 1.5076276044e+02 1.3100000000e+02 0.0000e+00 0.0000e+00
      997  1    1    2    0    0 +1.8118078105e+01 +1.3465325339e+00 +4.2093020939e+02 4.6638215991e+02 2.0000000000e+02 0.0000e+00 0.0000e+00
</event>
<event>
 5      1 +6.7420000e-10 2.33391000e+02 7.95774700e-02 4.52735000e-01
       13 -1    0    0    0    0 +0.0000000000e+00 +0.0000000000e+00 +4.9999998884e+02 5.0000000000e+02 1.0566000000e-01 0.0000e+00 -1.0000e+00
      994 -1    0    0    0    0 -0.0000000000e+00 -0.0000000000e+00 +0.0000000000e+00 1.3100000000e+02 1.3100000000e+02 0.0000e+00 0.0000e+00
       13  1    1    2    0    0 -3.0807636975e+00 -1.0713594256e+01 +3.4698462321e+00 1.1675752813e+01 1.0566000000e-01 0.0000e+00 1.0000e+00
      994  1    1    2    0    0 -5.1761595141e+00 -1.9506399794e+01 +7.6456193885e+01 1.5301582220e+02 1.3100000000e+02 0.0000e+00 0.0000e+00
      997  1    1    2    0    0 +8.2569232116e+00 +3.0219994050e+01 +4.2007394872e+02 4.6630842499e+02 2.0000000000e+02 0.0000e+00 0.0000e+00
</event>
<event>
 5      1 +6.7420000e-10 2.37961300e+02 7.95774700e-02 4.47080600e-01
       13 -1    0    0    0    0 +0.0000000000e+00 +0.0000000000e+00 +4.9999998884e+02 5.0000000000e+02 1.0566000000e-01 0.0000e+00 1.0000e+00
      994 -1    0    0    0    0 -0.0000000000e+00 -0.0000000000e+00 +0.0000000000e+00 1.3100000000e+02 1.3100000000e+02 0.0000e+00 0.0000e+00
       13  1    1    2    0    0 +1.4163172901e+01 +2.6112354735e+00 +1.8091288531e+00 1.4515444483e+01 1.0566000000e-01 0.0000e+00 -1.0000e+00
      994  1    1    2    0    0 -3.8129318875e-01 +3.4158972874e+01 +9.7179243109e+01 1.6664869067e+02 1.3100000000e+02 0.0000e+00 0.0000e+00
      997  1    1    2    0    0 -1.3781879712e+01 -3.6770208348e+01 +4.0101161687e+02 4.4983586484e+02 2.0000000000e+02 0.0000e+00 0.0000e+00
</event>
<event>
 5      1 +6.7420000e-10 2.34446900e+02 7.95774700e-02 4.51405100e-01
       13 -1    0    0    0    0 +0.0000000000e+00 +0.0000000000e+00 +4.9999998884e+02 5.0000000000e+02 1.0566000000e-01 0.0000e+00 1.0000e+00
      994 -1    0    0    0    0 -0.0000000000e+00 -0.0000000000e+00 +0.0000000000e+00 1.3100000000e+02 1.3100000000e+02 0.0000e+00 0.0000e+00
       13  1    1    2    0    0 +1.4325526791e+01 -3.5878994516e+00 +6.1114632899e+00 1.5982956168e+01 1.0566000000e-01 0.0000e+00 -1.0000e+00
      994  1    1    2    0    0 -2.3152092149e+01 -1.5726771613e+01 +8.3109521439e+01 1.5764372258e+02 1.3100000000e+02 0.0000e+00 0.0000e+00
      997  1    1    2    0    0 +8.8265653581e+00 +1.9314671064e+01 +4.1077900411e+02 4.5737332125e+02 2.0000000000e+02 0.0000e+00 0.0000e+00
</event>
<event>
 5      1 +6.7420000e-10 2.40468800e+02 7.95774700e-02 4.44087000e-01
       13 -1    0    0    0    0 +0.0000000000e+00 +0.0000000000e+00 +4.9999998884e+02 5.0000000000e+02 1.0566000000e-01 0.0000e+00 1.0000e+00
      994 -1    0    0    0    0 -0.0000000000e+00 -0.0000000000e+00 +0.0000000000e+00 1.3100000000e+02 1.3100000000e+02 0.0000e+00 0.0000e+00
       13  1    1    2    0    0 +3.0690580042e+01 +1.3704515620e+01 +5.5370484957e+01 6.4773661469e+01 1.0566000000e-01 0.0000e+00 -1.0000e+00
      994  1    1    2    0    0 -1.2006832894e+01 -3.6050311863e+01 +1.0969534478e+02 1.7503673240e+02 1.3100000000e+02 0.0000e+00 0.0000e+00
      997  1    1    2    0    0 -1.8683747148e+01 +2.2345796243e+01 +3.3493415909e+02 3.9118960613e+02 2.0000000000e+02 0.0000e+00 0.0000e+00
</event>
<event>
 5      1 +6.7420000e-10 2.33680100e+02 7.95774700e-02 4.52369400e-01
       13 -1    0    0    0    0 +0.0000000000e+00 +0.0000000000e+00 +4.9999998884e+02 5.0000000000e+02 1.0566000000e-01 0.0000e+00 1.0000e+00
      994 -1    0    0    0    0 -0.0000000000e+00 -0.0000000000e+00 +0.0000000000e+00 1.3100000000e+02 1.3100000000e+02 0.0000e+00 0.0000e+00
       13  1    1    2    0    0 -1.6052565246e+01 -1.5023130595e+01 +2.9404333771e+01 3.6715191847e+01 1.0566000000e-01 0.0000e+00 -1.0000e+00
      994  1    1    2    0    0 +2.0682008105e+01 +2.1582778269e+01 +8.2666007320e+01 1.5776004102e+02 1.3100000000e+02 0.0000e+00 0.0000e+00
      997  1    1    2    0    0 -4.6294428596e+00 -6.5596476736e+00 +3.8792964775e+02 4.3652476713e+02 2.0000000000e+02 0.0000e+00 0.0000e+00
</event>
<event>
 5      1 +6.7420000e-10 2.34441700e+02 7.95774700e-02 4.51411700e-01
       13 -1    0    0    0    0 +0.0000000000e+00 +0.0000000000e+00 +4.9999998884e+02 5.0000000000e+02 1.0566000000e-01 0.0000e+00 -1.0000e+00
      994 -1    0    0    0    0 -0.0000000000e+00 -0.0000000000e+00 +0.0000000000e+00 1.3100000000e+02 1.3100000000e+02 0.0000e+00 0.0000e+00
       13  1    1    2    0    0 -2.0174279256e+01 -7.8410659728e+00 +3.1995760710e+01 3.8629311753e+01 1.0566000000e-01 0.0000e+00 1.0000e+00
      994  1    1    2    0    0 +1.4158848846e+01 -1.1105894775e+01 +7.7730487216e+01 1.5338462290e+02 1.3100000000e+02 0.0000e+00 0.0000e+00
      997  1    1    2    0    0 +6.0154304101e+00 +1.8946960748e+01 +3.9027374091e+02 4.3898606535e+02 2.0000000000e+02 0.0000e+00 0.0000e+00
</event>
<event>
 5      1 +6.7420000e-10 2.36906600e+02 7.95774700e-02 4.48362300e-01
       13 -1    0    0    0    0 +0.0000000000e+00 +0.0000000000e+00 +4.9999998884e+02 5.0000000000e+02 1.0566000000e-01 0.0000e+00 1.0000e+00
      994 -1    0    0    0    0 -0.0000000000e+00 -0.0000000000e+00 +0.0000000000e+00 1.3100000000e+02 1.3100000000e+02 0.0000e+00 0.0000e+00
       13  1    1    2    0    0 +2.1169264021e+01 +7.4025628203e+00 +1.1993098315e+01 2.5431894282e+01 1.0566000000e-01 0.0000e+00 -1.0000e+00
      994  1    1    2    0    0 -1.3133890916e+01 -6.4759054085e+01 +1.6031484981e+02 2.1732023662e+02 1.3100000000e+02 0.0000e+00 0.0000e+00
      997  1    1    2    0    0 -8.0353731050e+00 +5.7356491265e+01 +3.2769204071e+02 3.8824786910e+02 2.0000000000e+02 0.0000e+00 0.0000e+00
</event>
<event>
 5      1 +6.7420000e-10 2.45797300e+02 7.95774700e-02 4.37965100e-01
       13 -1    0    0    0    0 +0.0000000000e+00 +0.0000000000e+00 +4.9999998884e+02 5.0000000000e+02 1.0566000000e-01 0.0000e+00 -1.0000e+00
      994 -1    0    0    0    0 -0.0000000000e+00 -0.0000000000e+00 +0.0000000000e+00 1.3100000000e+02 1.3100000000e+02 0.0000e+00 0.0000e+00
       13  1    1    2    0    0 -1.3256632453e+01 +1.1681517586e+01 -2.6167610998e+00 1.7862104013e+01 1.0566000000e-01 0.0000e+00 1.0000e+00
      994  1    1    2    0    0 -4.1744011371e+00 -1.5738645098e+01 +1.0873061865e+02 1.7102186412e+02 1.3100000000e+02 0.0000e+00 0.0000e+00
      997  1    1    2    0    0 +1.7431033590e+01 +4.0571275122e+00 +3.9388613129e+02 4.4211603187e+02 2.0000000000e+02 0.0000e+00 0.0000e+00
</event>
<event>
 5      1 +6.7420000e-10 2.47978000e+02 7.95774700e-02 4.35548700e-01
       13 -1    0    0    0    0 +0.0000000000e+00 +0.0000000000e+00 +4.9999998884e+02 5.0000000000e+02 1.0566000000e-01 0.0000e+00 1.0000e+00
      994 -1    0    0    0    0 -0.0000000000e+00 -0.0000000000e+00 +0.0000000000e+00 1.3100000000e+02 1.3100000000e+02 0.0000e+00 0.0000e+00
       13  1    1    2    0    0 -3.8282717756e+01 +1.6909026991e+01 +8.8432968649e+01 9.7835999410e+01 1.0566000000e-01 0.0000e+00 -1.0000e+00
      994  1    1    2    0    0 +2.6965706158e+01 +1.0956296128e+01 +1.3316476104e+02 1.8905301721e+02 1.3100000000e+02 0.0000e+00 0.0000e+00
      997  1    1    2    0    0 +1.1317011598e+01 -2.7865323119e+01 +2.7840225915e+02 3.4411098338e+02 2.0000000000e+02 0.0000e+00 0.0000e+00
</event>
<event>
 5      1 +6.7420000e-10 2.52164700e+02 7.95774700e-02 4.31046500e-01
       13 -1    0    0    0    0 +0.0000000000e+00 +0.0000000000e+00 +4.9999998884e+02 5.0000000000e+02 1.0566000000e-01 0.0000e+00 -1.0000e+00
      994 -1    0    0    0    0 -0.0000000000e+00 -0.0000000000e+00 +0.0000000000e+00 1.3100000000e+02 1.3100000000e+02 0.0000e+00 0.0000e+00
       13  1    1    2    0    0 +9.3648095061e+00 +2.8199539574e+01 +2.3827277366e+00 2.9809432145e+01 1.0566000000e-01 0.0000e+00 1.0000e+00
      994  1    1    2    0    0 +1.3145729275e+01 -1.4540691087e+01 +1.5797295464e+02 2.0615697003e+02 1.3100000000e+02 0.0000e+00 0.0000e+00
      997  1    1    2    0    0 -2.2510538781e+01 -1.3658848487e+01 +3.3964430646e+02 3.9503359782e+02 2.0000000000e+02 0.0000e+00 0.0000e+00
</event>
<event>
 5      1 +6.7420000e-10 2.32864700e+02 7.95774700e-02 4.53403300e-01
       13 -1    0    0    0    0 +0.0000000000e+00 +0.0000000000e+00 +4.9999998884e+02 5.0000000000e+02 1.0566000000e-01 0.0000e+00 1.0000e+00
      994 -1    0    0    0    0 -0.0000000000e+00 -0.0000000000e+00 +0.0000000000e+00 1.3100000000e+02 1.3100000000e+02 0.0000e+00 0.0000e+00
       13  1    1    2    0    0 +2.2216136084e+01 -1.3910310545e+00 +3.9038177873e+01 4.4938648907e+01 1.0566000000e-01 0.0000e+00 -1.0000e+00
      994  1    1    2    0    0 -5.1210842022e+01 -5.1530040490e+01 +1.5473433868e+02 2.1536390361e+02 1.3100000000e+02 0.0000e+00 0.0000e+00
      997  1    1    2    0    0 +2.8994705939e+01 +5.2921071544e+01 +3.0622747229e+02 3.7069744748e+02 2.0000000000e+02 0.0000e+00 0.0000e+00
</event>
<event>
 5      1 +6.7420000e-10 2.40681500e+02 7.95774700e-02 4.43836500e-01
       13 -1    0    0    0    0 +0.0000000000e+00 +0.0000000000e+00 +4.9999998884e+02 5.0000000000e+02 1.0566000000e-01 0.0000e+00 1.0000e+00
      994 -1    0    0    0    0 -0.0000000000e+00 -0.0000000000e+00 +0.0000000000e+00 1.3100000000e+02 1.3100000000e+02 0.0000e+00 0.0000e+00
       13  1    1    2    0    0 -1.0724094375e+01 -1.2222180040e+00 -5.9774368211e+00 1.2338595220e+01 1.0566000000e-01 0.0000e+00 -1.0000e+00
      994  1    1    2    0    0 +1.5235663302e+01 +5.2999916711e+01 +1.4714652235e+02 2.0458302873e+02 1.3100000000e+02 0.0000e+00 0.0000e+00
      997  1    1    2    0    0 -4.5115689267e+00 -5.1777698707e+01 +3.5883090331e+02 4.1407837605e+02 2.0000000000e+02 0.0000e+00 0.0000e+00
</event>
<event>
 5      1 +6.7420000e-10 2.33712000e+02 7.95774700e-02 4.52329100e-01
       13 -1    0    0    0    0 +0.0000000000e+00 +0.0000000000e+00 +4.9999998884e+02 5.0000000000e+02 1.0566000000e-01 0.0000e+00 1.0000e+00
      994 -1    0    0    0    0 -0.0000000000e+00 -0.0000000000e+00 +0.0000000000e+00 1.3100000000e+02 1.3100000000e+02 0.0000e+00 0.0000e+00
       13  1    1    2    0    0 -1.7443182708e+01 +1.2825535634e+00 +1.3577147889e+01 2.2141808315e+01 1.0566000000e-01 0.0000e+00 -1.0000e+00
      994  1    1    2    0    0 +2.1269078560e+01 -1.3796928479e+00 +7.7659492911e+01 1.5377345055e+02 1.3100000000e+02 0.0000e+00 0.0000e+00
      997  1    1    2    0    0 -3.8258958521e+00 +9.7139284497e-02 +4.0876334804e+02 4.5508474113e+02 2.0000000000e+02 0.0000e+00 0.0000e+00
</event>
<event>
 5      1 +6.7420000e-10 2.28889000e+02 7.95774700e-02 4.58571600e-01
       13 -1    0    0    0    0 +0.0000000000e+00 +0.0000000000e+00 +4.9999998884e+02 5.0000000000e+02 1.0566000000e-01 0.0000e+00 1.0000e+00
      994 -1    0    0    0    0 -0.0000000000e+00 -0.0000000000e+00 +0.0000000000e+00 1.3100000000e+02 1.3100000000e+02 0.0000e+00 0.0000e+00
       13  1    1    2    0    0 +6.1668963022e+00 +9.6354140959e+00 +1.5788275230e+01 1.9497502752e+01 1.0566000000e-01 0.0000e+00 -1.0000e+00
      994  1    1    2    0    0 +4.2492915831e+01 -2.5139206881e+01 +8.9742122791e+01 1.6628973577e+02 1.3100000000e+02 0.0000e+00 0.0000e+00
      997  1    1    2    0    0 -4.8659812133e+01 +1.5503792785e+01 +3.9446959082e+02 4.4521276148e+02 2.0000000000e+02 0.0000e+00 0.0000e+00
</event>
<event>
 5      1 +6.7420000e-10 2.43610700e+02 7.95774700e-02 4.40439000e-01
       13 -1    0    0    0    0 +0.0000000000e+00 +0.0000000000e+00 +4.9999998884e+02 5.0000000000e+02 1.0566000000e-01 0.0000e+00 1.0000e+00
      994 -1    0    0    0    0 -0.0000000000e+00 -0.0000000000e+00 +0.0000000000e+00 1.3100000000e+02 1.3100000000e+02 0.0000e+00 0.0000e+00
       13  1    1    2    0    0 -2.4553335667e+01 -2.3511243995e+01 +1.9445834851e+01 3.9163714630e+01 1.0566000000e-01 0.0000e+00 -1.0000e+00
      994  1    1    2    0    0 -9.6028418961e+00 +5.0024472426e+01 +2.0741005629e+02 2.5054858584e+02 1.3100000000e+02 0.0000e+00 0.0000e+00
      997  1    1    2    0    0 +3.4156177563e+01 -2.6513228432e+01 +2.7314409769e+02 3.4128769953e+02 2.0000000000e+02 0.0000e+00 0.0000e+00
</event>
<event>
 5      1 +6.7420000e-10 2.29248700e+02 7.95774700e-02 4.58095100e-01
       13 -1    0    0    0    0 +0.0000000000e+00 +0.0000000000e+00 +4.9999998884e+02 5.0000000000e+02 1.0566000000e-01 0.0000e+00 1.0000e+00
      994 -1    0    0    0    0 -0.0000000000e+00 -0.0000000000e+00 +0.0000000000e+00 1.3100000000e+02 1.3100000000e+02 0.0000e+00 0.0000e+00
       13  1    1    2    0    0 +1.1371564769e+01 -8.1699521638e+00 +1.7424263339e+01 2.2353449859e+01 1.0566000000e-01 0.0000e+00 -1.0000e+00
      994  1    1    2    0    0 -4.5759083663e+01 -2.0562488886e+00 +8.6601060552e+01 1.6358137298e+02 1.3100000000e+02 0.0000e+00 0.0000e+00
      997  1    1    2    0    0 +3.4387518894e+01 +1.0226201052e+01 +3.9597466494e+02 4.4506517716e+02 2.0000000000e+02 0.0000e+00 0.0000e+00
</event>
<event>
 5      1 +6.7420000e-10 2.28608400e+02 7.95774700e-02 4.58944500e-01
       13 -1    0    0    0    0 +0.0000000000e+00 +0.0000000000e+00 +4.9999998884e+02 5.0000000000e+02 1.0566000000e-01 0.0000e+00 -1.0000e+00
      994 -1    0    0    0    0 -0.0000000000e+00 -0.0000000000e+00 +0.0000000000e+00 1.3100000000e+02 1.3100000000e+02 0.0000e+00 0.0000e+00
       13  1    1    2    0    0 +5.8952437805e+00 -8.5665834950e+00 +8.3063427468e+00 1.3309648601e+01 1.0566000000e-01 0.0000e+00 1.0000e+00
      994  1    1    2    0    0 -8.8587639058e-01 +3.5637970699e+01 +7.6055936381e+01 1.5561605056e+02 1.3100000000e+02 0.0000e+00 0.0000e+00
      997  1    1    2    0    0 -5.0093673899e+00 -2.7071387204e+01 +4.1563770971e+02 4.6207430084e+02 2.0000000000e+02 0.0000e+00 0.0000e+00
</event>
<event>
 5      1 +6.7420000e-10 2.39659000e+02 7.95774700e-02 4.45045700e-01
       13 -1    0    0    0    0 +0.0000000000e+00 +0.0000000000e+00 +4.9999998884e+02 5.0000000000e+02 1.0566000000e-01 0.0000e+00 -1.0000e+00
      994 -1    0    0    0    0 -0.0000000000e+00 -0.0000000000e+00 +0.0000000000e+00 1.3100000000e+02 1.3100000000e+02 0.0000e+00 0.0000e+00
       13  1    1    2    0    0 +3.3120212166e+01 -2.2997150346e+00 +4.8035017413e+01 5.8391876191e+01 1.0566000000e-01 0.0000e+00 1.0000e+00
      994  1    1    2    0    0 -3.4667242142e+01 -2.1136163387e+01 +1.1023443670e+02 1.7595791006e+02 1.3100000000e+02 0.0000e+00 0.0000e+00
      997  1    1    2    0    0 +1.5470299756e+00 +2.3435878422e+01 +3.4173053473e+02 3.9665021375e+02 2.0000000000e+02 0.0000e+00 0.0000e+00
</event>
<event>
 5      1 +6.7420000e-10 2.50865400e+02 7.95774700e-02 4.32425000e-01
       13 -1    0    0    0    0 +0.0000000000e+00 +0.0000000000e+00 +4.9999998884e+02 5.0000000000e+02 1.0566000000e-01 0.0000e+00 -1.0000e+00
      994 -1    0    0    0    0 -0.0000000000e+00 -0.0000000000e+00 +0.0000000000e+00 1.3100000000e+02 1.3100000000e+02 0.0000e+00 0.0000e+00
       13  1    1    2    0    0 +2.2153752059e+01 -6.3430220665e+00 +1.2996259863e+02 1.3198981350e+02 1.0566000000e-01 0.0000e+00 1.0000e+00
      994  1    1    2    0    0 -2.7075176313e+01 +6.8344343914e+00 +1.6529818806e+02 2.1275400265e+02 1.3100000000e+02 0.0000e+00 0.0000e+00
      997  1    1    2    0    0 +4.9214242534e+00 -4.9141232489e-01 +2.0473920214e+02 2.8625618385e+02 2.0000000000e+02 0.0000e+00 0.0000e+00
</event>
<event>
 5      1 +6.7420000e-10 2.40336600e+02 7.95774700e-02 4.44243000e-01
       13 -1    0    0    0    0 +0.0000000000e+00 +0.0000000000e+00 +4.9999998884e+02 5.0000000000e+02 1.0566000000e-01 0.0000e+00 -1.0000e+00
      994 -1    0    0    0    0 -0.0000000000e+00 -0.0000000000e+00 +0.0000000000e+00 1.3100000000e+02 1.3100000000e+02 0.0000e+00 0.0000e+00
       13  1    1    2    0    0 -2.6369253592e+01 +4.0167432492e+00 +2.2966691138e+01 3.5198747523e+01 1.0566000000e-01 0.0000e+00 1.0000e+00
      994  1    1    2    0    0 +6.2310831702e+00 -3.5743771025e+00 +8.8214722262e+01 1.5809629911e+02 1.3100000000e+02 0.0000e+00 0.0000e+00
      997  1    1    2    0    0 +2.0138170422e+01 -4.4236614669e-01 +3.8881857544e+02 4.3770495336e+02 2.0000000000e+02 0.0000e+00 0.0000e+00
</event>
<event>
 5      1 +6.7420000e-10 2.31785400e+02 7.95774700e-02 4.54785200e-01
       13 -1    0    0    0    0 +0.0000000000e+00 +0.0000000000e+00 +4.9999998884e+02 5.0000000000e+02 1.0566000000e-01 0.0000e+00 -1.0000e+00
      994 -1    0    0    0    0 -0.0000000000e+00 -0.0000000000e+00 +0.0000000000e+00 1.3100000000e+02 1.3100000000e+02 0.0000e+00 0.0000e+00
       13  1    1    2    0    0 -2.3650674214e+00 +1.4144883776e+01 +1.3836602456e+01 1.9928221509e+01 1.0566000000e-01 0.0000e+00 1.0000e+00
      994  1    1    2    0    0 +1.3406173833e+01 +6.6603025811e+00 +7.1257003665e+01 1.4987543394e+02 1.3100000000e+02 0.0000e+00 0.0000e+00
      997  1    1    2    0    0 -1.1041106412e+01 -2.0805186357e+01 +4.1490638271e+02 4.6119634455e+02 2.0000000000e+02 0.0000e+00 0.0000e+00
</event>
<event>
 5      1 +6.7420000e-10 2.35696400e+02 7.95774700e-02 4.49850000e-01
       13 -1    0    0    0    0 +0.0000000000e+00 +0.0000000000e+00 +4.9999998884e+02 5.0000000000e+02 1.0566000000e-01 0.0000e+00 1.0000e+00
      994 -1    0    0    0    0 -0.0000000000e+00 -0.0000000000e+00 +0.0000000000e+00 1.3100000000e+02 1.3100000000e+02 0.0000e+00 0.0000e+00
       13  1    1    2    0    0 -2.0960630818e+01 -1.5026660976e+01 +4.8334117825e+01 5.4784547952e+01 1.0566000000e-01 0.0000e+00 -1.0000e+00
      994  1    1    2    0    0 +1.3321275398e+01 +2.1846262427e+01 +8.4465888093e+01 1.5795632881e+02 1.3100000000e+02 0.0000e+00 0.0000e+00
      997  1    1    2    0    0 +7.6393554197e+00 -6.8196014509e+00 +3.6719998292e+02 4.1825912324e+02 2.0000000000e+02 0.0000e+00 0.0000e+00
</event>
<event>
 5      1 +6.7420000e-10 2.32343100e+02 7.95774700e-02 4.54069200e-01
       13 -1    0    0    0    0 +0.0000000000e+00 +0.0000000000e+00 +4.9999998884e+02 5.0000000000e+02 1.0566000000e-01 0.0000e+00 -1.0000e+00
      994 -1    0    0    0    0 -0.0000000000e+00 -0.0000000000e+00 +0.0000000000e+00 1.3100000000e+02 1.3100000000e+02 0.0000e+00 0.0000e+00
       13  1    1    2    0    0 -1.8854727138e+01 -6.7684584703e+00 +4.8153794337e+01 5.2154691435e+01 1.0566000000e-01 0.0000e+00 1.0000e+00
      994  1    1    2    0    0 +2.2302666650e+01 +3.4421009979e+01 +8.9012251507e+01 1.6360438804e+02 1.3100000000e+02 0.0000e+00 0.0000e+00
      997  1    1    2    0    0 -3.4479395116e+00 -2.7652551509e+01 +3.6283394299e+02 4.1524092052e+02 2.0000000000e+02 0.0000e+00 0.0000e+00
</event>
<event>
 5      1 +6.7420000e-10 2.44557100e+02 7.95774700e-02 4.39361900e-01
       13 -1    0    0    0    0 +0.0000000000e+00 +0.0000000000e+00 +4.9999998884e+02 5.0000000000e+02 1.0566000000e-01 0.0000e+00 1.0000e+00
      994 -1    0    0    0    0 -0.0000000000e+00 -0.0000000000e+00 +0.0000000000e+00 1.3100000000e+02 1.3100000000e+02 0.0000e+00 0.0000e+00
       13  1    1    2    0    0 +2.1681472006e+01 +1.3145784819e+01 +1.3335426392e+01 2.8648606387e+01 1.0566000000e-01 0.0000e+00 -1.0000e+00
      994  1    1    2    0    0 +2.1720163921e+01 +3.3023456395e+01 +1.3106986695e+02 1.8947987813e+02 1.3100000000e+02 0.0000e+00 0.0000e+00
      997  1    1    2    0    0 -4.3401635927e+01 -4.6169241213e+01 +3.5559469549e+02 4.1287151549e+02 2.0000000000e+02 0.0000e+00 0.0000e+00
</event>
<event>
 5      1 +6.7420000e-10 2.29974100e+02 7.95774700e-02 4.57139500e-01
       13 -1    0    0    0    0 +0.0000000000e+00 +0.0000000000e+00 +4.9999998884e+02 5.0000000000e+02 1.0566000000e-01 0.0000e+00 -1.0000e+00
      994 -1    0    0    0    0 -0.0000000000e+00 -0.0000000000e+00 +0.0000000000e+00 1.3100000000e+02 1.3100000000e+02 0.0000e+00 0.0000e+00
       13  1    1    2    0    0 -1.2109294841e+01 -4.3674456534e+00 +4.2363400523e+01 4.4276161430e+01 1.0566000000e-01 0.0000e+00 1.0000e+00
      994  1    1    2    0    0 -2.8600095891e+00 +3.0169681230e+01 +7.5052528884e+01 1.5398789372e+02 1.3100000000e+02 0.0000e+00 0.0000e+00
      997  1    1    2    0    0 +1.4969304430e+01 -2.5802235577e+01 +3.8258405943e+02 4.3273594485e+02 2.0000000000e+02 0.0000e+00 0.0000e+00
</event>
<event>
 5      1 +6.7420000e-10 2.33736100e+02 7.95774700e-02 4.52298800e-01
       13 -1    0    0    0    0 +0.0000000000e+00 +0.0000000000e+00 +4.9999998884e+02 5.0000000000e+02 1.0566000000e-01 0.0000e+00 -1.0000e+00
      994 -1    0    0    0    0 -0.0000000000e+00 -0.0000000000e+00 +0.0000000000e+00 1.3100000000e+02 1.3100000000e+02 0.0000e+00 0.0000e+00
       13  1    1    2    0    0 +9.8582015145e+00 -1.5357531234e+01 +3.8575116933e+01 4.2674216022e+01 1.0566000000e-01 0.0000e+00 1.0000e+00
      994  1    1    2    0    0 +6.0476247313e+01 +3.6223594766e+01 +1.5223775546e+02 2.1285408029e+02 1.3100000000e+02 0.0000e+00 0.0000e+00
      997  1    1    2    0    0 -7.0334448828e+01 -2.0866063532e+01 +3.0918711644e+02 3.7547170369e+02 2.0000000000e+02 0.0000e+00 0.0000e+00
</event>
<event>
 5      1 +6.7420000e-10 2.38581900e+02 7.95774700e-02 4.46332800e-01
       13 -1    0    0    0    0 +0.0000000000e+00 +0.0000000000e+00 +4.9999998884e+02 5.0000000000e+02 1.0566000000e-01 0.0000e+00 1.0000e+00
      994 -1    0    0    0    0 -0.0000000000e+00 -0.0000000000e+00 +0.0000000000e+00 1.3100000000e+02 1.3100000000e+02 0.0000e+00 0.0000e+00
       13  1    1    2    0    0 -2.5627188626e+01 +1.7797540896e+01 +6.0330417130e+01 6.7921098739e+01 1.0566000000e-01 0.0000e+00 -1.0000e+00
      994  1    1    2    0    0 +8.2110948155e+00 -4.8989002910e+01 +1.2081507139e+02 1.8499898908e+02 1.3100000000e+02 0.0000e+00 0.0000e+00
      997  1    1    2    0    0 +1.7416093811e+01 +3.1191462014e+01 +3.1885450031e+02 3.7807991218e+02 2.0000000000e+02 0.0000e+00 0.0000e+00
</event>
<event>
 5      1 +6.7420000e-10 2.39013300e+02 7.95774700e-02 4.45815600e-01
       13 -1    0    0    0    0 +0.0000000000e+00 +0.0000000000e+00 +4.9999998884e+02 5.0000000000e+02 1.0566000000e-01 0.0000e+00 -1.0000e+00
      994 -1    0    0    0    0 -0.0000000000e+00 -0.0000000000e+00 +0.0000000000e+00 1.3100000000e+02 1.3100000000e+02 0.0000e+00 0.0000e+00
       13  1    1    2    0    0 +3.9601417028e+00 -1.1002190347e+01 -7.1443801095e+00 1.3703439201e+01 1.0566000000e-01 0.0000e+00 1.0000e+00
      994  1    1    2    0    0 +2.4629991533e+01 +5.6133666186e+01 +2.2102677345e+02 2.6414287714e+02 1.3100000000e+02 0.0000e+00 0.0000e+00
      997  1    1    2    0    0 -2.8590133236e+01 -4.5131475838e+01 +2.8611759550e+02 3.5315368366e+02 2.0000000000e+02 0.0000e+00 0.0000e+00
</event>
<event>
 5      1 +6.7420000e-10 2.32842500e+02 7.95774700e-02 4.53431500e-01
       13 -1    0    0    0    0 +0.0000000000e+00 +0.0000000000e+00 +4.9999998884e+02 5.0000000000e+02 1.0566000000e-01 0.0000e+00 1.0000e+00
      994 -1    0    0    0    0 -0.0000000000e+00 -0.0000000000e+00 +0.0000000000e+00 1.3100000000e+02 1.3100000000e+02 0.0000e+00 0.0000e+00
       13  1    1    2    0    0 -1.0192591702e+01 -1.6441527385e+01 +2.5687536028e+01 3.2157011982e+01 1.0566000000e-01 0.0000e+00 -1.0000e+00
      994  1    1    2    0    0 +1.3397626425e+01 +1.3262688399e+01 +7.4754868946e+01 1.5200225567e+02 1.3100000000e+02 0.0000e+00 0.0000e+00
      997  1    1    2    0    0 -3.2050347230e+00 +3.1788389862e+00 +3.9955758386e+02 4.4684073235e+02 2.0000000000e+02 0.0000e+00 0.0000e+00
</event>
<event>
 5      1 +6.7420000e-10 2.48142200e+02 7.95774700e-02 4.35368800e-01
       13 -1    0    0    0    0 +0.0000000000e+00 +0.0000000000e+00 +4.9999998884e+02 5.0000000000e+02 1.0566000000e-01 0.0000e+00 1.0000e+00
      994 -1    0    0    0    0 -0.0000000000e+00 -0.0000000000e+00 +0.0000000000e+00 1.3100000000e+02 1.3100000000e+02 0.0000e+00 0.0000e+00
       13  1    1    2    0    0 +3.3523909637e+01 -2.7514490932e+01 +4.5168705109e+01 6.2618869471e+01 1.0566000000e-01 0.0000e+00 -1.0000e+00
      994  1    1    2    0    0 -3.7317016335e+01 -1.1745908975e+01 +1.7115499977e+02 2.1905606595e+02 1.3100000000e+02 0.0000e+00 0.0000e+00
      997  1    1    2    0    0 +3.7931066979e+00 +3.9260399907e+01 +2.8367628396e+02 3.4932506458e+02 2.0000000000e+02 0.0000e+00 0.0000e+00
</event>
<event>
 5      1 +6.7420000e-10 2.30244100e+02 7.95774700e-02 4.56785700e-01
       13 -1    0    0    0    0 +0.0000000000e+00 +0.0000000000e+00 +4.9999998884e+02 5.0000000000e+02 1.0566000000e-01 0.0000e+00 1.0000e+00
      994 -1    0    0    0    0 -0.0000000000e+00 -0.0000000000e+00 +0.0000000000e+00 1.3100000000e+02 1.3100000000e+02 0.0000e+00 0.0000e+00
       13  1    1    2    0    0 +1.5236759450e+01 -3.3593924282e+00 +1.8913752603e+01 2.4519085578e+01 1.0566000000e-01 0.0000e+00 -1.0000e+00
      994  1    1    2    0    0 -3.4313872572e+01 +3.8998415031e+00 +7.8570829763e+01 1.5661106571e+02 1.3100000000e+02 0.0000e+00 0.0000e+00
      997  1    1    2    0    0 +1.9077113121e+01 -5.4044907493e-01 +4.0251540647e+02 4.4986984871e+02 2.0000000000e+02 0.0000e+00 0.0000e+00
</event>
<event>
 5      1 +6.7420000e-10 2.51142300e+02 7.95774700e-02 4.32129800e-01
       13 -1    0    0    0    0 +0.0000000000e+00 +0.0000000000e+00 +4.9999998884e+02 5.0000000000e+02 1.0566000000e-01 0.0000e+00 -1.0000e+00
      994 -1    0    0    0    0 -0.0000000000e+00 -0.0000000000e+00 +0.0000000000e+00 1.3100000000e+02 1.3100000000e+02 0.0000e+00 0.0000e+00
       13  1    1    2    0    0 +3.6831710498e+01 -1.7166427457e+01 +4.0458787552e+01 5.7342704715e+01 1.0566000000e-01 0.0000e+00 1.0000e+00
      994  1    1    2    0    0 +8.0161699743e+00 -2.5744987626e+01 +1.6925632689e+02 2.1572150463e+02 1.3100000000e+02 0.0000e+00 0.0000e+00
      997  1    1    2    0    0 -4.4847880473e+01 +4.2911415083e+01 +2.9028487439e+02 3.5793579065e+02 2.0000000000e+02 0.0000e+00 0.0000e+00
</event>
<event>
 5      1 +6.7420000e-10 2.32951500e+02 7.95774700e-02 4.53292800e-01
       13 -1    0    0    0    0 +0.0000000000e+00 +0.0000000000e+00 +4.9999998884e+02 5.0000000000e+02 1.0566000000e-01 0.0000e+00 1.0000e+00
      994 -1    0    0    0    0 -0.0000000000e+00 -0.0000000000e+00 +0.0000000000e+00 1.3100000000e+02 1.3100000000e+02 0.0000e+00 0.0000e+00
       13  1    1    2    0    0 +1.7597416356e+01 +5.2693677517e+00 +2.6461480097e+01 3.2212674397e+01 1.0566000000e-01 0.0000e+00 -1.0000e+00
      994  1    1    2    0    0 -7.6387311514e+00 +2.2693867475e+01 +7.7392509963e+01 1.5402584989e+02 1.3100000000e+02 0.0000e+00 0.0000e+00
      997  1    1    2    0    0 -9.9586852043e+00 -2.7963235227e+01 +3.9614599878e+02 4.4476147572e+02 2.0000000000e+02 0.0000e+00 0.0000e+00
</event>
<event>
 5      1 +6.7420000e-10 2.39709400e+02 7.95774700e-02 4.44985800e-01
       13 -1    0    0    0    0 +0.0000000000e+00 +0.0000000000e+00 +4.9999998884e+02 5.0000000000e+02 1.0566000000e-01 0.0000e+00 1.0000e+00
      994 -1    0    0    0    0 -0.0000000000e+00 -0.0000000000e+00 +0.0000000000e+00 1.3100000000e+02 1.3100000000e+02 0.0000e+00 0.0000e+00
       13  1    1    2    0    0 +2.0288133343e+01 +9.1440003889e+00 +6.5296294051e+00 2.3191988312e+01 1.0566000000e-01 0.0000e+00 -1.0000e+00
      994  1    1    2    0    0 -4.9773243676e+01 +3.1724899594e+01 +1.5422042356e+02 2.1078136560e+02 1.3100000000e+02 0.0000e+00 0.0000e+00
      997  1    1    2    0    0 +2.9485110333e+01 -4.0868899983e+01 +3.3924993587e+02 3.9702664609e+02 2.0000000000e+02 0.0000e+00 0.0000e+00
</event>
<event>
 5      1 +6.7420000e-10 2.36186900e+02 7.95774700e-02 4.49244800e-01
       13 -1    0    0    0    0 +0.0000000000e+00 +0.0000000000e+00 +4.9999998884e+02 5.0000000000e+02 1.0566000000e-01 0.0000e+00 -1.0000e+00
      994 -1    0    0    0    0 -0.0000000000e+00 -0.0000000000e+00 +0.0000000000e+00 1.3100000000e+02 1.3100000000e+02 0.0000e+00 0.0000e+00
       13  1    1    2    0    0 -2.1576470234e+01 +1.6080515452e+01 +5.1630308466e+01 5.8222220511e+01 1.0566000000e-01 0.0000e+00 1.0000e+00
      994  1    1    2    0    0 +6.9777659357e+00 -3.7811746991e+01 +9.6475309939e+01 1.6717327195e+02 1.3100000000e+02 0.0000e+00 0.0000e+00
      997  1    1    2    0    0 +1.4598704299e+01 +2.1731231539e+01 +3.5189437043e+02 4.0560450753e+02 2.0000000000e+02 0.0000e+00 0.0000e+00
</event>
<event>
 5      1 +6.7420000e-10 2.33581400e+02 7.95774700e-02 4.52494100e-01
       13 -1    0    0    0    0 +0.0000000000e+00 +0.0000000000e+00 +4.9999998884e+02 5.0000000000e+02 1.0566000000e-01 0.0000e+00 1.0000e+00
      994 -1    0    0    0    0 -0.0000000000e+00 -0.0000000000e+00 +0.0000000000e+00 1.3100000000e+02 1.3100000000e+02 0.0000e+00 0.0000e+00
       13  1    1    2    0    0 +6.3576161743e+00 +1.1968483536e+01 +4.0742473130e+00 1.4151838636e+01 1.0566000000e-01 0.0000e+00 -1.0000e+00
      994  1    1    2    0    0 -2.8735871963e+01 -2.8455100280e+01 +9.1538156430e+01 1.6485046907e+02 1.3100000000e+02 0.0000e+00 0.0000e+00
      997  1    1    2    0    0 +2.2378255788e+01 +1.6486616744e+01 +4.0438758509e+02 4.5199769230e+02 2.0000000000e+02 0.0000e+00 0.0000e+00
</event>
<event>
 5      1 +6.7420000e-10 2.35204900e+02 7.95774700e-02 4.50459300e-01
       13 -1    0    0    0    0 +0.0000000000e+00 +0.0000000000e+00 +4.9999998884e+02 5.0000000000e+02 1.0566000000e-01 0.0000e+00 -1.0000e+00
      994 -1    0    0    0    0 -0.0000000000e+00 -0.0000000000e+00 +0.0000000000e+00 1.3100000000e+02 1.3100000000e+02 0.0000e+00 0.0000e+00
       13  1    1    2    0    0 -2.3031519146e+01 -8.4107990957e+00 +5.4390565001e+01 5.9661856665e+01 1.0566000000e-01 0.0000e+00 1.0000e+00
      994  1    1    2    0    0 +1.6188399528e+01 +5.5090702364e+01 +1.2197857249e+02 1.8798090838e+02 1.3100000000e+02 0.0000e+00 0.0000e+00
      997  1    1    2    0    0 +6.8431196184e+00 -4.6679903269e+01 +3.2363085134e+02 3.8335723496e+02 2.0000000000e+02 0.0000e+00 0.0000e+00
</event>
<event>
 5      1 +6.7420000e-10 2.32658500e+02 7.95774700e-02 4.53666100e-01
       13 -1    0    0    0    0 +0.0000000000e+00 +0.0000000000e+00 +4.9999998884e+02 5.0000000000e+02 1.0566000000e-01 0.0000e+00 -1.0000e+00
      994 -1    0    0    0    0 -0.0000000000e+00 -0.0000000000e+00 +0.0000000000e+00 1.3100000000e+02 1.3100000000e+02 0.0000e+00 0.0000e+00
       13  1    1    2    0    0 -1.6000062035e+01 -1.8562843554e+00 +1.1739912112e+01 1.9931996317e+01 1.0566000000e-01 0.0000e+00 1.0000e+00
      994  1    1    2    0    0 +2.3983300877e+01 +3.1738022978e+01 +8.8558770327e+01 1.6305261919e+02 1.3100000000e+02 0.0000e+00 0.0000e+00
      997  1    1    2    0    0 -7.9832388422e+00 -2.9881738622e+01 +3.9970130640e+02 4.4801538449e+02 2.0000000000e+02 0.0000e+00 0.0000e+00
</event>
<event>
 5      1 +6.7420000e-10 2.33784800e+02 7.95774700e-02 4.52237400e-01
       13 -1    0    0    0    0 +0.0000000000e+00 +0.0000000000e+00 +4.9999998884e+02 5.0000000000e+02 1.0566000000e-01 0.0000e+00 1.0000e+00
      994 -1    0    0    0    0 -0.0000000000e+00 -0.0000000000e+00 +0.0000000000e+00 1.3100000000e+02 1.3100000000e+02 0.0000e+00 0.0000e+00
       13  1    1    2    0    0 +1.3071367669e+01 -5.4703277121e+00 +4.6962483560e+00 1.4928196497e+01 1.0566000000e-01 0.0000e+00 -1.0000e+00
      994  1    1    2    0    0 -4.2442032583e+01 -3.7646248250e+00 +9.4410797385e+01 1.6700268618e+02 1.3100000000e+02 0.0000e+00 0.0000e+00
      997  1    1    2    0    0 +2.9370664914e+01 +9.2349525371e+00 +4.0089294310e+02 4.4906911732e+02 2.0000000000e+02 0.0000e+00 0.0000e+00
</event>
<event>
 5      1 +6.7420000e-10 2.45145900e+02 7.95774700e-02 4.38696600e-01
       13 -1    0    0    0    0 +0.0000000000e+00 +0.0000000000e+00 +4.9999998884e+02 5.0000000000e+02 1.0566000000e-01 0.0000e+00 -1.0000e+00
      994 -1    0    0    0    0 -0.0000000000e+00 -0.0000000000e+00 +0.0000000000e+00 1.3100000000e+02 1.3100000000e+02 0.0000e+00 0.0000e+00
       13  1    1    2    0    0 -2.0307427651e+01 -3.2435039833e+01 +2.0899620035e+01 4.3603081410e+01 1.0566000000e-01 0.0000e+00 1.0000e+00
      994  1    1    2    0    0 +7.9265517031e+00 +4.4725426301e+01 +2.1050369463e+02 2.5206348294e+02 1.3100000000e+02 0.0000e+00 0.0000e+00
      997  1    1    2    0    0 +1.2380875948e+01 -1.2290386468e+01 +2.6859667418e+02 3.3533343565e+02 2.0000000000e+02 0.0000e+00 0.0000e+00
</event>
<event>
 5      1 +6.7420000e-10 2.34973200e+02 7.95774700e-02 4.50747600e-01
       13 -1    0    0    0    0 +0.0000000000e+00 +0.0000000000e+00 +4.9999998884e+02 5.0000000000e+02 1.0566000000e-01 0.0000e+00 1.0000e+00
      994 -1    0    0    0    0 -0.0000000000e+00 -0.0000000000e+00 +0.0000000000e+00 1.3100000000e+02 1.3100000000e+02 0.0000e+00 0.0000e+00
       13  1    1    2    0    0 -8.2719125686e+00 +1.8033413354e+01 +7.5590747712e+01 7.8151140992e+01 1.0566000000e-01 0.0000e+00 -1.0000e+00
      994  1    1    2    0    0 +1.9832074877e+01 -5.8653078187e+01 +1.3152529165e+02 1.9568698761e+02 1.3100000000e+02 0.0000e+00 0.0000e+00
      997  1    1    2    0    0 -1.1560162308e+01 +4.0619664833e+01 +2.9288394947e+02 3.5716187140e+02 2.0000000000e+02 0.0000e+00 0.0000e+00
</event>
<event>
 5      1 +6.7420000e-10 2.30425200e+02 7.95774700e-02 4.56549000e-01
       13 -1    0    0    0    0 +0.0000000000e+00 +0.0000000000e+00 +4.9999998884e+02 5.0000000000e+02 1.0566000000e-01 0.0000e+00 -1.0000e+00
      994 -1    0    0    0    0 -0.0000000000e+00 -0.0000000000e+00 +0.0000000000e+00 1.3100000000e+02 1.3100000000e+02 0.0000e+00 0.0000e+00
       13  1    1    2    0    0 -6.6209004537e+00 +1.2106040170e+01 +1.1639263150e+01 1.8052039833e+01 1.0566000000e-01 0.0000e+00 1.0000e+00
      994  1    1    2    0    0 +2.6661552199e+01 -2.3640590624e+01 +7.9805689498e+01 1.5747909057e+02 1.3100000000e+02 0.0000e+00 0.0000e+00
      997  1    1    2    0    0 -2.0040651746e+01 +1.1534550454e+01 +4.0855503619e+02 4.5546886960e+02 2.0000000000e+02 0.0000e+00 0.0000e+00
</event>
<event>
 5      1 +6.7420000e-10 2.53005500e+02 7.95774700e-02 4.30163100e-01
       13 -1    0    0    0    0 +0.0000000000e+00 +0.0000000000e+00 +4.9999998884e+02 5.0000000000e+02 1.0566000000e-01 0.0000e+00 1.0000e+00
      994 -1    0    0    0    0 -0.0000000000e+00 -0.0000000000e+00 +0.0000000000e+00 1.3100000000e+02 1.3100000000e+02 0.0000e+00 0.0000e+00
       13  1    1    2    0    0 -8.7039288816e+00 -3.1584516982e+01 +3.5304658099e+00 3.2951713822e+01 1.0566000000e-01 0.0000e+00 -1.0000e+00
      994  1    1    2    0    0 -5.9777740967e+00 +6.2459284039e+00 +1.9239892532e+02 2.3292293118e+02 1.3100000000e+02 0.0000e+00 0.0000e+00
      997  1    1    2    0    0 +1.4681702978e+01 +2.5338588578e+01 +3.0407059771e+02 3.6512535500e+02 2.0000000000e+02 0.0000e+00 0.0000e+00
</event>
<event>
 5      1 +6.7420000e-10 2.34470400e+02 7.95774700e-02 4.51375700e-01
       13 -1    0    0    0    0 +0.0000000000e+00 +0.0000000000e+00 +4.9999998884e+02 5.0000000000e+02 1.0566000000e-01 0.0000e+00 1.0000e+00
      994 -1    0    0    0    0 -0.0000000000e+00 -0.0000000000e+00 +0.0000000000e+00 1.3100000000e+02 1.3100000000e+02 0.0000e+00 0.0000e+00
       13  1    1    2    0    0 -1.3903118323e+01 +7.7695258865e+00 +7.2927343686e+00 1.7517344839e+01 1.0566000000e-01 0.0000e+00 -1.0000e+00
      994  1    1    2    0    0 +3.9866397047e+01 +4.9437847331e+01 +1.3322560969e+02 1.9734105867e+02 1.3100000000e+02 0.0000e+00 0.0000e+00
      997  1    1    2    0    0 -2.5963278724e+01 -5.7207373218e+01 +3.5948164478e+02 4.1614159649e+02 2.0000000000e+02 0.0000e+00 0.0000e+00
</event>
<event>
 5      1 +6.7420000e-10 2.42890200e+02 7.95774700e-02 4.41265800e-01
       13 -1    0    0    0    0 +0.0000000000e+00 +0.0000000000e+00 +4.9999998884e+02 5.0000000000e+02 1.0566000000e-01 0.0000e+00 -1.0000e+00
      994 -1    0    0    0    0 -0.0000000000e+00 -0.0000000000e+00 +0.0000000000e+00 1.3100000000e+02 1.3100000000e+02 0.0000e+00 0.0000e+00
       13  1    1    2    0    0 -1.9705635325e+01 -2.2196959108e+01 +2.0178807886e+01 3.5891677432e+01 1.0566000000e-01 0.0000e+00 1.0000e+00
      994  1    1    2    0    0 +3.3212235024e+01 -6.1682552719e+00 +1.1361004825e+02 1.7666166249e+02 1.3100000000e+02 0.0000e+00 0.0000e+00
      997  1    1    2    0    0 -1.3506599699e+01 +2.8365214379e+01 +3.6621113270e+02 4.1844666008e+02 2.0000000000e+02 0.0000e+00 0.0000e+00
</event>
<event>
 5      1 +6.7420000e-10 2.31198700e+02 7.95774700e-02 4.55542800e-01
       13 -1    0    0    0    0 +0.0000000000e+00 +0.0000000000e+00 +4.9999998884e+02 5.0000000000e+02 1.0566000000e-01 0.0000e+00 -1.0000e+00
      994 -1    0    0    0    0 -0.0000000000e+00 -0.0000000000e+00 +0.0000000000e+00 1.3100000000e+02 1.3100000000e+02 0.0000e+00 0.0000e+00
       13  1    1    2    0    0 -1.4008460180e+01 -2.1940465711e+00 +1.0774026501e+01 1.7808470121e+01 1.0566000000e-01 0.0000e+00 1.0000e+00
      994  1    1    2    0    0 +2.8811657585e+01 +1.1059167464e+01 +7.7927132673e+01 1.5551866385e+02 1.3100000000e+02 0.0000e+00 0.0000e+00
      997  1    1    2    0    0 -1.4803197405e+01 -8.8651208933e+00 +4.1129882966e+02 4.5767286603e+02 2.0000000000e+02 0.0000e+00 0.0000e+00
</event>
<event>
 5      1 +6.7420000e-10 2.33766600e+02 7.95774700e-02 4.52260300e-01
       13 -1    0    0    0    0 +0.0000000000e+00 +0.0000000000e+00 +4.9999998884e+02 5.0000000000e+02 1.0566000000e-01 0.0000e+00 1.0000e+00
      994 -1    0    0    0    0 -0.0000000000e+00 -0.0000000000e+00 +0.0000000000e+00 1.3100000000e+02 1.3100000000e+02 0.0000e+00 0.0000e+00
       13  1    1    2    0    0 +3.4260283838e+00 -1.6382718134e+01 +1.3395999199e+01 2.1438168824e+01 1.0566000000e-01 0.0000e+00 -1.0000e+00
      994  1    1    2    0    0 +2.8214524361e+01 +1.0418594004e+01 +8.2993803296e+01 1.5796701514e+02 1.3100000000e+02 0.0000e+00 0.0000e+00
      997  1    1    2    0    0 -3.1640552745e+01 +5.9641241294e+00 +4.0361018634e+02 4.5159481604e+02 2.0000000000e+02 0.0000e+00 0.0000e+00
</event>
<event>
 5      1 +6.7420000e-10 2.48516400e+02 7.95774700e-02 4.34959900e-01
       13 -1    0    0    0    0 +0.0000000000e+00 +0.0000000000e+00 +4.9999998884e+02 5.0000000000e+02 1.0566000000e-01 0.0000e+00 -1.0000e+00
      994 -1    0    0    0    0 -0.0000000000e+00 -0.0000000000e+00 +0.0000000000e+00 1.3100000000e+02 1.3100000000e+02 0.0000e+00 0.0000e+00
       13  1    1    2    0    0 -3.0781273725e+01 -3.4940384314e+01 +6.0295880358e+01 7.6183473407e+01 1.0566000000e-01 0.0000e+00 1.0000e+00
      994  1    1    2    0    0 +2.6230380114e+01 +1.7435720823e+01 +1.4232708338e+02 1.9598478478e+02 1.3100000000e+02 0.0000e+00 0.0000e+00
      997  1    1    2    0    0 +4.5508936109e+00 +1.7504663492e+01 +2.9737702510e+02 3.5883174182e+02 2.0000000000e+02 0.0000e+00 0.0000e+00
</event>
<event>
 5      1 +6.7420000e-10 2.35492000e+02 7.95774700e-02 4.50103000e-01
       13 -1    0    0    0    0 +0.0000000000e+00 +0.0000000000e+00 +4.9999998884e+02 5.0000000000e+02 1.0566000000e-01 0.0000e+00 -1.0000e+00
      994 -1    0    0    0    0 -0.0000000000e+00 -0.0000000000e+00 +0.0000000000e+00 1.3100000000e+02 1.3100000000e+02 0.0000e+00 0.0000e+00
       13  1    1    2    0    0 +3.9893814157e+00 -2.5280020999e+01 +7.0573340570e+01 7.5070647986e+01 1.0566000000e-01 0.0000e+00 1.0000e+00
      994  1    1    2    0    0 -6.1327417555e+00 +6.1257385983e+01 +1.3327462490e+02 1.9675671145e+02 1.3100000000e+02 0.0000e+00 0.0000e+00
      997  1    1    2    0    0 +2.1433603398e+00 -3.5977364983e+01 +2.9615202337e+02 3.5917264056e+02 2.0000000000e+02 0.0000e+00 0.0000e+00
</event>
<event>
 5      1 +6.7420000e-10 2.41557700e+02 7.95774700e-02 4.42809900e-01
       13 -1    0    0    0    0 +0.0000000000e+00 +0.0000000000e+00 +4.9999998884e+02 5.0000000000e+02 1.0566000000e-01 0.0000e+00 1.0000e+00
      994 -1    0    0    0    0 -0.0000000000e+00 -0.0000000000e+00 +0.0000000000e+00 1.3100000000e+02 1.3100000000e+02 0.0000e+00 0.0000e+00
       13  1    1    2    0    0 -3.8023940052e+01 +4.1489279588e+00 +7.4832948390e+01 8.4041745276e+01 1.0566000000e-01 0.0000e+00 -1.0000e+00
      994  1    1    2    0    0 +4.9929505404e+01 -1.2101886394e+01 +1.4128344731e+02 1.9940266710e+02 1.3100000000e+02 0.0000e+00 0.0000e+00
      997  1    1    2    0    0 -1.1905565352e+01 +7.9529584355e+00 +2.8388359314e+02 3.4755558762e+02 2.0000000000e+02 0.0000e+00 0.0000e+00
</event>
<event>
 5      1 +6.7420000e-10 2.38046000e+02 7.95774700e-02 4.46978300e-01
       13 -1    0    0    0    0 +0.0000000000e+00 +0.0000000000e+00 +4.9999998884e+02 5.0000000000e+02 1.0566000000e-01 0.0000e+00 -1.0000e+00
      994 -1    0    0    0    0 -0.0000000000e+00 -0.0000000000e+00 +0.0000000000e+00 1.3100000000e+02 1.3100000000e+02 0.0000e+00 0.0000e+00
       13  1    1    2    0    0 +1.8458930214e+01 +1.4774150585e+00 +6.9857830934e+00 1.9792099165e+01 1.0566000000e-01 0.0000e+00 1.0000e+00
      994  1    1    2    0    0 -1.7813483368e+01 -7.9438110004e+00 +8.6719752940e+01 1.5830900124e+02 1.3100000000e+02 0.0000e+00 0.0000e+00
      997  1    1    2    0    0 -6.4544684619e-01 +6.4663959418e+00 +4.0629445280e+02 4.5289889960e+02 2.0000000000e+02 0.0000e+00 0.0000e+00
</event>
<event>
 5      1 +6.7420000e-10 2.38766900e+02 7.95774700e-02 4.46110700e-01
       13 -1    0    0    0    0 +0.0000000000e+00 +0.0000000000e+00 +4.9999998884e+02 5.0000000000e+02 1.0566000000e-01 0.0000e+00 -1.0000e+00
      994 -1    0    0    0    0 -0.0000000000e+00 -0.0000000000e+00 +0.0000000000e+00 1.3100000000e+02 1.3100000000e+02 0.0000e+00 0.0000e+00
       13  1    1    2    0    0 -1.0223996110e+01 -1.8131086737e+01 +1.1114360098e+01 2.3596749080e+01 1.0566000000e-01 0.0000e+00 1.0000e+00
      994  1    1    2    0    0 +7.3436756575e+00 +5.8214752228e+00 +8.4737993533e+01 1.5629890177e+02 1.3100000000e+02 0.0000e+00 0.0000e+00
      997  1    1    2    0    0 +2.8803204523e+00 +1.2309611515e+01 +4.0414763521e+02 4.5110434915e+02 2.0000000000e+02 0.0000e+00 0.0000e+00
</event>
<event>
 5      1 +6.7420000e-10 2.39162100e+02 7.95774700e-02 4.45637600e-01
       13 -1    0    0    0    0 +0.0000000000e+00 +0.0000000000e+00 +4.9999998884e+02 5.0000000000e+02 1.0566000000e-01 0.0000e+00 1.0000e+00
      994 -1    0    0    0    0 -0.0000000000e+00 -0.0000000000e+00 +0.0000000000e+00 1.3100000000e+02 1.3100000000e+02 0.0000e+00 0.0000e+00
       13  1    1    2    0    0 +2.6246096365e+01 -3.4561322628e+00 +2.7813159367e+01 3.8397726790e+01 1.0566000000e-01 0.0000e+00 -1.0000e+00
      994  1    1    2    0    0 -1.0936695211e+00 +2.3632338640e+01 +9.2020863964e+01 1.6182868394e+02 1.3100000000e+02 0.0000e+00 0.0000e+00
      997  1    1    2    0    0 -2.5152426844e+01 -2.0176206378e+01 +3.8016596551e+02 4.3077358927e+02 2.0000000000e+02 0.0000e+00 0.0000e+00
</event>
<event>
 5      1 +6.7420000e-10 2.44171600e+02 7.95774700e-02 4.39799500e-01
       13 -1    0    0    0    0 +0.0000000000e+00 +0.0000000000e+00 +4.9999998884e+02 5.0000000000e+02 1.0566000000e-01 0.0000e+00 1.0000e+00
      994 -1    0    0    0    0 -0.0000000000e+00 -0.0000000000e+00 +0.0000000000e+00 1.3100000000e+02 1.3100000000e+02 0.0000e+00 0.0000e+00
       13  1    1    2    0    0 -1.1515325516e+01 -2.0464273988e+01 +7.0136535646e+00 2.4506973129e+01 1.0566000000e-01 0.0000e+00 -1.0000e+00
      994  1    1    2    0    0 -2.0618012056e+01 +1.2706164549e+01 +1.0839095944e+02 1.7174442968e+02 1.3100000000e+02 0.0000e+00 0.0000e+00
      997  1    1    2    0    0 +3.2133337572e+01 +7.7581094391e+00 +3.8459537584e+02 4.3474859719e+02 2.0000000000e+02 0.0000e+00 0.0000e+00
</event>
<event>
 5      1 +6.7420000e-10 2.49250400e+02 7.95774700e-02 4.34161800e-01
       13 -1    0    0    0    0 +0.0000000000e+00 +0.0000000000e+00 +4.9999998884e+02 5.0000000000e+02 1.0566000000e-01 0.0000e+00 -1.0000e+00
      994 -1    0    0    0    0 -0.0000000000e+00 -0.0000000000e+00 +0.0000000000e+00 1.3100000000e+02 1.3100000000e+02 0.0000e+00 0.0000e+00
       13  1    1    2    0    0 -3.8075383832e+01 -1.4478403611e+01 +3.6147277313e+01 5.4460957082e+01 1.0566000000e-01 0.0000e+00 1.0000e+00
      994  1    1    2    0    0 +1.2480607061e+01 +8.4801151051e-01 +1.2215776531e+02 1.7955501748e+02 1.3100000000e+02 0.0000e+00 0.0000e+00
      997  1    1    2    0    0 +2.5594776770e+01 +1.3630392101e+01 +3.4169494622e+02 3.9698402544e+02 2.0000000000e+02 0.0000e+00 0.0000e+00
</event>
<event>
 5      1 +6.7420000e-10 2.35542600e+02 7.95774700e-02 4.50040300e-01
       13 -1    0    0    0    0 +0.0000000000e+00 +0.0000000000e+00 +4.9999998884e+02 5.0000000000e+02 1.0566000000e-01 0.0000e+00 1.0000e+00
      994 -1    0    0    0    0 -0.0000000000e+00 -0.0000000000e+00 +0.0000000000e+00 1.3100000000e+02 1.3100000000e+02 0.0000e+00 0.0000e+00
       13  1    1    2    0    0 -6.2812250685e+00 +2.3352700810e+01 +3.9826511911e+01 4.6593611563e+01 1.0566000000e-01 0.0000e+00 -1.0000e+00
      994  1    1    2    0    0 -1.0219472522e+00 -1.3350145975e+01 +7.8437578166e+01 1.5327336508e+02 1.3100000000e+02 0.0000e+00 0.0000e+00
      997  1    1    2    0    0 +7.3031723206e+00 -1.0002554835e+01 +3.8173589876e+02 4.3113302336e+02 2.0000000000e+02 0.0000e+00 0.0000e+00
</event>
<event>
 5      1 +6.7420000e-10 2.36783300e+02 7.95774700e-02 4.48513100e-01
       13 -1    0    0    0    0 +0.0000000000e+00 +0.0000000000e+00 +4.9999998884e+02 5.0000000000e+02 1.0566000000e-01 0.0000e+00 -1.0000e+00
      994 -1    0    0    0    0 -0.0000000000e+00 -0.0000000000e+00 +0.0000000000e+00 1.3100000000e+02 1.3100000000e+02 0.0000e+00 0.0000e+00
       13  1    1    2    0    0 +9.3048696353e+00 -1.4992888206e+01 +6.7993852454e+00 1.8910581679e+01 1.0566000000e-01 0.0000e+00 1.0000e+00
      994  1    1    2    0    0 -1.1751629951e+01 +2.3692610608e+01 +8.7671712697e+01 1.5983356910e+02 1.3100000000e+02 0.0000e+00 0.0000e+00
      997  1    1    2    0    0 +2.4467603157e+00 -8.6997224028e+00 +4.0552889089e+02 4.5225584922e+02 2.0000000000e+02 0.0000e+00 0.0000e+00
</event>
<event>
 5      1 +6.7420000e-10 2.36527700e+02 7.95774700e-02 4.48826100e-01
       13 -1    0    0    0    0 +0.0000000000e+00 +0.0000000000e+00 +4.9999998884e+02 5.0000000000e+02 1.0566000000e-01 0.0000e+00 -1.0000e+00
      994 -1    0    0    0    0 -0.0000000000e+00 -0.0000000000e+00 +0.0000000000e+00 1.3100000000e+02 1.3100000000e+02 0.0000e+00 0.0000e+00
       13  1    1    2    0    0 -9.0895115134e+00 +2.7455324564e+01 +2.1652892192e+01 3.6128561704e+01 1.0566000000e-01 0.0000e+00 1.0000e+00
      994  1    1    2    0    0 -1.5623618882e+01 -6.7277734405e+01 +2.0812994351e+02 2.5543974710e+02 1.3100000000e+02 0.0000e+00 0.0000e+00
      997  1    1    2    0    0 +2.4713130396e+01 +3.9822409841e+01 +2.7021715313e+02 3.3943169120e+02 2.0000000000e+02 0.0000e+00 0.0000e+00
</event>
<event>
 5      1 +6.7420000e-10 2.43974400e+02 7.95774700e-02 4.40023900e-01
       13 -1    0    0    0    0 +0.0000000000e+00 +0.0000000000e+00 +4.9999998884e+02 5.0000000000e+02 1.0566000000e-01 0.0000e+00 1.0000e+00
      994 -1    0    0    0    0 -0.0000000000e+00 -0.0000000000e+00 +0.0000000000e+00 1.3100000000e+02 1.3100000000e+02 0.0000e+00 0.0000e+00
       13  1    1    2    0    0 -2.9229787663e+01 +1.9563979467e+00 +2.9906817287e+01 4.1864506017e+01 1.0566000000e-01 0.0000e+00 -1.0000e+00
      994  1    1    2    0    0 -3.1612083175e+01 -4.7367002719e-01 +1.1540682283e+02 1.7742402014e+02 1.3100000000e+02 0.0000e+00 0.0000e+00
      997  1    1    2    0    0 +6.0841870838e+01 -1.4827279195e+00 +3.5468634872e+02 4.1171147385e+02 2.0000000000e+02 0.0000e+00 0.0000e+00
</event>
<event>
 5      1 +6.7420000e-10 2.33886300e+02 7.95774700e-02 4.52109400e-01
       13 -1    0    0    0    0 +0.0000000000e+00 +0.0000000000e+00 +4.9999998884e+02 5.0000000000e+02 1.0566000000e-01 0.0000e+00 1.0000e+00
      994 -1    0    0    0    0 -0.0000000000e+00 -0.0000000000e+00 +0.0000000000e+00 1.3100000000e+02 1.3100000000e+02 0.0000e+00 0.0000e+00
       13  1    1    2    0    0 -1.3593229102e+01 -6.5615190138e+00 +5.7887491610e+00 1.6166328899e+01 1.0566000000e-01 0.0000e+00 -1.0000e+00
      994  1    1    2    0    0 +3.8373772246e+01 +1.6731369617e+01 +9.3853404239e+01 1.6649908893e+02 1.3100000000e+02 0.0000e+00 0.0000e+00
      997  1    1    2    0    0 -2.4780543144e+01 -1.0169850603e+01 +4.0035783544e+02 4.4833458218e+02 2.0000000000e+02 0.0000e+00 0.0000e+00
</event>
<event>
 5      1 +6.7420000e-10 2.35888600e+02 7.95774700e-02 4.49612400e-01
       13 -1    0    0    0    0 +0.0000000000e+00 +0.0000000000e+00 +4.9999998884e+02 5.0000000000e+02 1.0566000000e-01 0.0000e+00 -1.0000e+00
      994 -1    0    0    0    0 -0.0000000000e+00 -0.0000000000e+00 +0.0000000000e+00 1.3100000000e+02 1.3100000000e+02 0.0000e+00 0.0000e+00
       13  1    1    2    0    0 +1.8352627752e+01 +2.0400398417e+01 +6.2861909987e+01 6.8590276951e+01 1.0566000000e-01 0.0000e+00 1.0000e+00
      994  1    1    2    0    0 -2.9784966795e+01 -3.0676030537e+01 +1.0055814832e+02 1.7059045779e+02 1.3100000000e+02 0.0000e+00 0.0000e+00
      997  1    1    2    0    0 +1.1432339042e+01 +1.0275632119e+01 +3.3657993053e+02 3.9181926525e+02 2.0000000000e+02 0.0000e+00 0.0000e+00
</event>
<event>
 5      1 +6.7420000e-10 2.41460400e+02 7.95774700e-02 4.42923500e-01
       13 -1    0    0    0    0 +0.0000000000e+00 +0.0000000000e+00 +4.9999998884e+02 5.0000000000e+02 1.0566000000e-01 0.0000e+00 1.0000e+00
      994 -1    0    0    0    0 -0.0000000000e+00 -0.0000000000e+00 +0.0000000000e+00 1.3100000000e+02 1.3100000000e+02 0.0000e+00 0.0000e+00
       13  1    1    2    0    0 +1.5033248367e+01 +3.2520176809e+01 +4.2689813863e+01 5.5731425855e+01 1.0566000000e-01 0.0000e+00 -1.0000e+00
      994  1    1    2    0    0 -2.1294303411e+00 -3.9945643109e+01 +1.1643918023e+02 1.7977561450e+02 1.3100000000e+02 0.0000e+00 0.0000e+00
      997  1    1    2    0    0 -1.2903818026e+01 +7.4254663003e+00 +3.4087099475e+02 3.9549295964e+02 2.0000000000e+02 0.0000e+00 0.0000e+00
</event>
<event>
 5      1 +6.7420000e-10 2.39299400e+02 7.95774700e-02 4.45473800e-01
       13 -1    0    0    0    0 +0.0000000000e+00 +0.0000000000e+00 +4.9999998884e+02 5.0000000000e+02 1.0566000000e-01 0.0000e+00 -1.0000e+00
      994 -1    0    0    0    0 -0.0000000000e+00 -0.0000000000e+00 +0.0000000000e+00 1.3100000000e+02 1.3100000000e+02 0.0000e+00 0.0000e+00
       13  1    1    2    0    0 -8.8197454616e+00 +1.5154462343e+01 +4.8181579943e+00 1.8184373770e+01 1.0566000000e-01 0.0000e+00 1.0000e+00
      994  1    1    2    0    0 +1.4065000083e+01 +8.8110629751e+00 +8.8526829094e+01 1.5897628291e+02 1.3100000000e+02 0.0000e+00 0.0000e+00
      997  1    1    2    0    0 -5.2452546214e+00 -2.3965525318e+01 +4.0665500175e+02 4.5383934332e+02 2.0000000000e+02 0.0000e+00 0.0000e+00
</event>
<event>
 5      1 +6.7420000e-10 2.48649900e+02 7.95774700e-02 4.34814300e-01
       13 -1    0    0    0    0 +0.0000000000e+00 +0.0000000000e+00 +4.9999998884e+02 5.0000000000e+02 1.0566000000e-01 0.0000e+00 -1.0000e+00
      994 -1    0    0    0    0 -0.0000000000e+00 -0.0000000000e+00 +0.0000000000e+00 1.3100000000e+02 1.3100000000e+02 0.0000e+00 0.0000e+00
       13  1    1    2    0    0 +9.2401157345e+00 +1.6201412251e+01 -4.9100706536e+00 1.9286924471e+01 1.0566000000e-01 0.0000e+00 1.0000e+00
      994  1    1    2    0    0 -3.3911447145e+00 -1.7970584981e+01 +1.2330339381e+02 1.8082911467e+02 1.3100000000e+02 0.0000e+00 0.0000e+00
      997  1    1    2    0    0 -5.8489710200e+00 +1.7691727301e+00 +3.8160666568e+02 4.3088396086e+02 2.0000000000e+02 0.0000e+00 0.0000e+00
</event>
<event>
 5      1 +6.7420000e-10 2.42413700e+02 7.95774700e-02 4.41815700e-01
       13 -1    0    0    0    0 +0.0000000000e+00 +0.0000000000e+00 +4.9999998884e+02 5.0000000000e+02 1.0566000000e-01 0.0000e+00 1.0000e+00
      994 -1    0    0    0    0 -0.0000000000e+00 -0.0000000000e+00 +0.0000000000e+00 1.3100000000e+02 1.3100000000e+02 0.0000e+00 0.0000e+00
       13  1    1    2    0    0 +2.0063771673e+01 +2.0873526132e+01 +1.9856333257e+01 3.5107608312e+01 1.0566000000e-01 0.0000e+00 -1.0000e+00
      994  1    1    2    0    0 -2.7474786506e+01 +1.1159447657e+00 +1.0496589499e+02 1.7010275817e+02 1.3100000000e+02 0.0000e+00 0.0000e+00
      997  1    1    2    0    0 +7.4110148327e+00 -2.1989470898e+01 +3.7517776058e+02 4.2578963351e+02 2.0000000000e+02 0.0000e+00 0.0000e+00
</event>
<event>
 5      1 +6.7420000e-10 2.34622200e+02 7.95774700e-02 4.51185700e-01
       13 -1    0    0    0    0 +0.0000000000e+00 +0.0000000000e+00 +4.9999998884e+02 5.0000000000e+02 1.0566000000e-01 0.0000e+00 1.0000e+00
      994 -1    0    0    0    0 -0.0000000000e+00 -0.0000000000e+00 +0.0000000000e+00 1.3100000000e+02 1.3100000000e+02 0.0000e+00 0.0000e+00
       13  1    1    2    0    0 -6.9301993426e+00 +1.5993754177e+01 +1.2222533962e+01 2.1289183547e+01 1.0566000000e-01 0.0000e+00 -1.0000e+00
      994  1    1    2    0    0 -3.5451358419e+01 -2.2504260095e+01 +9.5997346372e+01 1.6774901206e+02 1.3100000000e+02 0.0000e+00 0.0000e+00
      997  1    1    2    0    0 +4.2381557762e+01 +6.5105059183e+00 +3.9178010850e+02 4.4196180439e+02 2.0000000000e+02 0.0000e+00 0.0000e+00
</event>
<event>
 5      1 +6.7420000e-10 2.36999600e+02 7.95774700e-02 4.48248800e-01
       13 -1    0    0    0    0 +0.0000000000e+00 +0.0000000000e+00 +4.9999998884e+02 5.0000000000e+02 1.0566000000e-01 0.0000e+00 1.0000e+00
      994 -1    0    0    0    0 -0.0000000000e+00 -0.0000000000e+00 +0.0000000000e+00 1.3100000000e+02 1.3100000000e+02 0.0000e+00 0.0000e+00
       13  1    1    2    0    0 -7.2575256329e+00 +2.3388472317e+01 +5.7790114832e+01 6.2764646513e+01 1.0566000000e-01 0.0000e+00 -1.0000e+00
      994  1    1    2    0    0 +2.7385020038e+01 +6.7174752253e+00 +8.9459154669e+01 1.6111798208e+02 1.3100000000e+02 0.0000e+00 0.0000e+00
      997  1    1    2    0    0 -2.0127494405e+01 -3.0105947542e+01 +3.5275071934e+02 4.0711737141e+02 2.0000000000e+02 0.0000e+00 0.0000e+00
</event>
<event>
 5      1 +6.7420000e-10 2.36624800e+02 7.95774700e-02 4.48707100e-01
       13 -1    0    0    0    0 +0.0000000000e+00 +0.0000000000e+00 +4.9999998884e+02 5.0000000000e+02 1.0566000000e-01 0.0000e+00 1.0000e+00
      994 -1    0    0    0    0 -0.0000000000e+00 -0.0000000000e+00 +0.0000000000e+00 1.3100000000e+02 1.3100000000e+02 0.0000e+00 0.0000e+00
       13  1    1    2    0    0 -6.1709271508e+00 +1.0162409755e+01 +7.8659603312e-01 1.1915737966e+01 1.0566000000e-01 0.0000e+00 -1.0000e+00
      994  1    1    2    0    0 +5.7645141079e-01 +3.3389822264e+01 +9.2720107991e+01 1.6393056748e+02 1.3100000000e+02 0.0000e+00 0.0000e+00
      997  1    1    2    0    0 +5.5944757400e+00 -4.3552232019e+01 +4.0649328481e+02 4.5515369456e+02 2.0000000000e+02 0.0000e+00 0.0000e+00
</event>
<event>
 5      1 +6.7420000e-10 2.53505600e+02 7.95774700e-02 4.29641000e-01
       13 -1    0    0    0    0 +0.0000000000e+00 +0.0000000000e+00 +4.9999998884e+02 5.0000000000e+02 1.0566000000e-01 0.0000e+00 -1.0000e+00
      994 -1    0    0    0    0 -0.0000000000e+00 -0.0000000000e+00 +0.0000000000e+00 1.3100000000e+02 1.3100000000e+02 0.0000e+00 0.0000e+00
       13  1    1    2    0    0 -2.9894641624e+01 +3.6049787661e+01 +7.9187299038e+01 9.1999545006e+01 1.0566000000e-01 0.0000e+00 1.0000e+00
      994  1    1    2    0    0 +6.7027713434e+00 +5.1301256439e+00 +1.6077224058e+02 2.0755712147e+02 1.3100000000e+02 0.0000e+00 0.0000e+00
      997  1    1    2    0    0 +2.3191870280e+01 -4.1179913305e+01 +2.6004044922e+02 3.3144333352e+02 2.0000000000e+02 0.0000e+00 0.0000e+00
</event>
<event>
 5      1 +6.7420000e-10 2.47352900e+02 7.95774700e-02 4.36236300e-01
       13 -1    0    0    0    0 +0.0000000000e+00 +0.0000000000e+00 +4.9999998884e+02 5.0000000000e+02 1.0566000000e-01 0.0000e+00 1.0000e+00
      994 -1    0    0    0    0 -0.0000000000e+00 -0.0000000000e+00 +0.0000000000e+00 1.3100000000e+02 1.3100000000e+02 0.0000e+00 0.0000e+00
       13  1    1    2    0    0 +9.0896447393e+00 -3.0419020575e+01 +7.7373255932e+00 3.2677451333e+01 1.0566000000e-01 0.0000e+00 -1.0000e+00
      994  1    1    2    0    0 +3.9546331808e+00 +4.1408991986e+01 +1.6934704792e+02 2.1810494350e+02 1.3100000000e+02 0.0000e+00 0.0000e+00
      997  1    1    2    0    0 -1.3044277920e+01 -1.0989971411e+01 +3.2291561532e+02 3.8021760516e+02 2.0000000000e+02 0.0000e+00 0.0000e+00
</event>
<event>
 5      1 +6.7420000e-10 2.31091600e+02 7.95774700e-02 4.55681700e-01
       13 -1    0    0    0    0 +0.0000000000e+00 +0.0000000000e+00 +4.9999998884e+02 5.0000000000e+02 1.0566000000e-01 0.0000e+00 1.0000e+00
      994 -1    0    0    0    0 -0.0000000000e+00 -0.0000000000e+00 +0.0000000000e+00 1.3100000000e+02 1.3100000000e+02 0.0000e+00 0.0000e+00
       13  1    1    2    0    0 -1.6076943433e+01 +4.2215322796e+00 +4.0797346799e+01 4.4053650414e+01 1.0566000000e-01 0.0000e+00 -1.0000e+00
      994  1    1    2    0    0 +1.4014236115e+01 +1.8055085826e-01 +6.9650240993e+01 1.4902545918e+02 1.3100000000e+02 0.0000e+00 0.0000e+00
      997  1    1    2    0    0 +2.0627073179e+00 -4.4020831379e+00 +3.8955240104e+02 4.3792089041e+02 2.0000000000e+02 0.0000e+00 0.0000e+00
</event>
<event>
 5      1 +6.7420000e-10 2.34785700e+02 7.95774700e-02 4.50981500e-01
       13 -1    0    0    0    0 +0.0000000000e+00 +0.0000000000e+00 +4.9999998884e+02 5.0000000000e+02 1.0566000000e-01 0.0000e+00 -1.0000e+00
      994 -1    0    0    0    0 -0.0000000000e+00 -0.0000000000e+00 +0.0000000000e+00 1.3100000000e+02 1.3100000000e+02 0.0000e+00 0.0000e+00
       13  1    1    2    0    0 -8.9849688310e+00 -5.7318152745e+00 -9.3737125274e-01 1.0699214931e+01 1.0566000000e-01 0.0000e+00 1.0000e+00
      994  1    1    2    0    0 +4.4809184792e+01 +3.8991582907e+00 +1.0006029004e+02 1.7086874530e+02 1.3100000000e+02 0.0000e+00 0.0000e+00
      997  1    1    2    0    0 -3.5824215961e+01 +1.8326569838e+00 +4.0087707005e+02 4.4943203977e+02 2.0000000000e+02 0.0000e+00 0.0000e+00
</event>
<event>
 5      1 +6.7420000e-10 2.40039700e+02 7.95774700e-02 4.44594000e-01
       13 -1    0    0    0    0 +0.0000000000e+00 +0.0000000000e+00 +4.9999998884e+02 5.0000000000e+02 1.0566000000e-01 0.0000e+00 -1.0000e+00
      994 -1    0    0    0    0 -0.0000000000e+00 -0.0000000000e+00 +0.0000000000e+00 1.3100000000e+02 1.3100000000e+02 0.0000e+00 0.0000e+00
       13  1    1    2    0    0 +2.3227435231e+01 -1.0111079113e+01 +2.0280625603e+01 3.2450926136e+01 1.0566000000e-01 0.0000e+00 1.0000e+00
      994  1    1    2    0    0 +8.6274796525e+00 +2.4738171405e+01 +9.6303595113e+01 1.6468695444e+02 1.3100000000e+02 0.0000e+00 0.0000e+00
      997  1    1    2    0    0 -3.1854914883e+01 -1.4627092292e+01 +3.8341576812e+02 4.3386211943e+02 2.0000000000e+02 0.0000e+00 0.0000e+00
</event>
<event>
 5      1 +6.7420000e-10 2.44299300e+02 7.95774700e-02 4.39654300e-01
       13 -1    0    0    0    0 +0.0000000000e+00 +0.0000000000e+00 +4.9999998884e+02 5.0000000000e+02 1.0566000000e-01 0.0000e+00 1.0000e+00
      994 -1    0    0    0    0 -0.0000000000e+00 -0.0000000000e+00 +0.0000000000e+00 1.3100000000e+02 1.3100000000e+02 0.0000e+00 0.0000e+00
       13  1    1    2    0    0 +1.3489785152e+01 -2.2098467542e+01 +1.4408035258e+01 2.9629701571e+01 1.0566000000e-01 0.0000e+00 -1.0000e+00
      994  1    1    2    0    0 -3.7598044930e+00 -3.1474213156e+01 +1.1693275755e+02 1.7843495177e+02 1.3100000000e+02 0.0000e+00 0.0000e+00
      997  1    1    2    0    0 -9.7299806590e+00 +5.3572680698e+01 +3.6865919603e+02 4.2293534666e+02 2.0000000000e+02 0.0000e+00 0.0000e+00
</event>
<event>
 5      1 +6.7420000e-10 2.35117400e+02 7.95774700e-02 4.50568100e-01
       13 -1    0    0    0    0 +0.0000000000e+00 +0.0000000000e+00 +4.9999998884e+02 5.0000000000e+02 1.0566000000e-01 0.0000e+00 -1.0000e+00
      994 -1    0    0    0    0 -0.0000000000e+00 -0.0000000000e+00 +0.0000000000e+00 1.3100000000e+02 1.3100000000e+02 0.0000e+00 0.0000e+00
       13  1    1    2    0    0 -1.0287992356e+01 +9.7242809752e+00 +2.2734883624e+00 1.4338212600e+01 1.0566000000e-01 0.0000e+00 1.0000e+00
      994  1    1    2    0    0 +1.2576783456e+01 -4.9103435986e+01 +1.0925475823e+02 1.7795203034e+02 1.3100000000e+02 0.0000e+00 0.0000e+00
      997  1    1    2    0    0 -2.2887911001e+00 +3.9379155011e+01 +3.8847174224e+02 4.3870975706e+02 2.0000000000e+02 0.0000e+00 0.0000e+00
</event>
<event>
 5      1 +6.7420000e-10 2.44818000e+02 7.95774700e-02 4.39066600e-01
       13 -1    0    0    0    0 +0.0000000000e+00 +0.0000000000e+00 +4.9999998884e+02 5.0000000000e+02 1.0566000000e-01 0.0000e+00 1.0000e+00
      994 -1    0    0    0    0 -0.0000000000e+00 -0.0000000000e+00 +0.0000000000e+00 1.3100000000e+02 1.3100000000e+02 0.0000e+00 0.0000e+00
       13  1    1    2    0    0 +1.1454374880e+01 +4.1332869247e+01 +4.9932376005e+01 6.5824479654e+01 1.0566000000e-01 0.0000e+00 -1.0000e+00
      994  1    1    2    0    0 -3.3731414541e+01 -3.5147135026e+01 +1.6612906141e+02 2.1710134608e+02 1.3100000000e+02 0.0000e+00 0.0000e+00
      997  1    1    2    0    0 +2.2277039661e+01 -6.1857342216e+00 +2.8393855142e+02 3.4807417426e+02 2.0000000000e+02 0.0000e+00 0.0000e+00
</event>
<event>
 5      1 +6.7420000e-10 2.43955300e+02 7.95774700e-02 4.40045700e-01
       13 -1    0    0    0    0 +0.0000000000e+00 +0.0000000000e+00 +4.9999998884e+02 5.0000000000e+02 1.0566000000e-01 0.0000e+00 1.0000e+00
      994 -1    0    0    0    0 -0.0000000000e+00 -0.0000000000e+00 +0.0000000000e+00 1.3100000000e+02 1.3100000000e+02 0.0000e+00 0.0000e+00
       13  1    1    2    0    0 -1.9505677734e+01 +2.0890544073e+01 +9.8615776039e+01 1.0267408993e+02 1.0566000000e-01 0.0000e+00 -1.0000e+00
      994  1    1    2    0    0 -8.0415297192e+00 -5.7043298440e+00 +9.9325439952e+01 1.6469289177e+02 1.3100000000e+02 0.0000e+00 0.0000e+00
      997  1    1    2    0    0 +2.7547207453e+01 -1.5186214229e+01 +3.0205877285e+02 3.6363301829e+02 2.0000000000e+02 0.0000e+00 0.0000e+00
</event>
<event>
 5      1 +6.7420000e-10 2.38396200e+02 7.95774700e-02 4.46556000e-01
       13 -1    0    0    0    0 +0.0000000000e+00 +0.0000000000e+00 +4.9999998884e+02 5.0000000000e+02 1.0566000000e-01 0.0000e+00 1.0000e+00
      994 -1    0    0    0    0 -0.0000000000e+00 -0.0000000000e+00 +0.0000000000e+00 1.3100000000e+02 1.3100000000e+02 0.0000e+00 0.0000e+00
       13  1    1    2    0    0 -1.8606048423e+01 -2.2951669784e+01 +5.3251032757e+01 6.0898668602e+01 1.0566000000e-01 0.0000e+00 -1.0000e+00
      994  1    1    2    0    0 +7.3005294126e+00 +1.7233458160e+01 +8.7206826762e+01 1.5848129367e+02 1.3100000000e+02 0.0000e+00 0.0000e+00
      997  1    1    2    0    0 +1.1305519010e+01 +5.7182116234e+00 +3.5954212932e+02 4.1162003773e+02 2.0000000000e+02 0.0000e+00 0.0000e+00
</event>
<event>
 5      1 +6.7420000e-10 2.28878100e+02 7.95774700e-02 4.58586100e-01
       13 -1    0    0    0    0 +0.0000000000e+00 +0.0000000000e+00 +4.9999998884e+02 5.0000000000e+02 1.0566000000e-01 0.0000e+00 -1.0000e+00
      994 -1    0    0    0    0 -0.0000000000e+00 -0.0000000000e+00 +0.0000000000e+00 1.3100000000e+02 1.3100000000e+02 0.0000e+00 0.0000e+00
       13  1    1    2    0    0 +1.9512744154e+00 +1.1213790711e+01 +9.2479829221e+00 1.4666046711e+01 1.0566000000e-01 0.0000e+00 1.0000e+00
      994  1    1    2    0    0 +1.2248074481e+01 -4.1230133325e+01 +8.2929796997e+01 1.6089838549e+02 1.3100000000e+02 0.0000e+00 0.0000e+00
      997  1    1    2    0    0 -1.4199348897e+01 +3.0016342613e+01 +4.0782220892e+02 4.5543556780e+02 2.0000000000e+02 0.0000e+00 0.0000e+00
</event>
<event>
 5      1 +6.7420000e-10 2.37118200e+02 7.95774700e-02 4.48104100e-01
       13 -1    0    0    0    0 +0.0000000000e+00 +0.0000000000e+00 +4.9999998884e+02 5.0000000000e+02 1.0566000000e-01 0.0000e+00 1.0000e+00
      994 -1    0    0    0    0 -0.0000000000e+00 -0.0000000000e+00 +0.0000000000e+00 1.3100000000e+02 1.3100000000e+02 0.0000e+00 0.0000e+00
       13  1    1    2    0    0 -1.9483034399e+01 -4.5299582065e+00 +8.3155866061e+01 8.5527880688e+01 1.0566000000e-01 0.0000e+00 -1.0000e+00
      994  1    1    2    0    0 +8.6076675899e+00 -3.4895600045e+00 +8.0838083657e+01 1.5421434674e+02 1.3100000000e+02 0.0000e+00 0.0000e+00
      997  1    1    2    0    0 +1.0875366809e+01 +8.0195182111e+00 +3.3600603912e+02 3.9125777257e+02 2.0000000000e+02 0.0000e+00 0.0000e+00
</event>
<event>
 5      1 +6.7420000e-10 2.38082000e+02 7.95774700e-02 4.46934700e-01
       13 -1    0    0    0    0 +0.0000000000e+00 +0.0000000000e+00 +4.9999998884e+02 5.0000000000e+02 1.0566000000e-01 0.0000e+00 1.0000e+00
      994 -1    0    0    0    0 -0.0000000000e+00 -0.0000000000e+00 +0.0000000000e+00 1.3100000000e+02 1.3100000000e+02 0.0000e+00 0.0000e+00
       13  1    1    2    0    0 -2.5731149686e+01 -5.9526117030e+00 +3.3529732731e+01 4.2682312394e+01 1.0566000000e-01 0.0000e+00 -1.0000e+00
      994  1    1    2    0    0 +1.5420159065e+00 +2.3052054050e+01 +8.8811829243e+01 1.5994472802e+02 1.3100000000e+02 0.0000e+00 0.0000e+00
      997  1    1    2    0    0 +2.4189133780e+01 -1.7099442347e+01 +3.7765842686e+02 4.2837295958e+02 2.0000000000e+02 0.0000e+00 0.0000e+00
</event>
<event>
 5      1 +6.7420000e-10 2.49216500e+02 7.95774700e-02 4.34198600e-01
       13 -1    0    0    0    0 +0.0000000000e+00 +0.0000000000e+00 +4.9999998884e+02 5.0000000000e+02 1.0566000000e-01 0.0000e+00 1.0000e+00
      994 -1    0    0    0    0 -0.0000000000e+00 -0.0000000000e+00 +0.0000000000e+00 1.3100000000e+02 1.3100000000e+02 0.0000e+00 0.0000e+00
       13  1    1    2    0    0 -2.4471734504e+01 -2.4307366698e+01 +1.6784884705e+01 3.8359580082e+01 1.0566000000e-01 0.0000e+00 -1.0000e+00
      994  1    1    2    0    0 -5.8053057256e+00 +2.2533684955e+01 +1.3252571083e+02 1.8779119405e+02 1.3100000000e+02 0.0000e+00 0.0000e+00
      997  1    1    2    0    0 +3.0277040230e+01 +1.7736817433e+00 +3.5068939330e+02 4.0484922586e+02 2.0000000000e+02 0.0000e+00 0.0000e+00
</event>
<event>
 5      1 +6.7420000e-10 2.40011000e+02 7.95774700e-02 4.44628000e-01
       13 -1    0    0    0    0 +0.0000000000e+00 +0.0000000000e+00 +4.9999998884e+02 5.0000000000e+02 1.0566000000e-01 0.0000e+00 1.0000e+00
      994 -1    0    0    0    0 -0.0000000000e+00 -0.0000000000e+00 +0.0000000000e+00 1.3100000000e+02 1.3100000000e+02 0.0000e+00 0.0000e+00
       13  1    1    2    0    0 +2.5507491735e+01 +7.8465627305e+00 +2.0216983414e+01 3.3480416122e+01 1.0566000000e-01 0.0000e+00 -1.0000e+00
      994  1    1    2    0    0 -2.6768491714e+01 +2.0123515038e+01 +1.0280916825e+02 1.6985945097e+02 1.3100000000e+02 0.0000e+00 0.0000e+00
      997  1    1    2    0    0 +1.2609999786e+00 -2.7970077768e+01 +3.7697383717e+02 4.2766013291e+02 2.0000000000e+02 0.0000e+00 0.0000e+00
</event>
<event>
 5      1 +6.7420000e-10 2.39330900e+02 7.95774700e-02 4.45436300e-01
       13 -1    0    0    0    0 +0.0000000000e+00 +0.0000000000e+00 +4.9999998884e+02 5.0000000000e+02 1.0566000000e-01 0.0000e+00 -1.0000e+00
      994 -1    0    0    0    0 -0.0000000000e+00 -0.0000000000e+00 +0.0000000000e+00 1.3100000000e+02 1.3100000000e+02 0.0000e+00 0.0000e+00
       13  1    1    2    0    0 +1.6777880938e+01 -1.6813326819e+01 +2.2150047233e+01 3.2478008004e+01 1.0566000000e-01 0.0000e+00 1.0000e+00
      994  1    1    2    0    0 +2.2806556470e+01 -2.1068893777e+00 +9.1995952443e+01 1.6170600875e+02 1.3100000000e+02 0.0000e+00 0.0000e+00
      997  1    1    2    0    0 -3.9584437408e+01 +1.8920216196e+01 +3.8585398916e+02 4.3681598324e+02 2.0000000000e+02 0.0000e+00 0.0000e+00
</event>
<event>
 5      1 +6.7420000e-10 2.36367100e+02 7.95774700e-02 4.49023200e-01
       13 -1    0    0    0    0 +0.0000000000e+00 +0.0000000000e+00 +4.9999998884e+02 5.0000000000e+02 1.0566000000e-01 0.0000e+00 1.0000e+00
      994 -1    0    0    0    0 -0.0000000000e+00 -0.0000000000e+00 +0.0000000000e+00 1.3100000000e+02 1.3100000000e+02 0.0000e+00 0.0000e+00
       13  1    1    2    0    0 +1.7747815859e+01 +9.9029422660e+00 +1.6164398698e+01 2.5968291869e+01 1.0566000000e-01 0.0000e+00 -1.0000e+00
      994  1    1    2    0    0 -2.0842903308e+01 +3.3866997557e+01 +9.8441163141e+01 1.6862106257e+02 1.3100000000e+02 0.0000e+00 0.0000e+00
      997  1    1    2    0    0 +3.0950874494e+00 -4.3769939823e+01 +3.8539442700e+02 4.3641064556e+02 2.0000000000e+02 0.0000e+00 0.0000e+00
</event>
<event>
 5      1 +6.7420000e-10 2.37060300e+02 7.95774700e-02 4.48174700e-01
       13 -1    0    0    0    0 +0.0000000000e+00 +0.0000000000e+00 +4.9999998884e+02 5.0000000000e+02 1.0566000000e-01 0.0000e+00 1.0000e+00
      994 -1    0    0    0    0 -0.0000000000e+00 -0.0000000000e+00 +0.0000000000e+00 1.3100000000e+02 1.3100000000e+02 0.0000e+00 0.0000e+00
       13  1    1    2    0    0 +2.6373643504e+01 +4.3702886364e+00 +4.6227126961e+01 5.3400626640e+01 1.0566000000e-01 0.0000e+00 -1.0000e+00
      994  1    1    2    0    0 -1.5488654334e+01 +1.3543943033e+01 +8.4850898562e+01 1.5742938669e+02 1.3100000000e+02 0.0000e+00 0.0000e+00
      997  1    1    2    0    0 -1.0884989171e+01 -1.7914231670e+01 +3.6892196331e+02 4.2016998667e+02 2.0000000000e+02 0.0000e+00 0.0000e+00
</event>
<event>
 5      1 +6.7420000e-10 2.49633400e+02 7.95774700e-02 4.33747500e-01
       13 -1    0    0    0    0 +0.0000000000e+00 +0.0000000000e+00 +4.9999998884e+02 5.0000000000e+02 1.0566000000e-01 0.0000e+00 -1.0000e+00
      994 -1    0    0    0    0 -0.0000000000e+00 -0.0000000000e+00 +0.0000000000e+00 1.3100000000e+02 1.3100000000e+02 0.0000e+00 0.0000e+00
       13  1    1    2    0    0 -2.5835022903e+01 -2.0485380935e+01 +1.0115191525e+02 1.0638994484e+02 1.0566000000e-01 0.0000e+00 1.0000e+00
      994  1    1    2    0    0 +2.2602249648e+01 +9.8802150616e+00 +2.1354686724e+02 2.5173745221e+02 1.3100000000e+02 0.0000e+00 0.0000e+00
      997  1    1    2    0    0 +3.2327732549e+00 +1.0605165874e+01 +1.8530120635e+02 2.7287260295e+02 2.0000000000e+02 0.0000e+00 0.0000e+00
</event>
<event>
 5      1 +6.7420000e-10 2.38139200e+02 7.95774700e-02 4.46865700e-01
       13 -1    0    0    0    0 +0.0000000000e+00 +0.0000000000e+00 +4.9999998884e+02 5.0000000000e+02 1.0566000000e-01 0.0000e+00 -1.0000e+00
      994 -1    0    0    0    0 -0.0000000000e+00 -0.0000000000e+00 +0.0000000000e+00 1.3100000000e+02 1.3100000000e+02 0.0000e+00 0.0000e+00
       13  1    1    2    0    0 +8.2000650278e+00 +9.9943034615e+00 -3.7691448315e+00 1.3466431782e+01 1.0566000000e-01 0.0000e+00 1.0000e+00
      994  1    1    2    0    0 -2.6054074565e+01 -5.6733431861e+01 +1.5455207113e+02 2.1200198061e+02 1.3100000000e+02 0.0000e+00 0.0000e+00
      997  1    1    2    0    0 +1.7854009538e+01 +4.6739128399e+01 +3.4921706254e+02 4.0553158761e+02 2.0000000000e+02 0.0000e+00 0.0000e+00
</event>
<event>
 5      1 +6.7420000e-10 2.32397500e+02 7.95774700e-02 4.53999500e-01
       13 -1    0    0    0    0 +0.0000000000e+00 +0.0000000000e+00 +4.9999998884e+02 5.0000000000e+02 1.0566000000e-01 0.0000e+00 -1.0000e+00
      994 -1    0    0    0    0 -0.0000000000e+00 -0.0000000000e+00 +0.0000000000e+00 1.3100000000e+02 1.3100000000e+02 0.0000e+00 0.0000e+00
       13  1    1    2    0    0 -5.8662911945e+00 -1.2664102937e+01 +5.1124921479e+01 5.2995864328e+01 1.0566000000e-01 0.0000e+00 1.0000e+00
      994  1    1    2    0    0 +1.5299558446e+01 -2.7986431306e+01 +8.1234997856e+01 1.5740851852e+02 1.3100000000e+02 0.0000e+00 0.0000e+00
      997  1    1    2    0    0 -9.4332672511e+00 +4.0650534244e+01 +3.6764006950e+02 4.2059561715e+02 2.0000000000e+02 0.0000e+00 0.0000e+00
</event>
<event>
 5      1 +6.7420000e-10 2.43577700e+02 7.95774700e-02 4.40476700e-01
       13 -1    0    0    0    0 +0.0000000000e+00 +0.0000000000e+00 +4.9999998884e+02 5.0000000000e+02 1.0566000000e-01 0.0000e+00 1.0000e+00
      994 -1    0    0    0    0 -0.0000000000e+00 -0.0000000000e+00 +0.0000000000e+00 1.3100000000e+02 1.3100000000e+02 0.0000e+00 0.0000e+00
       13  1    1    2    0    0 -3.0909992185e+01 +1.3215985245e+01 +6.9764801653e+01 7.7441775526e+01 1.0566000000e-01 0.0000e+00 -1.0000e+00
      994  1    1    2    0    0 -1.1847902045e+01 -4.3793508302e+01 +1.3847810351e+02 1.9594751671e+02 1.3100000000e+02 0.0000e+00 0.0000e+00
      997  1    1    2    0    0 +4.2757894231e+01 +3.0577523057e+01 +2.9175708368e+02 3.5761070777e+02 2.0000000000e+02 0.0000e+00 0.0000e+00
</event>
<event>
 5      1 +6.7420000e-10 2.34626800e+02 7.95774700e-02 4.51180000e-01
       13 -1    0    0    0    0 +0.0000000000e+00 +0.0000000000e+00 +4.9999998884e+02 5.0000000000e+02 1.0566000000e-01 0.0000e+00 1.0000e+00
      994 -1    0    0    0    0 -0.0000000000e+00 -0.0000000000e+00 +0.0000000000e+00 1.3100000000e+02 1.3100000000e+02 0.0000e+00 0.0000e+00
       13  1    1    2    0    0 +1.6755083592e+01 +8.3742232002e+00 +2.7752575563e+01 3.3482488778e+01 1.0566000000e-01 0.0000e+00 -1.0000e+00
      994  1    1    2    0    0 +1.8906790624e+01 +2.4911221169e+01 +8.5891867916e+01 1.5973868863e+02 1.3100000000e+02 0.0000e+00 0.0000e+00
      997  1    1    2    0    0 -3.5661874217e+01 -3.3285444369e+01 +3.8635554536e+02 4.3777882259e+02 2.0000000000e+02 0.0000e+00 0.0000e+00
</event>
<event>
 5      1 +6.7420000e-10 2.33299600e+02 7.95774700e-02 4.52850800e-01
       13 -1    0    0    0    0 +0.0000000000e+00 +0.0000000000e+00 +4.9999998884e+02 5.0000000000e+02 1.0566000000e-01 0.0000e+00 -1.0000e+00
      994 -1    0    0    0    0 -0.0000000000e+00 -0.0000000000e+00 +0.0000000000e+00 1.3100000000e+02 1.3100000000e+02 0.0000e+00 0.0000e+00
       13  1    1    2    0    0 +1.1974687757e+00 +1.6769752946e+01 +1.1873324977e+01 2.0582651807e+01 1.0566000000e-01 0.0000e+00 1.0000e+00
      994  1    1    2    0    0 -5.9517859688e-01 -2.8955557192e+01 +8.1169944253e+01 1.5680669112e+02 1.3100000000e+02 0.0000e+00 0.0000e+00
      997  1    1    2    0    0 -6.0229017881e-01 +1.2185804246e+01 +4.0695671961e+02 4.5361065707e+02 2.0000000000e+02 0.0000e+00 0.0000e+00
</event>
<event>
 5      1 +6.7420000e-10 2.36489200e+02 7.95774700e-02 4.48873300e-01
       13 -1    0    0    0    0 +0.0000000000e+00 +0.0000000000e+00 +4.9999998884e+02 5.0000000000e+02 1.0566000000e-01 0.0000e+00 -1.0000e+00
      994 -1    0    0    0    0 -0.0000000000e+00 -0.0000000000e+00 +0.0000000000e+00 1.3100000000e+02 1.3100000000e+02 0.0000e+00 0.0000e+00
       13  1    1    2    0    0 +8.6943142731e+00 +2.5185096841e+01 +4.6464341336e+01 5.3561426264e+01 1.0566000000e-01 0.0000e+00 1.0000e+00
      994  1    1    2    0    0 +3.5007373525e-01 -2.0900621577e+01 +8.3660276576e+01 1.5683430878e+02 1.3100000000e+02 0.0000e+00 0.0000e+00
      997  1    1    2    0    0 -9.0443880084e+00 -4.2844752641e+00 +3.6987537092e+02 4.2060426496e+02 2.0000000000e+02 0.0000e+00 0.0000e+00
</event>
<event>
 5      1 +6.7420000e-10 2.47041300e+02 7.95774700e-02 4.36580500e-01
       13 -1    0    0    0    0 +0.0000000000e+00 +0.0000000000e+00 +4.9999998884e+02 5.0000000000e+02 1.0566000000e-01 0.0000e+00 1.0000e+00
      994 -1    0    0    0    0 -0.0000000000e+00 -0.0000000000e+00 +0.0000000000e+00 1.3100000000e+02 1.3100000000e+02 0.0000e+00 0.0000e+00
       13  1    1    2    0    0 -2.1826033091e+00 -4.0175064433e+01 +5.8037441792e+01 7.0619794485e+01 1.0566000000e-01 0.0000e+00 -1.0000e+00
      994  1    1    2    0    0 -2.4349725797e+01 +7.9716296829e+00 +1.2249480552e+02 1.8116962605e+02 1.3100000000e+02 0.0000e+00 0.0000e+00
      997  1    1    2    0    0 +2.6532329106e+01 +3.2203434750e+01 +3.1946774153e+02 3.7921057946e+02 2.0000000000e+02 0.0000e+00 0.0000e+00
</event>
<event>
 5      1 +6.7420000e-10 2.35282300e+02 7.95774700e-02 4.50363200e-01
       13 -1    0    0    0    0 +0.0000000000e+00 +0.0000000000e+00 +4.9999998884e+02 5.0000000000e+02 1.0566000000e-01 0.0000e+00 -1.0000e+00
      994 -1    0    0    0    0 -0.0000000000e+00 -0.0000000000e+00 +0.0000000000e+00 1.3100000000e+02 1.3100000000e+02 0.0000e+00 0.0000e+00
       13  1    1    2    0    0 +1.4071800292e+01 +1.3339815087e+01 +4.8780212482e+01 5.2492728294e+01 1.0566000000e-01 0.0000e+00 1.0000e+00
      994  1    1    2    0    0 +5.0735930439e+00 +3.1445456238e+01 +8.7943778507e+01 1.6096479815e+02 1.3100000000e+02 0.0000e+00 0.0000e+00
      997  1    1    2    0    0 -1.9145393336e+01 -4.4785271324e+01 +3.6327599785e+02 4.1754247356e+02 2.0000000000e+02 0.0000e+00 0.0000e+00
</event>
<event>
 5      1 +6.7420000e-10 2.46560000e+02 7.95774700e-02 4.37114300e-01
       13 -1    0    0    0    0 +0.0000000000e+00 +0.0000000000e+00 +4.9999998884e+02 5.0000000000e+02 1.0566000000e-01 0.0000e+00 1.0000e+00
      994 -1    0    0    0    0 -0.0000000000e+00 -0.0000000000e+00 +0.0000000000e+00 1.3100000000e+02 1.3100000000e+02 0.0000e+00 0.0000e+00
       13  1    1    2    0    0 +2.0550575221e+01 -4.7935244697e+00 +2.6641904893e-01 2.1104174040e+01 1.0566000000e-01 0.0000e+00 -1.0000e+00
      994  1    1    2    0    0 -1.0185476858e+01 -1.4807783463e+01 +1.1296007306e+02 1.7390800009e+02 1.3100000000e+02 0.0000e+00 0.0000e+00
      997  1    1    2    0    0 -1.0365098363e+01 +1.9601307933e+01 +3.8677349672e+02 4.3598782587e+02 2.0000000000e+02 0.0000e+00 0.0000e+00
</event>
<event>
 5      1 +6.7420000e-10 2.43958300e+02 7.95774700e-02 4.40042200e-01
       13 -1    0    0    0    0 +0.0000000000e+00 +0.0000000000e+00 +4.9999998884e+02 5.0000000000e+02 1.0566000000e-01 0.0000e+00 1.0000e+00
      994 -1    0    0    0    0 -0.0000000000e+00 -0.0000000000e+00 +0.0000000000e+00 1.3100000000e+02 1.3100000000e+02 0.0000e+00 0.0000e+00
       13  1    1    2    0    0 +1.5545459416e+00 -3.2303593876e+01 +1.9630630429e+01 3.7832679068e+01 1.0566000000e-01 0.0000e+00 -1.0000e+00
      994  1    1    2    0    0 -2.8430418547e+00 +3.5461557123e+01 +1.2083640288e+02 1.8173618567e+02 1.3100000000e+02 0.0000e+00 0.0000e+00
      997  1    1    2    0    0 +1.2884959131e+00 -3.1579632469e+00 +3.5953295553e+02 4.1143113526e+02 2.0000000000e+02 0.0000e+00 0.0000e+00
</event>
<event>
 5      1 +6.7420000e-10 2.38493000e+02 7.95774700e-02 4.46439500e-01
       13 -1    0    0    0    0 +0.0000000000e+00 +0.0000000000e+00 +4.9999998884e+02 5.0000000000e+02 1.0566000000e-01 0.0000e+00 1.0000e+00
      994 -1    0    0    0    0 -0.0000000000e+00 -0.0000000000e+00 +0.0000000000e+00 1.3100000000e+02 1.3100000000e+02 0.0000e+00 0.0000e+00
       13  1    1    2    0    0 +9.6657587763e+00 -8.9584285072e+00 -1.1729778020e-01 1.3179729013e+01 1.0566000000e-01 0.0000e+00 -1.0000e+00
      994  1    1    2    0    0 +2.9810430192e+00 +5.1136628723e+00 +8.3408195629e+01 1.5541223653e+02 1.3100000000e+02 0.0000e+00 0.0000e+00
      997  1    1    2    0    0 -1.2646801796e+01 +3.8447656348e+00 +4.1670909099e+02 4.6240803446e+02 2.0000000000e+02 0.0000e+00 0.0000e+00
</event>
<event>
 5      1 +6.7420000e-10 2.44066500e+02 7.95774700e-02 4.39919000e-01
       13 -1    0    0    0    0 +0.0000000000e+00 +0.0000000000e+00 +4.9999998884e+02 5.0000000000e+02 1.0566000000e-01 0.0000e+00 1.0000e+00
      994 -1    0    0    0    0 -0.0000000000e+00 -0.0000000000e+00 +0.0000000000e+00 1.3100000000e+02 1.3100000000e+02 0.0000e+00 0.0000e+00
       13  1    1    2    0    0 -3.1075198059e+01 +5.7733564903e+00 +2.5454033303e+01 4.0582244332e+01 1.0566000000e-01 0.0000e+00 -1.0000e+00
      994  1    1    2    0    0 +8.0317209291e+00 -5.3471836497e+00 +9.9619022484e+01 1.6485766756e+02 1.3100000000e+02 0.0000e+00 0.0000e+00
      997  1    1    2    0    0 +2.3043477130e+01 -4.2617284064e-01 +3.7492693305e+02 4.2556008810e+02 2.0000000000e+02 0.0000e+00 0.0000e+00
</event>
<event>
 5      1 +6.7420000e-10 2.34489600e+02 7.95774700e-02 4.51351600e-01
       13 -1    0    0    0    0 +0.0000000000e+00 +0.0000000000e+00 +4.9999998884e+02 5.0000000000e+02 1.0566000000e-01 0.0000e+00 1.0000e+00
      994 -1    0    0    0    0 -0.0000000000e+00 -0.0000000000e+00 +0.0000000000e+00 1.3100000000e+02 1.3100000000e+02 0.0000e+00 0.0000e+00
       13  1    1    2    0    0 +1.3290498723e+01 +1.7594767831e+01 +3.7188391949e+01 4.3234255760e+01 1.0566000000e-01 0.0000e+00 -1.0000e+00
      994  1    1    2    0    0 -1.0493536296e+01 -2.3878866026e+00 +7.5479368745e+01 1.5157160490e+02 1.3100000000e+02 0.0000e+00 0.0000e+00
      997  1    1    2    0    0 -2.7969624265e+00 -1.5206881228e+01 +3.8733222814e+02 4.3619413934e+02 2.0000000000e+02 0.0000e+00 0.0000e+00
</event>
<event>
 5      1 +6.7420000e-10 2.43810100e+02 7.95774700e-02 4.40211200e-01
       13 -1    0    0    0    0 +0.0000000000e+00 +0.0000000000e+00 +4.9999998884e+02 5.0000000000e+02 1.0566000000e-01 0.0000e+00 -1.0000e+00
      994 -1    0    0    0    0 -0.0000000000e+00 -0.0000000000e+00 +0.0000000000e+00 1.3100000000e+02 1.3100000000e+02 0.0000e+00 0.0000e+00
       13  1    1    2    0    0 -3.0623907685e+01 +1.5114102161e+01 +6.6806264845e+01 7.5028981018e+01 1.0566000000e-01 0.0000e+00 1.0000e+00
      994  1    1    2    0    0 -8.7813900067e-01 +7.6283804785e+00 +9.8253458421e+01 1.6393201459e+02 1.3100000000e+02 0.0000e+00 0.0000e+00
      997  1    1    2    0    0 +3.1502046686e+01 -2.2742482639e+01 +3.3494026557e+02 3.9203900439e+02 2.0000000000e+02 0.0000e+00 0.0000e+00
</event>
<event>
 5      1 +6.7420000e-10 2.37825000e+02 7.95774700e-02 4.47245400e-01
       13 -1    0    0    0    0 +0.0000000000e+00 +0.0000000000e+00 +4.9999998884e+02 5.0000000000e+02 1.0566000000e-01 0.0000e+00 1.0000e+00
      994 -1    0    0    0    0 -0.0000000000e+00 -0.0000000000e+00 +0.0000000000e+00 1.3100000000e+02 1.3100000000e+02 0.0000e+00 0.0000e+00
       13  1    1    2    0    0 -2.0270825010e+01 -1.6844886770e+01 +1.5014398466e+01 3.0333148242e+01 1.0566000000e-01 0.0000e+00 -1.0000e+00
      994  1    1    2    0    0 +3.6805617235e+01 +4.8300762765e+01 +1.4506942033e+02 2.0467963713e+02 1.3100000000e+02 0.0000e+00 0.0000e+00
      997  1    1    2    0    0 -1.6534792225e+01 -3.1455875994e+01 +3.3991617004e+02 3.9598721462e+02 2.0000000000e+02 0.0000e+00 0.0000e+00
</event>
<event>
 5      1 +6.7420000e-10 2.30856600e+02 7.95774700e-02 4.55986900e-01
       13 -1    0    0    0    0 +0.0000000000e+00 +0.0000000000e+00 +4.9999998884e+02 5.0000000000e+02 1.0566000000e-01 0.0000e+00 1.0000e+00
      994 -1    0    0    0    0 -0.0000000000e+00 -0.0000000000e+00 +0.0000000000e+00 1.3100000000e+02 1.3100000000e+02 0.0000e+00 0.0000e+00
       13  1    1    2    0    0 -4.1604750338e+00 +1.1686254098e+01 +8.6695811132e+00 1.5134427246e+01 1.0566000000e-01 0.0000e+00 -1.0000e+00
      994  1    1    2    0    0 -2.6331246070e+01 -2.3476478827e+01 +8.0450424870e+01 1.5772682219e+02 1.3100000000e+02 0.0000e+00 0.0000e+00
      997  1    1    2    0    0 +3.0491721104e+01 +1.1790224729e+01 +4.1087998285e+02 4.5813875056e+02 2.0000000000e+02 0.0000e+00 0.0000e+00
</event>
<event>
 5      1 +6.7420000e-10 2.36684700e+02 7.95774700e-02 4.48633700e-01
       13 -1    0    0    0    0 +0.0000000000e+00 +0.0000000000e+00 +4.9999998884e+02 5.0000000000e+02 1.0566000000e-01 0.0000e+00 1.0000e+00
      994 -1    0    0    0    0 -0.0000000000e+00 -0.0000000000e+00 +0.0000000000e+00 1.3100000000e+02 1.3100000000e+02 0.0000e+00 0.0000e+00
       13  1    1    2    0    0 -1.4002567658e+01 -1.7950550715e+01 +5.2576211697e+00 2.3365528378e+01 1.0566000000e-01 0.0000e+00 -1.0000e+00
      994  1    1    2    0    0 +1.3137442073e+01 +6.3850525847e+01 +2.3142353275e+02 2.7380163174e+02 1.3100000000e+02 0.0000e+00 0.0000e+00
      997  1    1    2    0    0 +8.6512558533e-01 -4.5899975131e+01 +2.6331883492e+02 3.3383283988e+02 2.0000000000e+02 0.0000e+00 0.0000e+00
</event>
<event>
 5      1 +6.7420000e-10 2.40940800e+02 7.95774700e-02 4.43531700e-01
       13 -1    0    0    0    0 +0.0000000000e+00 +0.0000000000e+00 +4.9999998884e+02 5.0000000000e+02 1.0566000000e-01 0.0000e+00 1.0000e+00
      994 -1    0    0    0    0 -0.0000000000e+00 -0.0000000000e+00 +0.0000000000e+00 1.3100000000e+02 1.3100000000e+02 0.0000e+00 0.0000e+00
       13  1    1    2    0    0 +2.2182242007e+01 -1.4183802353e+01 +1.8022957064e+01 3.1907213213e+01 1.0566000000e-01 0.0000e+00 -1.0000e+00
      994  1    1    2    0    0 -1.5349299803e-01 +2.5371270134e+01 +9.8372202814e+01 1.6577640120e+02 1.3100000000e+02 0.0000e+00 0.0000e+00
      997  1    1    2    0    0 -2.2028749009e+01 -1.1187467780e+01 +3.8360482896e+02 4.3331638559e+02 2.0000000000e+02 0.0000e+00 0.0000e+00
</event>
<event>
 5      1 +6.7420000e-10 2.30282500e+02 7.95774700e-02 4.56735500e-01
       13 -1    0    0    0    0 +0.0000000000e+00 +0.0000000000e+00 +4.9999998884e+02 5.0000000000e+02 1.0566000000e-01 0.0000e+00 -1.0000e+00
      994 -1    0    0    0    0 -0.0000000000e+00 -0.0000000000e+00 +0.0000000000e+00 1.3100000000e+02 1.3100000000e+02 0.0000e+00 0.0000e+00
       13  1    1    2    0    0 +1.5795431678e+01 -1.8620882117e+00 +3.3071009663e+01 3.6696946447e+01 1.0566000000e-01 0.0000e+00 1.0000e+00
      994  1    1    2    0    0 -2.0895028568e+01 -1.2263090376e+01 +7.2164666992e+01 1.5151146744e+02 1.3100000000e+02 0.0000e+00 0.0000e+00
      997  1    1    2    0    0 +5.0995968899e+00 +1.4125178588e+01 +3.9476431218e+02 4.4279158611e+02 2.0000000000e+02 0.0000e+00 0.0000e+00
</event>
<event>
 5      1 +6.7420000e-10 2.38694600e+02 7.95774700e-02 4.46197400e-01
       13 -1    0    0    0    0 +0.0000000000e+00 +0.0000000000e+00 +4.9999998884e+02 5.0000000000e+02 1.0566000000e-01 0.0000e+00 1.0000e+00
      994 -1    0    0    0    0 -0.0000000000e+00 -0.0000000000e+00 +0.0000000000e+00 1.3100000000e+02 1.3100000000e+02 0.0000e+00 0.0000e+00
       13  1    1    2    0    0 -1.7329606625e+01 -9.0069100749e+00 +4.5888488094e+01 4.9871877832e+01 1.0566000000e-01 0.0000e+00 -1.0000e+00
      994  1    1    2    0    0 -6.0993520844e+01 +1.5208755543e+01 +2.1679912849e+02 2.6098731376e+02 1.3100000000e+02 0.0000e+00 0.0000e+00
      997  1    1    2    0    0 +7.8323127469e+01 -6.2018454678e+00 +2.3731237225e+02 3.2014080841e+02 2.0000000000e+02 0.0000e+00 0.0000e+00
</event>
<event>
 5      1 +6.7420000e-10 2.35809500e+02 7.95774700e-02 4.49710100e-01
       13 -1    0    0    0    0 +0.0000000000e+00 +0.0000000000e+00 +4.9999998884e+02 5.0000000000e+02 1.0566000000e-01 0.0000e+00 1.0000e+00
      994 -1    0    0    0    0 -0.0000000000e+00 -0.0000000000e+00 +0.0000000000e+00 1.3100000000e+02 1.3100000000e+02 0.0000e+00 0.0000e+00
       13  1    1    2    0    0 -1.6819303871e+01 +8.8849153832e+00 +3.2737306199e+01 3.7862555187e+01 1.0566000000e-01 0.0000e+00 -1.0000e+00
      994  1    1    2    0    0 -4.0658260967e+01 +2.4046618187e+01 +1.0631542617e+02 1.7520075306e+02 1.3100000000e+02 0.0000e+00 0.0000e+00
      997  1    1    2    0    0 +5.7477564838e+01 -3.2931533570e+01 +3.6094725646e+02 4.1793669175e+02 2.0000000000e+02 0.0000e+00 0.0000e+00
</event>
<event>
 5      1 +6.7420000e-10 2.41739400e+02 7.95774700e-02 4.42598300e-01
       13 -1    0    0    0    0 +0.0000000000e+00 +0.0000000000e+00 +4.9999998884e+02 5.0000000000e+02 1.0566000000e-01 0.0000e+00 -1.0000e+00
      994 -1    0    0    0    0 -0.0000000000e+00 -0.0000000000e+00 +0.0000000000e+00 1.3100000000e+02 1.3100000000e+02 0.0000e+00 0.0000e+00
       13  1    1    2    0    0 +3.1586206261e+01 -1.1631371228e+01 +6.5892782807e+01 7.3992210487e+01 1.0566000000e-01 0.0000e+00 1.0000e+00
      994  1    1    2    0    0 -1.9928353292e+01 -1.4614496303e+01 +1.0036189241e+02 1.6686591089e+02 1.3100000000e+02 0.0000e+00 0.0000e+00
      997  1    1    2    0    0 -1.1657852969e+01 +2.6245867531e+01 +3.3374531362e+02 3.9014187863e+02 2.0000000000e+02 0.0000e+00 0.0000e+00
</event>
<event>
 5      1 +6.7420000e-10 2.35781600e+02 7.95774700e-02 4.49744600e-01
       13 -1    0    0    0    0 +0.0000000000e+00 +0.0000000000e+00 +4.9999998884e+02 5.0000000000e+02 1.0566000000e-01 0.0000e+00 1.0000e+00
      994 -1    0    0    0    0 -0.0000000000e+00 -0.0000000000e+00 +0.0000000000e+00 1.3100000000e+02 1.3100000000e+02 0.0000e+00 0.0000e+00
       13  1    1    2    0    0 -1.9992606602e+00 +1.4456836435e+01 +1.7805156749e+00 1.4703012039e+01 1.0566000000e-01 0.0000e+00 -1.0000e+00
      994  1    1    2    0    0 +8.5788871429e+00 -4.8388810971e+01 +1.0909231469e+02 1.7741817115e+02 1.3100000000e+02 0.0000e+00 0.0000e+00
      997  1    1    2    0    0 -6.5796264826e+00 +3.3931974536e+01 +3.8912715847e+02 4.3887881681e+02 2.0000000000e+02 0.0000e+00 0.0000e+00
</event>
<event>
 5      1 +6.7420000e-10 2.33727600e+02 7.95774700e-02 4.52309500e-01
       13 -1    0    0    0    0 +0.0000000000e+00 +0.0000000000e+00 +4.9999998884e+02 5.0000000000e+02 1.0566000000e-01 0.0000e+00 -1.0000e+00
      994 -1    0    0    0    0 -0.0000000000e+00 -0.0000000000e+00 +0.0000000000e+00 1.3100000000e+02 1.3100000000e+02 0.0000e+00 0.0000e+00
       13  1    1    2    0    0 -1.3160522523e+01 -6.9557670557e+00 +9.1226297126e+00 1.7458968621e+01 1.0566000000e-01 0.0000e+00 1.0000e+00
      994  1    1    2    0    0 -1.1251490952e+01 +2.1998782702e+01 +7.9474820860e+01 1.5520241506e+02 1.3100000000e+02 0.0000e+00 0.0000e+00
      997  1    1    2    0    0 +2.4412013475e+01 -1.5043015646e+01 +4.1140253826e+02 4.5833861632e+02 2.0000000000e+02 0.0000e+00 0.0000e+00
</event>
<event>
 5      1 +6.7420000e-10 2.33205300e+02 7.95774700e-02 4.52970400e-01
       13 -1    0    0    0    0 +0.0000000000e+00 +0.0000000000e+00 +4.9999998884e+02 5.0000000000e+02 1.0566000000e-01 0.0000e+00 -1.0000e+00
      994 -1    0    0    0    0 -0.0000000000e+00 -0.0000000000e+00 +0.0000000000e+00 1.3100000000e+02 1.3100000000e+02 0.0000e+00 0.0000e+00
       13  1    1    2    0    0 -9.2671680836e+00 +1.5739218957e+01 +1.7291152132e+01 2.5151511361e+01 1.0566000000e-01 0.0000e+00 1.0000e+00
      994  1    1    2    0    0 +5.7026076138e+00 -2.3734461875e+01 +7.8182763976e+01 1.5449721356e+02 1.3100000000e+02 0.0000e+00 0.0000e+00
      997  1    1    2    0    0 +3.5645604698e+00 +7.9952429181e+00 +4.0452607273e+02 4.5135127508e+02 2.0000000000e+02 0.0000e+00 0.0000e+00
</event>
<event>
 5      1 +6.7420000e-10 2.45581900e+02 7.95774700e-02 4.38206500e-01
       13 -1    0    0    0    0 +0.0000000000e+00 +0.0000000000e+00 +4.9999998884e+02 5.0000000000e+02 1.0566000000e-01 0.0000e+00 -1.0000e+00
      994 -1    0    0    0    0 -0.0000000000e+00 -0.0000000000e+00 +0.0000000000e+00 1.3100000000e+02 1.3100000000e+02 0.0000e+00 0.0000e+00
       13  1    1    2    0    0 +5.6963620326e+00 +1.2720760375e+01 -8.6276655661e+00 1.6392500178e+01 1.0566000000e-01 0.0000e+00 1.0000e+00
      994  1    1    2    0    0 -7.4035987011e-02 -4.6838065994e+01 +1.6835605195e+02 2.1840002320e+02 1.3100000000e+02 0.0000e+00 0.0000e+00
      997  1    1    2    0    0 -5.6223260456e+00 +3.4117305619e+01 +3.4027160245e+02 3.9620747662e+02 2.0000000000e+02 0.0000e+00 0.0000e+00
</event>
<event>
 5      1 +6.7420000e-10 2.44009200e+02 7.95774700e-02 4.39984300e-01
       13 -1    0    0    0    0 +0.0000000000e+00 +0.0000000000e+00 +4.9999998884e+02 5.0000000000e+02 1.0566000000e-01 0.0000e+00 -1.0000e+00
      994 -1    0    0    0    0 -0.0000000000e+00 -0.0000000000e+00 +0.0000000000e+00 1.3100000000e+02 1.3100000000e+02 0.0000e+00 0.0000e+00
       13  1    1    2    0    0 -2.4314696629e+00 +2.1242208277e+01 +3.9789776713e+00 2.1748261644e+01 1.0566000000e-01 0.0000e+00 1.0000e+00
      994  1    1    2    0    0 +2.2841757262e+01 +1.3298980875e+00 +1.0666369569e+02 1.7047480307e+02 1.3100000000e+02 0.0000e+00 0.0000e+00
      997  1    1    2    0    0 -2.0410287599e+01 -2.2572106364e+01 +3.8935731547e+02 4.3877693528e+02 2.0000000000e+02 0.0000e+00 0.0000e+00
</event>
<event>
 5      1 +6.7420000e-10 2.38407100e+02 7.95774700e-02 4.46542800e-01
       13 -1    0    0    0    0 +0.0000000000e+00 +0.0000000000e+00 +4.9999998884e+02 5.0000000000e+02 1.0566000000e-01 0.0000e+00 -1.0000e+00
      994 -1    0    0    0    0 -0.0000000000e+00 -0.0000000000e+00 +0.0000000000e+00 1.3100000000e+02 1.3100000000e+02 0.0000e+00 0.0000e+00
       13  1    1    2    0    0 +1.1013985192e+00 +2.8522672152e+01 +3.5837323680e+01 4.5815726972e+01 1.0566000000e-01 0.0000e+00 1.0000e+00
      994  1    1    2    0    0 -6.0710233734e+01 -1.7094648844e+01 +1.6070819787e+02 2.1671659918e+02 1.3100000000e+02 0.0000e+00 0.0000e+00
      997  1    1    2    0    0 +5.9608835215e+01 -1.1428023308e+01 +3.0345446729e+02 3.6846767385e+02 2.0000000000e+02 0.0000e+00 0.0000e+00
</event>
<event>
 5      1 +6.7420000e-10 2.30716000e+02 7.95774700e-02 4.56169700e-01
       13 -1    0    0    0    0 +0.0000000000e+00 +0.0000000000e+00 +4.9999998884e+02 5.0000000000e+02 1.0566000000e-01 0.0000e+00 1.0000e+00
      994 -1    0    0    0    0 -0.0000000000e+00 -0.0000000000e+00 +0.0000000000e+00 1.3100000000e+02 1.3100000000e+02 0.0000e+00 0.0000e+00
       13  1    1    2    0    0 +9.9645088098e+00 -1.1684421447e+01 +1.8945821659e+01 2.4387957331e+01 1.0566000000e-01 0.0000e+00 -1.0000e+00
      994  1    1    2    0    0 -9.2783569406e+00 +1.6782923630e+01 +7.0713701345e+01 1.5009724178e+02 1.3100000000e+02 0.0000e+00 0.0000e+00
      997  1    1    2    0    0 -6.8615186917e-01 -5.0985021831e+00 +4.1034046583e+02 4.5651480089e+02 2.0000000000e+02 0.0000e+00 0.0000e+00
</event>
<event>
 5      1 +6.7420000e-10 2.37200400e+02 7.95774700e-02 4.48003800e-01
       13 -1    0    0    0    0 +0.0000000000e+00 +0.0000000000e+00 +4.9999998884e+02 5.0000000000e+02 1.0566000000e-01 0.0000e+00 1.0000e+00
      994 -1    0    0    0    0 -0.0000000000e+00 -0.0000000000e+00 +0.0000000000e+00 1.3100000000e+02 1.3100000000e+02 0.0000e+00 0.0000e+00
       13  1    1    2    0    0 -2.9970790917e+00 +1.1894281025e+01 -1.3589791781e+00 1.2341571725e+01 1.0566000000e-01 0.0000e+00 -1.0000e+00
      994  1    1    2    0    0 +5.4950618808e+01 +3.6680116764e+01 +1.6376544831e+02 2.1987524539e+02 1.3100000000e+02 0.0000e+00 0.0000e+00
      997  1    1    2    0    0 -5.1953539717e+01 -4.8574397790e+01 +3.3759351970e+02 3.9878318289e+02 2.0000000000e+02 0.0000e+00 0.0000e+00
</event>
<event>
 5      1 +6.7420000e-10 2.48327500e+02 7.95774700e-02 4.35166200e-01
       13 -1    0    0    0    0 +0.0000000000e+00 +0.0000000000e+00 +4.9999998884e+02 5.0000000000e+02 1.0566000000e-01 0.0000e+00 1.0000e+00
      994 -1    0    0    0    0 -0.0000000000e+00 -0.0000000000e+00 +0.0000000000e+00 1.3100000000e+02 1.3100000000e+02 0.0000e+00 0.0000e+00
       13  1    1    2    0    0 +8.0142619330e+00 +2.9183323907e+01 +1.2064248932e+01 3.2579933317e+01 1.0566000000e-01 0.0000e+00 -1.0000e+00
      994  1    1    2    0    0 +1.4187459317e+01 -6.7265361905e+00 +1.1948848345e+02 1.7800288753e+02 1.3100000000e+02 0.0000e+00 0.0000e+00
      997  1    1    2    0    0 -2.2201721250e+01 -2.2456787717e+01 +3.6844725645e+02 4.2041717915e+02 2.0000000000e+02 0.0000e+00 0.0000e+00
</event>
<event>
 5      1 +6.7420000e-10 2.50295200e+02 7.95774700e-02 4.33035200e-01
       13 -1    0    0    0    0 +0.0000000000e+00 +0.0000000000e+00 +4.9999998884e+02 5.0000000000e+02 1.0566000000e-01 0.0000e+00 -1.0000e+00
      994 -1    0    0    0    0 -0.0000000000e+00 -0.0000000000e+00 +0.0000000000e+00 1.3100000000e+02 1.3100000000e+02 0.0000e+00 0.0000e+00
       13  1    1    2    0    0 -1.4721327507e+01 -2.4961297213e+01 +4.6595702395e+00 2.9351432690e+01 1.0566000000e-01 0.0000e+00 1.0000e+00
      994  1    1    2    0    0 +1.5418688167e+01 +9.1969085061e+00 +1.3340994270e+02 1.8783378791e+02 1.3100000000e+02 0.0000e+00 0.0000e+00
      997  1    1    2    0    0 -6.9736065982e-01 +1.5764388707e+01 +3.6193047590e+02 4.1381477940e+02 2.0000000000e+02 0.0000e+00 0.0000e+00
</event>
<event>
 5      1 +6.7420000e-10 2.46506200e+02 7.95774700e-02 4.37174100e-01
       13 -1    0    0    0    0 +0.0000000000e+00 +0.0000000000e+00 +4.9999998884e+02 5.0000000000e+02 1.0566000000e-01 0.0000e+00 1.0000e+00
      994 -1    0    0    0    0 -0.0000000000e+00 -0.0000000000e+00 +0.0000000000e+00 1.3100000000e+02 1.3100000000e+02 0.0000e+00 0.0000e+00
       13  1    1    2    0    0 +3.3629666128e-01 +2.9162142451e+01 +9.1254367874e+00 3.0558606126e+01 1.0566000000e-01 0.0000e+00 -1.0000e+00
      994  1    1    2    0    0 +7.9976270482e+00 -2.9324539477e+01 +1.2610352768e+02 1.8435560840e+02 1.3100000000e+02 0.0000e+00 0.0000e+00
      997  1    1    2    0    0 -8.3339237095e+00 +1.6239702677e-01 +3.6477102437e+02 4.1608578548e+02 2.0000000000e+02 0.0000e+00 0.0000e+00
</event>
<event>
 5      1 +6.7420000e-10 2.46932700e+02 7.95774700e-02 4.36700800e-01
       13 -1    0    0    0    0 +0.0000000000e+00 +0.0000000000e+00 +4.9999998884e+02 5.0000000000e+02 1.0566000000e-01 0.0000e+00 1.0000e+00
      994 -1    0    0    0    0 -0.0000000000e+00 -0.0000000000e+00 +0.0000000000e+00 1.3100000000e+02 1.3100000000e+02 0.0000e+00 0.0000e+00
       13  1    1    2    0    0 -8.2733164207e+00 +3.6141060521e+01 +4.2649865336e+01 5.6512354378e+01 1.0566000000e-01 0.0000e+00 -1.0000e+00
      994  1    1    2    0    0 -2.7487858172e+01 +2.3020525611e-01 +1.2430351023e+02 1.8266909426e+02 1.3100000000e+02 0.0000e+00 0.0000e+00
      997  1    1    2    0    0 +3.5761174592e+01 -3.6371265777e+01 +3.3304661327e+02 3.9181855136e+02 2.0000000000e+02 0.0000e+00 0.0000e+00
</event>
<event>
 5      1 +6.7420000e-10 2.39735500e+02 7.95774700e-02 4.44954800e-01
       13 -1    0    0    0    0 +0.0000000000e+00 +0.0000000000e+00 +4.9999998884e+02 5.0000000000e+02 1.0566000000e-01 0.0000e+00 -1.0000e+00
      994 -1    0    0    0    0 -0.0000000000e+00 -0.0000000000e+00 +0.0000000000e+00 1.3100000000e+02 1.3100000000e+02 0.0000e+00 0.0000e+00
       13  1    1    2    0    0 -9.8240152118e+00 +1.1625972812e+01 +1.2716322701e+00 1.5274250599e+01 1.0566000000e-01 0.0000e+00 1.0000e+00
      994  1    1    2    0    0 -2.6031129309e+01 -7.4179756649e+00 +9.6086522995e+01 1.6470053417e+02 1.3100000000e+02 0.0000e+00 0.0000e+00
      997  1    1    2    0    0 +3.5855144521e+01 -4.2079971471e+00 +4.0264183357e+02 4.5102521523e+02 2.0000000000e+02 0.0000e+00 0.0000e+00
</event>
<event>
 5      1 +6.7420000e-10 2.47942100e+02 7.95774700e-02 4.35588100e-01
       13 -1    0    0    0    0 +0.0000000000e+00 +0.0000000000e+00 +4.9999998884e+02 5.0000000000e+02 1.0566000000e-01 0.0000e+00 1.0000e+00
      994 -1    0    0    0    0 -0.0000000000e+00 -0.0000000000e+00 +0.0000000000e+00 1.3100000000e+02 1.3100000000e+02 0.0000e+00 0.0000e+00
       13  1    1    2    0    0 +7.6997408966e+00 +2.0380725536e+01 -2.5268016839e-01 2.1788414228e+01 1.0566000000e-01 0.0000e+00 -1.0000e+00
      994  1    1    2    0    0 +1.2321338659e+01 -8.0353397117e+00 +1.1692610818e+02 1.7620753912e+02 1.3100000000e+02 0.0000e+00 0.0000e+00
      997  1    1    2    0    0 -2.0021079555e+01 -1.2345385825e+01 +3.8332656083e+02 4.3300404665e+02 2.0000000000e+02 0.0000e+00 0.0000e+00
</event>
<event>
 5      1 +6.7420000e-10 2.34718000e+02 7.95774700e-02 4.51066000e-01
       13 -1    0    0    0    0 +0.0000000000e+00 +0.0000000000e+00 +4.9999998884e+02 5.0000000000e+02 1.0566000000e-01 0.0000e+00 1.0000e+00
      994 -1    0    0    0    0 -0.0000000000e+00 -0.0000000000e+00 +0.0000000000e+00 1.3100000000e+02 1.3100000000e+02 0.0000e+00 0.0000e+00
       13  1    1    2    0    0 -8.9499729860e+00 -2.0306662368e+01 +2.5608846233e+01 3.3886379601e+01 1.0566000000e-01 0.0000e+00 -1.0000e+00
      994  1    1    2    0    0 +1.7256165522e+01 +1.8220524625e+01 +8.1898505885e+01 1.5651877853e+02 1.3100000000e+02 0.0000e+00 0.0000e+00
      997  1    1    2    0    0 -8.3061925356e+00 +2.0861377432e+00 +3.9249263672e+02 4.4059484187e+02 2.0000000000e+02 0.0000e+00 0.0000e+00
</event>
<event>
 5      1 +6.7420000e-10 2.40078300e+02 7.95774700e-02 4.44548400e-01
       13 -1    0    0    0    0 +0.0000000000e+00 +0.0000000000e+00 +4.9999998884e+02 5.0000000000e+02 1.0566000000e-01 0.0000e+00 -1.0000e+00
      994 -1    0    0    0    0 -0.0000000000e+00 -0.0000000000e+00 +0.0000000000e+00 1.3100000000e+02 1.3100000000e+02 0.0000e+00 0.0000e+00
       13  1    1    2    0    0 +1.8861736871e+00 +1.2728423613e+01 -2.1390016537e+00 1.3044420683e+01 1.0566000000e-01 0.0000e+00 1.0000e+00
      994  1    1    2    0    0 -2.2519747862e+01 -1.9010042705e+00 +9.3878879469e+01 1.6274211769e+02 1.3100000000e+02 0.0000e+00 0.0000e+00
      997  1    1    2    0    0 +2.0633574175e+01 -1.0827419342e+01 +4.0826011102e+02 4.5521346162e+02 2.0000000000e+02 0.0000e+00 0.0000e+00
</event>
<event>
 5      1 +6.7420000e-10 2.44780800e+02 7.95774700e-02 4.39108700e-01
       13 -1    0    0    0    0 +0.0000000000e+00 +0.0000000000e+00 +4.9999998884e+02 5.0000000000e+02 1.0566000000e-01 0.0000e+00 -1.0000e+00
      994 -1    0    0    0    0 -0.0000000000e+00 -0.0000000000e+00 +0.0000000000e+00 1.3100000000e+02 1.3100000000e+02 0.0000e+00 0.0000e+00
       13  1    1    2    0    0 -1.8456881513e+01 +3.3688609368e+01 +5.8335185664e+01 6.9846860537e+01 1.0566000000e-01 0.0000e+00 1.0000e+00
      994  1    1    2    0    0 +2.7299506096e+01 -1.5181024630e+00 +1.1385856586e+02 1.7570526653e+02 1.3100000000e+02 0.0000e+00 0.0000e+00
      997  1    1    2    0    0 -8.8426245825e+00 -3.2170506905e+01 +3.2780623732e+02 3.8544787293e+02 2.0000000000e+02 0.0000e+00 0.0000e+00
</event>
<event>
 5      1 +6.7420000e-10 2.38535300e+02 7.95774700e-02 4.46388600e-01
       13 -1    0    0    0    0 +0.0000000000e+00 +0.0000000000e+00 +4.9999998884e+02 5.0000000000e+02 1.0566000000e-01 0.0000e+00 1.0000e+00
      994 -1    0    0    0    0 -0.0000000000e+00 -0.0000000000e+00 +0.0000000000e+00 1.3100000000e+02 1.3100000000e+02 0.0000e+00 0.0000e+00
       13  1    1    2    0    0 +2.0000473588e-01 -2.5138432481e+01 +7.2566688022e+01 7.6797891664e+01 1.0566000000e-01 0.0000e+00 -1.0000e+00
      994  1    1    2    0    0 +1.2389449932e+01 +1.6726145464e-02 +8.5012557831e+01 1.5665769607e+02 1.3100000000e+02 0.0000e+00 0.0000e+00
      997  1    1    2    0    0 -1.2589454668e+01 +2.5121706335e+01 +3.4242074298e+02 3.9754441227e+02 2.0000000000e+02 0.0000e+00 0.0000e+00
</event>
<event>
 5      1 +6.7420000e-10 2.40838700e+02 7.95774700e-02 4.43651600e-01
       13 -1    0    0    0    0 +0.0000000000e+00 +0.0000000000e+00 +4.9999998884e+02 5.0000000000e+02 1.0566000000e-01 0.0000e+00 1.0000e+00
      994 -1    0    0    0    0 -0.0000000000e+00 -0.0000000000e+00 +0.0000000000e+00 1.3100000000e+02 1.3100000000e+02 0.0000e+00 0.0000e+00
       13  1    1    2    0    0 -3.9633257568e+00 +3.0043599297e+01 +3.6198744806e+01 4.7208962066e+01 1.0566000000e-01 0.0000e+00 -1.0000e+00
      994  1    1    2    0    0 +2.2612932433e+01 -4.3691742700e+00 +9.6367618268e+01 1.6425027320e+02 1.3100000000e+02 0.0000e+00 0.0000e+00
      997  1    1    2    0    0 -1.8649606677e+01 -2.5674425027e+01 +3.6743362576e+02 4.1954076473e+02 2.0000000000e+02 0.0000e+00 0.0000e+00
</event>
<event>
 5      1 +6.7420000e-10 2.38500800e+02 7.95774700e-02 4.46430200e-01
       13 -1    0    0    0    0 +0.0000000000e+00 +0.0000000000e+00 +4.9999998884e+02 5.0000000000e+02 1.0566000000e-01 0.0000e+00 -1.0000e+00
      994 -1    0    0    0    0 -0.0000000000e+00 -0.0000000000e+00 +0.0000000000e+00 1.3100000000e+02 1.3100000000e+02 0.0000e+00 0.0000e+00
       13  1    1    2    0    0 +7.3386573232e+00 +1.3824553342e+01 +1.5625296566e+00 1.5729807036e+01 1.0566000000e-01 0.0000e+00 1.0000e+00
      994  1    1    2    0    0 -3.5803227440e+01 -5.3213699712e+00 +1.0090574525e+02 1.6927243573e+02 1.3100000000e+02 0.0000e+00 0.0000e+00
      997  1    1    2    0    0 +2.8464570117e+01 -8.5031833712e+00 +3.9753171392e+02 4.4599775723e+02 2.0000000000e+02 0.0000e+00 0.0000e+00
</event>
<event>
 5      1 +6.7420000e-10 2.40312000e+02 7.95774700e-02 4.44272000e-01
       13 -1    0    0    0    0 +0.0000000000e+00 +0.0000000000e+00 +4.9999998884e+02 5.0000000000e+02 1.0566000000e-01 0.0000e+00 1.0000e+00
      994 -1    0    0    0    0 -0.0000000000e+00 -0.0000000000e+00 +0.0000000000e+00 1.3100000000e+02 1.3100000000e+02 0.0000e+00 0.0000e+00
       13  1    1    2    0    0 +4.2921111493e-02 +2.5834756617e+01 +5.1655690812e+00 2.6346361412e+01 1.0566000000e-01 0.0000e+00 -1.0000e+00
      994  1    1    2    0    0 -1.9464932975e+01 -5.6914889505e+01 +2.0662996146e+02 2.5194271023e+02 1.3100000000e+02 0.0000e+00 0.0000e+00
      997  1    1    2    0    0 +1.9422011864e+01 +3.1080132888e+01 +2.8820445829e+02 3.5271092836e+02 2.0000000000e+02 0.0000e+00 0.0000e+00
</event>
<event>
 5      1 +6.7420000e-10 2.39617400e+02 7.95774700e-02 4.45095000e-01
       13 -1    0    0    0    0 +0.0000000000e+00 +0.0000000000e+00 +4.9999998884e+02 5.0000000000e+02 1.0566000000e-01 0.0000e+00 -1.0000e+00
      994 -1    0    0    0    0 -0.0000000000e+00 -0.0000000000e+00 +0.0000000000e+00 1.3100000000e+02 1.3100000000e+02 0.0000e+00 0.0000e+00
       13  1    1    2    0    0 -7.7463412578e+00 -1.8933686823e+01 +8.0740130784e+00 2.1992979580e+01 1.0566000000e-01 0.0000e+00 1.0000e+00
      994  1    1    2    0    0 -1.3471000342e+01 +2.0362990151e+01 +9.3791036278e+01 1.6295360599e+02 1.3100000000e+02 0.0000e+00 0.0000e+00
      997  1    1    2    0    0 +2.1217341600e+01 -1.4293033281e+00 +3.9813493948e+02 4.4605341443e+02 2.0000000000e+02 0.0000e+00 0.0000e+00
</event>
<event>
 5      1 +6.7420000e-10 2.42944500e+02 7.95774700e-02 4.41203200e-01
       13 -1    0    0    0    0 +0.0000000000e+00 +0.0000000000e+00 +4.9999998884e+02 5.0000000000e+02 1.0566000000e-01 0.0000e+00 -1.0000e+00
      994 -1    0    0    0    0 -0.0000000000e+00 -0.0000000000e+00 +0.0000000000e+00 1.3100000000e+02 1.3100000000e+02 0.0000e+00 0.0000e+00
       13  1    1    2    0    0 +1.0273194068e+01 +1.4168626339e+01 +1.2572784699e+00 1.7546521076e+01 1.0566000000e-01 0.0000e+00 1.0000e+00
      994  1    1    2    0    0 +1.5575579274e+01 +4.0782190333e+01 +1.3031293090e+02 1.8986375557e+02 1.3100000000e+02 0.0000e+00 0.0000e+00
      997  1    1    2    0    0 -2.5848773342e+01 -5.4950816672e+01 +3.6842977947e+02 4.2358972336e+02 2.0000000000e+02 0.0000e+00 0.0000e+00
</event>
<event>
 5      1 +6.7420000e-10 2.35272700e+02 7.95774700e-02 4.50375100e-01
       13 -1    0    0    0    0 +0.0000000000e+00 +0.0000000000e+00 +4.9999998884e+02 5.0000000000e+02 1.0566000000e-01 0.0000e+00 1.0000e+00
      994 -1    0    0    0    0 -0.0000000000e+00 -0.0000000000e+00 +0.0000000000e+00 1.3100000000e+02 1.3100000000e+02 0.0000e+00 0.0000e+00
       13  1    1    2    0    0 -1.7767214981e+01 -1.1359948385e+01 +1.5709595662e+01 2.6296861322e+01 1.0566000000e-01 0.0000e+00 -1.0000e+00
      994  1    1    2    0    0 +1.3935300340e+01 +4.4088244780e+01 +1.0319402802e+02 1.7305482756e+02 1.3100000000e+02 0.0000e+00 0.0000e+00
      997  1    1    2    0    0 +3.8319146416e+00 -3.2728296395e+01 +3.8109636516e+02 4.3164831112e+02 2.0000000000e+02 0.0000e+00 0.0000e+00
</event>
<event>
 5      1 +6.7420000e-10 2.29284100e+02 7.95774700e-02 4.58048200e-01
       13 -1    0    0    0    0 +0.0000000000e+00 +0.0000000000e+00 +4.9999998884e+02 5.0000000000e+02 1.0566000000e-01 0.0000e+00 1.0000e+00
      994 -1    0    0    0    0 -0.0000000000e+00 -0.0000000000e+00 +0.0000000000e+00 1.3100000000e+02 1.3100000000e+02 0.0000e+00 0.0000e+00
       13  1    1    2    0    0 -1.0596303218e+01 +8.6969275874e+00 +2.6557348459e+01 2.9886821721e+01 1.0566000000e-01 0.0000e+00 -1.0000e+00
      994  1    1    2    0    0 +2.4842415283e+01 +8.1808619371e+00 +7.1260030037e+01 1.5140364586e+02 1.3100000000e+02 0.0000e+00 0.0000e+00
      997  1    1    2    0    0 -1.4246112066e+01 -1.6877789525e+01 +4.0218261034e+02 4.4970953242e+02 2.0000000000e+02 0.0000e+00 0.0000e+00
</event>
<event>
 5      1 +6.7420000e-10 2.33519900e+02 7.95774700e-02 4.52571900e-01
       13 -1    0    0    0    0 +0.0000000000e+00 +0.0000000000e+00 +4.9999998884e+02 5.0000000000e+02 1.0566000000e-01 0.0000e+00 1.0000e+00
      994 -1    0    0    0    0 -0.0000000000e+00 -0.0000000000e+00 +0.0000000000e+00 1.3100000000e+02 1.3100000000e+02 0.0000e+00 0.0000e+00
       13  1    1    2    0    0 +1.6012275661e+01 -6.5699339852e-03 +8.8703570541e+00 1.8305393012e+01 1.0566000000e-01 0.0000e+00 -1.0000e+00
      994  1    1    2    0    0 -3.2847311234e+01 -2.3140598924e+01 +9.1112241259e+01 1.6455052015e+02 1.3100000000e+02 0.0000e+00 0.0000e+00
      997  1    1    2    0    0 +1.6835035573e+01 +2.3147168858e+01 +4.0001739052e+02 4.4814408684e+02 2.0000000000e+02 0.0000e+00 0.0000e+00
</event>
<event>
 5      1 +6.7420000e-10 2.35780400e+02 7.95774700e-02 4.49746100e-01
       13 -1    0    0    0    0 +0.0000000000e+00 +0.0000000000e+00 +4.9999998884e+02 5.0000000000e+02 1.0566000000e-01 0.0000e+00 1.0000e+00
      994 -1    0    0    0    0 -0.0000000000e+00 -0.0000000000e+00 +0.0000000000e+00 1.3100000000e+02 1.3100000000e+02 0.0000e+00 0.0000e+00
       13  1    1    2    0    0 +2.1639565956e+01 +1.9192694463e-01 +1.8727425189e+01 2.8618792234e+01 1.0566000000e-01 0.0000e+00 -1.0000e+00
      994  1    1    2    0    0 -2.1971102411e+01 -2.4263260817e+01 +8.9926245297e+01 1.6223182413e+02 1.3100000000e+02 0.0000e+00 0.0000e+00
      997  1    1    2    0    0 +3.3153645473e-01 +2.4071333873e+01 +3.9134631835e+02 4.4014938364e+02 2.0000000000e+02 0.0000e+00 0.0000e+00
</event>
<event>
 5      1 +6.7420000e-10 2.36341900e+02 7.95774700e-02 4.49054200e-01
       13 -1    0    0    0    0 +0.0000000000e+00 +0.0000000000e+00 +4.9999998884e+02 5.0000000000e+02 1.0566000000e-01 0.0000e+00 -1.0000e+00
      994 -1    0    0    0    0 -0.0000000000e+00 -0.0000000000e+00 +0.0000000000e+00 1.3100000000e+02 1.3100000000e+02 0.0000e+00 0.0000e+00
       13  1    1    2    0    0 -8.0809117309e+00 -1.1386657927e+01 +2.6314963620e+00 1.4208907428e+01 1.0566000000e-01 0.0000e+00 1.0000e+00
      994  1    1    2    0    0 -7.1543443600e+00 +2.0005667230e+01 +8.3491394850e+01 1.5679038357e+02 1.3100000000e+02 0.0000e+00 0.0000e+00
      997  1    1    2    0    0 +1.5235256091e+01 -8.6190093035e+00 +4.1387709762e+02 4.6000070901e+02 2.0000000000e+02 0.0000e+00 0.0000e+00
</event>
<event>
 5      1 +6.7420000e-10 2.32706300e+02 7.95774700e-02 4.53605100e-01
       13 -1    0    0    0    0 +0.0000000000e+00 +0.0000000000e+00 +4.9999998884e+02 5.0000000000e+02 1.0566000000e-01 0.0000e+00 -1.0000e+00
      994 -1    0    0    0    0 -0.0000000000e+00 -0.0000000000e+00 +0.0000000000e+00 1.3100000000e+02 1.3100000000e+02 0.0000e+00 0.0000e+00
       13  1    1    2    0    0 -1.1716335548e+01 +1.2119100432e+01 +1.7577332836e+01 2.4354032677e+01 1.0566000000e-01 0.0000e+00 1.0000e+00
      994  1    1    2    0    0 +1.7061203456e+00 -8.4108967676e+00 +7.1444677184e+01 1.4946235623e+02 1.3100000000e+02 0.0000e+00 0.0000e+00
      997  1    1    2    0    0 +1.0010215203e+01 -3.7082036644e+00 +4.1097797882e+02 4.5718361110e+02 2.0000000000e+02 0.0000e+00 0.0000e+00
</event>
<event>
 5      1 +6.7420000e-10 2.32832700e+02 7.95774700e-02 4.53444000e-01
       13 -1    0    0    0    0 +0.0000000000e+00 +0.0000000000e+00 +4.9999998884e+02 5.0000000000e+02 1.0566000000e-01 0.0000e+00 1.0000e+00
      994 -1    0    0    0    0 -0.0000000000e+00 -0.0000000000e+00 +0.0000000000e+00 1.3100000000e+02 1.3100000000e+02 0.0000e+00 0.0000e+00
       13  1    1    2    0    0 -1.5656378902e+00 -1.7234845595e+01 +2.1884297957e+01 2.7900264977e+01 1.0566000000e-01 0.0000e+00 -1.0000e+00
      994  1    1    2    0    0 +1.9835461641e+01 -5.4917186523e+00 +7.5483423309e+01 1.5258555537e+02 1.3100000000e+02 0.0000e+00 0.0000e+00
      997  1    1    2    0    0 -1.8269823751e+01 +2.2726564247e+01 +4.0263226757e+02 4.5051417966e+02 2.0000000000e+02 0.0000e+00 0.0000e+00
</event>
<event>
 5      1 +6.7420000e-10 2.50358300e+02 7.95774700e-02 4.32967500e-01
       13 -1    0    0    0    0 +0.0000000000e+00 +0.0000000000e+00 +4.9999998884e+02 5.0000000000e+02 1.0566000000e-01 0.0000e+00 -1.0000e+00
      994 -1    0    0    0    0 -0.0000000000e+00 -0.0000000000e+00 +0.0000000000e+00 1.3100000000e+02 1.3100000000e+02 0.0000e+00 0.0000e+00
       13  1    1    2    0    0 +3.3160034178e+00 -1.6522663137e+01 -8.8643111079e+00 1.9041571660e+01 1.0566000000e-01 0.0000e+00 1.0000e+00
      994  1    1    2    0    0 +2.8712022369e+01 -1.0671165608e+01 +1.7905307300e+02 2.2396262401e+02 1.3100000000e+02 0.0000e+00 0.0000e+00
      997  1    1    2    0    0 -3.2028025787e+01 +2.7193828745e+01 +3.2981122695e+02 3.8799580433e+02 2.0000000000e+02 0.0000e+00 0.0000e+00
</event>
<event>
 5      1 +6.7420000e-10 2.49613600e+02 7.95774700e-02 4.33768900e-01
       13 -1    0    0    0    0 +0.0000000000e+00 +0.0000000000e+00 +4.9999998884e+02 5.0000000000e+02 1.0566000000e-01 0.0000e+00 -1.0000e+00
      994 -1    0    0    0    0 -0.0000000000e+00 -0.0000000000e+00 +0.0000000000e+00 1.3100000000e+02 1.3100000000e+02 0.0000e+00 0.0000e+00
       13  1    1    2    0    0 +1.0437004108e+01 +2.0369326673e+01 -1.7310505174e-01 2.2888461138e+01 1.0566000000e-01 0.0000e+00 1.0000e+00
      994  1    1    2    0    0 +1.7186577507e+01 +6.0158975232e+00 +1.2897369367e+02 1.8473435828e+02 1.3100000000e+02 0.0000e+00 0.0000e+00
      997  1    1    2    0    0 -2.7623581615e+01 -2.6385224196e+01 +3.7119940022e+02 4.2337718059e+02 2.0000000000e+02 0.0000e+00 0.0000e+00
</event>
<event>
 5      1 +6.7420000e-10 2.34003400e+02 7.95774700e-02 4.51962000e-01
       13 -1    0    0    0    0 +0.0000000000e+00 +0.0000000000e+00 +4.9999998884e+02 5.0000000000e+02 1.0566000000e-01 0.0000e+00 1.0000e+00
      994 -1    0    0    0    0 -0.0000000000e+00 -0.0000000000e+00 +0.0000000000e+00 1.3100000000e+02 1.3100000000e+02 0.0000e+00 0.0000e+00
       13  1    1    2    0    0 +9.6798719949e+00 +2.0706734992e+01 +6.5264171014e+01 6.9151225427e+01 1.0566000000e-01 0.0000e+00 -1.0000e+00
      994  1    1    2    0    0 -2.0340863447e+01 -6.1469636527e+01 +1.3422443853e+02 1.9841740558e+02 1.3100000000e+02 0.0000e+00 0.0000e+00
      997  1    1    2    0    0 +1.0660991452e+01 +4.0762901535e+01 +3.0051137929e+02 3.6343136899e+02 2.0000000000e+02 0.0000e+00 0.0000e+00
</event>
<event>
 5      1 +6.7420000e-10 2.43653100e+02 7.95774700e-02 4.40390500e-01
       13 -1    0    0    0    0 +0.0000000000e+00 +0.0000000000e+00 +4.9999998884e+02 5.0000000000e+02 1.0566000000e-01 0.0000e+00 1.0000e+00
      994 -1    0    0    0    0 -0.0000000000e+00 -0.0000000000e+00 +0.0000000000e+00 1.3100000000e+02 1.3100000000e+02 0.0000e+00 0.0000e+00
       13  1    1    2    0    0 +2.5932204298e+01 -1.4610013328e+01 +2.0834271918e+01 3.6331938560e+01 1.0566000000e-01 0.0000e+00 -1.0000e+00
      994  1    1    2    0    0 -6.5077683323e+00 +9.3143178657e+00 +9.8866100183e+01 1.6451326187e+02 1.3100000000e+02 0.0000e+00 0.0000e+00
      997  1    1    2    0    0 -1.9424435966e+01 +5.2956954621e+00 +3.8029961674e+02 4.3015479957e+02 2.0000000000e+02 0.0000e+00 0.0000e+00
</event>
<event>
 5      1 +6.7420000e-10 2.36549800e+02 7.95774700e-02 4.48799000e-01
       13 -1    0    0    0    0 +0.0000000000e+00 +0.0000000000e+00 +4.9999998884e+02 5.0000000000e+02 1.0566000000e-01 0.0000e+00 1.0000e+00
      994 -1    0    0    0    0 -0.0000000000e+00 -0.0000000000e+00 +0.0000000000e+00 1.3100000000e+02 1.3100000000e+02 0.0000e+00 0.0000e+00
       13  1    1    2    0    0 -1.8538575745e-01 +2.2941279251e+01 +1.0477139982e+01 2.5221385525e+01 1.0566000000e-01 0.0000e+00 -1.0000e+00
      994  1    1    2    0    0 +1.2701350699e+01 -6.2660293041e+01 +1.4740966424e+02 2.0731195273e+02 1.3100000000e+02 0.0000e+00 0.0000e+00
      997  1    1    2    0    0 -1.2515964941e+01 +3.9719013790e+01 +3.4211318462e+02 3.9846666175e+02 2.0000000000e+02 0.0000e+00 0.0000e+00
</event>
<event>
 5      1 +6.7420000e-10 2.32984600e+02 7.95774700e-02 4.53250700e-01
       13 -1    0    0    0    0 +0.0000000000e+00 +0.0000000000e+00 +4.9999998884e+02 5.0000000000e+02 1.0566000000e-01 0.0000e+00 -1.0000e+00
      994 -1    0    0    0    0 -0.0000000000e+00 -0.0000000000e+00 +0.0000000000e+00 1.3100000000e+02 1.3100000000e+02 0.0000e+00 0.0000e+00
       13  1    1    2    0    0 -1.0276235115e+01 -4.4613932106e+00 +3.7643776292e+00 1.1818914522e+01 1.0566000000e-01 0.0000e+00 1.0000e+00
      994  1    1    2    0    0 -2.4517933665e+00 -2.5223966598e+01 +7.8236878682e+01 1.5467471987e+02 1.3100000000e+02 0.0000e+00 0.0000e+00
      997  1    1    2    0    0 +1.2728028481e+01 +2.9685359809e+01 +4.1799873252e+02 4.6450636561e+02 2.0000000000e+02 0.0000e+00 0.0000e+00
</event>
<event>
 5      1 +6.7420000e-10 2.40287400e+02 7.95774700e-02 4.44301100e-01
       13 -1    0    0    0    0 +0.0000000000e+00 +0.0000000000e+00 +4.9999998884e+02 5.0000000000e+02 1.0566000000e-01 0.0000e+00 1.0000e+00
      994 -1    0    0    0    0 -0.0000000000e+00 -0.0000000000e+00 +0.0000000000e+00 1.3100000000e+02 1.3100000000e+02 0.0000e+00 0.0000e+00
       13  1    1    2    0    0 -1.9239295054e+01 -7.5700442093e+00 +7.7476317880e+01 8.0187574098e+01 1.0566000000e-01 0.0000e+00 -1.0000e+00
      994  1    1    2    0    0 -3.7996530848e+01 +8.0522336708e+00 +1.1014404704e+02 1.7550295132e+02 1.3100000000e+02 0.0000e+00 0.0000e+00
      997  1    1    2    0    0 +5.7235825901e+01 -4.8218946152e-01 +3.1237962392e+02 3.7530947458e+02 2.0000000000e+02 0.0000e+00 0.0000e+00
</event>
<event>
 5      1 +6.7420000e-10 2.37544000e+02 7.95774700e-02 4.47586100e-01
       13 -1    0    0    0    0 +0.0000000000e+00 +0.0000000000e+00 +4.9999998884e+02 5.0000000000e+02 1.0566000000e-01 0.0000e+00 -1.0000e+00
      994 -1    0    0    0    0 -0.0000000000e+00 -0.0000000000e+00 +0.0000000000e+00 1.3100000000e+02 1.3100000000e+02 0.0000e+00 0.0000e+00
       13  1    1    2    0    0 +9.5627341561e+00 -2.0370621623e+01 +1.6748240804e+01 2.8052145086e+01 1.0566000000e-01 0.0000e+00 1.0000e+00
      994  1    1    2    0    0 +1.8136450363e+01 +2.6017331891e+01 +9.3734564231e+01 1.6417369132e+02 1.3100000000e+02 0.0000e+00 0.0000e+00
      997  1    1    2    0    0 -2.7699184520e+01 -5.6467102680e+00 +3.8951718380e+02 4.3877416359e+02 2.0000000000e+02 0.0000e+00 0.0000e+00
</event>
<event>
 5      1 +6.7420000e-10 2.48621000e+02 7.95774700e-02 4.34845800e-01
       13 -1    0    0    0    0 +0.0000000000e+00 +0.0000000000e+00 +4.9999998884e+02 5.0000000000e+02 1.0566000000e-01 0.0000e+00 1.0000e+00
      994 -1    0    0    0    0 -0.0000000000e+00 -0.0000000000e+00 +0.0000000000e+00 1.3100000000e+02 1.3100000000e+02 0.0000e+00 0.0000e+00
       13  1    1    2    0    0 -1.4959973043e+01 -1.5842022197e+01 -3.2651227219e+00 2.2032763131e+01 1.0566000000e-01 0.0000e+00 -1.0000e+00
      994  1    1    2    0    0 -3.2116247752e+01 -1.2464145234e+01 +2.0184103188e+02 2.4307943236e+02 1.3100000000e+02 0.0000e+00 0.0000e+00
      997  1    1    2    0    0 +4.7076220795e+01 +2.8306167431e+01 +3.0142407967e+02 3.6588780451e+02 2.0000000000e+02 0.0000e+00 0.0000e+00
</event>
<event>
 5      1 +6.7420000e-10 2.42288300e+02 7.95774700e-02 4.41960800e-01
       13 -1    0    0    0    0 +0.0000000000e+00 +0.0000000000e+00 +4.9999998884e+02 5.0000000000e+02 1.0566000000e-01 0.0000e+00 -1.0000e+00
      994 -1    0    0    0    0 -0.0000000000e+00 -0.0000000000e+00 +0.0000000000e+00 1.3100000000e+02 1.3100000000e+02 0.0000e+00 0.0000e+00
       13  1    1    2    0    0 +2.3427108552e+01 +1.8932801462e+00 +4.6773150356e+00 2.3964606502e+01 1.0566000000e-01 0.0000e+00 1.0000e+00
      994  1    1    2    0    0 -2.7861785412e+01 -4.5094106101e+01 +1.5364734415e+02 2.0875407506e+02 1.3100000000e+02 0.0000e+00 0.0000e+00
      997  1    1    2    0    0 +4.4346768596e+00 +4.3200825955e+01 +3.4167532965e+02 3.9828131843e+02 2.0000000000e+02 0.0000e+00 0.0000e+00
</event>
<event>
 5      1 +6.7420000e-10 2.46277800e+02 7.95774700e-02 4.37428300e-01
       13 -1    0    0    0    0 +0.0000000000e+00 +0.0000000000e+00 +4.9999998884e+02 5.0000000000e+02 1.0566000000e-01 0.0000e+00 -1.0000e+00
      994 -1    0    0    0    0 -0.0000000000e+00 -0.0000000000e+00 +0.0000000000e+00 1.3100000000e+02 1.3100000000e+02 0.0000e+00 0.0000e+00
       13  1    1    2    0    0 -5.3203919002e+00 +1.2215964657e+01 -1.0259041521e+01 1.6816523405e+01 1.0566000000e-01 0.0000e+00 1.0000e+00
      994  1    1    2    0    0 -1.1451050565e+01 -4.3187384104e+01 +1.9315348132e+02 2.3762479680e+02 1.3100000000e+02 0.0000e+00 0.0000e+00
      997  1    1    2    0    0 +1.6771442465e+01 +3.0971419448e+01 +3.1710554903e+02 3.7655867980e+02 2.0000000000e+02 0.0000e+00 0.0000e+00
</event>
<event>
 5      1 +6.7420000e-10 2.50400200e+02 7.95774700e-02 4.32922600e-01
       13 -1    0    0    0    0 +0.0000000000e+00 +0.0000000000e+00 +4.9999998884e+02 5.0000000000e+02 1.0566000000e-01 0.0000e+00 -1.0000e+00
      994 -1    0    0    0    0 -0.0000000000e+00 -0.0000000000e+00 +0.0000000000e+00 1.3100000000e+02 1.3100000000e+02 0.0000e+00 0.0000e+00
       13  1    1    2    0    0 -4.0643392226e+00 -3.0702791505e+01 +9.1990413148e+00 3.2308107104e+01 1.0566000000e-01 0.0000e+00 1.0000e+00
      994  1    1    2    0    0 -2.7421814749e+01 -5.6133047071e+00 +1.5463872415e+02 2.0459130021e+02 1.3100000000e+02 0.0000e+00 0.0000e+00
      997  1    1    2    0    0 +3.1486153972e+01 +3.6316096212e+01 +3.3616222337e+02 3.9410059269e+02 2.0000000000e+02 0.0000e+00 0.0000e+00
</event>
<event>
 5      1 +6.7420000e-10 2.28739100e+02 7.95774700e-02 4.58770800e-01
       13 -1    0    0    0    0 +0.0000000000e+00 +0.0000000000e+00 +4.9999998884e+02 5.0000000000e+02 1.0566000000e-01 0.0000e+00 1.0000e+00
      994 -1    0    0    0    0 -0.0000000000e+00 -0.0000000000e+00 +0.0000000000e+00 1.3100000000e+02 1.3100000000e+02 0.0000e+00 0.0000e+00
       13  1    1    2    0    0 +8.0515051510e+00 -5.9966917745e+00 +6.3676655259e+00 1.1888876134e+01 1.0566000000e-01 0.0000e+00 -1.0000e+00
      994  1    1    2    0    0 -2.1426738651e+01 +3.6288616788e+01 +8.1800704231e+01 1.6008848819e+02 1.3100000000e+02 0.0000e+00 0.0000e+00
      997  1    1    2    0    0 +1.3375233500e+01 -3.0291925013e+01 +4.1183161908e+02 4.5902263568e+02 2.0000000000e+02 0.0000e+00 0.0000e+00
</event>
<event>
 5      1 +6.7420000e-10 2.49373900e+02 7.95774700e-02 4.34028000e-01
       13 -1    0    0    0    0 +0.0000000000e+00 +0.0000000000e+00 +4.9999998884e+02 5.0000000000e+02 1.0566000000e-01 0.0000e+00 1.0000e+00
      994 -1    0    0    0    0 -0.0000000000e+00 -0.0000000000e+00 +0.0000000000e+00 1.3100000000e+02 1.3100000000e+02 0.0000e+00 0.0000e+00
       13  1    1    2    0    0 +3.4529945434e+01 +5.5648192222e+00 +2.1265173618e+01 4.0932909959e+01 1.0566000000e-01 0.0000e+00 -1.0000e+00
      994  1    1    2    0    0 -6.9533631907e-02 +1.7969406883e+01 +1.2721766550e+02 1.8348907006e+02 1.3100000000e+02 0.0000e+00 0.0000e+00
      997  1    1    2    0    0 -3.4460411802e+01 -2.3534226105e+01 +3.5151714972e+02 4.0657801998e+02 2.0000000000e+02 0.0000e+00 0.0000e+00
</event>
<event>
 5      1 +6.7420000e-10 2.44596300e+02 7.95774700e-02 4.39317500e-01
       13 -1    0    0    0    0 +0.0000000000e+00 +0.0000000000e+00 +4.9999998884e+02 5.0000000000e+02 1.0566000000e-01 0.0000e+00 1.0000e+00
      994 -1    0    0    0    0 -0.0000000000e+00 -0.0000000000e+00 +0.0000000000e+00 1.3100000000e+02 1.3100000000e+02 0.0000e+00 0.0000e+00
       13  1    1    2    0    0 -2.4240275077e+01 +2.4976644028e+00 +8.6215681273e+00 2.5849020567e+01 1.0566000000e-01 0.0000e+00 -1.0000e+00
      994  1    1    2    0    0 -2.9785318222e+01 -3.5211531957e+01 +1.4941145489e+02 2.0398970567e+02 1.3100000000e+02 0.0000e+00 0.0000e+00
      997  1    1    2    0    0 +5.4025593299e+01 +3.2713867554e+01 +3.4196696581e+02 4.0116127377e+02 2.0000000000e+02 0.0000e+00 0.0000e+00
</event>
<event>
 5      1 +6.7420000e-10 2.44903100e+02 7.95774700e-02 4.38970500e-01
       13 -1    0    0    0    0 +0.0000000000e+00 +0.0000000000e+00 +4.9999998884e+02 5.0000000000e+02 1.0566000000e-01 0.0000e+00 -1.0000e+00
      994 -1    0    0    0    0 -0.0000000000e+00 -0.0000000000e+00 +0.0000000000e+00 1.3100000000e+02 1.3100000000e+02 0.0000e+00 0.0000e+00
       13  1    1    2    0    0 -2.5133296843e+01 -1.1978338863e+01 +1.7081087285e+01 3.2664015659e+01 1.0566000000e-01 0.0000e+00 1.0000e+00
      994  1    1    2    0    0 -2.1817746634e+01 +7.6149075917e+00 +1.1025295562e+02 1.7277359494e+02 1.3100000000e+02 0.0000e+00 0.0000e+00
      997  1    1    2    0    0 +4.6951043477e+01 +4.3634312712e+00 +3.7266594593e+02 4.2556238940e+02 2.0000000000e+02 0.0000e+00 0.0000e+00
</event>
<event>
 5      1 +6.7420000e-10 2.34966800e+02 7.95774700e-02 4.50755700e-01
       13 -1    0    0    0    0 +0.0000000000e+00 +0.0000000000e+00 +4.9999998884e+02 5.0000000000e+02 1.0566000000e-01 0.0000e+00 1.0000e+00
      994 -1    0    0    0    0 -0.0000000000e+00 -0.0000000000e+00 +0.0000000000e+00 1.3100000000e+02 1.3100000000e+02 0.0000e+00 0.0000e+00
       13  1    1    2    0    0 +3.6756751189e+00 -1.8567488692e+01 +1.5560343021e+01 2.4503013343e+01 1.0566000000e-01 0.0000e+00 -1.0000e+00
      994  1    1    2    0    0 -2.0202349540e+01 +6.1092718700e+00 +8.0281511888e+01 1.5508571591e+02 1.3100000000e+02 0.0000e+00 0.0000e+00
      997  1    1    2    0    0 +1.6526674421e+01 +1.2458216822e+01 +4.0415813393e+02 4.5141127074e+02 2.0000000000e+02 0.0000e+00 0.0000e+00
</event>
<event>
 5      1 +6.7420000e-10 2.29809900e+02 7.95774700e-02 4.57355200e-01
       13 -1    0    0    0    0 +0.0000000000e+00 +0.0000000000e+00 +4.9999998884e+02 5.0000000000e+02 1.0566000000e-01 0.0000e+00 -1.0000e+00
      994 -1    0    0    0    0 -0.0000000000e+00 -0.0000000000e+00 +0.0000000000e+00 1.3100000000e+02 1.3100000000e+02 0.0000e+00 0.0000e+00
       13  1    1    2    0    0 -1.4379543617e+01 -3.7996472635e+00 +2.4966533258e+01 2.9061100132e+01 1.0566000000e-01 0.0000e+00 1.0000e+00
      994  1    1    2    0    0 +8.9373529176e+00 +6.3090933293e+01 +1.1416806767e+02 1.8508292686e+02 1.3100000000e+02 0.0000e+00 0.0000e+00
      997  1    1    2    0    0 +5.4421906992e+00 -5.9291286030e+01 +3.6086538791e+02 4.1685597300e+02 2.0000000000e+02 0.0000e+00 0.0000e+00
</event>
<event>
 5      1 +6.7420000e-10 2.41480300e+02 7.95774700e-02 4.42900300e-01
       13 -1    0    0    0    0 +0.0000000000e+00 +0.0000000000e+00 +4.9999998884e+02 5.0000000000e+02 1.0566000000e-01 0.0000e+00 1.0000e+00
      994 -1    0    0    0    0 -0.0000000000e+00 -0.0000000000e+00 +0.0000000000e+00 1.3100000000e+02 1.3100000000e+02 0.0000e+00 0.0000e+00
       13  1    1    2    0    0 +3.0237130830e+00 +1.7457615037e+01 +1.9923607630e+00 1.7829521279e+01 1.0566000000e-01 0.0000e+00 -1.0000e+00
      994  1    1    2    0    0 -2.7865936376e+01 +4.8128811586e+00 +1.0251771873e+02 1.6873220466e+02 1.3100000000e+02 0.0000e+00 0.0000e+00
      997  1    1    2    0    0 +2.4842223293e+01 -2.2270496196e+01 +3.9548990935e+02 4.4443827407e+02 2.0000000000e+02 0.0000e+00 0.0000e+00
</event>
<event>
 5      1 +6.7420000e-10 2.38630800e+02 7.95774700e-02 4.46274000e-01
       13 -1    0    0    0    0 +0.0000000000e+00 +0.0000000000e+00 +4.9999998884e+02 5.0000000000e+02 1.0566000000e-01 0.0000e+00 1.0000e+00
      994 -1    0    0    0    0 -0.0000000000e+00 -0.0000000000e+00 +0.0000000000e+00 1.3100000000e+02 1.3100000000e+02 0.0000e+00 0.0000e+00
       13  1    1    2    0    0 -2.4539796994e+01 -2.6034123348e+00 +1.0307467135e+01 2.6743867243e+01 1.0566000000e-01 0.0000e+00 -1.0000e+00
      994  1    1    2    0    0 +5.5122185294e+01 +2.0884463698e+01 +1.4471095509e+02 2.0390408691e+02 1.3100000000e+02 0.0000e+00 0.0000e+00
      997  1    1    2    0    0 -3.0582388299e+01 -1.8281051363e+01 +3.4498156661e+02 4.0035204585e+02 2.0000000000e+02 0.0000e+00 0.0000e+00
</event>
<event>
 5      1 +6.7420000e-10 2.36592200e+02 7.95774700e-02 4.48747000e-01
       13 -1    0    0    0    0 +0.0000000000e+00 +0.0000000000e+00 +4.9999998884e+02 5.0000000000e+02 1.0566000000e-01 0.0000e+00 -1.0000e+00
      994 -1    0    0    0    0 -0.0000000000e+00 -0.0000000000e+00 +0.0000000000e+00 1.3100000000e+02 1.3100000000e+02 0.0000e+00 0.0000e+00
       13  1    1    2    0    0 -2.5438212816e+01 +1.1909135664e+01 +6.5294777508e+01 7.1079879835e+01 1.0566000000e-01 0.0000e+00 1.0000e+00
      994  1    1    2    0    0 +3.4576999306e+01 -1.6881964641e+01 +9.7666459263e+01 1.6786991057e+02 1.3100000000e+02 0.0000e+00 0.0000e+00
      997  1    1    2    0    0 -9.1387864895e+00 +4.9728289762e+00 +3.3703875207e+02 3.9205020959e+02 2.0000000000e+02 0.0000e+00 0.0000e+00
</event>
<event>
 5      1 +6.7420000e-10 2.45541200e+02 7.95774700e-02 4.38252100e-01
       13 -1    0    0    0    0 +0.0000000000e+00 +0.0000000000e+00 +4.9999998884e+02 5.0000000000e+02 1.0566000000e-01 0.0000e+00 1.0000e+00
      994 -1    0    0    0    0 -0.0000000000e+00 -0.0000000000e+00 +0.0000000000e+00 1.3100000000e+02 1.3100000000e+02 0.0000e+00 0.0000e+00
       13  1    1    2    0    0 +4.2399135438e+01 +1.0740860860e+01 +5.5799352493e+01 7.0898742447e+01 1.0566000000e-01 0.0000e+00 -1.0000e+00
      994  1    1    2    0    0 -3.8435693996e+01 -1.0641769054e+01 +1.3848646290e+02 1.9475638687e+02 1.3100000000e+02 0.0000e+00 0.0000e+00
      997  1    1    2    0    0 -3.9634414418e+00 -9.9091806313e-02 +3.0571417345e+02 3.6534487068e+02 2.0000000000e+02 0.0000e+00 0.0000e+00
</event>
<event>
 5      1 +6.7420000e-10 2.32365400e+02 7.95774700e-02 4.54040600e-01
       13 -1    0    0    0    0 +0.0000000000e+00 +0.0000000000e+00 +4.9999998884e+02 5.0000000000e+02 1.0566000000e-01 0.0000e+00 1.0000e+00
      994 -1    0    0    0    0 -0.0000000000e+00 -0.0000000000e+00 +0.0000000000e+00 1.3100000000e+02 1.3100000000e+02 0.0000e+00 0.0000e+00
       13  1    1    2    0    0 -1.6278723235e-01 +2.0359716077e+01 +2.7824872763e+01 3.4478678147e+01 1.0566000000e-01 0.0000e+00 -1.0000e+00
      994  1    1    2    0    0 -2.9850971976e+00 -3.6194353728e+01 +8.4681031127e+01 1.6015873089e+02 1.3100000000e+02 0.0000e+00 0.0000e+00
      997  1    1    2    0    0 +3.1478844300e+00 +1.5834637651e+01 +3.8749408495e+02 4.3636259096e+02 2.0000000000e+02 0.0000e+00 0.0000e+00
</event>
<event>
 5      1 +6.7420000e-10 2.42573700e+02 7.95774700e-02 4.41630700e-01
       13 -1    0    0    0    0 +0.0000000000e+00 +0.0000000000e+00 +4.9999998884e+02 5.0000000000e+02 1.0566000000e-01 0.0000e+00 -1.0000e+00
      994 -1    0    0    0    0 -0.0000000000e+00 -0.0000000000e+00 +0.0000000000e+00 1.3100000000e+02 1.3100000000e+02 0.0000e+00 0.0000e+00
       13  1    1    2    0    0 -2.7839222109e+01 -1.5872631319e+00 +1.8760459848e+01 3.3608149453e+01 1.0566000000e-01 0.0000e+00 1.0000e+00
      994  1    1    2    0    0 +5.5815063356e+00 +2.7923245684e+01 +1.0645823713e+02 1.7118766637e+02 1.3100000000e+02 0.0000e+00 0.0000e+00
      997  1    1    2    0    0 +2.2257715774e+01 -2.6335982552e+01 +3.7478129186e+02 4.2620418418e+02 2.0000000000e+02 0.0000e+00 0.0000e+00
</event>
<event>
 5      1 +6.7420000e-10 2.28373900e+02 7.95774700e-02 4.59257100e-01
       13 -1    0    0    0    0 +0.0000000000e+00 +0.0000000000e+00 +4.9999998884e+02 5.0000000000e+02 1.0566000000e-01 0.0000e+00 -1.0000e+00
      994 -1    0    0    0    0 -0.0000000000e+00 -0.0000000000e+00 +0.0000000000e+00 1.3100000000e+02 1.3100000000e+02 0.0000e+00 0.0000e+00
       13  1    1    2    0    0 -1.1113416104e+01 -4.0854268686e+00 +9.9542093902e+00 1.5469200975e+01 1.0566000000e-01 0.0000e+00 1.0000e+00
      994  1    1    2    0    0 +5.8861948583e+01 +3.4446778853e+00 +1.0139074398e+02 1.7583423376e+02 1.3100000000e+02 0.0000e+00 0.0000e+00
      997  1    1    2    0    0 -4.7748532480e+01 +6.4074898327e-01 +3.8865503547e+02 4.3969656527e+02 2.0000000000e+02 0.0000e+00 0.0000e+00
</event>
<event>
 5      1 +6.7420000e-10 2.30082700e+02 7.95774700e-02 4.56997200e-01
       13 -1    0    0    0    0 +0.0000000000e+00 +0.0000000000e+00 +4.9999998884e+02 5.0000000000e+02 1.0566000000e-01 0.0000e+00 1.0000e+00
      994 -1    0    0    0    0 -0.0000000000e+00 -0.0000000000e+00 +0.0000000000e+00 1.3100000000e+02 1.3100000000e+02 0.0000e+00 0.0000e+00
       13  1    1    2    0    0 +1.5991355678e+01 -7.1534197009e+00 +4.1530713414e+01 4.5074451639e+01 1.0566000000e-01 0.0000e+00 -1.0000e+00
      994  1    1    2    0    0 -4.9504285166e+01 +1.7982764926e+01 +9.6948574846e+01 1.7127194823e+02 1.3100000000e+02 0.0000e+00 0.0000e+00
      997  1    1    2    0    0 +3.3512929488e+01 -1.0829345225e+01 +3.6152070058e+02 4.1465360014e+02 2.0000000000e+02 0.0000e+00 0.0000e+00
</event>
<event>
 5      1 +6.7420000e-10 2.28653000e+02 7.95774700e-02 4.58885200e-01
       13 -1    0    0    0    0 +0.0000000000e+00 +0.0000000000e+00 +4.9999998884e+02 5.0000000000e+02 1.0566000000e-01 0.0000e+00 -1.0000e+00
      994 -1    0    0    0    0 -0.0000000000e+00 -0.0000000000e+00 +0.0000000000e+00 1.3100000000e+02 1.3100000000e+02 0.0000e+00 0.0000e+00
       13  1    1    2    0    0 -8.4641170569e+00 +7.2419126701e+00 +2.0936617461e+01 2.3715811001e+01 1.0566000000e-01 0.0000e+00 1.0000e+00
      994  1    1    2    0    0 -3.3275526170e+01 -2.4650751834e+01 +8.0940503034e+01 1.5945935294e+02 1.3100000000e+02 0.0000e+00 0.0000e+00
      997  1    1    2    0    0 +4.1739643227e+01 +1.7408839164e+01 +3.9812286834e+02 4.4782483606e+02 2.0000000000e+02 0.0000e+00 0.0000e+00
</event>
<event>
 5      1 +6.7420000e-10 2.28803200e+02 7.95774700e-02 4.58685500e-01
       13 -1    0    0    0    0 +0.0000000000e+00 +0.0000000000e+00 +4.9999998884e+02 5.0000000000e+02 1.0566000000e-01 0.0000e+00 -1.0000e+00
      994 -1    0    0    0    0 -0.0000000000e+00 -0.0000000000e+00 +0.0000000000e+00 1.3100000000e+02 1.3100000000e+02 0.0000e+00 0.0000e+00
       13  1    1    2    0    0 +9.3809391878e+00 -4.3305305818e+00 +1.0162253938e+01 1.4492690720e+01 1.0566000000e-01 0.0000e+00 1.0000e+00
      994  1    1    2    0    0 -3.4915624018e+00 -8.2819897791e-01 +6.3711543343e+01 1.4571560547e+02 1.3100000000e+02 0.0000e+00 0.0000e+00
      997  1    1    2    0    0 -5.8893767860e+00 +5.1587295597e+00 +4.2612619156e+02 4.7079170381e+02 2.0000000000e+02 0.0000e+00 0.0000e+00
</event>
<event>
 5      1 +6.7420000e-10 2.40281400e+02 7.95774700e-02 4.44308100e-01
       13 -1    0    0    0    0 +0.0000000000e+00 +0.0000000000e+00 +4.9999998884e+02 5.0000000000e+02 1.0566000000e-01 0.0000e+00 1.0000e+00
      994 -1    0    0    0    0 -0.0000000000e+00 -0.0000000000e+00 +0.0000000000e+00 1.3100000000e+02 1.3100000000e+02 0.0000e+00 0.0000e+00
       13  1    1    2    0    0 -1.1633531171e+01 -5.7876084886e+00 -1.8717478431e+00 1.3128216313e+01 1.0566000000e-01 0.0000e+00 -1.0000e+00
      994  1    1    2    0    0 -1.2437181939e+01 +1.4493588399e+01 +9.2380156111e+01 1.6143060689e+02 1.3100000000e+02 0.0000e+00 0.0000e+00
      997  1    1    2    0    0 +2.4070713110e+01 -8.7059799107e+00 +4.0949158057e+02 4.5644117679e+02 2.0000000000e+02 0.0000e+00 0.0000e+00
</event>
<event>
 5      1 +6.7420000e-10 2.51716500e+02 7.95774700e-02 4.31520100e-01
       13 -1    0    0    0    0 +0.0000000000e+00 +0.0000000000e+00 +4.9999998884e+02 5.0000000000e+02 1.0566000000e-01 0.0000e+00 -1.0000e+00
      994 -1    0    0    0    0 -0.0000000000e+00 -0.0000000000e+00 +0.0000000000e+00 1.3100000000e+02 1.3100000000e+02 0.0000e+00 0.0000e+00
       13  1    1    2    0    0 -1.9648794952e+01 -7.0198263345e+00 -6.7750686740e+00 2.1937771637e+01 1.0566000000e-01 0.0000e+00 1.0000e+00
      994  1    1    2    0    0 -7.3530677498e+00 +2.2700173804e+01 +1.6735124601e+02 2.1386164929e+02 1.3100000000e+02 0.0000e+00 0.0000e+00
      997  1    1    2    0    0 +2.7001862702e+01 -1.5680347470e+01 +3.3942381150e+02 3.9520057907e+02 2.0000000000e+02 0.0000e+00 0.0000e+00
</event>
<event>
 5      1 +6.7420000e-10 2.43233700e+02 7.95774700e-02 4.40870900e-01
       13 -1    0    0    0    0 +0.0000000000e+00 +0.0000000000e+00 +4.9999998884e+02 5.0000000000e+02 1.0566000000e-01 0.0000e+00 1.0000e+00
      994 -1    0    0    0    0 -0.0000000000e+00 -0.0000000000e+00 +0.0000000000e+00 1.3100000000e+02 1.3100000000e+02 0.0000e+00 0.0000e+00
       13  1    1    2    0    0 -6.1832606129e+00 -9.5980189419e+00 -5.3334171461e+00 1.2602030864e+01 1.0566000000e-01 0.0000e+00 -1.0000e+00
      994  1    1    2    0    0 -8.9733757147e+00 -2.5189712437e+00 +9.6893590338e+01 1.6320611060e+02 1.3100000000e+02 0.0000e+00 0.0000e+00
      997  1    1    2    0    0 +1.5156636328e+01 +1.2116990186e+01 +4.0843981564e+02 4.5519185854e+02 2.0000000000e+02 0.0000e+00 0.0000e+00
</event>
<event>
 5      1 +6.7420000e-10 2.35501500e+02 7.95774700e-02 4.50091200e-01
       13 -1    0    0    0    0 +0.0000000000e+00 +0.0000000000e+00 +4.9999998884e+02 5.0000000000e+02 1.0566000000e-01 0.0000e+00 -1.0000e+00
      994 -1    0    0    0    0 -0.0000000000e+00 -0.0000000000e+00 +0.0000000000e+00 1.3100000000e+02 1.3100000000e+02 0.0000e+00 0.0000e+00
       13  1    1    2    0    0 -1.9246982154e+01 -6.1588267391e+00 +1.4854034960e+01 2.5080490176e+01 1.0566000000e-01 0.0000e+00 1.0000e+00
      994  1    1    2    0    0 +1.5158093183e+01 +3.3503831964e+01 +9.2878485458e+01 1.6474127475e+02 1.3100000000e+02 0.0000e+00 0.0000e+00
      997  1    1    2    0    0 +4.0888889719e+00 -2.7345005225e+01 +3.9226746842e+02 4.4117823507e+02 2.0000000000e+02 0.0000e+00 0.0000e+00
</event>
<event>
 5      1 +6.7420000e-10 2.47380200e+02 7.95774700e-02 4.36206200e-01
       13 -1    0    0    0    0 +0.0000000000e+00 +0.0000000000e+00 +4.9999998884e+02 5.0000000000e+02 1.0566000000e-01 0.0000e+00 1.0000e+00
      994 -1    0    0    0    0 -0.0000000000e+00 -0.0000000000e+00 +0.0000000000e+00 1.3100000000e+02 1.3100000000e+02 0.0000e+00 0.0000e+00
       13  1    1    2    0    0 -6.2336744851e+00 -1.9542063989e+01 -2.1367437255e+00 2.0623476921e+01 1.0566000000e-01 0.0000e+00 -1.0000e+00
      994  1    1    2    0    0 +2.7415164053e+01 -3.0653365599e+01 +1.6553172817e+02 2.1506504382e+02 1.3100000000e+02 0.0000e+00 0.0000e+00
      997  1    1    2    0    0 -2.1181489568e+01 +5.0195429588e+01 +3.3660500439e+02 3.9531147926e+02 2.0000000000e+02 0.0000e+00 0.0000e+00
</event>
<event>
 5      1 +6.7420000e-10 2.43059200e+02 7.95774700e-02 4.41071300e-01
       13 -1    0    0    0    0 +0.0000000000e+00 +0.0000000000e+00 +4.9999998884e+02 5.0000000000e+02 1.0566000000e-01 0.0000e+00 -1.0000e+00
      994 -1    0    0    0    0 -0.0000000000e+00 -0.0000000000e+00 +0.0000000000e+00 1.3100000000e+02 1.3100000000e+02 0.0000e+00 0.0000e+00
       13  1    1    2    0    0 -3.0648665350e+01 -8.6962556012e-01 +2.9529007994e+01 4.2568420379e+01 1.0566000000e-01 0.0000e+00 1.0000e+00
      994  1    1    2    0    0 -8.1179976820e+00 -5.0587785804e+01 +1.5415096153e+02 2.0868288118e+02 1.3100000000e+02 0.0000e+00 0.0000e+00
      997  1    1    2    0    0 +3.8766663032e+01 +5.1457411364e+01 +3.1632001932e+02 3.7974869844e+02 2.0000000000e+02 0.0000e+00 0.0000e+00
</event>
<event>
 5      1 +6.7420000e-10 2.30836500e+02 7.95774700e-02 4.56013000e-01
       13 -1    0    0    0    0 +0.0000000000e+00 +0.0000000000e+00 +4.9999998884e+02 5.0000000000e+02 1.0566000000e-01 0.0000e+00 -1.0000e+00
      994 -1    0    0    0    0 -0.0000000000e+00 -0.0000000000e+00 +0.0000000000e+00 1.3100000000e+02 1.3100000000e+02 0.0000e+00 0.0000e+00
       13  1    1    2    0    0 +7.1033980966e+00 -1.4122464366e+01 +2.0772657074e+01 2.6103959666e+01 1.0566000000e-01 0.0000e+00 1.0000e+00
      994  1    1    2    0    0 +7.8663309792e+00 +2.4164490958e+01 +7.3867483965e+01 1.5252280804e+02 1.3100000000e+02 0.0000e+00 0.0000e+00
      997  1    1    2    0    0 -1.4969729076e+01 -1.0042026592e+01 +4.0535984780e+02 4.5237323229e+02 2.0000000000e+02 0.0000e+00 0.0000e+00
</event>
<event>
 5      1 +6.7420000e-10 2.34538900e+02 7.95774700e-02 4.51290000e-01
       13 -1    0    0    0    0 +0.0000000000e+00 +0.0000000000e+00 +4.9999998884e+02 5.0000000000e+02 1.0566000000e-01 0.0000e+00 1.0000e+00
      994 -1    0    0    0    0 -0.0000000000e+00 -0.0000000000e+00 +0.0000000000e+00 1.3100000000e+02 1.3100000000e+02 0.0000e+00 0.0000e+00
       13  1    1    2    0    0 +9.9573516963e+00 +8.3768364359e+00 +3.0345262705e+00 1.3361876934e+01 1.0566000000e-01 0.0000e+00 -1.0000e+00
      994  1    1    2    0    0 -9.1158004220e+00 -2.4031701035e+01 +8.1858812598e+01 1.5659656980e+02 1.3100000000e+02 0.0000e+00 0.0000e+00
      997  1    1    2    0    0 -8.4155127422e-01 +1.5654864599e+01 +4.1510664997e+02 4.6104155327e+02 2.0000000000e+02 0.0000e+00 0.0000e+00
</event>
<event>
 5      1 +6.7420000e-10 2.41065700e+02 7.95774700e-02 4.43385300e-01
       13 -1    0    0    0    0 +0.0000000000e+00 +0.0000000000e+00 +4.9999998884e+02 5.0000000000e+02 1.0566000000e-01 0.0000e+00 1.0000e+00
      994 -1    0    0    0    0 -0.0000000000e+00 -0.0000000000e+00 +0.0000000000e+00 1.3100000000e+02 1.3100000000e+02 0.0000e+00 0.0000e+00
       13  1    1    2    0    0 -2.3604532622e+01 -2.8789418468e+01 +5.1650934755e+01 6.3669732221e+01 1.0566000000e-01 0.0000e+00 -1.0000e+00
      994  1    1    2    0    0 +3.4987068686e+01 +2.7570393764e+01 +1.2236285449e+02 1.8471028598e+02 1.3100000000e+02 0.0000e+00 0.0000e+00
      997  1    1    2    0    0 -1.1382536065e+01 +1.2190247041e+00 +3.2598619959e+02 3.8261998180e+02 2.0000000000e+02 0.0000e+00 0.0000e+00
</event>
<event>
 5      1 +6.7420000e-10 2.38330500e+02 7.95774700e-02 4.46635100e-01
       13 -1    0    0    0    0 +0.0000000000e+00 +0.0000000000e+00 +4.9999998884e+02 5.0000000000e+02 1.0566000000e-01 0.0000e+00 1.0000e+00
      994 -1    0    0    0    0 -0.0000000000e+00 -0.0000000000e+00 +0.0000000000e+00 1.3100000000e+02 1.3100000000e+02 0.0000e+00 0.0000e+00
       13  1    1    2    0    0 -2.1471669645e+01 -7.3501506468e+00 +1.6747572955e+01 2.8205490171e+01 1.0566000000e-01 0.0000e+00 -1.0000e+00
      994  1    1    2    0    0 +1.4449379861e+01 -2.1343330884e+01 +9.1207324956e+01 1.6169136797e+02 1.3100000000e+02 0.0000e+00 0.0000e+00
      997  1    1    2    0    0 +7.0222897842e+00 +2.8693481530e+01 +3.9204509093e+02 4.4110314186e+02 2.0000000000e+02 0.0000e+00 0.0000e+00
</event>
<event>
 5      1 +6.7420000e-10 2.44242600e+02 7.95774700e-02 4.39718700e-01
       13 -1    0    0    0    0 +0.0000000000e+00 +0.0000000000e+00 +4.9999998884e+02 5.0000000000e+02 1.0566000000e-01 0.0000e+00 -1.0000e+00
      994 -1    0    0    0    0 -0.0000000000e+00 -0.0000000000e+00 +0.0000000000e+00 1.3100000000e+02 1.3100000000e+02 0.0000e+00 0.0000e+00
       13  1    1    2    0    0 +2.7239922334e+01 -2.5487361525e+01 +3.4943977097e+01 5.1114691290e+01 1.0566000000e-01 0.0000e+00 1.0000e+00
      994  1    1    2    0    0 +1.1139001356e+01 +4.9185279292e+01 +1.6762130103e+02 2.1863478591e+02 1.3100000000e+02 0.0000e+00 0.0000e+00
      997  1    1    2    0    0 -3.8378923690e+01 -2.3697917767e+01 +2.9743471071e+02 3.6125052280e+02 2.0000000000e+02 0.0000e+00 0.0000e+00
</event>
<event>
 5      1 +6.7420000e-10 2.30742900e+02 7.95774700e-02 4.56134700e-01
       13 -1    0    0    0    0 +0.0000000000e+00 +0.0000000000e+00 +4.9999998884e+02 5.0000000000e+02 1.0566000000e-01 0.0000e+00 1.0000e+00
      994 -1    0    0    0    0 -0.0000000000e+00 -0.0000000000e+00 +0.0000000000e+00 1.3100000000e+02 1.3100000000e+02 0.0000e+00 0.0000e+00
       13  1    1    2    0    0 +1.4452899404e+01 -8.9485362582e+00 +2.2095167338e+01 2.7877772258e+01 1.0566000000e-01 0.0000e+00 -1.0000e+00
      994  1    1    2    0    0 -5.6459196823e+01 -2.3560860748e+01 +1.1251057162e+02 1.8320039244e+02 1.3100000000e+02 0.0000e+00 0.0000e+00
      997  1    1    2    0    0 +4.2006297419e+01 +3.2509397007e+01 +3.6539424988e+02 4.1992183530e+02 2.0000000000e+02 0.0000e+00 0.0000e+00
</event>
<event>
 5      1 +6.7420000e-10 2.41362500e+02 7.95774700e-02 4.43037900e-01
       13 -1    0    0    0    0 +0.0000000000e+00 +0.0000000000e+00 +4.9999998884e+02 5.0000000000e+02 1.0566000000e-01 0.0000e+00 1.0000e+00
      994 -1    0    0    0    0 -0.0000000000e+00 -0.0000000000e+00 +0.0000000000e+00 1.3100000000e+02 1.3100000000e+02 0.0000e+00 0.0000e+00
       13  1    1    2    0    0 +3.9178811856e+00 -1.3985936686e+01 -6.5695607025e-01 1.4539565787e+01 1.0566000000e-01 0.0000e+00 -1.0000e+00
      994  1    1    2    0    0 +1.2221485287e+01 -3.0445431638e+01 +1.0665881030e+02 1.7208541724e+02 1.3100000000e+02 0.0000e+00 0.0000e+00
      997  1    1    2    0    0 -1.6139366472e+01 +4.4431368324e+01 +3.9399813461e+02 4.4437501698e+02 2.0000000000e+02 0.0000e+00 0.0000e+00
</event>
<event>
 5      1 +6.7420000e-10 2.27725700e+02 7.95774700e-02 4.60125300e-01
       13 -1    0    0    0    0 +0.0000000000e+00 +0.0000000000e+00 +4.9999998884e+02 5.0000000000e+02 1.0566000000e-01 0.0000e+00 -1.0000e+00
      994 -1    0    0    0    0 -0.0000000000e+00 -0.0000000000e+00 +0.0000000000e+00 1.3100000000e+02 1.3100000000e+02 0.0000e+00 0.0000e+00
       13  1    1    2    0    0 +6.7657734733e+00 +1.2828844396e+01 +1.2348161351e+01 1.9048443296e+01 1.0566000000e-01 0.0000e+00 1.0000e+00
      994  1    1    2    0    0 -3.2034135776e+01 -7.1466927471e+01 +2.6583966786e+02 3.0653782244e+02 1.3100000000e+02 0.0000e+00 0.0000e+00
      997  1    1    2    0    0 +2.5268362302e+01 +5.8638083075e+01 +2.2181215962e+02 3.0541373426e+02 2.0000000000e+02 0.0000e+00 0.0000e+00
</event>
<event>
 5      1 +6.7420000e-10 2.42614500e+02 7.95774700e-02 4.41583600e-01
       13 -1    0    0    0    0 +0.0000000000e+00 +0.0000000000e+00 +4.9999998884e+02 5.0000000000e+02 1.0566000000e-01 0.0000e+00 1.0000e+00
      994 -1    0    0    0    0 -0.0000000000e+00 -0.0000000000e+00 +0.0000000000e+00 1.3100000000e+02 1.3100000000e+02 0.0000e+00 0.0000e+00
       13  1    1    2    0    0 +1.4442740320e+01 -2.8175510636e+01 +2.9625261243e+01 4.3360343810e+01 1.0566000000e-01 0.0000e+00 -1.0000e+00
      994  1    1    2    0    0 +9.3628441395e+00 +1.9676861002e+01 +1.0103245752e+02 1.6686341475e+02 1.3100000000e+02 0.0000e+00 0.0000e+00
      997  1    1    2    0    0 -2.3805584460e+01 +8.4986496341e+00 +3.6934227008e+02 4.2077624144e+02 2.0000000000e+02 0.0000e+00 0.0000e+00
</event>
<event>
 5      1 +6.7420000e-10 2.42249700e+02 7.95774700e-02 4.42005500e-01
       13 -1    0    0    0    0 +0.0000000000e+00 +0.0000000000e+00 +4.9999998884e+02 5.0000000000e+02 1.0566000000e-01 0.0000e+00 1.0000e+00
      994 -1    0    0    0    0 -0.0000000000e+00 -0.0000000000e+00 +0.0000000000e+00 1.3100000000e+02 1.3100000000e+02 0.0000e+00 0.0000e+00
       13  1    1    2    0    0 -2.1757199350e+01 +3.0897221063e+01 +3.2322925674e+01 4.9727222738e+01 1.0566000000e-01 0.0000e+00 -1.0000e+00
      994  1    1    2    0    0 +4.7872979906e+01 -1.5991296956e+01 +2.2696807029e+02 2.6687646715e+02 1.3100000000e+02 0.0000e+00 0.0000e+00
      997  1    1    2    0    0 -2.6115780556e+01 -1.4905924108e+01 +2.4070899287e+02 3.1439631012e+02 2.0000000000e+02 0.0000e+00 0.0000e+00
</event>
<event>
 5      1 +6.7420000e-10 2.28230900e+02 7.95774700e-02 4.59448100e-01
       13 -1    0    0    0    0 +0.0000000000e+00 +0.0000000000e+00 +4.9999998884e+02 5.0000000000e+02 1.0566000000e-01 0.0000e+00 -1.0000e+00
      994 -1    0    0    0    0 -0.0000000000e+00 -0.0000000000e+00 +0.0000000000e+00 1.3100000000e+02 1.3100000000e+02 0.0000e+00 0.0000e+00
       13  1    1    2    0    0 +2.2394039717e+00 +1.0688129323e+01 +2.1524638585e+01 2.4136533903e+01 1.0566000000e-01 0.0000e+00 1.0000e+00
      994  1    1    2    0    0 +1.7865534162e+00 +3.2336516936e+00 +6.2743395656e+01 1.4529756355e+02 1.3100000000e+02 0.0000e+00 0.0000e+00
      997  1    1    2    0    0 -4.0259573879e+00 -1.3921781016e+01 +4.1573195459e+02 4.6156590254e+02 2.0000000000e+02 0.0000e+00 0.0000e+00
</event>
<event>
 5      1 +6.7420000e-10 2.44324700e+02 7.95774700e-02 4.39625500e-01
       13 -1    0    0    0    0 +0.0000000000e+00 +0.0000000000e+00 +4.9999998884e+02 5.0000000000e+02 1.0566000000e-01 0.0000e+00 1.0000e+00
      994 -1    0    0    0    0 -0.0000000000e+00 -0.0000000000e+00 +0.0000000000e+00 1.3100000000e+02 1.3100000000e+02 0.0000e+00 0.0000e+00
       13  1    1    2    0    0 -2.8525997597e+01 -2.8898098882e+01 +5.2595198316e+01 6.6446209130e+01 1.0566000000e-01 0.0000e+00 -1.0000e+00
      994  1    1    2    0    0 +1.2098783276e+01 +3.5795026877e+01 +1.2637391990e+02 1.8590059746e+02 1.3100000000e+02 0.0000e+00 0.0000e+00
      997  1    1    2    0    0 +1.6427214321e+01 -6.8969279953e+00 +3.2103087062e+02 3.7865319341e+02 2.0000000000e+02 0.0000e+00 0.0000e+00
</event>
<event>
 5      1 +6.7420000e-10 2.43719900e+02 7.95774700e-02 4.40314200e-01
       13 -1    0    0    0    0 +0.0000000000e+00 +0.0000000000e+00 +4.9999998884e+02 5.0000000000e+02 1.0566000000e-01 0.0000e+00 -1.0000e+00
      994 -1    0    0    0    0 -0.0000000000e+00 -0.0000000000e+00 +0.0000000000e+00 1.3100000000e+02 1.3100000000e+02 0.0000e+00 0.0000e+00
       13  1    1    2    0    0 -8.9419716737e+00 +2.2861311071e+01 +7.8666377768e+00 2.5777772504e+01 1.0566000000e-01 0.0000e+00 1.0000e+00
      994  1    1    2    0    0 +7.7692685162e+00 -1.8735267260e+01 +1.0370367713e+02 1.6830574685e+02 1.3100000000e+02 0.0000e+00 0.0000e+00
      997  1    1    2    0    0 +1.1727031575e+00 -4.1260438111e+00 +3.8842967393e+02 4.3691648065e+02 2.0000000000e+02 0.0000e+00 0.0000e+00
</event>
<event>
 5      1 +6.7420000e-10 2.40257400e+02 7.95774700e-02 4.44336600e-01
       13 -1    0    0    0    0 +0.0000000000e+00 +0.0000000000e+00 +4.9999998884e+02 5.0000000000e+02 1.0566000000e-01 0.0000e+00 -1.0000e+00
      994 -1    0    0    0    0 -0.0000000000e+00 -0.0000000000e+00 +0.0000000000e+00 1.3100000000e+02 1.3100000000e+02 0.0000e+00 0.0000e+00
       13  1    1    2    0    0 +1.7236506947e+01 +2.4918497951e+01 +6.7985201100e+01 7.4431360625e+01 1.0566000000e-01 0.0000e+00 1.0000e+00
      994  1    1    2    0    0 +2.6502628401e+00 -1.0994615751e+01 +8.9040576651e+01 1.5879902317e+02 1.3100000000e+02 0.0000e+00 0.0000e+00
      997  1    1    2    0    0 -1.9886769788e+01 -1.3923882201e+01 +3.4297421109e+02 3.9776961621e+02 2.0000000000e+02 0.0000e+00 0.0000e+00
</event>
<event>
 5      1 +6.7420000e-10 2.47033600e+02 7.95774700e-02 4.36589100e-01
       13 -1    0    0    0    0 +0.0000000000e+00 +0.0000000000e+00 +4.9999998884e+02 5.0000000000e+02 1.0566000000e-01 0.0000e+00 1.0000e+00
      994 -1    0    0    0    0 -0.0000000000e+00 -0.0000000000e+00 +0.0000000000e+00 1.3100000000e+02 1.3100000000e+02 0.0000e+00 0.0000e+00
       13  1    1    2    0    0 +3.6337889809e+01 -1.5840744699e+00 +2.1086864013e+01 4.2043055617e+01 1.0566000000e-01 0.0000e+00 -1.0000e+00
      994  1    1    2    0    0 -3.0986703056e+01 -2.1234266262e+01 +1.4473133775e+02 1.9879444147e+02 1.3100000000e+02 0.0000e+00 0.0000e+00
      997  1    1    2    0    0 -5.3511867529e+00 +2.2818340732e+01 +3.3418178707e+02 3.9016250292e+02 2.0000000000e+02 0.0000e+00 0.0000e+00
</event>
<event>
 5      1 +6.7420000e-10 2.41215700e+02 7.95774700e-02 4.43209600e-01
       13 -1    0    0    0    0 +0.0000000000e+00 +0.0000000000e+00 +4.9999998884e+02 5.0000000000e+02 1.0566000000e-01 0.0000e+00 1.0000e+00
      994 -1    0    0    0    0 -0.0000000000e+00 -0.0000000000e+00 +0.0000000000e+00 1.3100000000e+02 1.3100000000e+02 0.0000e+00 0.0000e+00
       13  1    1    2    0    0 -8.3768992995e-02 -2.1677047134e+01 +1.2266527624e+01 2.4907433703e+01 1.0566000000e-01 0.0000e+00 -1.0000e+00
      994  1    1    2    0    0 -1.7769736908e+00 -3.5103857580e+01 +1.0884363915e+02 1.7390622829e+02 1.3100000000e+02 0.0000e+00 0.0000e+00
      997  1    1    2    0    0 +1.8607426838e+00 +5.6780904714e+01 +3.7888982206e+02 4.3218633801e+02 2.0000000000e+02 0.0000e+00 0.0000e+00
</event>
<event>
 5      1 +6.7420000e-10 2.30003600e+02 7.95774700e-02 4.57100800e-01
       13 -1    0    0    0    0 +0.0000000000e+00 +0.0000000000e+00 +4.9999998884e+02 5.0000000000e+02 1.0566000000e-01 0.0000e+00 1.0000e+00
      994 -1    0    0    0    0 -0.0000000000e+00 -0.0000000000e+00 +0.0000000000e+00 1.3100000000e+02 1.3100000000e+02 0.0000e+00 0.0000e+00
       13  1    1    2    0    0 +6.5889433847e+00 +9.0229934204e+00 +5.0401064943e+01 5.1624675269e+01 1.0566000000e-01 0.0000e+00 -1.0000e+00
      994  1    1    2    0    0 -5.5402359361e-01 -6.5999349998e+01 +1.1957748709e+02 1.8925114679e+02 1.3100000000e+02 0.0000e+00 0.0000e+00
      997  1    1    2    0    0 -6.0349197911e+00 +5.6976356578e+01 +3.3002143680e+02 3.9012417794e+02 2.0000000000e+02 0.0000e+00 0.0000e+00
</event>
<event>
 5      1 +6.7420000e-10 2.46361000e+02 7.95774700e-02 4.37335600e-01
       13 -1    0    0    0    0 +0.0000000000e+00 +0.0000000000e+00 +4.9999998884e+02 5.0000000000e+02 1.0566000000e-01 0.0000e+00 1.0000e+00
      994 -1    0    0    0    0 -0.0000000000e+00 -0.0000000000e+00 +0.0000000000e+00 1.3100000000e+02 1.3100000000e+02 0.0000e+00 0.0000e+00
       13  1    1    2    0    0 -1.5862135734e+01 +3.6658011879e+01 +8.1338294426e+01 9.0616480229e+01 1.0566000000e-01 0.0000e+00 -1.0000e+00
      994  1    1    2    0    0 -2.0278331716e+00 -1.6825977809e+01 +1.1141384816e+02 1.7280414115e+02 1.3100000000e+02 0.0000e+00 0.0000e+00
      997  1    1    2    0    0 +1.7889968906e+01 -1.9832034070e+01 +3.0724784625e+02 3.6757937862e+02 2.0000000000e+02 0.0000e+00 0.0000e+00
</event>
<event>
 5      1 +6.7420000e-10 2.39762500e+02 7.95774700e-02 4.44922700e-01
       13 -1    0    0    0    0 +0.0000000000e+00 +0.0000000000e+00 +4.9999998884e+02 5.0000000000e+02 1.0566000000e-01 0.0000e+00 -1.0000e+00
      994 -1    0    0    0    0 -0.0000000000e+00 -0.0000000000e+00 +0.0000000000e+00 1.3100000000e+02 1.3100000000e+02 0.0000e+00 0.0000e+00
       13  1    1    2    0    0 -4.8999951160e-01 -1.2694184976e+01 -2.2545612729e+00 1.2902582776e+01 1.0566000000e-01 0.0000e+00 1.0000e+00
      994  1    1    2    0    0 +3.3711855844e+01 +3.4008602468e+00 +1.0241865292e+02 1.6970160736e+02 1.3100000000e+02 0.0000e+00 0.0000e+00
      997  1    1    2    0    0 -3.3221856333e+01 +9.2933247290e+00 +3.9983589719e+02 4.4839580986e+02 2.0000000000e+02 0.0000e+00 0.0000e+00
</event>
<event>
 5      1 +6.7420000e-10 2.47423500e+02 7.95774700e-02 4.36158500e-01
       13 -1    0    0    0    0 +0.0000000000e+00 +0.0000000000e+00 +4.9999998884e+02 5.0000000000e+02 1.0566000000e-01 0.0000e+00 -1.0000e+00
      994 -1    0    0    0    0 -0.0000000000e+00 -0.0000000000e+00 +0.0000000000e+00 1.3100000000e+02 1.3100000000e+02 0.0000e+00 0.0000e+00
       13  1    1    2    0    0 +2.2358863990e+01 -2.6436721054e+01 +2.9333565756e+01 4.5379381474e+01 1.0566000000e-01 0.0000e+00 1.0000e+00
      994  1    1    2    0    0 +2.6783363006e+01 +6.7962884455e+00 +1.2728525197e+02 1.8473243743e+02 1.3100000000e+02 0.0000e+00 0.0000e+00
      997  1    1    2    0    0 -4.9142226996e+01 +1.9640432608e+01 +3.4338117112e+02 4.0088818110e+02 2.0000000000e+02 0.0000e+00 0.0000e+00
</event>
<event>
 5      1 +6.7420000e-10 2.47384400e+02 7.95774700e-02 4.36201500e-01
       13 -1    0    0    0    0 +0.0000000000e+00 +0.0000000000e+00 +4.9999998884e+02 5.0000000000e+02 1.0566000000e-01 0.0000e+00 1.0000e+00
      994 -1    0    0    0    0 -0.0000000000e+00 -0.0000000000e+00 +0.0000000000e+00 1.3100000000e+02 1.3100000000e+02 0.0000e+00 0.0000e+00
       13  1    1    2    0    0 +1.5648123154e+01 +7.5377949466e+00 -3.5805300671e+00 1.7734527637e+01 1.0566000000e-01 0.0000e+00 -1.0000e+00
      994  1    1    2    0    0 +1.4327434759e+01 +2.7467044942e+00 +1.1429244121e+02 1.7446083197e+02 1.3100000000e+02 0.0000e+00 0.0000e+00
      997  1    1    2    0    0 -2.9975557913e+01 -1.0284499441e+01 +3.8928807769e+02 4.3880464040e+02 2.0000000000e+02 0.0000e+00 0.0000e+00
</event>
<event>
 5      1 +6.7420000e-10 2.32327300e+02 7.95774700e-02 4.54089500e-01
       13 -1    0    0    0    0 +0.0000000000e+00 +0.0000000000e+00 +4.9999998884e+02 5.0000000000e+02 1.0566000000e-01 0.0000e+00 -1.0000e+00
      994 -1    0    0    0    0 -0.0000000000e+00 -0.0000000000e+00 +0.0000000000e+00 1.3100000000e+02 1.3100000000e+02 0.0000e+00 0.0000e+00
       13  1    1    2    0    0 +2.0606306450e+01 +3.6546091310e+00 +5.5836242743e+01 5.9629465880e+01 1.0566000000e-01 0.0000e+00 1.0000e+00
      994  1    1    2    0    0 -5.5420842644e+01 -2.3025261316e+01 +1.1590244698e+02 1.8492163117e+02 1.3100000000e+02 0.0000e+00 0.0000e+00
      997  1    1    2    0    0 +3.4814536194e+01 +1.9370652185e+01 +3.2826129912e+02 3.8644890295e+02 2.0000000000e+02 0.0000e+00 0.0000e+00
</event>
<event>
 5      1 +6.7420000e-10 2.41293300e+02 7.95774700e-02 4.43118800e-01
       13 -1    0    0    0    0 +0.0000000000e+00 +0.0000000000e+00 +4.9999998884e+02 5.0000000000e+02 1.0566000000e-01 0.0000e+00 1.0000e+00
      994 -1    0    0    0    0 -0.0000000000e+00 -0.0000000000e+00 +0.0000000000e+00 1.3100000000e+02 1.3100000000e+02 0.0000e+00 0.0000e+00
       13  1    1    2    0    0 +2.3848940724e+01 -1.3175137556e+01 +5.1601707349e+01 5.8353265450e+01 1.0566000000e-01 0.0000e+00 -1.0000e+00
      994  1    1    2    0    0 -3.4136570002e+00 -5.5239046037e+01 +1.5362593995e+02 2.0934405816e+02 1.3100000000e+02 0.0000e+00 0.0000e+00
      997  1    1    2    0    0 -2.0435283724e+01 +6.8414183593e+01 +2.9477234154e+02 3.6330267639e+02 2.0000000000e+02 0.0000e+00 0.0000e+00
</event>
<event>
 5      1 +6.7420000e-10 2.29676700e+02 7.95774700e-02 4.57530400e-01
       13 -1    0    0    0    0 +0.0000000000e+00 +0.0000000000e+00 +4.9999998884e+02 5.0000000000e+02 1.0566000000e-01 0.0000e+00 -1.0000e+00
      994 -1    0    0    0    0 -0.0000000000e+00 -0.0000000000e+00 +0.0000000000e+00 1.3100000000e+02 1.3100000000e+02 0.0000e+00 0.0000e+00
       13  1    1    2    0    0 +1.0067700755e+01 +7.6242758388e+00 +3.9922309578e+01 4.1872307635e+01 1.0566000000e-01 0.0000e+00 1.0000e+00
      994  1    1    2    0    0 +8.9162724343e+00 -1.9441216937e+01 +6.9681101846e+01 1.4991303074e+02 1.3100000000e+02 0.0000e+00 0.0000e+00
      997  1    1    2    0    0 -1.8983973190e+01 +1.1816941098e+01 +3.9039657741e+02 4.3921466163e+02 2.0000000000e+02 0.0000e+00 0.0000e+00
</event>
<event>
 5      1 +6.7420000e-10 2.48710100e+02 7.95774700e-02 4.34748800e-01
       13 -1    0    0    0    0 +0.0000000000e+00 +0.0000000000e+00 +4.9999998884e+02 5.0000000000e+02 1.0566000000e-01 0.0000e+00 1.0000e+00
      994 -1    0    0    0    0 -0.0000000000e+00 -0.0000000000e+00 +0.0000000000e+00 1.3100000000e+02 1.3100000000e+02 0.0000e+00 0.0000e+00
       13  1    1    2    0    0 -1.8689531101e+01 +3.4474255805e+01 +5.5099769738e+01 6.7629643466e+01 1.0566000000e-01 0.0000e+00 -1.0000e+00
      994  1    1    2    0    0 -2.2056906728e+01 +3.5373291147e+00 +1.2796206957e+02 1.8448390466e+02 1.3100000000e+02 0.0000e+00 0.0000e+00
      997  1    1    2    0    0 +4.0746437828e+01 -3.8011584920e+01 +3.1693814953e+02 3.7888645187e+02 2.0000000000e+02 0.0000e+00 0.0000e+00
</event>
<event>
 5      1 +6.7420000e-10 2.43188500e+02 7.95774700e-02 4.40922800e-01
       13 -1    0    0    0    0 +0.0000000000e+00 +0.0000000000e+00 +4.9999998884e+02 5.0000000000e+02 1.0566000000e-01 0.0000e+00 1.0000e+00
      994 -1    0    0    0    0 -0.0000000000e+00 -0.0000000000e+00 +0.0000000000e+00 1.3100000000e+02 1.3100000000e+02 0.0000e+00 0.0000e+00
       13  1    1    2    0    0 +2.0612257883e+01 +3.7135701277e+00 +4.4640884743e+00 2.1414831964e+01 1.0566000000e-01 0.0000e+00 -1.0000e+00
      994  1    1    2    0    0 +1.3596217664e-01 -1.8123246196e+01 +1.0055432164e+02 1.6613440986e+02 1.3100000000e+02 0.0000e+00 0.0000e+00
      997  1    1    2    0    0 -2.0748220059e+01 +1.4409676069e+01 +3.9498157872e+02 4.4345075818e+02 2.0000000000e+02 0.0000e+00 0.0000e+00
</event>
<event>
 5      1 +6.7420000e-10 2.28414600e+02 7.95774700e-02 4.59202900e-01
       13 -1    0    0    0    0 +0.0000000000e+00 +0.0000000000e+00 +4.9999998884e+02 5.0000000000e+02 1.0566000000e-01 0.0000e+00 1.0000e+00
      994 -1    0    0    0    0 -0.0000000000e+00 -0.0000000000e+00 +0.0000000000e+00 1.3100000000e+02 1.3100000000e+02 0.0000e+00 0.0000e+00
       13  1    1    2    0    0 -8.5266567202e+00 +8.3598259118e+00 +1.7407646884e+01 2.1109900477e+01 1.0566000000e-01 0.0000e+00 -1.0000e+00
      994  1    1    2    0    0 +3.6835937292e+01 +9.6600672870e+00 +7.7570224452e+01 1.5693419926e+02 1.3100000000e+02 0.0000e+00 0.0000e+00
      997  1    1    2    0    0 -2.8309280571e+01 -1.8019893199e+01 +4.0502211750e+02 4.5295590026e+02 2.0000000000e+02 0.0000e+00 0.0000e+00
</event>
<event>
 5      1 +6.7420000e-10 2.42824200e+02 7.95774700e-02 4.41341700e-01
       13 -1    0    0    0    0 +0.0000000000e+00 +0.0000000000e+00 +4.9999998884e+02 5.0000000000e+02 1.0566000000e-01 0.0000e+00 -1.0000e+00
      994 -1    0    0    0    0 -0.0000000000e+00 -0.0000000000e+00 +0.0000000000e+00 1.3100000000e+02 1.3100000000e+02 0.0000e+00 0.0000e+00
       13  1    1    2    0    0 +3.3319495048e+01 +1.8434833851e+01 +5.8300957880e+01 6.9635082416e+01 1.0566000000e-01 0.0000e+00 1.0000e+00
      994  1    1    2    0    0 -2.5198616374e+01 -1.5483213172e+01 +1.0848203661e+02 1.7263850215e+02 1.3100000000e+02 0.0000e+00 0.0000e+00
      997  1    1    2    0    0 -8.1208786739e+00 -2.9516206785e+00 +3.3321699435e+02 3.8872641544e+02 2.0000000000e+02 0.0000e+00 0.0000e+00
</event>
<event>
 5      1 +6.7420000e-10 2.34225800e+02 7.95774700e-02 4.51682400e-01
       13 -1    0    0    0    0 +0.0000000000e+00 +0.0000000000e+00 +4.9999998884e+02 5.0000000000e+02 1.0566000000e-01 0.0000e+00 -1.0000e+00
      994 -1    0    0    0    0 -0.0000000000e+00 -0.0000000000e+00 +0.0000000000e+00 1.3100000000e+02 1.3100000000e+02 0.0000e+00 0.0000e+00
       13  1    1    2    0    0 -2.2236185187e+01 +2.5828252080e+00 +6.7039701471e+01 7.0678509146e+01 1.0566000000e-01 0.0000e+00 1.0000e+00
      994  1    1    2    0    0 +4.5828673940e+01 -1.1460827271e+00 +9.9523801855e+01 1.7078515157e+02 1.3100000000e+02 0.0000e+00 0.0000e+00
      997  1    1    2    0    0 -2.3592488753e+01 -1.4367424809e+00 +3.3343648551e+02 3.8953633929e+02 2.0000000000e+02 0.0000e+00 0.0000e+00
</event>
<event>
 5      1 +6.7420000e-10 2.36356600e+02 7.95774700e-02 4.49036100e-01
       13 -1    0    0    0    0 +0.0000000000e+00 +0.0000000000e+00 +4.9999998884e+02 5.0000000000e+02 1.0566000000e-01 0.0000e+00 -1.0000e+00
      994 -1    0    0    0    0 -0.0000000000e+00 -0.0000000000e+00 +0.0000000000e+00 1.3100000000e+02 1.3100000000e+02 0.0000e+00 0.0000e+00
       13  1    1    2    0    0 +1.0946171319e+01 -4.9508647828e-01 -1.0773069915e-01 1.0958400755e+01 1.0566000000e-01 0.0000e+00 1.0000e+00
      994  1    1    2    0    0 +4.8184758396e+01 -2.2104746231e+01 +1.1787630399e+02 1.8402775277e+02 1.3100000000e+02 0.0000e+00 0.0000e+00
      997  1    1    2    0    0 -5.9130929715e+01 +2.2599832709e+01 +3.8223141555e+02 4.3601384647e+02 2.0000000000e+02 0.0000e+00 0.0000e+00
</event>
<event>
 5      1 +6.7420000e-10 2.51453800e+02 7.95774700e-02 4.31798700e-01
       13 -1    0    0    0    0 +0.0000000000e+00 +0.0000000000e+00 +4.9999998884e+02 5.0000000000e+02 1.0566000000e-01 0.0000e+00 -1.0000e+00
      994 -1    0    0    0    0 -0.0000000000e+00 -0.0000000000e+00 +0.0000000000e+00 1.3100000000e+02 1.3100000000e+02 0.0000e+00 0.0000e+00
       13  1    1    2    0    0 +3.8708301322e+01 -1.3290568672e+00 +1.6984651290e+01 4.2291707543e+01 1.0566000000e-01 0.0000e+00 1.0000e+00
      994  1    1    2    0    0 -2.1212875488e+01 +1.1108623016e+01 +1.5888679030e+02 2.0731473591e+02 1.3100000000e+02 0.0000e+00 0.0000e+00
      997  1    1    2    0    0 -1.7495425835e+01 -9.7795661488e+00 +3.2412854725e+02 3.8139355655e+02 2.0000000000e+02 0.0000e+00 0.0000e+00
</event>
<event>
 5      1 +6.7420000e-10 2.46568900e+02 7.95774700e-02 4.37104400e-01
       13 -1    0    0    0    0 +0.0000000000e+00 +0.0000000000e+00 +4.9999998884e+02 5.0000000000e+02 1.0566000000e-01 0.0000e+00 -1.0000e+00
      994 -1    0    0    0    0 -0.0000000000e+00 -0.0000000000e+00 +0.0000000000e+00 1.3100000000e+02 1.3100000000e+02 0.0000e+00 0.0000e+00
       13  1    1    2    0    0 +1.2288896659e+01 -4.2928747718e+01 +7.0424430383e+01 8.3387684466e+01 1.0566000000e-01 0.0000e+00 1.0000e+00
      994  1    1    2    0    0 -3.0974151519e+01 +2.9769004457e+01 +1.6076522197e+02 2.1178302171e+02 1.3100000000e+02 0.0000e+00 0.0000e+00
      997  1    1    2    0    0 +1.8685254859e+01 +1.3159743262e+01 +2.6881033648e+02 3.3582929382e+02 2.0000000000e+02 0.0000e+00 0.0000e+00
</event>
<event>
 5      1 +6.7420000e-10 2.38296800e+02 7.95774700e-02 4.46675700e-01
       13 -1    0    0    0    0 +0.0000000000e+00 +0.0000000000e+00 +4.9999998884e+02 5.0000000000e+02 1.0566000000e-01 0.0000e+00 1.0000e+00
      994 -1    0    0    0    0 -0.0000000000e+00 -0.0000000000e+00 +0.0000000000e+00 1.3100000000e+02 1.3100000000e+02 0.0000e+00 0.0000e+00
       13  1    1    2    0    0 +1.3479426143e+01 +2.5927109908e+01 +5.0839307513e+01 5.8639204545e+01 1.0566000000e-01 0.0000e+00 -1.0000e+00
      994  1    1    2    0    0 -3.7713065144e+01 -1.9453514343e+00 +1.0201884193e+02 1.7027889999e+02 1.3100000000e+02 0.0000e+00 0.0000e+00
      997  1    1    2    0    0 +2.4233639001e+01 -2.3981758474e+01 +3.4714183939e+02 4.0208189546e+02 2.0000000000e+02 0.0000e+00 0.0000e+00
</event>
<event>
 5      1 +6.7420000e-10 2.47372200e+02 7.95774700e-02 4.36215000e-01
       13 -1    0    0    0    0 +0.0000000000e+00 +0.0000000000e+00 +4.9999998884e+02 5.0000000000e+02 1.0566000000e-01 0.0000e+00 -1.0000e+00
      994 -1    0    0    0    0 -0.0000000000e+00 -0.0000000000e+00 +0.0000000000e+00 1.3100000000e+02 1.3100000000e+02 0.0000e+00 0.0000e+00
       13  1    1    2    0    0 -9.3313371460e-02 -2.3164573717e+01 +2.3754385556e+00 2.3286477948e+01 1.0566000000e-01 0.0000e+00 1.0000e+00
      994  1    1    2    0    0 -1.0265412021e+01 +1.4509605099e+00 +1.1207766124e+02 1.7271330614e+02 1.3100000000e+02 0.0000e+00 0.0000e+00
      997  1    1    2    0    0 +1.0358725392e+01 +2.1713613207e+01 +3.8554688904e+02 4.3500021591e+02 2.0000000000e+02 0.0000e+00 0.0000e+00
</event>
<event>
 5      1 +6.7420000e-10 2.39944200e+02 7.95774700e-02 4.44707100e-01
       13 -1    0    0    0    0 +0.0000000000e+00 +0.0000000000e+00 +4.9999998884e+02 5.0000000000e+02 1.0566000000e-01 0.0000e+00 1.0000e+00
      994 -1    0    0    0    0 -0.0000000000e+00 -0.0000000000e+00 +0.0000000000e+00 1.3100000000e+02 1.3100000000e+02 0.0000e+00 0.0000e+00
       13  1    1    2    0    0 +5.1078092101e+00 +2.7301447805e+01 +2.6543769111e+01 3.8419286951e+01 1.0566000000e-01 0.0000e+00 -1.0000e+00
      994  1    1    2    0    0 -3.9619346818e+01 -3.0345711253e+00 +1.1008914799e+02 1.7566878428e+02 1.3100000000e+02 0.0000e+00 0.0000e+00
      997  1    1    2    0    0 +3.4511537608e+01 -2.4266876680e+01 +3.6336707173e+02 4.1691192877e+02 2.0000000000e+02 0.0000e+00 0.0000e+00
</event>
<event>
 5      1 +6.7420000e-10 2.51276500e+02 7.95774700e-02 4.31987100e-01
       13 -1    0    0    0    0 +0.0000000000e+00 +0.0000000000e+00 +4.9999998884e+02 5.0000000000e+02 1.0566000000e-01 0.0000e+00 1.0000e+00
      994 -1    0    0    0    0 -0.0000000000e+00 -0.0000000000e+00 +0.0000000000e+00 1.3100000000e+02 1.3100000000e+02 0.0000e+00 0.0000e+00
       13  1    1    2    0    0 -1.4318304561e+01 -1.9610423531e+01 -1.3136692190e+00 2.4317060830e+01 1.0566000000e-01 0.0000e+00 -1.0000e+00
      994  1    1    2    0    0 +4.3385330103e+00 +2.0375910137e+00 +1.3098086812e+02 1.8531044887e+02 1.3100000000e+02 0.0000e+00 0.0000e+00
      997  1    1    2    0    0 +9.9797715504e+00 +1.7572832518e+01 +3.7033278993e+02 4.2137249030e+02 2.0000000000e+02 0.0000e+00 0.0000e+00
</event>
<event>
 5      1 +6.7420000e-10 2.48524700e+02 7.95774700e-02 4.34950900e-01
       13 -1    0    0    0    0 +0.0000000000e+00 +0.0000000000e+00 +4.9999998884e+02 5.0000000000e+02 1.0566000000e-01 0.0000e+00 -1.0000e+00
      994 -1    0    0    0    0 -0.0000000000e+00 -0.0000000000e+00 +0.0000000000e+00 1.3100000000e+02 1.3100000000e+02 0.0000e+00 0.0000e+00
       13  1    1    2    0    0 +1.5381835544e+01 -3.4682502904e+01 +3.4281436373e+01 5.1134185397e+01 1.0566000000e-01 0.0000e+00 1.0000e+00
      994  1    1    2    0    0 +3.3260042681e+01 +8.1725157870e+00 +1.5029325431e+02 2.0229207287e+02 1.3100000000e+02 0.0000e+00 0.0000e+00
      997  1    1    2    0    0 -4.8641878225e+01 +2.6509987117e+01 +3.1542529815e+02 3.7757374173e+02 2.0000000000e+02 0.0000e+00 0.0000e+00
</event>
<event>
 5      1 +6.7420000e-10 2.46132100e+02 7.95774700e-02 4.37590800e-01
       13 -1    0    0    0    0 +0.0000000000e+00 +0.0000000000e+00 +4.9999998884e+02 5.0000000000e+02 1.0566000000e-01 0.0000e+00 -1.0000e+00
      994 -1    0    0    0    0 -0.0000000000e+00 -0.0000000000e+00 +0.0000000000e+00 1.3100000000e+02 1.3100000000e+02 0.0000e+00 0.0000e+00
       13  1    1    2    0    0 -2.5265587754e+01 -1.3864610404e+01 +3.0728407371e+00 2.8983285881e+01 1.0566000000e-01 0.0000e+00 1.0000e+00
      994  1    1    2    0    0 +2.5291807299e+01 +3.6931799607e+01 +1.9638990218e+02 2.4027822835e+02 1.3100000000e+02 0.0000e+00 0.0000e+00
      997  1    1    2    0    0 -2.6219545190e-02 -2.3067189203e+01 +3.0053724592e+02 3.6173848577e+02 2.0000000000e+02 0.0000e+00 0.0000e+00
</event>
<event>
 5      1 +6.7420000e-10 2.51458600e+02 7.95774700e-02 4.31793600e-01
       13 -1    0    0    0    0 +0.0000000000e+00 +0.0000000000e+00 +4.9999998884e+02 5.0000000000e+02 1.0566000000e-01 0.0000e+00 -1.0000e+00
      994 -1    0    0    0    0 -0.0000000000e+00 -0.0000000000e+00 +0.0000000000e+00 1.3100000000e+02 1.3100000000e+02 0.0000e+00 0.0000e+00
       13  1    1    2    0    0 -1.9537208472e+01 +4.3793283071e+00 -5.8126581031e+00 2.0848961355e+01 1.0566000000e-01 0.0000e+00 1.0000e+00
      994  1    1    2    0    0 +5.2448328921e+00 -2.2271725488e+00 +1.3261877765e+02 1.8649720844e+02 1.3100000000e+02 0.0000e+00 0.0000e+00
      997  1    1    2    0    0 +1.4292375580e+01 -2.1521557583e+00 +3.7319386929e+02 4.2365383021e+02 2.0000000000e+02 0.0000e+00 0.0000e+00
</event>
<event>
 5      1 +6.7420000e-10 2.44826000e+02 7.95774700e-02 4.39057600e-01
       13 -1    0    0    0    0 +0.0000000000e+00 +0.0000000000e+00 +4.9999998884e+02 5.0000000000e+02 1.0566000000e-01 0.0000e+00 -1.0000e+00
      994 -1    0    0    0    0 -0.0000000000e+00 -0.0000000000e+00 +0.0000000000e+00 1.3100000000e+02 1.3100000000e+02 0.0000e+00 0.0000e+00
       13  1    1    2    0    0 +2.8617967470e+01 +1.5660389545e+01 +4.8537046090e+01 5.8481551535e+01 1.0566000000e-01 0.0000e+00 1.0000e+00
      994  1    1    2    0    0 +3.7861592066e+01 -1.8277144577e+01 +1.3869913182e+02 1.9536121247e+02 1.3100000000e+02 0.0000e+00 0.0000e+00
      997  1    1    2    0    0 -6.6479559536e+01 +2.6167550319e+00 +3.1276381092e+02 3.7715723600e+02 2.0000000000e+02 0.0000e+00 0.0000e+00
</event>
<event>
 5      1 +6.7420000e-10 2.44450800e+02 7.95774700e-02 4.39482300e-01
       13 -1    0    0    0    0 +0.0000000000e+00 +0.0000000000e+00 +4.9999998884e+02 5.0000000000e+02 1.0566000000e-01 0.0000e+00 -1.0000e+00
      994 -1    0    0    0    0 -0.0000000000e+00 -0.0000000000e+00 +0.0000000000e+00 1.3100000000e+02 1.3100000000e+02 0.0000e+00 0.0000e+00
       13  1    1    2    0    0 +3.4583104871e+01 +1.6702597810e+01 +6.1896003032e+01 7.2842942496e+01 1.0566000000e-01 0.0000e+00 1.0000e+00
      994  1    1    2    0    0 -1.3253139644e+01 -9.3296859484e+00 +1.0372406011e+02 1.6787605367e+02 1.3100000000e+02 0.0000e+00 0.0000e+00
      997  1    1    2    0    0 -2.1329965227e+01 -7.3729118615e+00 +3.3437992570e+02 3.9028100383e+02 2.0000000000e+02 0.0000e+00 0.0000e+00
</event>
<event>
 5      1 +6.7420000e-10 2.40362700e+02 7.95774700e-02 4.44212200e-01
       13 -1    0    0    0    0 +0.0000000000e+00 +0.0000000000e+00 +4.9999998884e+02 5.0000000000e+02 1.0566000000e-01 0.0000e+00 1.0000e+00
      994 -1    0    0    0    0 -0.0000000000e+00 -0.0000000000e+00 +0.0000000000e+00 1.3100000000e+02 1.3100000000e+02 0.0000e+00 0.0000e+00
       13  1    1    2    0    0 -1.5524715739e+00 +3.1407643504e+01 +6.3639371498e+01 7.0984723759e+01 1.0566000000e-01 0.0000e+00 -1.0000e+00
      994  1    1    2    0    0 +1.8908924658e+01 -1.1491029602e+01 +9.4385188351e+01 1.6296979773e+02 1.3100000000e+02 0.0000e+00 0.0000e+00
      997  1    1    2    0    0 -1.7356453084e+01 -1.9916613902e+01 +3.4197542899e+02 3.9704547851e+02 2.0000000000e+02 0.0000e+00 0.0000e+00
</event>
<event>
 5      1 +6.7420000e-10 2.32859000e+02 7.95774700e-02 4.53410500e-01
       13 -1    0    0    0    0 +0.0000000000e+00 +0.0000000000e+00 +4.9999998884e+02 5.0000000000e+02 1.0566000000e-01 0.0000e+00 1.0000e+00
      994 -1    0    0    0    0 -0.0000000000e+00 -0.0000000000e+00 +0.0000000000e+00 1.3100000000e+02 1.3100000000e+02 0.0000e+00 0.0000e+00
       13  1    1    2    0    0 -9.5834224743e+00 +1.3072597679e+01 +1.0412829472e+01 1.9265850047e+01 1.0566000000e-01 0.0000e+00 -1.0000e+00
      994  1    1    2    0    0 +2.6115054067e+00 -4.2775952908e+01 +9.2246373936e+01 1.6585233074e+02 1.3100000000e+02 0.0000e+00 0.0000e+00
      997  1    1    2    0    0 +6.9719170677e+00 +2.9703355229e+01 +3.9734078543e+02 4.4588181921e+02 2.0000000000e+02 0.0000e+00 0.0000e+00
</event>
<event>
 5      1 +6.7420000e-10 2.45144900e+02 7.95774700e-02 4.38697800e-01
       13 -1    0    0    0    0 +0.0000000000e+00 +0.0000000000e+00 +4.9999998884e+02 5.0000000000e+02 1.0566000000e-01 0.0000e+00 1.0000e+00
      994 -1    0    0    0    0 -0.0000000000e+00 -0.0000000000e+00 +0.0000000000e+00 1.3100000000e+02 1.3100000000e+02 0.0000e+00 0.0000e+00
       13  1    1    2    0    0 +2.1886301189e+01 +2.1123423973e+01 +8.3556468926e+01 8.8920773071e+01 1.0566000000e-01 0.0000e+00 -1.0000e+00
      994  1    1    2    0    0 +3.3083821330e+01 -1.3016917724e+01 +1.2691424179e+02 1.8582842665e+02 1.3100000000e+02 0.0000e+00 0.0000e+00
      997  1    1    2    0    0 -5.4970122519e+01 -8.1065062491e+00 +2.8952927812e+02 3.5625080028e+02 2.0000000000e+02 0.0000e+00 0.0000e+00
</event>
<event>
 5      1 +6.7420000e-10 2.44392200e+02 7.95774700e-02 4.39548800e-01
       13 -1    0    0    0    0 +0.0000000000e+00 +0.0000000000e+00 +4.9999998884e+02 5.0000000000e+02 1.0566000000e-01 0.0000e+00 -1.0000e+00
      994 -1    0    0    0    0 -0.0000000000e+00 -0.0000000000e+00 +0.0000000000e+00 1.3100000000e+02 1.3100000000e+02 0.0000e+00 0.0000e+00
       13  1    1    2    0    0 +2.6129212731e+01 +1.2777311941e+01 +4.1128343187e+01 5.0374073051e+01 1.0566000000e-01 0.0000e+00 1.0000e+00
      994  1    1    2    0    0 +4.8171564058e+01 +1.5445469330e+01 +1.7400277820e+02 2.2360015413e+02 1.3100000000e+02 0.0000e+00 0.0000e+00
      997  1    1    2    0    0 -7.4300776789e+01 -2.8222781271e+01 +2.8486886745e+02 3.5702577282e+02 2.0000000000e+02 0.0000e+00 0.0000e+00
</event>
<event>
 5      1 +6.7420000e-10 2.39896800e+02 7.95774700e-02 4.44763300e-01
       13 -1    0    0    0    0 +0.0000000000e+00 +0.0000000000e+00 +4.9999998884e+02 5.0000000000e+02 1.0566000000e-01 0.0000e+00 1.0000e+00
      994 -1    0    0    0    0 -0.0000000000e+00 -0.0000000000e+00 +0.0000000000e+00 1.3100000000e+02 1.3100000000e+02 0.0000e+00 0.0000e+00
       13  1    1    2    0    0 -2.3731610048e+01 +1.5411875030e+01 +5.3424621184e+01 6.0455905585e+01 1.0566000000e-01 0.0000e+00 -1.0000e+00
      994  1    1    2    0    0 -2.0119134366e+01 -1.6386223820e+01 +9.5695024406e+01 1.6429189145e+02 1.3100000000e+02 0.0000e+00 0.0000e+00
      997  1    1    2    0    0 +4.3850744414e+01 +9.7434878990e-01 +3.5088034325e+02 4.0625220297e+02 2.0000000000e+02 0.0000e+00 0.0000e+00
</event>
<event>
 5      1 +6.7420000e-10 2.37286100e+02 7.95774700e-02 4.47899500e-01
       13 -1    0    0    0    0 +0.0000000000e+00 +0.0000000000e+00 +4.9999998884e+02 5.0000000000e+02 1.0566000000e-01 0.0000e+00 1.0000e+00
      994 -1    0    0    0    0 -0.0000000000e+00 -0.0000000000e+00 +0.0000000000e+00 1.3100000000e+02 1.3100000000e+02 0.0000e+00 0.0000e+00
       13  1    1    2    0    0 +1.3332421021e+01 -1.9899268630e+01 +3.5098135239e+01 4.2492641758e+01 1.0566000000e-01 0.0000e+00 -1.0000e+00
      994  1    1    2    0    0 +1.0458794093e+01 -7.1226142169e+00 +8.2122632653e+01 1.5512976762e+02 1.3100000000e+02 0.0000e+00 0.0000e+00
      997  1    1    2    0    0 -2.3791215114e+01 +2.7021882847e+01 +3.8277922094e+02 4.3337759062e+02 2.0000000000e+02 0.0000e+00 0.0000e+00
</event>
<event>
 5      1 +6.7420000e-10 2.32370200e+02 7.95774700e-02 4.54034500e-01
       13 -1    0    0    0    0 +0.0000000000e+00 +0.0000000000e+00 +4.9999998884e+02 5.0000000000e+02 1.0566000000e-01 0.0000e+00 1.0000e+00
      994 -1    0    0    0    0 -0.0000000000e+00 -0.0000000000e+00 +0.0000000000e+00 1.3100000000e+02 1.3100000000e+02 0.0000e+00 0.0000e+00
       13  1    1    2    0    0 -6.2769916196e+00 +1.7525062016e+01 +2.2449003024e+01 2.9163287251e+01 1.0566000000e-01 0.0000e+00 -1.0000e+00
      994  1    1    2    0    0 -5.3649075246e+01 -4.3700941744e+01 +1.3856228303e+02 2.0285093508e+02 1.3100000000e+02 0.0000e+00 0.0000e+00
      997  1    1    2    0    0 +5.9926066865e+01 +2.6175879728e+01 +3.3898870278e+02 3.9898577767e+02 2.0000000000e+02 0.0000e+00 0.0000e+00
</event>
<event>
 5      1 +6.7420000e-10 2.46701700e+02 7.95774700e-02 4.36956900e-01
       13 -1    0    0    0    0 +0.0000000000e+00 +0.0000000000e+00 +4.9999998884e+02 5.0000000000e+02 1.0566000000e-01 0.0000e+00 -1.0000e+00
      994 -1    0    0    0    0 -0.0000000000e+00 -0.0000000000e+00 +0.0000000000e+00 1.3100000000e+02 1.3100000000e+02 0.0000e+00 0.0000e+00
       13  1    1    2    0    0 +9.6509047498e+00 +3.3814258431e+01 +6.9771292098e+01 7.8131865463e+01 1.0566000000e-01 0.0000e+00 1.0000e+00
      994  1    1    2    0    0 +9.5268310822e+00 +1.8587583019e+01 +1.1591791067e+02 1.7616532226e+02 1.3100000000e+02 0.0000e+00 0.0000e+00
      997  1    1    2    0    0 -1.9177735832e+01 -5.2401841450e+01 +3.1431078606e+02 3.7670281227e+02 2.0000000000e+02 0.0000e+00 0.0000e+00
</event>
<event>
 5      1 +6.7420000e-10 2.46478000e+02 7.95774700e-02 4.37205400e-01
       13 -1    0    0    0    0 +0.0000000000e+00 +0.0000000000e+00 +4.9999998884e+02 5.0000000000e+02 1.0566000000e-01 0.0000e+00 -1.0000e+00
      994 -1    0    0    0    0 -0.0000000000e+00 -0.0000000000e+00 +0.0000000000e+00 1.3100000000e+02 1.3100000000e+02 0.0000e+00 0.0000e+00
       13  1    1    2    0    0 -1.6698526618e+01 +2.2055487556e+00 -8.1271950561e+00 1.8702077426e+01 1.0566000000e-01 0.0000e+00 1.0000e+00
      994  1    1    2    0    0 +4.4600449470e+01 -3.7941769226e+00 +1.8122751103e+02 2.2805264003e+02 1.3100000000e+02 0.0000e+00 0.0000e+00
      997  1    1    2    0    0 -2.7901922852e+01 +1.5886281670e+00 +3.2689967287e+02 3.8424528255e+02 2.0000000000e+02 0.0000e+00 0.0000e+00
</event>
<event>
 5      1 +6.7420000e-10 2.38419100e+02 7.95774700e-02 4.46528500e-01
       13 -1    0    0    0    0 +0.0000000000e+00 +0.0000000000e+00 +4.9999998884e+02 5.0000000000e+02 1.0566000000e-01 0.0000e+00 -1.0000e+00
      994 -1    0    0    0    0 -0.0000000000e+00 -0.0000000000e+00 +0.0000000000e+00 1.3100000000e+02 1.3100000000e+02 0.0000e+00 0.0000e+00
       13  1    1    2    0    0 -4.3858305416e+00 -2.0732181606e+01 +2.0863885097e+01 2.9738388138e+01 1.0566000000e-01 0.0000e+00 1.0000e+00
      994  1    1    2    0    0 +1.2814723443e+01 -4.6842570989e+01 +1.1805338450e+02 1.8290993736e+02 1.3100000000e+02 0.0000e+00 0.0000e+00
      997  1    1    2    0    0 -8.4288929011e+00 +6.7574752596e+01 +3.6108271924e+02 4.1835167450e+02 2.0000000000e+02 0.0000e+00 0.0000e+00
</event>
<event>
 5      1 +6.7420000e-10 2.41961600e+02 7.95774700e-02 4.42339700e-01
       13 -1    0    0    0    0 +0.0000000000e+00 +0.0000000000e+00 +4.9999998884e+02 5.0000000000e+02 1.0566000000e-01 0.0000e+00 1.0000e+00
      994 -1    0    0    0    0 -0.0000000000e+00 -0.0000000000e+00 +0.0000000000e+00 1.3100000000e+02 1.3100000000e+02 0.0000e+00 0.0000e+00
       13  1    1    2    0    0 +1.2079513313e+01 +3.4086112553e+01 +3.7445658479e+01 5.2057335831e+01 1.0566000000e-01 0.0000e+00 -1.0000e+00
      994  1    1    2    0    0 +2.6271706545e+01 -4.8564699857e+01 +1.6102618246e+02 2.1480028882e+02 1.3100000000e+02 0.0000e+00 0.0000e+00
      997  1    1    2    0    0 -3.8351219858e+01 +1.4478587303e+01 +3.0152814789e+02 3.6414237535e+02 2.0000000000e+02 0.0000e+00 0.0000e+00
</event>
<event>
 5      1 +6.7420000e-10 2.35182700e+02 7.95774700e-02 4.50487000e-01
       13 -1    0    0    0    0 +0.0000000000e+00 +0.0000000000e+00 +4.9999998884e+02 5.0000000000e+02 1.0566000000e-01 0.0000e+00 1.0000e+00
      994 -1    0    0    0    0 -0.0000000000e+00 -0.0000000000e+00 +0.0000000000e+00 1.3100000000e+02 1.3100000000e+02 0.0000e+00 0.0000e+00
       13  1    1    2    0    0 -1.6590797198e+00 -2.4138171976e+01 +2.6480724040e+01 3.5869817418e+01 1.0566000000e-01 0.0000e+00 -1.0000e+00
      994  1    1    2    0    0 +3.3610893482e+01 +3.4412221966e+01 +1.0553316809e+02 1.7496326114e+02 1.3100000000e+02 0.0000e+00 0.0000e+00
      997  1    1    2    0    0 -3.1951813762e+01 -1.0274049991e+01 +3.6798609671e+02 4.2016692144e+02 2.0000000000e+02 0.0000e+00 0.0000e+00
</event>
<event>
 5      1 +6.7420000e-10 2.37347600e+02 7.95774700e-02 4.47824700e-01
       13 -1    0    0    0    0 +0.0000000000e+00 +0.0000000000e+00 +4.9999998884e+02 5.0000000000e+02 1.0566000000e-01 0.0000e+00 1.0000e+00
      994 -1    0    0    0    0 -0.0000000000e+00 -0.0000000000e+00 +0.0000000000e+00 1.3100000000e+02 1.3100000000e+02 0.0000e+00 0.0000e+00
       13  1    1    2    0    0 -1.3901319736e+01 -1.6947454640e+01 +1.9964294474e+01 2.9648728928e+01 1.0566000000e-01 0.0000e+00 -1.0000e+00
      994  1    1    2    0    0 -4.4765633771e+00 -1.4158856441e+00 +8.0582772321e+01 1.5387211426e+02 1.3100000000e+02 0.0000e+00 0.0000e+00
      997  1    1    2    0    0 +1.8377883113e+01 +1.8363340284e+01 +3.9945292204e+02 4.4747915681e+02 2.0000000000e+02 0.0000e+00 0.0000e+00
</event>
<event>
 5      1 +6.7420000e-10 2.46090900e+02 7.95774700e-02 4.37636800e-01
       13 -1    0    0    0    0 +0.0000000000e+00 +0.0000000000e+00 +4.9999998884e+02 5.0000000000e+02 1.0566000000e-01 0.0000e+00 -1.0000e+00
      994 -1    0    0    0    0 -0.0000000000e+00 -0.0000000000e+00 +0.0000000000e+00 1.3100000000e+02 1.3100000000e+02 0.0000e+00 0.0000e+00
       13  1    1    2    0    0 +2.5784380701e+01 -1.7654217810e+01 +5.7592595714e+01 6.5524224068e+01 1.0566000000e-01 0.0000e+00 1.0000e+00
      994  1    1    2    0    0 +2.7154067850e+01 -3.4927063463e+01 +1.5996264484e+02 2.1143862208e+02 1.3100000000e+02 0.0000e+00 0.0000e+00
      997  1    1    2    0    0 -5.2938448552e+01 +5.2581281273e+01 +2.8244474828e+02 3.5403715385e+02 2.0000000000e+02 0.0000e+00 0.0000e+00
</event>
<event>
 5      1 +6.7420000e-10 2.45110300e+02 7.95774700e-02 4.38736700e-01
       13 -1    0    0    0    0 +0.0000000000e+00 +0.0000000000e+00 +4.9999998884e+02 5.0000000000e+02 1.0566000000e-01 0.0000e+00 -1.0000e+00
      994 -1    0    0    0    0 -0.0000000000e+00 -0.0000000000e+00 +0.0000000000e+00 1.3100000000e+02 1.3100000000e+02 0.0000e+00 0.0000e+00
       13  1    1    2    0    0 +3.7460275965e+01 +6.0932727631e+00 +3.3609472968e+01 5.0695247169e+01 1.0566000000e-01 0.0000e+00 1.0000e+00
      994  1    1    2    0    0 -3.0294399999e+01 +3.7487556582e+01 +1.6871832794e+02 2.1897475140e+02 1.3100000000e+02 0.0000e+00 0.0000e+00
      997  1    1    2    0    0 -7.1658759664e+00 -4.3580829345e+01 +2.9767218793e+02 3.6133000143e+02 2.0000000000e+02 0.0000e+00 0.0000e+00
</event>
<event>
 5      1 +6.7420000e-10 2.49997300e+02 7.95774700e-02 4.33355300e-01
       13 -1    0    0    0    0 +0.0000000000e+00 +0.0000000000e+00 +4.9999998884e+02 5.0000000000e+02 1.0566000000e-01 0.0000e+00 1.0000e+00
      994 -1    0    0    0    0 -0.0000000000e+00 -0.0000000000e+00 +0.0000000000e+00 1.3100000000e+02 1.3100000000e+02 0.0000e+00 0.0000e+00
       13  1    1    2    0    0 +3.3400008656e+01 +3.2907413511e+01 +4.9189583892e+01 6.7956491740e+01 1.0566000000e-01 0.0000e+00 -1.0000e+00
      994  1    1    2    0    0 -1.9647835185e+01 -1.8948458882e+01 +1.4699641065e+02 1.9878135291e+02 1.3100000000e+02 0.0000e+00 0.0000e+00
      997  1    1    2    0    0 -1.3752173471e+01 -1.3958954629e+01 +3.0381399429e+02 3.6426215535e+02 2.0000000000e+02 0.0000e+00 0.0000e+00
</event>
<event>
 5      1 +6.7420000e-10 2.40906800e+02 7.95774700e-02 4.43571600e-01
       13 -1    0    0    0    0 +0.0000000000e+00 +0.0000000000e+00 +4.9999998884e+02 5.0000000000e+02 1.0566000000e-01 0.0000e+00 1.0000e+00
      994 -1    0    0    0    0 -0.0000000000e+00 -0.0000000000e+00 +0.0000000000e+00 1.3100000000e+02 1.3100000000e+02 0.0000e+00 0.0000e+00
       13  1    1    2    0    0 -3.0403132947e+01 +1.1095480819e+01 +2.0732212466e+01 3.8435608299e+01 1.0566000000e-01 0.0000e+00 -1.0000e+00
      994  1    1    2    0    0 +4.3802191033e+01 -3.6811635098e+01 +1.5847617435e+02 2.1342311556e+02 1.3100000000e+02 0.0000e+00 0.0000e+00
      997  1    1    2    0    0 -1.3399058086e+01 +2.5716154280e+01 +3.2079160202e+02 3.7914127614e+02 2.0000000000e+02 0.0000e+00 0.0000e+00
</event>
<event>
 5      1 +6.7420000e-10 2.46226300e+02 7.95774700e-02 4.37485800e-01
       13 -1    0    0    0    0 +0.0000000000e+00 +0.0000000000e+00 +4.9999998884e+02 5.0000000000e+02 1.0566000000e-01 0.0000e+00 1.0000e+00
      994 -1    0    0    0    0 -0.0000000000e+00 -0.0000000000e+00 +0.0000000000e+00 1.3100000000e+02 1.3100000000e+02 0.0000e+00 0.0000e+00
       13  1    1    2    0    0 -6.0226638287e+00 +3.1018384878e+01 +2.9889964769e+01 4.3495216265e+01 1.0566000000e-01 0.0000e+00 -1.0000e+00
      994  1    1    2    0    0 -2.3193194579e+01 +3.0958648109e+01 +1.4075427189e+02 1.9613548180e+02 1.3100000000e+02 0.0000e+00 0.0000e+00
      997  1    1    2    0    0 +2.9215858408e+01 -6.1977032987e+01 +3.2935575218e+02 3.9136930193e+02 2.0000000000e+02 0.0000e+00 0.0000e+00
</event>
<event>
 5      1 +6.7420000e-10 2.48473200e+02 7.95774700e-02 4.35007000e-01
       13 -1    0    0    0    0 +0.0000000000e+00 +0.0000000000e+00 +4.9999998884e+02 5.0000000000e+02 1.0566000000e-01 0.0000e+00 1.0000e+00
      994 -1    0    0    0    0 -0.0000000000e+00 -0.0000000000e+00 +0.0000000000e+00 1.3100000000e+02 1.3100000000e+02 0.0000e+00 0.0000e+00
       13  1    1    2    0    0 +2.2338373443e+01 +1.3362247992e+00 +6.7535706306e-02 2.2378653889e+01 1.0566000000e-01 0.0000e+00 -1.0000e+00
      994  1    1    2    0    0 +1.3332709245e+01 +2.5836439848e+01 +1.3673005309e+02 1.9157606891e+02 1.3100000000e+02 0.0000e+00 0.0000e+00
      997  1    1    2    0    0 -3.5671082687e+01 -2.7172664647e+01 +3.6320240004e+02 4.1704527720e+02 2.0000000000e+02 0.0000e+00 0.0000e+00
</event>
<event>
 5      1 +6.7420000e-10 2.46249000e+02 7.95774700e-02 4.37460400e-01
       13 -1    0    0    0    0 +0.0000000000e+00 +0.0000000000e+00 +4.9999998884e+02 5.0000000000e+02 1.0566000000e-01 0.0000e+00 1.0000e+00
      994 -1    0    0    0    0 -0.0000000000e+00 -0.0000000000e+00 +0.0000000000e+00 1.3100000000e+02 1.3100000000e+02 0.0000e+00 0.0000e+00
       13  1    1    2    0    0 -1.8208045646e+01 +3.1447365037e+01 +5.9299830592e+01 6.9548190245e+01 1.0566000000e-01 0.0000e+00 -1.0000e+00
      994  1    1    2    0    0 -1.6445374961e+01 +5.3448669875e+00 +1.1118289645e+02 1.7268947398e+02 1.3100000000e+02 0.0000e+00 0.0000e+00
      997  1    1    2    0    0 +3.4653420607e+01 -3.6792232025e+01 +3.2951726179e+02 3.8876233577e+02 2.0000000000e+02 0.0000e+00 0.0000e+00
</event>
<event>
 5      1 +6.7420000e-10 2.39466700e+02 7.95774700e-02 4.45274400e-01
       13 -1    0    0    0    0 +0.0000000000e+00 +0.0000000000e+00 +4.9999998884e+02 5.0000000000e+02 1.0566000000e-01 0.0000e+00 -1.0000e+00
      994 -1    0    0    0    0 -0.0000000000e+00 -0.0000000000e+00 +0.0000000000e+00 1.3100000000e+02 1.3100000000e+02 0.0000e+00 0.0000e+00
       13  1    1    2    0    0 -3.0792133795e+01 -1.2831893596e+01 +6.8923970773e+01 7.6572435694e+01 1.0566000000e-01 0.0000e+00 1.0000e+00
      994  1    1    2    0    0 +3.2921849670e+01 +1.9594990067e+01 +1.0653095147e+02 1.7314056556e+02 1.3100000000e+02 0.0000e+00 0.0000e+00
      997  1    1    2    0    0 -2.1297158747e+00 -6.7630964713e+00 +3.2454506659e+02 3.8128699874e+02 2.0000000000e+02 0.0000e+00 0.0000e+00
</event>
<event>
 5      1 +6.7420000e-10 2.32837200e+02 7.95774700e-02 4.53438300e-01
       13 -1    0    0    0    0 +0.0000000000e+00 +0.0000000000e+00 +4.9999998884e+02 5.0000000000e+02 1.0566000000e-01 0.0000e+00 1.0000e+00
      994 -1    0    0    0    0 -0.0000000000e+00 -0.0000000000e+00 +0.0000000000e+00 1.3100000000e+02 1.3100000000e+02 0.0000e+00 0.0000e+00
       13  1    1    2    0    0 +7.6359691563e+00 -7.7456150856e+00 +1.6495539715e+00 1.1001580357e+01 1.0566000000e-01 0.0000e+00 -1.0000e+00
      994  1    1    2    0    0 +7.3953573720e+00 +4.5476166966e+01 +9.5905144165e+01 1.6876483564e+02 1.3100000000e+02 0.0000e+00 0.0000e+00
      997  1    1    2    0    0 -1.5031326528e+01 -3.7730551881e+01 +4.0244529070e+02 4.5123358400e+02 2.0000000000e+02 0.0000e+00 0.0000e+00
</event>
<event>
 5      1 +6.7420000e-10 2.29740500e+02 7.95774700e-02 4.57446400e-01
       13 -1    0    0    0    0 +0.0000000000e+00 +0.0000000000e+00 +4.9999998884e+02 5.0000000000e+02 1.0566000000e-01 0.0000e+00 1.0000e+00
      994 -1    0    0    0    0 -0.0000000000e+00 -0.0000000000e+00 +0.0000000000e+00 1.3100000000e+02 1.3100000000e+02 0.0000e+00 0.0000e+00
       13  1    1    2    0    0 +1.8442441164e+00 +1.1373537870e+01 +1.4694930575e+01 1.8673798453e+01 1.0566000000e-01 0.0000e+00 -1.0000e+00
      994  1    1    2    0    0 -6.2258201044e+01 +3.4390108607e+01 +1.3087255560e+02 1.9836176289e+02 1.3100000000e+02 0.0000e+00 0.0000e+00
      997  1    1    2    0    0 +6.0413956927e+01 -4.5763646477e+01 +3.5443250266e+02 4.1396443866e+02 2.0000000000e+02 0.0000e+00 0.0000e+00
</event>
<event>
 5      1 +6.7420000e-10 2.35462600e+02 7.95774700e-02 4.50139400e-01
       13 -1    0    0    0    0 +0.0000000000e+00 +0.0000000000e+00 +4.9999998884e+02 5.0000000000e+02 1.0566000000e-01 0.0000e+00 1.0000e+00
      994 -1    0    0    0    0 -0.0000000000e+00 -0.0000000000e+00 +0.0000000000e+00 1.3100000000e+02 1.3100000000e+02 0.0000e+00 0.0000e+00
       13  1    1    2    0    0 +2.1164944438e+01 -7.6451605816e+00 +3.7062483581e+01 4.3359453485e+01 1.0566000000e-01 0.0000e+00 -1.0000e+00
      994  1    1    2    0    0 -1.1667238833e+00 -9.6333461031e+00 +7.7281290780e+01 1.5240590706e+02 1.3100000000e+02 0.0000e+00 0.0000e+00
      997  1    1    2    0    0 -1.9998220554e+01 +1.7278506685e+01 +3.8565621448e+02 4.3523463946e+02 2.0000000000e+02 0.0000e+00 0.0000e+00
</event>
<event>
 5      1 +6.7420000e-10 2.31983200e+02 7.95774700e-02 4.54530700e-01
       13 -1    0    0    0    0 +0.0000000000e+00 +0.0000000000e+00 +4.9999998884e+02 5.0000000000e+02 1.0566000000e-01 0.0000e+00 1.0000e+00
      994 -1    0    0    0    0 -0.0000000000e+00 -0.0000000000e+00 +0.0000000000e+00 1.3100000000e+02 1.3100000000e+02 0.0000e+00 0.0000e+00
       13  1    1    2    0    0 +7.8651369928e+00 +1.7475277735e+01 +5.6654713117e+01 5.9808138194e+01 1.0566000000e-01 0.0000e+00 -1.0000e+00
      994  1    1    2    0    0 -2.7715447142e+01 -4.2416367921e+01 +9.9477252208e+01 1.7211629204e+02 1.3100000000e+02 0.0000e+00 0.0000e+00
      997  1    1    2    0    0 +1.9850310149e+01 +2.4941090186e+01 +3.4386802351e+02 3.9907556977e+02 2.0000000000e+02 0.0000e+00 0.0000e+00
</event>
<event>
 5      1 +6.7420000e-10 2.44906500e+02 7.95774700e-02 4.38966700e-01
       13 -1    0    0    0    0 +0.0000000000e+00 +0.0000000000e+00 +4.9999998884e+02 5.0000000000e+02 1.0566000000e-01 0.0000e+00 1.0000e+00
      994 -1    0    0    0    0 -0.0000000000e+00 -0.0000000000e+00 +0.0000000000e+00 1.3100000000e+02 1.3100000000e+02 0.0000e+00 0.0000e+00
       13  1    1    2    0    0 +2.0711190186e+01 -3.3292898541e+01 +5.0829991907e+01 6.4195558518e+01 1.0566000000e-01 0.0000e+00 -1.0000e+00
      994  1    1    2    0    0 -2.0743928218e+01 +1.2227726484e+01 +1.1113129589e+02 1.7346755541e+02 1.3100000000e+02 0.0000e+00 0.0000e+00
      997  1    1    2    0    0 +3.2738032500e-02 +2.1065172058e+01 +3.3803870104e+02 3.9333688608e+02 2.0000000000e+02 0.0000e+00 0.0000e+00
</event>
<event>
 5      1 +6.7420000e-10 2.44133600e+02 7.95774700e-02 4.39842700e-01
       13 -1    0    0    0    0 +0.0000000000e+00 +0.0000000000e+00 +4.9999998884e+02 5.0000000000e+02 1.0566000000e-01 0.0000e+00 1.0000e+00
      994 -1    0    0    0    0 -0.0000000000e+00 -0.0000000000e+00 +0.0000000000e+00 1.3100000000e+02 1.3100000000e+02 0.0000e+00 0.0000e+00
       13  1    1    2    0    0 +1.6523634691e+01 +1.0701809027e+01 -4.2821970036e+00 2.0147148559e+01 1.0566000000e-01 0.0000e+00 -1.0000e+00
      994  1    1    2    0    0 -4.1002765371e+01 -3.1213404244e+01 +1.7983404715e+02 2.2837860646e+02 1.3100000000e+02 0.0000e+00 0.0000e+00
      997  1    1    2    0    0 +2.4479130680e+01 +2.0511595217e+01 +3.2444813869e+02 3.8247424498e+02 2.0000000000e+02 0.0000e+00 0.0000e+00
</event>
<event>
 5      1 +6.7420000e-10 2.43291500e+02 7.95774700e-02 4.40804500e-01
       13 -1    0    0    0    0 +0.0000000000e+00 +0.0000000000e+00 +4.9999998884e+02 5.0000000000e+02 1.0566000000e-01 0.0000e+00 1.0000e+00
      994 -1    0    0    0    0 -0.0000000000e+00 -0.0000000000e+00 +0.0000000000e+00 1.3100000000e+02 1.3100000000e+02 0.0000e+00 0.0000e+00
       13  1    1    2    0    0 -6.4920220805e+00 +2.5858838856e+01 +2.1478089471e+01 3.4236608901e+01 1.0566000000e-01 0.0000e+00 -1.0000e+00
      994  1    1    2    0    0 +1.6877485173e+01 +4.5191926650e+01 +1.4484478487e+02 2.0116702375e+02 1.3100000000e+02 0.0000e+00 0.0000e+00
      997  1    1    2    0    0 -1.0385463092e+01 -7.1050765506e+01 +3.3367711450e+02 3.9559636735e+02 2.0000000000e+02 0.0000e+00 0.0000e+00
</event>
<event>
 5      1 +6.7420000e-10 2.29287000e+02 7.95774700e-02 4.58044500e-01
       13 -1    0    0    0    0 +0.0000000000e+00 +0.0000000000e+00 +4.9999998884e+02 5.0000000000e+02 1.0566000000e-01 0.0000e+00 -1.0000e+00
      994 -1    0    0    0    0 -0.0000000000e+00 -0.0000000000e+00 +0.0000000000e+00 1.3100000000e+02 1.3100000000e+02 0.0000e+00 0.0000e+00
       13  1    1    2    0    0 -1.0187369816e+01 -2.0184335136e+00 +5.9389728394e+00 1.1964077066e+01 1.0566000000e-01 0.0000e+00 1.0000e+00
      994  1    1    2    0    0 +3.8839879275e+01 +3.9358782217e+00 +8.0192222496e+01 1.5847971450e+02 1.3100000000e+02 0.0000e+00 0.0000e+00
      997  1    1    2    0    0 -2.8652509459e+01 -1.9174447080e+00 +4.1386879350e+02 4.6055620843e+02 2.0000000000e+02 0.0000e+00 0.0000e+00
</event>
<event>
 5      1 +6.7420000e-10 2.32799400e+02 7.95774700e-02 4.53486500e-01
       13 -1    0    0    0    0 +0.0000000000e+00 +0.0000000000e+00 +4.9999998884e+02 5.0000000000e+02 1.0566000000e-01 0.0000e+00 1.0000e+00
      994 -1    0    0    0    0 -0.0000000000e+00 -0.0000000000e+00 +0.0000000000e+00 1.3100000000e+02 1.3100000000e+02 0.0000e+00 0.0000e+00
       13  1    1    2    0    0 +8.8632989140e+00 +2.2307742018e+01 +2.8640784326e+01 3.7369762006e+01 1.0566000000e-01 0.0000e+00 -1.0000e+00
      994  1    1    2    0    0 -2.2222945544e+01 -6.1045821177e+01 +1.2885822099e+02 1.9489969909e+02 1.3100000000e+02 0.0000e+00 0.0000e+00
      997  1    1    2    0    0 +1.3359646630e+01 +3.8738079159e+01 +3.4250098353e+02 3.9873053890e+02 2.0000000000e+02 0.0000e+00 0.0000e+00
</event>
<event>
 5      1 +6.7420000e-10 2.34652300e+02 7.95774700e-02 4.51148100e-01
       13 -1    0    0    0    0 +0.0000000000e+00 +0.0000000000e+00 +4.9999998884e+02 5.0000000000e+02 1.0566000000e-01 0.0000e+00 -1.0000e+00
      994 -1    0    0    0    0 -0.0000000000e+00 -0.0000000000e+00 +0.0000000000e+00 1.3100000000e+02 1.3100000000e+02 0.0000e+00 0.0000e+00
       13  1    1    2    0    0 +4.1829737954e+00 +9.5567252999e+00 +3.7990467948e-01 1.0439528717e+01 1.0566000000e-01 0.0000e+00 1.0000e+00
      994  1    1    2    0    0 +1.5990527956e+01 -7.3247075824e+00 +7.8016063756e+01 1.5348242417e+02 1.3100000000e+02 0.0000e+00 0.0000e+00
      997  1    1    2    0    0 -2.0173501751e+01 -2.2320177176e+00 +4.2160402040e+02 4.6707804711e+02 2.0000000000e+02 0.0000e+00 0.0000e+00
</event>
<event>
 5      1 +6.7420000e-10 2.36055100e+02 7.95774700e-02 4.49407100e-01
       13 -1    0    0    0    0 +0.0000000000e+00 +0.0000000000e+00 +4.9999998884e+02 5.0000000000e+02 1.0566000000e-01 0.0000e+00 -1.0000e+00
      994 -1    0    0    0    0 -0.0000000000e+00 -0.0000000000e+00 +0.0000000000e+00 1.3100000000e+02 1.3100000000e+02 0.0000e+00 0.0000e+00
       13  1    1    2    0    0 +5.0495296931e+00 -1.7827052620e+01 +7.1430493555e+00 1.9857891967e+01 1.0566000000e-01 0.0000e+00 1.0000e+00
      994  1    1    2    0    0 -5.0039547818e+01 +2.6641227022e+01 +1.2410664866e+02 1.8914854365e+02 1.3100000000e+02 0.0000e+00 0.0000e+00
      997  1    1    2    0    0 +4.4990018125e+01 -8.8141744016e+00 +3.6875029082e+02 4.2199356438e+02 2.0000000000e+02 0.0000e+00 0.0000e+00
</event>
<event>
 5      1 +6.7420000e-10 2.44284800e+02 7.95774700e-02 4.39670700e-01
       13 -1    0    0    0    0 +0.0000000000e+00 +0.0000000000e+00 +4.9999998884e+02 5.0000000000e+02 1.0566000000e-01 0.0000e+00 -1.0000e+00
      994 -1    0    0    0    0 -0.0000000000e+00 -0.0000000000e+00 +0.0000000000e+00 1.3100000000e+02 1.3100000000e+02 0.0000e+00 0.0000e+00
       13  1    1    2    0    0 +2.6538238944e+01 -1.5281689700e+01 +4.0212521541e+01 5.0545684475e+01 1.0566000000e-01 0.0000e+00 1.0000e+00
      994  1    1    2    0    0 +4.5305353784e+01 +9.7164276543e+00 +1.4716194779e+02 2.0239719100e+02 1.3100000000e+02 0.0000e+00 0.0000e+00
      997  1    1    2    0    0 -7.1843592727e+01 +5.5652620457e+00 +3.1262551950e+02 3.7805712452e+02 2.0000000000e+02 0.0000e+00 0.0000e+00
</event>
<event>
 5      1 +6.7420000e-10 2.40292800e+02 7.95774700e-02 4.44294700e-01
       13 -1    0    0    0    0 +0.0000000000e+00 +0.0000000000e+00 +4.9999998884e+02 5.0000000000e+02 1.0566000000e-01 0.0000e+00 -1.0000e+00
      994 -1    0    0    0    0 -0.0000000000e+00 -0.0000000000e+00 +0.0000000000e+00 1.3100000000e+02 1.3100000000e+02 0.0000e+00 0.0000e+00
       13  1    1    2    0    0 +9.7802502696e+00 -1.5701878456e+01 +6.6703443596e+00 1.9664865631e+01 1.0566000000e-01 0.0000e+00 1.0000e+00
      994  1    1    2    0    0 +3.5903260762e+01 -1.9920083828e+01 +1.1329268713e+02 1.7799462585e+02 1.3100000000e+02 0.0000e+00 0.0000e+00
      997  1    1    2    0    0 -4.5683511032e+01 +3.5621962284e+01 +3.8003695735e+02 4.3334050852e+02 2.0000000000e+02 0.0000e+00 0.0000e+00
</event>
<event>
 5      1 +6.7420000e-10 2.46641800e+02 7.95774700e-02 4.37023400e-01
       13 -1    0    0    0    0 +0.0000000000e+00 +0.0000000000e+00 +4.9999998884e+02 5.0000000000e+02 1.0566000000e-01 0.0000e+00 1.0000e+00
      994 -1    0    0    0    0 -0.0000000000e+00 -0.0000000000e+00 +0.0000000000e+00 1.3100000000e+02 1.3100000000e+02 0.0000e+00 0.0000e+00
       13  1    1    2    0    0 +2.7830950911e+01 -1.2591787216e+01 +1.1907334443e+01 3.2785830956e+01 1.0566000000e-01 0.0000e+00 -1.0000e+00
      994  1    1    2    0    0 -2.3564193801e+01 -3.6538887339e+01 +1.6603441908e+02 2.1591384818e+02 1.3100000000e+02 0.0000e+00 0.0000e+00
      997  1    1    2    0    0 -4.2667571099e+00 +4.9130674556e+01 +3.2205823531e+02 3.8230032086e+02 2.0000000000e+02 0.0000e+00 0.0000e+00
</event>
<event>
 5      1 +6.7420000e-10 2.36640300e+02 7.95774700e-02 4.48688100e-01
       13 -1    0    0    0    0 +0.0000000000e+00 +0.0000000000e+00 +4.9999998884e+02 5.0000000000e+02 1.0566000000e-01 0.0000e+00 -1.0000e+00
      994 -1    0    0    0    0 -0.0000000000e+00 -0.0000000000e+00 +0.0000000000e+00 1.3100000000e+02 1.3100000000e+02 0.0000e+00 0.0000e+00
       13  1    1    2    0    0 -8.6114278372e+00 -1.8628478846e+01 +7.7098673294e+00 2.1923278308e+01 1.0566000000e-01 0.0000e+00 1.0000e+00
      994  1    1    2    0    0 +3.1819337959e+01 +4.7865163469e+01 +1.2866679471e+02 1.9240501086e+02 1.3100000000e+02 0.0000e+00 0.0000e+00
      997  1    1    2    0    0 -2.3207910122e+01 -2.9236684623e+01 +3.6362332679e+02 4.1667171083e+02 2.0000000000e+02 0.0000e+00 0.0000e+00
</event>
<event>
 5      1 +6.7420000e-10 2.38938200e+02 7.95774700e-02 4.45905500e-01
       13 -1    0    0    0    0 +0.0000000000e+00 +0.0000000000e+00 +4.9999998884e+02 5.0000000000e+02 1.0566000000e-01 0.0000e+00 -1.0000e+00
      994 -1    0    0    0    0 -0.0000000000e+00 -0.0000000000e+00 +0.0000000000e+00 1.3100000000e+02 1.3100000000e+02 0.0000e+00 0.0000e+00
       13  1    1    2    0    0 +1.7990300060e+01 +1.6650741342e+01 +1.0154275411e+01 2.6533348011e+01 1.0566000000e-01 0.0000e+00 1.0000e+00
      994  1    1    2    0    0 +1.0985343500e+01 +9.1090182887e+00 +2.9258957894e+02 3.2089455229e+02 1.3100000000e+02 0.0000e+00 0.0000e+00
      997  1    1    2    0    0 -2.8975643560e+01 -2.5759759631e+01 +1.9725613449e+02 2.8357209970e+02 2.0000000000e+02 0.0000e+00 0.0000e+00
</event>
<event>
 5      1 +6.7420000e-10 2.35644700e+02 7.95774700e-02 4.49913900e-01
       13 -1    0    0    0    0 +0.0000000000e+00 +0.0000000000e+00 +4.9999998884e+02 5.0000000000e+02 1.0566000000e-01 0.0000e+00 1.0000e+00
      994 -1    0    0    0    0 -0.0000000000e+00 -0.0000000000e+00 +0.0000000000e+00 1.3100000000e+02 1.3100000000e+02 0.0000e+00 0.0000e+00
       13  1    1    2    0    0 +7.6130543174e-01 -1.1445362621e+01 +8.4902215318e-01 1.1502517731e+01 1.0566000000e-01 0.0000e+00 -1.0000e+00
      994  1    1    2    0    0 -3.3939110384e+01 -2.1114938368e+01 +9.6593823795e+01 1.6759794340e+02 1.3100000000e+02 0.0000e+00 0.0000e+00
      997  1    1    2    0    0 +3.3177804952e+01 +3.2560300990e+01 +4.0255714289e+02 4.5189953887e+02 2.0000000000e+02 0.0000e+00 0.0000e+00
</event>
<event>
 5      1 +6.7420000e-10 2.35125300e+02 7.95774700e-02 4.50558300e-01
       13 -1    0    0    0    0 +0.0000000000e+00 +0.0000000000e+00 +4.9999998884e+02 5.0000000000e+02 1.0566000000e-01 0.0000e+00 -1.0000e+00
      994 -1    0    0    0    0 -0.0000000000e+00 -0.0000000000e+00 +0.0000000000e+00 1.3100000000e+02 1.3100000000e+02 0.0000e+00 0.0000e+00
       13  1    1    2    0    0 +2.4813020527e+00 +2.1490160000e+01 +4.5596137870e+01 5.0467839159e+01 1.0566000000e-01 0.0000e+00 1.0000e+00
      994  1    1    2    0    0 -3.1770784167e+01 +7.1120697563e+00 +8.8127563088e+01 1.6120617742e+02 1.3100000000e+02 0.0000e+00 0.0000e+00
      997  1    1    2    0    0 +2.9289482114e+01 -2.8602229756e+01 +3.6627628788e+02 4.1932598342e+02 2.0000000000e+02 0.0000e+00 0.0000e+00
</event>
<event>
 5      1 +6.7420000e-10 2.30149700e+02 7.95774700e-02 4.56909400e-01
       13 -1    0    0    0    0 +0.0000000000e+00 +0.0000000000e+00 +4.9999998884e+02 5.0000000000e+02 1.0566000000e-01 0.0000e+00 1.0000e+00
      994 -1    0    0    0    0 -0.0000000000e+00 -0.0000000000e+00 +0.0000000000e+00 1.3100000000e+02 1.3100000000e+02 0.0000e+00 0.0000e+00
       13  1    1    2    0    0 +1.1435665160e+01 -3.8434434093e+00 +1.5311443019e+01 1.9493536012e+01 1.0566000000e-01 0.0000e+00 -1.0000e+00
      994  1    1    2    0    0 +3.3876048991e+01 +2.3895067470e+01 +8.4275753777e+01 1.6118921682e+02 1.3100000000e+02 0.0000e+00 0.0000e+00
      997  1    1    2    0    0 -4.5311714151e+01 -2.0051624061e+01 +4.0041279204e+02 4.5031724717e+02 2.0000000000e+02 0.0000e+00 0.0000e+00
</event>
<event>
 5      1 +6.7420000e-10 2.47830200e+02 7.95774700e-02 4.35711000e-01
       13 -1    0    0    0    0 +0.0000000000e+00 +0.0000000000e+00 +4.9999998884e+02 5.0000000000e+02 1.0566000000e-01 0.0000e+00 1.0000e+00
      994 -1    0    0    0    0 -0.0000000000e+00 -0.0000000000e+00 +0.0000000000e+00 1.3100000000e+02 1.3100000000e+02 0.0000e+00 0.0000e+00
       13  1    1    2    0    0 -1.3601618832e+01 -1.6695245459e+01 +6.9070364888e-01 2.1545846267e+01 1.0566000000e-01 0.0000e+00 -1.0000e+00
      994  1    1    2    0    0 -8.5722219829e+00 -2.2690306148e+01 +1.2511956233e+02 1.8276826273e+02 1.3100000000e+02 0.0000e+00 0.0000e+00
      997  1    1    2    0    0 +2.2173840814e+01 +3.9385551607e+01 +3.7418972286e+02 4.2668589100e+02 2.0000000000e+02 0.0000e+00 0.0000e+00
</event>
<event>
 5      1 +6.7420000e-10 2.28417600e+02 7.95774700e-02 4.59198900e-01
       13 -1    0    0    0    0 +0.0000000000e+00 +0.0000000000e+00 +4.9999998884e+02 5.0000000000e+02 1.0566000000e-01 0.0000e+00 -1.0000e+00
      994 -1    0    0    0    0 -0.0000000000e+00 -0.0000000000e+00 +0.0000000000e+00 1.3100000000e+02 1.3100000000e+02 0.0000e+00 0.0000e+00
       13  1    1    2    0    0 -1.3840531369e+01 +4.5039538365e+00 +3.3933073723e+01 3.6923035697e+01 1.0566000000e-01 0.0000e+00 1.0000e+00
      994  1    1    2    0    0 +7.6335471223e+01 +3.7089283784e+00 +1.4000764153e+02 2.0640736422e+02 1.3100000000e+02 0.0000e+00 0.0000e+00
      997  1    1    2    0    0 -6.2494939854e+01 -8.2128822149e+00 +3.2605927358e+02 3.8766960008e+02 2.0000000000e+02 0.0000e+00 0.0000e+00
</event>
<event>
 5      1 +6.7420000e-10 2.45681000e+02 7.95774700e-02 4.38095300e-01
       13 -1    0    0    0    0 +0.0000000000e+00 +0.0000000000e+00 +4.9999998884e+02 5.0000000000e+02 1.0566000000e-01 0.0000e+00 1.0000e+00
      994 -1    0    0    0    0 -0.0000000000e+00 -0.0000000000e+00 +0.0000000000e+00 1.3100000000e+02 1.3100000000e+02 0.0000e+00 0.0000e+00
       13  1    1    2    0    0 -8.5104204140e+00 -3.5034511916e+01 +3.1349650224e+01 4.7777149496e+01 1.0566000000e-01 0.0000e+00 -1.0000e+00
      994  1    1    2    0    0 +3.7910325459e+01 +4.1203378479e+00 +1.3533258223e+02 1.9217200049e+02 1.3100000000e+02 0.0000e+00 0.0000e+00
      997  1    1    2    0    0 -2.9399905045e+01 +3.0914174068e+01 +3.3331775638e+02 3.9105085001e+02 2.0000000000e+02 0.0000e+00 0.0000e+00
</event>
<event>
 5      1 +6.7420000e-10 2.30207600e+02 7.95774700e-02 4.56833500e-01
       13 -1    0    0    0    0 +0.0000000000e+00 +0.0000000000e+00 +4.9999998884e+02 5.0000000000e+02 1.0566000000e-01 0.0000e+00 -1.0000e+00
      994 -1    0    0    0    0 -0.0000000000e+00 -0.0000000000e+00 +0.0000000000e+00 1.3100000000e+02 1.3100000000e+02 0.0000e+00 0.0000e+00
       13  1    1    2    0    0 -1.3163022625e+01 -6.0097254568e+00 +1.4997928735e+01 2.0840609278e+01 1.0566000000e-01 0.0000e+00 1.0000e+00
      994  1    1    2    0    0 +2.9955727400e+01 -4.6136947679e+01 +3.0132497229e+02 3.3314216555e+02 1.3100000000e+02 0.0000e+00 0.0000e+00
      997  1    1    2    0    0 -1.6792704775e+01 +5.2146673136e+01 +1.8367708781e+02 2.7701722517e+02 2.0000000000e+02 0.0000e+00 0.0000e+00
</event>
<event>
 5      1 +6.7420000e-10 2.31051000e+02 7.95774700e-02 4.55734400e-01
       13 -1    0    0    0    0 +0.0000000000e+00 +0.0000000000e+00 +4.9999998884e+02 5.0000000000e+02 1.0566000000e-01 0.0000e+00 -1.0000e+00
      994 -1    0    0    0    0 -0.0000000000e+00 -0.0000000000e+00 +0.0000000000e+00 1.3100000000e+02 1.3100000000e+02 0.0000e+00 0.0000e+00
       13  1    1    2    0    0 -4.9777116644e+00 -1.7159670743e+01 +1.8567013182e+01 2.5767752249e+01 1.0566000000e-01 0.0000e+00 1.0000e+00
      994  1    1    2    0    0 +2.3139432760e+01 +4.7850703763e+01 +1.0030711669e+02 1.7334255351e+02 1.3100000000e+02 0.0000e+00 0.0000e+00
      997  1    1    2    0    0 -1.8161721096e+01 -3.0691033020e+01 +3.8112585896e+02 4.3188969424e+02 2.0000000000e+02 0.0000e+00 0.0000e+00
</event>
<event>
 5      1 +6.7420000e-10 2.30144500e+02 7.95774700e-02 4.56916100e-01
       13 -1    0    0    0    0 +0.0000000000e+00 +0.0000000000e+00 +4.9999998884e+02 5.0000000000e+02 1.0566000000e-01 0.0000e+00 1.0000e+00
      994 -1    0    0    0    0 -0.0000000000e+00 -0.0000000000e+00 +0.0000000000e+00 1.3100000000e+02 1.3100000000e+02 0.0000e+00 0.0000e+00
       13  1    1    2    0    0 +2.3338645393e+00 +9.7692215012e+00 +6.1697802768e+00 1.1788212974e+01 1.0566000000e-01 0.0000e+00 -1.0000e+00
      994  1    1    2    0    0 +4.6197866615e+00 +4.6718557187e+00 +6.6359788117e+01 1.4699588478e+02 1.3100000000e+02 0.0000e+00 0.0000e+00
      997  1    1    2    0    0 -6.9536512009e+00 -1.4441077220e+01 +4.2747042044e+02 4.7221590224e+02 2.0000000000e+02 0.0000e+00 0.0000e+00
</event>
<event>
 5      1 +6.7420000e-10 2.35588300e+02 7.95774700e-02 4.49983700e-01
       13 -1    0    0    0    0 +0.0000000000e+00 +0.0000000000e+00 +4.9999998884e+02 5.0000000000e+02 1.0566000000e-01 0.0000e+00 1.0000e+00
      994 -1    0    0    0    0 -0.0000000000e+00 -0.0000000000e+00 +0.0000000000e+00 1.3100000000e+02 1.3100000000e+02 0.0000e+00 0.0000e+00
       13  1    1    2    0    0 +3.4139066284e+00 -2.5674927581e+01 +2.6665269672e+01 3.7173975244e+01 1.0566000000e-01 0.0000e+00 -1.0000e+00
      994  1    1    2    0    0 -2.0517318315e+00 +4.8622172026e+01 +1.0770121808e+02 1.7643377679e+02 1.3100000000e+02 0.0000e+00 0.0000e+00
      997  1    1    2    0    0 -1.3621747969e+00 -2.2947244444e+01 +3.6563350108e+02 4.1739224797e+02 2.0000000000e+02 0.0000e+00 0.0000e+00
</event>
<event>
 5      1 +6.7420000e-10 2.36048800e+02 7.95774700e-02 4.49414800e-01
       13 -1    0    0    0    0 +0.0000000000e+00 +0.0000000000e+00 +4.9999998884e+02 5.0000000000e+02 1.0566000000e-01 0.0000e+00 -1.0000e+00
      994 -1    0    0    0    0 -0.0000000000e+00 -0.0000000000e+00 +0.0000000000e+00 1.3100000000e+02 1.3100000000e+02 0.0000e+00 0.0000e+00
       13  1    1    2    0    0 +1.7051940296e+01 +1.8557151514e+00 +5.0431070170e+00 1.7878938420e+01 1.0566000000e-01 0.0000e+00 1.0000e+00
      994  1    1    2    0    0 -2.1091832758e+01 -6.0138836929e+01 +1.4313914399e+02 2.0423359092e+02 1.3100000000e+02 0.0000e+00 0.0000e+00
      997  1    1    2    0    0 +4.0398924612e+00 +5.8283121778e+01 +3.5181773783e+02 4.0888747066e+02 2.0000000000e+02 0.0000e+00 0.0000e+00
</event>
<event>
 5      1 +6.7420000e-10 2.46359200e+02 7.95774700e-02 4.37337700e-01
       13 -1    0    0    0    0 +0.0000000000e+00 +0.0000000000e+00 +4.9999998884e+02 5.0000000000e+02 1.0566000000e-01 0.0000e+00 1.0000e+00
      994 -1    0    0    0    0 -0.0000000000e+00 -0.0000000000e+00 +0.0000000000e+00 1.3100000000e+02 1.3100000000e+02 0.0000e+00 0.0000e+00
       13  1    1    2    0    0 -1.6030912177e+01 -2.9384515851e+01 +2.3743472685e+01 4.1039049407e+01 1.0566000000e-01 0.0000e+00 -1.0000e+00
      994  1    1    2    0    0 +1.8802991540e+01 -2.1792359639e+00 +1.1281336095e+02 1.7391422014e+02 1.3100000000e+02 0.0000e+00 0.0000e+00
      997  1    1    2    0    0 -2.7720793631e+00 +3.1563751815e+01 +3.6344315520e+02 4.1604673045e+02 2.0000000000e+02 0.0000e+00 0.0000e+00
</event>
<event>
 5      1 +6.7420000e-10 2.37556900e+02 7.95774700e-02 4.47570400e-01
       13 -1    0    0    0    0 +0.0000000000e+00 +0.0000000000e+00 +4.9999998884e+02 5.0000000000e+02 1.0566000000e-01 0.0000e+00 1.0000e+00
      994 -1    0    0    0    0 -0.0000000000e+00 -0.0000000000e+00 +0.0000000000e+00 1.3100000000e+02 1.3100000000e+02 0.0000e+00 0.0000e+00
       13  1    1    2    0    0 +1.9074808336e+01 -2.2270768971e+01 +4.1549206546e+01 5.0854529712e+01 1.0566000000e-01 0.0000e+00 -1.0000e+00
      994  1    1    2    0    0 -1.8401642347e+01 +2.5584249127e+01 +9.3596131439e+01 1.6405611864e+02 1.3100000000e+02 0.0000e+00 0.0000e+00
      997  1    1    2    0    0 -6.7316598914e-01 -3.3134801566e+00 +3.6485465085e+02 4.1608935164e+02 2.0000000000e+02 0.0000e+00 0.0000e+00
</event>
<event>
 5      1 +6.7420000e-10 2.39077600e+02 7.95774700e-02 4.45738600e-01
       13 -1    0    0    0    0 +0.0000000000e+00 +0.0000000000e+00 +4.9999998884e+02 5.0000000000e+02 1.0566000000e-01 0.0000e+00 1.0000e+00
      994 -1    0    0    0    0 -0.0000000000e+00 -0.0000000000e+00 +0.0000000000e+00 1.3100000000e+02 1.3100000000e+02 0.0000e+00 0.0000e+00
       13  1    1    2    0    0 +3.2709847161e+01 -1.1789095695e+01 +3.3325816121e+01 4.8161582852e+01 1.0566000000e-01 0.0000e+00 -1.0000e+00
      994  1    1    2    0    0 -5.0165726884e+01 +3.8225808239e+01 +1.7073177015e+02 2.2425019489e+02 1.3100000000e+02 0.0000e+00 0.0000e+00
      997  1    1    2    0    0 +1.7455879723e+01 -2.6436712544e+01 +2.9594240257e+02 3.5858822226e+02 2.0000000000e+02 0.0000e+00 0.0000e+00
</event>
<event>
 5      1 +6.7420000e-10 2.50722700e+02 7.95774700e-02 4.32577400e-01
       13 -1    0    0    0    0 +0.0000000000e+00 +0.0000000000e+00 +4.9999998884e+02 5.0000000000e+02 1.0566000000e-01 0.0000e+00 1.0000e+00
      994 -1    0    0    0    0 -0.0000000000e+00 -0.0000000000e+00 +0.0000000000e+00 1.3100000000e+02 1.3100000000e+02 0.0000e+00 0.0000e+00
       13  1    1    2    0    0 +3.9447937593e+01 -1.4560569487e+01 +3.1652969521e+01 5.2631469746e+01 1.0566000000e-01 0.0000e+00 -1.0000e+00
      994  1    1    2    0    0 -1.9866560916e+01 -1.3997159515e+01 +1.4806162270e+02 1.9918294313e+02 1.3100000000e+02 0.0000e+00 0.0000e+00
      997  1    1    2    0    0 -1.9581376676e+01 +2.8557729002e+01 +3.2028539661e+02 3.7918558712e+02 2.0000000000e+02 0.0000e+00 0.0000e+00
</event>
<event>
 5      1 +6.7420000e-10 2.28149200e+02 7.95774700e-02 4.59557500e-01
       13 -1    0    0    0    0 +0.0000000000e+00 +0.0000000000e+00 +4.9999998884e+02 5.0000000000e+02 1.0566000000e-01 0.0000e+00 -1.0000e+00
      994 -1    0    0    0    0 -0.0000000000e+00 -0.0000000000e+00 +0.0000000000e+00 1.3100000000e+02 1.3100000000e+02 0.0000e+00 0.0000e+00
       13  1    1    2    0    0 -1.0592783659e+00 +1.1284407891e+01 +1.2691821557e+01 1.7016269584e+01 1.0566000000e-01 0.0000e+00 1.0000e+00
      994  1    1    2    0    0 -7.7482810775e+00 -3.4937737256e+01 +7.5242934237e+01 1.5525199032e+02 1.3100000000e+02 0.0000e+00 0.0000e+00
      997  1    1    2    0    0 +8.8075594434e+00 +2.3653329365e+01 +4.1206523304e+02 4.5873174010e+02 2.0000000000e+02 0.0000e+00 0.0000e+00
</event>
<event>
 5      1 +6.7420000e-10 2.47465200e+02 7.95774700e-02 4.36112500e-01
       13 -1    0    0    0    0 +0.0000000000e+00 +0.0000000000e+00 +4.9999998884e+02 5.0000000000e+02 1.0566000000e-01 0.0000e+00 -1.0000e+00
      994 -1    0    0    0    0 -0.0000000000e+00 -0.0000000000e+00 +0.0000000000e+00 1.3100000000e+02 1.3100000000e+02 0.0000e+00 0.0000e+00
       13  1    1    2    0    0 +2.2841414408e+01 +2.6687110685e+01 +4.3678255871e+01 5.6051166703e+01 1.0566000000e-01 0.0000e+00 1.0000e+00
      994  1    1    2    0    0 +2.4082427951e+01 +1.7629519361e+01 +1.3100137700e+02 1.8765160288e+02 1.3100000000e+02 0.0000e+00 0.0000e+00
      997  1    1    2    0    0 -4.6923842358e+01 -4.4316630045e+01 +3.2532035597e+02 3.8729723041e+02 2.0000000000e+02 0.0000e+00 0.0000e+00
</event>
<event>
 5      1 +6.7420000e-10 2.32023500e+02 7.95774700e-02 4.54479000e-01
       13 -1    0    0    0    0 +0.0000000000e+00 +0.0000000000e+00 +4.9999998884e+02 5.0000000000e+02 1.0566000000e-01 0.0000e+00 -1.0000e+00
      994 -1    0    0    0    0 -0.0000000000e+00 -0.0000000000e+00 +0.0000000000e+00 1.3100000000e+02 1.3100000000e+02 0.0000e+00 0.0000e+00
       13  1    1    2    0    0 +5.4858004495e+00 -2.0170419243e+01 +3.3171927295e+01 3.9208771258e+01 1.0566000000e-01 0.0000e+00 1.0000e+00
      994  1    1    2    0    0 +6.6414512608e+00 +4.5711070572e+01 +9.3871778814e+01 1.6764999763e+02 1.3100000000e+02 0.0000e+00 0.0000e+00
      997  1    1    2    0    0 -1.2127251710e+01 -2.5540651329e+01 +3.7295628273e+02 4.2414123111e+02 2.0000000000e+02 0.0000e+00 0.0000e+00
</event>
<event>
 5      1 +6.7420000e-10 2.47801900e+02 7.95774700e-02 4.35742100e-01
       13 -1    0    0    0    0 +0.0000000000e+00 +0.0000000000e+00 +4.9999998884e+02 5.0000000000e+02 1.0566000000e-01 0.0000e+00 -1.0000e+00
      994 -1    0    0    0    0 -0.0000000000e+00 -0.0000000000e+00 +0.0000000000e+00 1.3100000000e+02 1.3100000000e+02 0.0000e+00 0.0000e+00
       13  1    1    2    0    0 +2.4976768094e+01 -2.5278637457e+01 +2.4889199312e+01 4.3385848644e+01 1.0566000000e-01 0.0000e+00 1.0000e+00
      994  1    1    2    0    0 +7.0014158267e+00 +1.8095902959e+01 +1.1984977964e+02 1.7860977355e+02 1.3100000000e+02 0.0000e+00 0.0000e+00
      997  1    1    2    0    0 -3.1978183920e+01 +7.1827344981e+00 +3.5526100988e+02 4.0900437781e+02 2.0000000000e+02 0.0000e+00 0.0000e+00
</event>
<event>
 5      1 +6.7420000e-10 2.48221700e+02 7.95774700e-02 4.35281800e-01
       13 -1    0    0    0    0 +0.0000000000e+00 +0.0000000000e+00 +4.9999998884e+02 5.0000000000e+02 1.0566000000e-01 0.0000e+00 1.0000e+00
      994 -1    0    0    0    0 -0.0000000000e+00 -0.0000000000e+00 +0.0000000000e+00 1.3100000000e+02 1.3100000000e+02 0.0000e+00 0.0000e+00
       13  1    1    2    0    0 -1.3301416259e+01 +3.5609367640e+01 +1.9019749393e+01 4.2505491048e+01 1.0566000000e-01 0.0000e+00 -1.0000e+00
      994  1    1    2    0    0 +2.9609004816e+01 -2.4646539221e+01 +1.6714212190e+02 2.1582778777e+02 1.3100000000e+02 0.0000e+00 0.0000e+00
      997  1    1    2    0    0 -1.6307588557e+01 -1.0962828419e+01 +3.1383811755e+02 3.7266672118e+02 2.0000000000e+02 0.0000e+00 0.0000e+00
</event>
<event>
 5      1 +6.7420000e-10 2.40599200e+02 7.95774700e-02 4.43933400e-01
       13 -1    0    0    0    0 +0.0000000000e+00 +0.0000000000e+00 +4.9999998884e+02 5.0000000000e+02 1.0566000000e-01 0.0000e+00 1.0000e+00
      994 -1    0    0    0    0 -0.0000000000e+00 -0.0000000000e+00 +0.0000000000e+00 1.3100000000e+02 1.3100000000e+02 0.0000e+00 0.0000e+00
       13  1    1    2    0    0 -1.0464292263e+01 +2.9181696189e+00 -3.9180880545e+00 1.1549013141e+01 1.0566000000e-01 0.0000e+00 -1.0000e+00
      994  1    1    2    0    0 -1.4261616962e+01 -1.4244485047e+01 +9.3862714586e+01 1.6241153981e+02 1.3100000000e+02 0.0000e+00 0.0000e+00
      997  1    1    2    0    0 +2.4725909225e+01 +1.1326315428e+01 +4.1005536230e+02 4.5703944705e+02 2.0000000000e+02 0.0000e+00 0.0000e+00
</event>
<event>
 5      1 +6.7420000e-10 2.29660300e+02 7.95774700e-02 4.57552000e-01
       13 -1    0    0    0    0 +0.0000000000e+00 +0.0000000000e+00 +4.9999998884e+02 5.0000000000e+02 1.0566000000e-01 0.0000e+00 1.0000e+00
      994 -1    0    0    0    0 -0.0000000000e+00 -0.0000000000e+00 +0.0000000000e+00 1.3100000000e+02 1.3100000000e+02 0.0000e+00 0.0000e+00
       13  1    1    2    0    0 +5.4972452639e+00 -1.2770234025e+01 +2.3026516923e+01 2.6898517212e+01 1.0566000000e-01 0.0000e+00 -1.0000e+00
      994  1    1    2    0    0 +8.4715700869e+00 +1.3662189829e+01 +6.7640137784e+01 1.4830580289e+02 1.3100000000e+02 0.0000e+00 0.0000e+00
      997  1    1    2    0    0 -1.3968815351e+01 -8.9195580416e-01 +4.0933333413e+02 4.5579567990e+02 2.0000000000e+02 0.0000e+00 0.0000e+00
</event>
<event>
 5      1 +6.7420000e-10 2.38914200e+02 7.95774700e-02 4.45934100e-01
       13 -1    0    0    0    0 +0.0000000000e+00 +0.0000000000e+00 +4.9999998884e+02 5.0000000000e+02 1.0566000000e-01 0.0000e+00 1.0000e+00
      994 -1    0    0    0    0 -0.0000000000e+00 -0.0000000000e+00 +0.0000000000e+00 1.3100000000e+02 1.3100000000e+02 0.0000e+00 0.0000e+00
       13  1    1    2    0    0 +1.9890815544e+01 -3.8323704715e+00 +1.3296268038e+01 2.4230838084e+01 1.0566000000e-01 0.0000e+00 -1.0000e+00
      994  1    1    2    0    0 +2.7472954569e+01 +3.0581794362e+00 +9.4184368032e+01 1.6369426036e+02 1.3100000000e+02 0.0000e+00 0.0000e+00
      997  1    1    2    0    0 -4.7363770113e+01 +7.7419103539e-01 +3.9251935277e+02 4.4307490155e+02 2.0000000000e+02 0.0000e+00 0.0000e+00
</event>
<event>
 5      1 +6.7420000e-10 2.39077000e+02 7.95774700e-02 4.45739300e-01
       13 -1    0    0    0    0 +0.0000000000e+00 +0.0000000000e+00 +4.9999998884e+02 5.0000000000e+02 1.0566000000e-01 0.0000e+00 1.0000e+00
      994 -1    0    0    0    0 -0.0000000000e+00 -0.0000000000e+00 +0.0000000000e+00 1.3100000000e+02 1.3100000000e+02 0.0000e+00 0.0000e+00
       13  1    1    2    0    0 -1.8586383933e+01 -1.9817815040e+01 +2.1726086050e+01 3.4788409561e+01 1.0566000000e-01 0.0000e+00 -1.0000e+00
      994  1    1    2    0    0 +2.1241393101e+01 +2.4971608697e+01 +9.9154581492e+01 1.6753330729e+02 1.3100000000e+02 0.0000e+00 0.0000e+00
      997  1    1    2    0    0 -2.6550091689e+00 -5.1537936568e+00 +3.7911932129e+02 4.2867828315e+02 2.0000000000e+02 0.0000e+00 0.0000e+00
</event>
<event>
 5      1 +6.7420000e-10 2.40303600e+02 7.95774700e-02 4.44281900e-01
       13 -1    0    0    0    0 +0.0000000000e+00 +0.0000000000e+00 +4.9999998884e+02 5.0000000000e+02 1.0566000000e-01 0.0000e+00 -1.0000e+00
      994 -1    0    0    0    0 -0.0000000000e+00 -0.0000000000e+00 +0.0000000000e+00 1.3100000000e+02 1.3100000000e+02 0.0000e+00 0.0000e+00
       13  1    1    2    0    0 -1.3793491591e+01 +3.7972241799e+00 -6.0835021601e-01 1.4319936305e+01 1.0566000000e-01 0.0000e+00 1.0000e+00
      994  1    1    2    0    0 +3.6408511650e+00 +1.6744684328e+01 +9.1445413060e+01 1.6067639472e+02 1.3100000000e+02 0.0000e+00 0.0000e+00
      997  1    1    2    0    0 +1.0152640426e+01 -2.0541908508e+01 +4.0916292599e+02 4.5600366898e+02 2.0000000000e+02 0.0000e+00 0.0000e+00
</event>
<event>
 5      1 +6.7420000e-10 2.28022000e+02 7.95774700e-02 4.59727700e-01
       13 -1    0    0    0    0 +0.0000000000e+00 +0.0000000000e+00 +4.9999998884e+02 5.0000000000e+02 1.0566000000e-01 0.0000e+00 -1.0000e+00
      994 -1    0    0    0    0 -0.0000000000e+00 -0.0000000000e+00 +0.0000000000e+00 1.3100000000e+02 1.3100000000e+02 0.0000e+00 0.0000e+00
       13  1    1    2    0    0 +1.9136180288e+00 -1.0587683166e+01 +3.3205155230e+01 3.4904934704e+01 1.0566000000e-01 0.0000e+00 1.0000e+00
      994  1    1    2    0    0 -2.5413622593e+01 +1.4712346752e+01 +7.0698652373e+01 1.5172872110e+02 1.3100000000e+02 0.0000e+00 0.0000e+00
      997  1    1    2    0    0 +2.3500004565e+01 -4.1246635865e+00 +3.9609618123e+02 4.4436634419e+02 2.0000000000e+02 0.0000e+00 0.0000e+00
</event>
<event>
 5      1 +6.7420000e-10 2.47117300e+02 7.95774700e-02 4.36496500e-01
       13 -1    0    0    0    0 +0.0000000000e+00 +0.0000000000e+00 +4.9999998884e+02 5.0000000000e+02 1.0566000000e-01 0.0000e+00 -1.0000e+00
      994 -1    0    0    0    0 -0.0000000000e+00 -0.0000000000e+00 +0.0000000000e+00 1.3100000000e+02 1.3100000000e+02 0.0000e+00 0.0000e+00
       13  1    1    2    0    0 -3.2746597036e+01 -2.7941000540e+01 +4.7083222762e+01 6.3795612375e+01 1.0566000000e-01 0.0000e+00 1.0000e+00
      994  1    1    2    0    0 +2.4261596227e+01 +1.7519179255e+01 +1.2894835765e+02 1.8623701467e+02 1.3100000000e+02 0.0000e+00 0.0000e+00
      997  1    1    2    0    0 +8.4850008089e+00 +1.0421821285e+01 +3.2396840843e+02 3.8096737296e+02 2.0000000000e+02 0.0000e+00 0.0000e+00
</event>
<event>
 5      1 +6.7420000e-10 2.38722200e+02 7.95774700e-02 4.46164300e-01
       13 -1    0    0    0    0 +0.0000000000e+00 +0.0000000000e+00 +4.9999998884e+02 5.0000000000e+02 1.0566000000e-01 0.0000e+00 1.0000e+00
      994 -1    0    0    0    0 -0.0000000000e+00 -0.0000000000e+00 +0.0000000000e+00 1.3100000000e+02 1.3100000000e+02 0.0000e+00 0.0000e+00
       13  1    1    2    0    0 -2.2407128260e+01 +1.5910261130e+01 +4.5317155388e+01 5.2998788123e+01 1.0566000000e-01 0.0000e+00 -1.0000e+00
      994  1    1    2    0    0 -4.7258134807e+00 -3.3749563002e+00 +8.3940933871e+01 1.5569458572e+02 1.3100000000e+02 0.0000e+00 0.0000e+00
      997  1    1    2    0    0 +2.7132941740e+01 -1.2535304830e+01 +3.7074189958e+02 4.2230662616e+02 2.0000000000e+02 0.0000e+00 0.0000e+00
</event>
<event>
 5      1 +6.7420000e-10 2.29860900e+02 7.95774700e-02 4.57288200e-01
       13 -1    0    0    0    0 +0.0000000000e+00 +0.0000000000e+00 +4.9999998884e+02 5.0000000000e+02 1.0566000000e-01 0.0000e+00 -1.0000e+00
      994 -1    0    0    0    0 -0.0000000000e+00 -0.0000000000e+00 +0.0000000000e+00 1.3100000000e+02 1.3100000000e+02 0.0000e+00 0.0000e+00
       13  1    1    2    0    0 -7.5672402490e+00 +1.2882193119e+01 +1.6907702095e+01 2.2563146472e+01 1.0566000000e-01 0.0000e+00 1.0000e+00
      994  1    1    2    0    0 +1.2804645472e+01 -3.8407435826e+01 +8.2722670430e+01 1.6013472539e+02 1.3100000000e+02 0.0000e+00 0.0000e+00
      997  1    1    2    0    0 -5.2374052235e+00 +2.5525242707e+01 +4.0036961631e+02 4.4830212814e+02 2.0000000000e+02 0.0000e+00 0.0000e+00
</event>
<event>
 5      1 +6.7420000e-10 2.39727700e+02 7.95774700e-02 4.44964000e-01
       13 -1    0    0    0    0 +0.0000000000e+00 +0.0000000000e+00 +4.9999998884e+02 5.0000000000e+02 1.0566000000e-01 0.0000e+00 -1.0000e+00
      994 -1    0    0    0    0 -0.0000000000e+00 -0.0000000000e+00 +0.0000000000e+00 1.3100000000e+02 1.3100000000e+02 0.0000e+00 0.0000e+00
       13  1    1    2    0    0 -3.6521049980e+00 +2.2276154457e+01 +1.1731830605e+01 2.5440360486e+01 1.0566000000e-01 0.0000e+00 1.0000e+00
      994  1    1    2    0    0 +2.0040365481e+01 -1.3228798459e+01 +9.3825235097e+01 1.6291344972e+02 1.3100000000e+02 0.0000e+00 0.0000e+00
      997  1    1    2    0    0 -1.6388260484e+01 -9.0473559974e+00 +3.9444292313e+02 4.4264618980e+02 2.0000000000e+02 0.0000e+00 0.0000e+00
</event>
<event>
 5      1 +6.7420000e-10 2.31364500e+02 7.95774700e-02 4.55328300e-01
       13 -1    0    0    0    0 +0.0000000000e+00 +0.0000000000e+00 +4.9999998884e+02 5.0000000000e+02 1.0566000000e-01 0.0000e+00 1.0000e+00
      994 -1    0    0    0    0 -0.0000000000e+00 -0.0000000000e+00 +0.0000000000e+00 1.3100000000e+02 1.3100000000e+02 0.0000e+00 0.0000e+00
       13  1    1    2    0    0 -6.4749772611e+00 +1.4365773752e+01 +1.9728221655e+01 2.5249053046e+01 1.0566000000e-01 0.0000e+00 -1.0000e+00
      994  1    1    2    0    0 -2.8244578018e+01 -2.1370172498e+01 +8.1671540346e+01 1.5838459825e+02 1.3100000000e+02 0.0000e+00 0.0000e+00
      997  1    1    2    0    0 +3.4719555279e+01 +7.0043987457e+00 +3.9860022683e+02 4.4736634870e+02 2.0000000000e+02 0.0000e+00 0.0000e+00
</event>
<event>
 5      1 +6.7420000e-10 2.30924600e+02 7.95774700e-02 4.55898500e-01
       13 -1    0    0    0    0 +0.0000000000e+00 +0.0000000000e+00 +4.9999998884e+02 5.0000000000e+02 1.0566000000e-01 0.0000e+00 1.0000e+00
      994 -1    0    0    0    0 -0.0000000000e+00 -0.0000000000e+00 +0.0000000000e+00 1.3100000000e+02 1.3100000000e+02 0.0000e+00 0.0000e+00
       13  1    1    2    0    0 +1.8424181305e+00 -1.2188164033e+01 +8.2052784989e+00 1.4808227657e+01 1.0566000000e-01 0.0000e+00 -1.0000e+00
      994  1    1    2    0    0 +9.1794177183e-01 +1.7740362882e+01 +7.0568108938e+01 1.4985466656e+02 1.3100000000e+02 0.0000e+00 0.0000e+00
      997  1    1    2    0    0 -2.7603599024e+00 -5.5521988486e+00 +4.2122660140e+02 4.6633710578e+02 2.0000000000e+02 0.0000e+00 0.0000e+00
</event>
<event>
 5      1 +6.7420000e-10 2.34172600e+02 7.95774700e-02 4.51749200e-01
       13 -1    0    0    0    0 +0.0000000000e+00 +0.0000000000e+00 +4.9999998884e+02 5.0000000000e+02 1.0566000000e-01 0.0000e+00 1.0000e+00
      994 -1    0    0    0    0 -0.0000000000e+00 -0.0000000000e+00 +0.0000000000e+00 1.3100000000e+02 1.3100000000e+02 0.0000e+00 0.0000e+00
       13  1    1    2    0    0 -3.5599949066e+00 -2.1494434228e+01 +1.3874095976e+01 2.5829943278e+01 1.0566000000e-01 0.0000e+00 -1.0000e+00
      994  1    1    2    0    0 +7.1684247114e+00 +6.5564123998e+01 +1.3872451839e+02 2.0187999572e+02 1.3100000000e+02 0.0000e+00 0.0000e+00
      997  1    1    2    0    0 -3.6084298048e+00 -4.4069689770e+01 +3.4740137447e+02 4.0329006100e+02 2.0000000000e+02 0.0000e+00 0.0000e+00
</event>
<event>
 5      1 +6.7420000e-10 2.35173900e+02 7.95774700e-02 4.50497900e-01
       13 -1    0    0    0    0 +0.0000000000e+00 +0.0000000000e+00 +4.9999998884e+02 5.0000000000e+02 1.0566000000e-01 0.0000e+00 -1.0000e+00
      994 -1    0    0    0    0 -0.0000000000e+00 -0.0000000000e+00 +0.0000000000e+00 1.3100000000e+02 1.3100000000e+02 0.0000e+00 0.0000e+00
       13  1    1    2    0    0 +2.1714713288e+01 -5.6828590036e+00 +2.0042576748e+01 3.0092186799e+01 1.0566000000e-01 0.0000e+00 1.0000e+00
      994  1    1    2    0    0 -3.7089398732e+01 +6.5412035758e+00 +9.2881729377e+01 1.6494370705e+02 1.3100000000e+02 0.0000e+00 0.0000e+00
      997  1    1    2    0    0 +1.5374685444e+01 -8.5834457221e-01 +3.8707568271e+02 4.3596410615e+02 2.0000000000e+02 0.0000e+00 0.0000e+00
</event>
<event>
 5      1 +6.7420000e-10 2.50750000e+02 7.95774700e-02 4.32548200e-01
       13 -1    0    0    0    0 +0.0000000000e+00 +0.0000000000e+00 +4.9999998884e+02 5.0000000000e+02 1.0566000000e-01 0.0000e+00 -1.0000e+00
      994 -1    0    0    0    0 -0.0000000000e+00 -0.0000000000e+00 +0.0000000000e+00 1.3100000000e+02 1.3100000000e+02 0.0000e+00 0.0000e+00
       13  1    1    2    0    0 -1.0683388627e+01 +5.4628807849e+00 -1.1304169202e+01 1.6485547137e+01 1.0566000000e-01 0.0000e+00 1.0000e+00
      994  1    1    2    0    0 +1.4084235427e+01 -1.5650936163e+01 +1.4164003668e+02 1.9407786448e+02 1.3100000000e+02 0.0000e+00 0.0000e+00
      997  1    1    2    0    0 -3.4008468000e+00 +1.0188055378e+01 +3.6966412136e+02 4.2043658838e+02 2.0000000000e+02 0.0000e+00 0.0000e+00
</event>
<event>
 5      1 +6.7420000e-10 2.37533900e+02 7.95774700e-02 4.47598400e-01
       13 -1    0    0    0    0 +0.0000000000e+00 +0.0000000000e+00 +4.9999998884e+02 5.0000000000e+02 1.0566000000e-01 0.0000e+00 -1.0000e+00
      994 -1    0    0    0    0 -0.0000000000e+00 -0.0000000000e+00 +0.0000000000e+00 1.3100000000e+02 1.3100000000e+02 0.0000e+00 0.0000e+00
       13  1    1    2    0    0 -2.2386101654e+01 +1.1271495096e-01 +1.7250070285e+01 2.8261746952e+01 1.0566000000e-01 0.0000e+00 1.0000e+00
      994  1    1    2    0    0 +1.3289553196e+01 -1.3070374093e+01 +8.5039926584e+01 1.5729029219e+02 1.3100000000e+02 0.0000e+00 0.0000e+00
      997  1    1    2    0    0 +9.0965484575e+00 +1.2957659143e+01 +3.9770999197e+02 4.4544796086e+02 2.0000000000e+02 0.0000e+00 0.0000e+00
</event>
<event>
 5      1 +6.7420000e-10 2.33068100e+02 7.95774700e-02 4.53144600e-01
       13 -1    0    0    0    0 +0.0000000000e+00 +0.0000000000e+00 +4.9999998884e+02 5.0000000000e+02 1.0566000000e-01 0.0000e+00 1.0000e+00
      994 -1    0    0    0    0 -0.0000000000e+00 -0.0000000000e+00 +0.0000000000e+00 1.3100000000e+02 1.3100000000e+02 0.0000e+00 0.0000e+00
       13  1    1    2    0    0 +1.9194206560e+01 -1.4256311628e+01 +2.8093002950e+01 3.6890215037e+01 1.0566000000e-01 0.0000e+00 -1.0000e+00
      994  1    1    2    0    0 -5.7301755242e+01 +2.5303740020e+01 +1.2442759523e+02 1.9122499018e+02 1.3100000000e+02 0.0000e+00 0.0000e+00
      997  1    1    2    0    0 +3.8107548682e+01 -1.1047428393e+01 +3.4747939065e+02 4.0288479479e+02 2.0000000000e+02 0.0000e+00 0.0000e+00
</event>
<event>
 5      1 +6.7420000e-10 2.49169700e+02 7.95774700e-02 4.34249300e-01
       13 -1    0    0    0    0 +0.0000000000e+00 +0.0000000000e+00 +4.9999998884e+02 5.0000000000e+02 1.0566000000e-01 0.0000e+00 -1.0000e+00
      994 -1    0    0    0    0 -0.0000000000e+00 -0.0000000000e+00 +0.0000000000e+00 1.3100000000e+02 1.3100000000e+02 0.0000e+00 0.0000e+00
       13  1    1    2    0    0 +3.6406610604e+01 +2.4668986350e+01 +6.6962719597e+01 8.0112528129e+01 1.0566000000e-01 0.0000e+00 1.0000e+00
      994  1    1    2    0    0 +5.6260159710e+00 -3.0030564441e+01 +1.4642671748e+02 1.9883478179e+02 1.3100000000e+02 0.0000e+00 0.0000e+00
      997  1    1    2    0    0 -4.2032626575e+01 +5.3615780909e+00 +2.8661055176e+02 3.5205269008e+02 2.0000000000e+02 0.0000e+00 0.0000e+00
</event>
<event>
 5      1 +6.7420000e-10 2.39660400e+02 7.95774700e-02 4.45044000e-01
       13 -1    0    0    0    0 +0.0000000000e+00 +0.0000000000e+00 +4.9999998884e+02 5.0000000000e+02 1.0566000000e-01 0.0000e+00 1.0000e+00
      994 -1    0    0    0    0 -0.0000000000e+00 -0.0000000000e+00 +0.0000000000e+00 1.3100000000e+02 1.3100000000e+02 0.0000e+00 0.0000e+00
       13  1    1    2    0    0 -2.4257580351e+00 +2.5717823301e+01 +3.1835636637e+01 4.0997678733e+01 1.0566000000e-01 0.0000e+00 -1.0000e+00
      994  1    1    2    0    0 +1.4138878618e+01 +2.0450837450e+01 +9.4224840139e+01 1.6327113995e+02 1.3100000000e+02 0.0000e+00 0.0000e+00
      997  1    1    2    0    0 -1.1713120583e+01 -4.6168660751e+01 +3.7393951206e+02 4.2673118132e+02 2.0000000000e+02 0.0000e+00 0.0000e+00
</event>
<event>
 5      1 +6.7420000e-10 2.43289100e+02 7.95774700e-02 4.40807300e-01
       13 -1    0    0    0    0 +0.0000000000e+00 +0.0000000000e+00 +4.9999998884e+02 5.0000000000e+02 1.0566000000e-01 0.0000e+00 1.0000e+00
      994 -1    0    0    0    0 -0.0000000000e+00 -0.0000000000e+00 +0.0000000000e+00 1.3100000000e+02 1.3100000000e+02 0.0000e+00 0.0000e+00
       13  1    1    2    0    0 -2.0764501015e+01 -3.0691114639e+01 +3.2094594981e+01 4.9022272603e+01 1.0566000000e-01 0.0000e+00 -1.0000e+00
      994  1    1    2    0    0 +5.3035943017e+01 +2.0191662420e+00 +1.9868323200e+02 2.4382968434e+02 1.3100000000e+02 0.0000e+00 0.0000e+00
      997  1    1    2    0    0 -3.2271442002e+01 +2.8671948397e+01 +2.6922216185e+02 3.3814804306e+02 2.0000000000e+02 0.0000e+00 0.0000e+00
</event>
<event>
 5      1 +6.7420000e-10 2.47088400e+02 7.95774700e-02 4.36528400e-01
       13 -1    0    0    0    0 +0.0000000000e+00 +0.0000000000e+00 +4.9999998884e+02 5.0000000000e+02 1.0566000000e-01 0.0000e+00 1.0000e+00
      994 -1    0    0    0    0 -0.0000000000e+00 -0.0000000000e+00 +0.0000000000e+00 1.3100000000e+02 1.3100000000e+02 0.0000e+00 0.0000e+00
       13  1    1    2    0    0 -1.9059819857e+01 +9.4698716179e+00 -2.4535145947e+00 2.1423960870e+01 1.0566000000e-01 0.0000e+00 -1.0000e+00
      994  1    1    2    0    0 -2.4369004918e+01 -3.5237560243e+01 +1.7840108379e+02 2.2544063687e+02 1.3100000000e+02 0.0000e+00 0.0000e+00
      997  1    1    2    0    0 +4.3428824776e+01 +2.5767688625e+01 +3.2405241964e+02 3.8413540226e+02 2.0000000000e+02 0.0000e+00 0.0000e+00
</event>
<event>
 5      1 +6.7420000e-10 2.33521200e+02 7.95774700e-02 4.52570200e-01
       13 -1    0    0    0    0 +0.0000000000e+00 +0.0000000000e+00 +4.9999998884e+02 5.0000000000e+02 1.0566000000e-01 0.0000e+00 -1.0000e+00
      994 -1    0    0    0    0 -0.0000000000e+00 -0.0000000000e+00 +0.0000000000e+00 1.3100000000e+02 1.3100000000e+02 0.0000e+00 0.0000e+00
       13  1    1    2    0    0 +1.4289931727e+00 +1.8193546607e+01 +3.3884832895e+01 3.8486883792e+01 1.0566000000e-01 0.0000e+00 1.0000e+00
      994  1    1    2    0    0 -3.2166194814e+01 +1.8935963495e+01 +8.8336199666e+01 1.6234998914e+02 1.3100000000e+02 0.0000e+00 0.0000e+00
      997  1    1    2    0    0 +3.0737201642e+01 -3.7129510102e+01 +3.7777895627e+02 4.3016312707e+02 2.0000000000e+02 0.0000e+00 0.0000e+00
</event>
<event>
 5      1 +6.7420000e-10 2.34674800e+02 7.95774700e-02 4.51120000e-01
       13 -1    0    0    0    0 +0.0000000000e+00 +0.0000000000e+00 +4.9999998884e+02 5.0000000000e+02 1.0566000000e-01 0.0000e+00 1.0000e+00
      994 -1    0    0    0    0 -0.0000000000e+00 -0.0000000000e+00 +0.0000000000e+00 1.3100000000e+02 1.3100000000e+02 0.0000e+00 0.0000e+00
       13  1    1    2    0    0 +1.5424800371e+01 +1.6211714607e+01 +6.6909902755e+01 7.0552749115e+01 1.0566000000e-01 0.0000e+00 -1.0000e+00
      994  1    1    2    0    0 -3.0564317187e+01 -1.7045996367e+01 +8.9087155841e+01 1.6224137824e+02 1.3100000000e+02 0.0000e+00 0.0000e+00
      997  1    1    2    0    0 +1.5139516816e+01 +8.3428176002e-01 +3.4400293024e+02 3.9820587265e+02 2.0000000000e+02 0.0000e+00 0.0000e+00
</event>
<event>
 5      1 +6.7420000e-10 2.46908100e+02 7.95774700e-02 4.36728000e-01
       13 -1    0    0    0    0 +0.0000000000e+00 +0.0000000000e+00 +4.9999998884e+02 5.0000000000e+02 1.0566000000e-01 0.0000e+00 -1.0000e+00
      994 -1    0    0    0    0 -0.0000000000e+00 -0.0000000000e+00 +0.0000000000e+00 1.3100000000e+02 1.3100000000e+02 0.0000e+00 0.0000e+00
       13  1    1    2    0    0 -4.0251587169e+01 +4.3692232900e+00 +4.9359974294e+01 6.3841198360e+01 1.0566000000e-01 0.0000e+00 1.0000e+00
      994  1    1    2    0    0 +1.6467426682e+01 +3.7632818748e+01 +1.5620221012e+02 2.0796041844e+02 1.3100000000e+02 0.0000e+00 0.0000e+00
      997  1    1    2    0    0 +2.3784160487e+01 -4.2002042038e+01 +2.9443780442e+02 3.5919838320e+02 2.0000000000e+02 0.0000e+00 0.0000e+00
</event>
<event>
 5      1 +6.7420000e-10 2.31953400e+02 7.95774700e-02 4.54569100e-01
       13 -1    0    0    0    0 +0.0000000000e+00 +0.0000000000e+00 +4.9999998884e+02 5.0000000000e+02 1.0566000000e-01 0.0000e+00 1.0000e+00
      994 -1    0    0    0    0 -0.0000000000e+00 -0.0000000000e+00 +0.0000000000e+00 1.3100000000e+02 1.3100000000e+02 0.0000e+00 0.0000e+00
       13  1    1    2    0    0 -1.0944400158e+01 +1.3254398758e+01 +2.0753281220e+01 2.6947519862e+01 1.0566000000e-01 0.0000e+00 -1.0000e+00
      994  1    1    2    0    0 -1.7382452331e+01 -3.5338309369e+01 +8.6479866302e+01 1.6183545049e+02 1.3100000000e+02 0.0000e+00 0.0000e+00
      997  1    1    2    0    0 +2.8326852489e+01 +2.2083910610e+01 +3.9276684131e+02 4.4221702965e+02 2.0000000000e+02 0.0000e+00 0.0000e+00
</event>
<event>
 5      1 +6.7420000e-10 2.35583000e+02 7.95774700e-02 4.49990200e-01
       13 -1    0    0    0    0 +0.0000000000e+00 +0.0000000000e+00 +4.9999998884e+02 5.0000000000e+02 1.0566000000e-01 0.0000e+00 1.0000e+00
      994 -1    0    0    0    0 -0.0000000000e+00 -0.0000000000e+00 +0.0000000000e+00 1.3100000000e+02 1.3100000000e+02 0.0000e+00 0.0000e+00
       13  1    1    2    0    0 +8.2524158991e+00 +1.5920118582e+01 +9.1760886320e+00 2.0143592293e+01 1.0566000000e-01 0.0000e+00 -1.0000e+00
      994  1    1    2    0    0 +1.8287658716e+01 -3.7232560161e+01 +9.8128986504e+01 1.6885200618e+02 1.3100000000e+02 0.0000e+00 0.0000e+00
      997  1    1    2    0    0 -2.6540074615e+01 +2.1312441579e+01 +3.9269491370e+02 4.4200440153e+02 2.0000000000e+02 0.0000e+00 0.0000e+00
</event>
<event>
 5      1 +6.7420000e-10 2.46463800e+02 7.95774700e-02 4.37221200e-01
       13 -1    0    0    0    0 +0.0000000000e+00 +0.0000000000e+00 +4.9999998884e+02 5.0000000000e+02 1.0566000000e-01 0.0000e+00 -1.0000e+00
      994 -1    0    0    0    0 -0.0000000000e+00 -0.0000000000e+00 +0.0000000000e+00 1.3100000000e+02 1.3100000000e+02 0.0000e+00 0.0000e+00
       13  1    1    2    0    0 +1.0580536265e+01 -8.4206918626e-01 -8.0783332015e+00 1.3338945218e+01 1.0566000000e-01 0.0000e+00 1.0000e+00
      994  1    1    2    0    0 +3.4105447957e+00 -6.6566987279e+00 +1.0741488064e+02 1.6957269838e+02 1.3100000000e+02 0.0000e+00 0.0000e+00
      997  1    1    2    0    0 -1.3991081061e+01 +7.4987679142e+00 +4.0066344140e+02 4.4808835640e+02 2.0000000000e+02 0.0000e+00 0.0000e+00
</event>
<event>
 5      1 +6.7420000e-10 2.46772600e+02 7.95774700e-02 4.36878200e-01
       13 -1    0    0    0    0 +0.0000000000e+00 +0.0000000000e+00 +4.9999998884e+02 5.0000000000e+02 1.0566000000e-01 0.0000e+00 1.0000e+00
      994 -1    0    0    0    0 -0.0000000000e+00 -0.0000000000e+00 +0.0000000000e+00 1.3100000000e+02 1.3100000000e+02 0.0000e+00 0.0000e+00
       13  1    1    2    0    0 +3.7586189316e+01 +4.0207199392e+00 +7.7641791358e+01 8.6354772569e+01 1.0566000000e-01 0.0000e+00 -1.0000e+00
      994  1    1    2    0    0 -2.3366632139e+01 +3.5178979223e+01 +1.9879419805e+02 2.4179266584e+02 1.3100000000e+02 0.0000e+00 0.0000e+00
      997  1    1    2    0    0 -1.4219557177e+01 -3.9199699163e+01 +2.2356399943e+02 3.0285256159e+02 2.0000000000e+02 0.0000e+00 0.0000e+00
</event>
<event>
 5      1 +6.7420000e-10 2.31098000e+02 7.95774700e-02 4.55673400e-01
       13 -1    0    0    0    0 +0.0000000000e+00 +0.0000000000e+00 +4.9999998884e+02 5.0000000000e+02 1.0566000000e-01 0.0000e+00 -1.0000e+00
      994 -1    0    0    0    0 -0.0000000000e+00 -0.0000000000e+00 +0.0000000000e+00 1.3100000000e+02 1.3100000000e+02 0.0000e+00 0.0000e+00
       13  1    1    2    0    0 +1.1285402075e+01 -4.0815219543e+00 +5.7263404132e+01 5.8507501556e+01 1.0566000000e-01 0.0000e+00 1.0000e+00
      994  1    1    2    0    0 -3.6116520189e+01 -2.4260638311e+01 +8.8548490597e+01 1.6399639261e+02 1.3100000000e+02 0.0000e+00 0.0000e+00
      997  1    1    2    0    0 +2.4831118114e+01 +2.8342160266e+01 +3.5418809411e+02 4.0849610583e+02 2.0000000000e+02 0.0000e+00 0.0000e+00
</event>
<event>
 5      1 +6.7420000e-10 2.29563600e+02 7.95774700e-02 4.57679300e-01
       13 -1    0    0    0    0 +0.0000000000e+00 +0.0000000000e+00 +4.9999998884e+02 5.0000000000e+02 1.0566000000e-01 0.0000e+00 1.0000e+00
      994 -1    0    0    0    0 -0.0000000000e+00 -0.0000000000e+00 +0.0000000000e+00 1.3100000000e+02 1.3100000000e+02 0.0000e+00 0.0000e+00
       13  1    1    2    0    0 -4.0543628052e+00 +1.1385014648e+01 +4.9746889068e+01 5.1193950349e+01 1.0566000000e-01 0.0000e+00 -1.0000e+00
      994  1    1    2    0    0 +3.5204180099e+01 -4.9806279470e+01 +1.0829343618e+02 1.8057814954e+02 1.3100000000e+02 0.0000e+00 0.0000e+00
      997  1    1    2    0    0 -3.1149817294e+01 +3.8421264822e+01 +3.4195966359e+02 3.9922790011e+02 2.0000000000e+02 0.0000e+00 0.0000e+00
</event>
<event>
 5      1 +6.7420000e-10 2.38434700e+02 7.95774700e-02 4.46509700e-01
       13 -1    0    0    0    0 +0.0000000000e+00 +0.0000000000e+00 +4.9999998884e+02 5.0000000000e+02 1.0566000000e-01 0.0000e+00 1.0000e+00
      994 -1    0    0    0    0 -0.0000000000e+00 -0.0000000000e+00 +0.0000000000e+00 1.3100000000e+02 1.3100000000e+02 0.0000e+00 0.0000e+00
       13  1    1    2    0    0 +2.3047856688e+01 -2.0787655652e+01 +5.5658839356e+01 6.3727920788e+01 1.0566000000e-01 0.0000e+00 -1.0000e+00
      994  1    1    2    0    0 -3.5232879744e+01 +5.5655112814e+00 +1.0013461126e+02 1.6870172229e+02 1.3100000000e+02 0.0000e+00 0.0000e+00
      997  1    1    2    0    0 +1.2185023056e+01 +1.5222144371e+01 +3.4420653822e+02 3.9857035692e+02 2.0000000000e+02 0.0000e+00 0.0000e+00
</event>
<event>
 5      1 +6.7420000e-10 2.30673600e+02 7.95774700e-02 4.56225000e-01
       13 -1    0    0    0    0 +0.0000000000e+00 +0.0000000000e+00 +4.9999998884e+02 5.0000000000e+02 1.0566000000e-01 0.0000e+00 1.0000e+00
      994 -1    0    0    0    0 -0.0000000000e+00 -0.0000000000e+00 +0.0000000000e+00 1.3100000000e+02 1.3100000000e+02 0.0000e+00 0.0000e+00
       13  1    1    2    0    0 -1.0797077680e+01 +1.1843344976e+01 +1.8233827654e+01 2.4276024008e+01 1.0566000000e-01 0.0000e+00 -1.0000e+00
      994  1    1    2    0    0 +1.2190376842e+01 -3.4930734022e+01 +8.1452583952e+01 1.5863254678e+02 1.3100000000e+02 0.0000e+00 0.0000e+00
      997  1    1    2    0    0 -1.3932991621e+00 +2.3087389045e+01 +4.0031357723e+02 4.4809142921e+02 2.0000000000e+02 0.0000e+00 0.0000e+00
</event>
<event>
 5      1 +6.7420000e-10 2.36380100e+02 7.95774700e-02 4.49007200e-01
       13 -1    0    0    0    0 +0.0000000000e+00 +0.0000000000e+00 +4.9999998884e+02 5.0000000000e+02 1.0566000000e-01 0.0000e+00 1.0000e+00
      994 -1    0    0    0    0 -0.0000000000e+00 -0.0000000000e+00 +0.0000000000e+00 1.3100000000e+02 1.3100000000e+02 0.0000e+00 0.0000e+00
       13  1    1    2    0    0 +1.3991712152e+01 +3.1145974351e+00 +3.1581033301e+00 1.4678334606e+01 1.0566000000e-01 0.0000e+00 -1.0000e+00
      994  1    1    2    0    0 -3.7340537589e+00 -2.5967775012e+01 +8.6531049512e+01 1.5917566091e+02 1.3100000000e+02 0.0000e+00 0.0000e+00
      997  1    1    2    0    0 -1.0257658393e+01 +2.2853177577e+01 +4.1031083599e+02 4.5714600448e+02 2.0000000000e+02 0.0000e+00 0.0000e+00
</event>
<event>
 5      1 +6.7420000e-10 2.37463500e+02 7.95774700e-02 4.47683800e-01
       13 -1    0    0    0    0 +0.0000000000e+00 +0.0000000000e+00 +4.9999998884e+02 5.0000000000e+02 1.0566000000e-01 0.0000e+00 -1.0000e+00
      994 -1    0    0    0    0 -0.0000000000e+00 -0.0000000000e+00 +0.0000000000e+00 1.3100000000e+02 1.3100000000e+02 0.0000e+00 0.0000e+00
       13  1    1    2    0    0 +1.4689534384e+01 -1.7433659331e+00 +4.8003026238e-01 1.4800788434e+01 1.0566000000e-01 0.0000e+00 1.0000e+00
      994  1    1    2    0    0 -3.1695027219e+01 +3.9689826386e+01 +1.1819681509e+02 1.8360649271e+02 1.3100000000e+02 0.0000e+00 0.0000e+00
      997  1    1    2    0    0 +1.7005492836e+01 -3.7946460453e+01 +3.8132314349e+02 4.3259271885e+02 2.0000000000e+02 0.0000e+00 0.0000e+00
</event>
<event>
 5      1 +6.7420000e-10 2.31533900e+02 7.95774700e-02 4.55109400e-01
       13 -1    0    0    0    0 +0.0000000000e+00 +0.0000000000e+00 +4.9999998884e+02 5.0000000000e+02 1.0566000000e-01 0.0000e+00 -1.0000e+00
      994 -1    0    0    0    0 -0.0000000000e+00 -0.0000000000e+00 +0.0000000000e+00 1.3100000000e+02 1.3100000000e+02 0.0000e+00 0.0000e+00
       13  1    1    2    0    0 -1.7176525245e+00 +1.9547317266e+01 +2.3342904891e+01 3.0495086740e+01 1.0566000000e-01 0.0000e+00 1.0000e+00
      994  1    1    2    0    0 -4.8115917283e+00 -5.2277722766e+01 +1.0075673482e+02 1.7340424252e+02 1.3100000000e+02 0.0000e+00 0.0000e+00
      997  1    1    2    0    0 +6.5292442529e+00 +3.2730405500e+01 +3.7590034912e+02 4.2710067074e+02 2.0000000000e+02 0.0000e+00 0.0000e+00
</event>
<event>
 5      1 +6.7420000e-10 2.31452100e+02 7.95774700e-02 4.55215000e-01
       13 -1    0    0    0    0 +0.0000000000e+00 +0.0000000000e+00 +4.9999998884e+02 5.0000000000e+02 1.0566000000e-01 0.0000e+00 1.0000e+00
      994 -1    0    0    0    0 -0.0000000000e+00 -0.0000000000e+00 +0.0000000000e+00 1.3100000000e+02 1.3100000000e+02 0.0000e+00 0.0000e+00
       13  1    1    2    0    0 +1.2954824216e+01 -1.9696669744e+00 +2.5411241981e+00 1.3348240883e+01 1.0566000000e-01 0.0000e+00 -1.0000e+00
      994  1    1    2    0    0 -3.6888998116e+01 +7.0560579661e+01 +2.1103583184e+02 2.6083848624e+02 1.3100000000e+02 0.0000e+00 0.0000e+00
      997  1    1    2    0    0 +2.3934173900e+01 -6.8590912686e+01 +2.8642303280e+02 3.5681327288e+02 2.0000000000e+02 0.0000e+00 0.0000e+00
</event>
<event>
 5      1 +6.7420000e-10 2.34201400e+02 7.95774700e-02 4.51713100e-01
       13 -1    0    0    0    0 +0.0000000000e+00 +0.0000000000e+00 +4.9999998884e+02 5.0000000000e+02 1.0566000000e-01 0.0000e+00 -1.0000e+00
      994 -1    0    0    0    0 -0.0000000000e+00 -0.0000000000e+00 +0.0000000000e+00 1.3100000000e+02 1.3100000000e+02 0.0000e+00 0.0000e+00
       13  1    1    2    0    0 +2.5070525441e+01 +6.4680573348e+00 +5.2665190887e+01 5.8685607322e+01 1.0566000000e-01 0.0000e+00 1.0000e+00
      994  1    1    2    0    0 -5.5029275335e+01 +3.8334970316e+00 +1.1362666933e+02 1.8197509947e+02 1.3100000000e+02 0.0000e+00 0.0000e+00
      997  1    1    2    0    0 +2.9958749894e+01 -1.0301554366e+01 +3.3370812862e+02 3.9033929321e+02 2.0000000000e+02 0.0000e+00 0.0000e+00
</event>
<event>
 5      1 +6.7420000e-10 2.42092700e+02 7.95774700e-02 4.42187600e-01
       13 -1    0    0    0    0 +0.0000000000e+00 +0.0000000000e+00 +4.9999998884e+02 5.0000000000e+02 1.0566000000e-01 0.0000e+00 -1.0000e+00
      994 -1    0    0    0    0 -0.0000000000e+00 -0.0000000000e+00 +0.0000000000e+00 1.3100000000e+02 1.3100000000e+02 0.0000e+00 0.0000e+00
       13  1    1    2    0    0 +3.1268722553e+01 +8.7775854299e-01 +3.6495015293e+01 4.8066628501e+01 1.0566000000e-01 0.0000e+00 1.0000e+00
      994  1    1    2    0    0 +1.3239626961e+00 -4.6469996279e+01 +1.3173894018e+02 1.9151334625e+02 1.3100000000e+02 0.0000e+00 0.0000e+00
      997  1    1    2    0    0 -3.2592685250e+01 +4.5592237736e+01 +3.3176603337e+02 3.9142002525e+02 2.0000000000e+02 0.0000e+00 0.0000e+00
</event>
<event>
 5      1 +6.7420000e-10 2.51163900e+02 7.95774700e-02 4.32106800e-01
       13 -1    0    0    0    0 +0.0000000000e+00 +0.0000000000e+00 +4.9999998884e+02 5.0000000000e+02 1.0566000000e-01 0.0000e+00 1.0000e+00
      994 -1    0    0    0    0 -0.0000000000e+00 -0.0000000000e+00 +0.0000000000e+00 1.3100000000e+02 1.3100000000e+02 0.0000e+00 0.0000e+00
       13  1    1    2    0    0 +3.7200356080e+01 -2.2652498709e+01 +5.2916673093e+01 6.8536031731e+01 1.0566000000e-01 0.0000e+00 -1.0000e+00
      994  1    1    2    0    0 +6.5716660368e+00 +3.5648960553e+00 +1.3121589775e+02 1.8556537150e+02 1.3100000000e+02 0.0000e+00 0.0000e+00
      997  1    1    2    0    0 -4.3772022116e+01 +1.9087602654e+01 +3.1586741799e+02 3.7689859677e+02 2.0000000000e+02 0.0000e+00 0.0000e+00
</event>
<event>
 5      1 +6.7420000e-10 2.47159500e+02 7.95774700e-02 4.36449900e-01
       13 -1    0    0    0    0 +0.0000000000e+00 +0.0000000000e+00 +4.9999998884e+02 5.0000000000e+02 1.0566000000e-01 0.0000e+00 -1.0000e+00
      994 -1    0    0    0    0 -0.0000000000e+00 -0.0000000000e+00 +0.0000000000e+00 1.3100000000e+02 1.3100000000e+02 0.0000e+00 0.0000e+00
       13  1    1    2    0    0 -7.9777102599e+00 +3.0251929169e+01 +2.0005278974e+01 3.7135500943e+01 1.0566000000e-01 0.0000e+00 1.0000e+00
      994  1    1    2    0    0 +1.0623877882e+00 +1.3040969752e+01 +1.1245780018e+02 1.7314431085e+02 1.3100000000e+02 0.0000e+00 0.0000e+00
      997  1    1    2    0    0 +6.9153224717e+00 -4.3292898921e+01 +3.6753690969e+02 4.2072018821e+02 2.0000000000e+02 0.0000e+00 0.0000e+00
</event>
<event>
 5      1 +6.7420000e-10 2.39208200e+02 7.95774700e-02 4.45582700e-01
       13 -1    0    0    0    0 +0.0000000000e+00 +0.0000000000e+00 +4.9999998884e+02 5.0000000000e+02 1.0566000000e-01 0.0000e+00 -1.0000e+00
      994 -1    0    0    0    0 -0.0000000000e+00 -0.0000000000e+00 +0.0000000000e+00 1.3100000000e+02 1.3100000000e+02 0.0000e+00 0.0000e+00
       13  1    1    2    0    0 +1.4338739877e+01 +1.6727060096e+01 +1.4211339840e+01 2.6217691447e+01 1.0566000000e-01 0.0000e+00 1.0000e+00
      994  1    1    2    0    0 -2.8457622084e+01 +4.1901983692e+01 +1.2568917238e+02 1.8847912496e+02 1.3100000000e+02 0.0000e+00 0.0000e+00
      997  1    1    2    0    0 +1.4118882207e+01 -5.8629043789e+01 +3.6009947662e+02 4.1630318360e+02 2.0000000000e+02 0.0000e+00 0.0000e+00
</event>
<event>
 5      1 +6.7420000e-10 2.36958300e+02 7.95774700e-02 4.48299100e-01
       13 -1    0    0    0    0 +0.0000000000e+00 +0.0000000000e+00 +4.9999998884e+02 5.0000000000e+02 1.0566000000e-01 0.0000e+00 -1.0000e+00
      994 -1    0    0    0    0 -0.0000000000e+00 -0.0000000000e+00 +0.0000000000e+00 1.3100000000e+02 1.3100000000e+02 0.0000e+00 0.0000e+00
       13  1    1    2    0    0 -2.9204796636e+00 -1.7258164103e+01 +9.0757677001e+01 9.2430192731e+01 1.0566000000e-01 0.0000e+00 1.0000e+00
      994  1    1    2    0    0 +1.0774244690e+01 +2.2392332275e+01 +8.7058828761e+01 1.5924113965e+02 1.3100000000e+02 0.0000e+00 0.0000e+00
      997  1    1    2    0    0 -7.8537650267e+00 -5.1341681721e+00 +3.2218348307e+02 3.7932866761e+02 2.0000000000e+02 0.0000e+00 0.0000e+00
</event>
<event>
 5      1 +6.7420000e-10 2.41101600e+02 7.95774700e-02 4.43343300e-01
       13 -1    0    0    0    0 +0.0000000000e+00 +0.0000000000e+00 +4.9999998884e+02 5.0000000000e+02 1.0566000000e-01 0.0000e+00 1.0000e+00
      994 -1    0    0    0    0 -0.0000000000e+00 -0.0000000000e+00 +0.0000000000e+00 1.3100000000e+02 1.3100000000e+02 0.0000e+00 0.0000e+00
       13  1    1    2    0    0 -2.2153479679e+01 +4.1059862732e+00 +1.0502075485e+02 1.0741045525e+02 1.0566000000e-01 0.0000e+00 -1.0000e+00
      994  1    1    2    0    0 +3.5313851661e+01 +1.0479272908e+01 +1.1053748590e+02 1.7531805118e+02 1.3100000000e+02 0.0000e+00 0.0000e+00
      997  1    1    2    0    0 -1.3160371982e+01 -1.4585259182e+01 +2.8444174809e+02 3.4827149357e+02 2.0000000000e+02 0.0000e+00 0.0000e+00
</event>
<event>
 5      1 +6.7420000e-10 2.40346800e+02 7.95774700e-02 4.44230900e-01
       13 -1    0    0    0    0 +0.0000000000e+00 +0.0000000000e+00 +4.9999998884e+02 5.0000000000e+02 1.0566000000e-01 0.0000e+00 -1.0000e+00
      994 -1    0    0    0    0 -0.0000000000e+00 -0.0000000000e+00 +0.0000000000e+00 1.3100000000e+02 1.3100000000e+02 0.0000e+00 0.0000e+00
       13  1    1    2    0    0 +2.7178703611e+01 -1.9295205394e+01 +5.2453723498e+01 6.2148138782e+01 1.0566000000e-01 0.0000e+00 1.0000e+00
      994  1    1    2    0    0 -1.4900058511e+01 +2.0702926201e+01 +9.6684430947e+01 1.6480140195e+02 1.3100000000e+02 0.0000e+00 0.0000e+00
      997  1    1    2    0    0 -1.2278645100e+01 -1.4077208074e+00 +3.5086183439e+02 4.0405045927e+02 2.0000000000e+02 0.0000e+00 0.0000e+00
</event>
<event>
 5      1 +6.7420000e-10 2.43296000e+02 7.95774700e-02 4.40799400e-01
       13 -1    0    0    0    0 +0.0000000000e+00 +0.0000000000e+00 +4.9999998884e+02 5.0000000000e+02 1.0566000000e-01 0.0000e+00 1.0000e+00
      994 -1    0    0    0    0 -0.0000000000e+00 -0.0000000000e+00 +0.0000000000e+00 1.3100000000e+02 1.3100000000e+02 0.0000e+00 0.0000e+00
       13  1    1    2    0    0 +2.4786377488e+01 -1.9597654112e+01 +5.7730086597e+01 6.5811903317e+01 1.0566000000e-01 0.0000e+00 -1.0000e+00
      994  1    1    2    0    0 +2.4978072779e+01 +1.9482716976e+00 +1.0589667363e+02 1.7030210030e+02 1.3100000000e+02 0.0000e+00 0.0000e+00
      997  1    1    2    0    0 -4.9764450267e+01 +1.7649382414e+01 +3.3637322861e+02 3.9488599638e+02 2.0000000000e+02 0.0000e+00 0.0000e+00
</event>
<event>
 5      1 +6.7420000e-10 2.43590700e+02 7.95774700e-02 4.40461800e-01
       13 -1    0    0    0    0 +0.0000000000e+00 +0.0000000000e+00 +4.9999998884e+02 5.0000000000e+02 1.0566000000e-01 0.0000e+00 -1.0000e+00
      994 -1    0    0    0    0 -0.0000000000e+00 -0.0000000000e+00 +0.0000000000e+00 1.3100000000e+02 1.3100000000e+02 0.0000e+00 0.0000e+00
       13  1    1    2    0    0 -6.7618375483e-01 -1.9951313751e+01 +2.3192435663e-01 1.9964395754e+01 1.0566000000e-01 0.0000e+00 1.0000e+00
      994  1    1    2    0    0 -1.8465882762e+01 +3.1581312549e+01 +1.2064852632e+02 1.8181153713e+02 1.3100000000e+02 0.0000e+00 0.0000e+00
      997  1    1    2    0    0 +1.9142066517e+01 -1.1629998798e+01 +3.7911953816e+02 4.2922406712e+02 2.0000000000e+02 0.0000e+00 0.0000e+00
</event>
</LesHouchesEvents>
